Generated by trjconv : CNT in water t= 144.00000
33518
    1C        C    1   2.836   2.765   4.744
    1C        C    2   2.889   2.714   4.864
    1C        C    3   2.836   2.768   4.981
    1C        C    4   2.846   2.771   4.258
    1C        C    5   2.896   2.720   4.380
    1C        C    6   2.842   2.767   4.501
    1C        C    7   3.009   2.638   4.623
    1C        C    8   2.890   2.715   4.624
    1C        C    9   3.072   2.602   4.744
    1C        C   10   3.004   2.632   4.864
    1C        C   11   3.176   2.494   4.970
    1C        C   12   3.055   2.564   4.975
    1C        C   13   2.848   2.770   3.770
    1C        C   14   2.896   2.718   3.892
    1C        C   15   2.843   2.767   4.014
    1C        C   16   3.015   2.642   4.136
    1C        C   17   2.897   2.721   4.136
    1C        C   18   3.078   2.610   4.258
    1C        C   19   3.012   2.639   4.379
    1C        C   20   3.204   2.553   4.500
    1C        C   21   3.073   2.605   4.502
    1C        C   22   3.273   2.532   4.622
    1C        C   23   3.206   2.552   4.744
    1C        C   24   3.412   2.489   4.864
    1C        C   25   3.270   2.505   4.862
    1C        C   26   3.489   2.483   4.981
    1C        C   27   2.847   2.766   3.283
    1C        C   28   2.899   2.717   3.405
    1C        C   29   2.845   2.768   3.526
    1C        C   30   3.016   2.642   3.648
    1C        C   31   2.900   2.722   3.648
    1C        C   32   3.078   2.605   3.769
    1C        C   33   3.012   2.638   3.890
    1C        C   34   3.205   2.553   4.013
    1C        C   35   3.074   2.606   4.013
    1C        C   36   3.275   2.533   4.135
    1C        C   37   3.210   2.559   4.257
    1C        C   38   3.414   2.507   4.380
    1C        C   39   3.275   2.532   4.379
    1C        C   40   3.484   2.503   4.502
    1C        C   41   3.412   2.509   4.624
    1C        C   42   3.628   2.483   4.742
    1C        C   43   3.486   2.488   4.742
    1C        C   44   3.705   2.491   4.861
    1C        C   45   3.628   2.480   4.977
    1C        C   46   2.836   2.751   2.793
    1C        C   47   2.891   2.709   2.916
    1C        C   48   2.843   2.758   3.039
    1C        C   49   3.015   2.635   3.160
    1C        C   50   2.901   2.719   3.161
    1C        C   51   3.077   2.602   3.283
    1C        C   52   3.017   2.639   3.405
    1C        C   53   3.208   2.549   3.528
    1C        C   54   3.077   2.601   3.527
    1C        C   55   3.276   2.527   3.650
    1C        C   56   3.207   2.547   3.772
    1C        C   57   3.415   2.503   3.893
    1C        C   58   3.277   2.531   3.893
    1C        C   59   3.487   2.500   4.014
    1C        C   60   3.414   2.508   4.135
    1C        C   61   3.625   2.501   4.258
    1C        C   62   3.484   2.501   4.257
    1C        C   63   3.699   2.510   4.378
    1C        C   64   3.625   2.506   4.498
    1C        C   65   3.830   2.550   4.621
    1C        C   66   3.696   2.505   4.620
    1C        C   67   3.902   2.566   4.741
    1C        C   68   3.841   2.529   4.863
    1C        C   69   4.050   2.586   4.978
    1C        C   70   3.921   2.531   4.978
    1C        C   71   2.824   2.734   2.307
    1C        C   72   2.883   2.687   2.427
    1C        C   73   2.832   2.741   2.547
    1C        C   74   3.004   2.622   2.671
    1C        C   75   2.886   2.699   2.671
    1C        C   76   3.070   2.593   2.793
    1C        C   77   3.007   2.628   2.915
    1C        C   78   3.205   2.551   3.038
    1C        C   79   3.072   2.599   3.036
    1C        C   80   3.273   2.527   3.159
    1C        C   81   3.206   2.546   3.282
    1C        C   82   3.413   2.500   3.401
    1C        C   83   3.274   2.525   3.405
    1C        C   84   3.485   2.495   3.522
    1C        C   85   3.415   2.502   3.645
    1C        C   86   3.624   2.503   3.768
    1C        C   87   3.483   2.496   3.769
    1C        C   88   3.696   2.511   3.889
    1C        C   89   3.628   2.506   4.012
    1C        C   90   3.833   2.547   4.135
    1C        C   91   3.696   2.512   4.136
    1C        C   92   3.900   2.570   4.257
    1C        C   93   3.835   2.545   4.380
    1C        C   94   4.025   2.642   4.500
    1C        C   95   3.901   2.576   4.501
    1C        C   96   4.094   2.666   4.621
    1C        C   97   4.031   2.624   4.741
    1C        C   98   4.195   2.760   4.859
    1C        C   99   4.100   2.652   4.862
    1C        C  100   4.214   2.837   4.974
    1C        C  101   2.819   2.723   2.068
    1C        C  102   2.986   2.584   2.187
    1C        C  103   2.876   2.677   2.188
    1C        C  104   3.061   2.568   2.306
    1C        C  105   3.001   2.609   2.428
    1C        C  106   3.197   2.531   2.547
    1C        C  107   3.065   2.580   2.550
    1C        C  108   3.266   2.518   2.670
    1C        C  109   3.202   2.542   2.794
    1C        C  110   3.409   2.497   2.911
    1C        C  111   3.270   2.522   2.916
    1C        C  112   3.479   2.491   3.034
    1C        C  113   3.412   2.500   3.158
    1C        C  114   3.625   2.496   3.277
    1C        C  115   3.484   2.491   3.279
    1C        C  116   3.693   2.510   3.400
    1C        C  117   3.626   2.497   3.523
    1C        C  118   3.831   2.547   3.646
    1C        C  119   3.695   2.507   3.646
    1C        C  120   3.896   2.575   3.768
    1C        C  121   3.832   2.550   3.891
    1C        C  122   4.026   2.636   4.010
    1C        C  123   3.899   2.576   4.013
    1C        C  124   4.082   2.677   4.134
    1C        C  125   4.024   2.638   4.257
    1C        C  126   4.197   2.765   4.374
    1C        C  127   4.084   2.681   4.377
    1C        C  128   4.248   2.816   4.496
    1C        C  129   4.197   2.762   4.616
    1C        C  130   4.323   2.934   4.738
    1C        C  131   4.243   2.817   4.738
    1C        C  132   4.356   3.000   4.859
    1C        C  133   4.286   2.956   4.972
    1C        C  134   3.166   2.462   2.077
    1C        C  135   3.031   2.500   2.080
    1C        C  136   3.255   2.478   2.184
    1C        C  137   3.193   2.515   2.306
    1C        C  138   3.403   2.474   2.425
    1C        C  139   3.264   2.501   2.427
    1C        C  140   3.476   2.483   2.545
    1C        C  141   3.405   2.493   2.667
    1C        C  142   3.619   2.490   2.787
    1C        C  143   3.478   2.494   2.788
    1C        C  144   3.689   2.501   2.909
    1C        C  145   3.620   2.490   3.032
    1C        C  146   3.829   2.538   3.153
    1C        C  147   3.693   2.501   3.153
    1C        C  148   3.896   2.562   3.275
    1C        C  149   3.831   2.542   3.399
    1C        C  150   4.022   2.629   3.522
    1C        C  151   3.894   2.570   3.522
    1C        C  152   4.085   2.668   3.643
    1C        C  153   4.023   2.637   3.766
    1C        C  154   4.195   2.763   3.886
    1C        C  155   4.086   2.673   3.888
    1C        C  156   4.249   2.810   4.008
    1C        C  157   4.195   2.761   4.130
    1C        C  158   4.337   2.920   4.252
    1C        C  159   4.251   2.809   4.251
    1C        C  160   4.375   2.982   4.373
    1C        C  161   4.331   2.930   4.497
    1C        C  162   4.439   3.115   4.615
    1C        C  163   4.367   2.994   4.618
    1C        C  164   4.468   3.182   4.736
    1C        C  165   4.435   3.116   4.857
    1C        C  166   4.518   3.316   4.972
    1C        C  167   4.477   3.183   4.973
    1C        C  168   3.473   2.438   2.072
    1C        C  169   3.393   2.452   2.187
    1C        C  170   3.615   2.458   2.303
    1C        C  171   3.472   2.453   2.304
    1C        C  172   3.685   2.487   2.422
    1C        C  173   3.617   2.494   2.545
    1C        C  174   3.827   2.539   2.664
    1C        C  175   3.690   2.506   2.665
    1C        C  176   3.891   2.563   2.787
    1C        C  177   3.825   2.541   2.910
    1C        C  178   4.020   2.631   3.031
    1C        C  179   3.893   2.568   3.030
    1C        C  180   4.082   2.666   3.153
    1C        C  181   4.019   2.631   3.275
    1C        C  182   4.192   2.751   3.395
    1C        C  183   4.080   2.665   3.398
    1C        C  184   4.241   2.804   3.517
    1C        C  185   4.193   2.758   3.642
    1C        C  186   4.331   2.922   3.763
    1C        C  187   4.244   2.811   3.763
    1C        C  188   4.374   2.980   3.884
    1C        C  189   4.336   2.921   4.007
    1C        C  190   4.436   3.107   4.129
    1C        C  191   4.373   2.980   4.129
    1C        C  192   4.467   3.173   4.250
    1C        C  193   4.442   3.107   4.373
    1C        C  194   4.505   3.315   4.493
    1C        C  195   4.465   3.179   4.492
    1C        C  196   4.521   3.386   4.613
    1C        C  197   4.513   3.316   4.736
    1C        C  198   4.558   3.532   4.852
    1C        C  199   4.537   3.391   4.855
    1C        C  200   4.580   3.619   4.964
    1C        C  201   3.612   2.418   2.067
    1C        C  202   3.822   2.508   2.182
    1C        C  203   3.689   2.456   2.181
    1C        C  204   3.893   2.541   2.300
    1C        C  205   3.822   2.522   2.421
    1C        C  206   4.018   2.620   2.543
    1C        C  207   3.892   2.555   2.539
    1C        C  208   4.081   2.656   2.664
    1C        C  209   4.020   2.621   2.787
    1C        C  210   4.193   2.748   2.904
    1C        C  211   4.080   2.664   2.908
    1C        C  212   4.247   2.796   3.026
    1C        C  213   4.195   2.750   3.149
    1C        C  214   4.329   2.912   3.271
    1C        C  215   4.240   2.802   3.272
    1C        C  216   4.365   2.973   3.393
    1C        C  217   4.326   2.917   3.517
    1C        C  218   4.432   3.102   3.634
    1C        C  219   4.370   2.975   3.638
    1C        C  220   4.459   3.167   3.757
    1C        C  221   4.438   3.106   3.882
    1C        C  222   4.503   3.305   4.002
    1C        C  223   4.464   3.169   4.006
    1C        C  224   4.515   3.378   4.122
    1C        C  225   4.502   3.309   4.245
    1C        C  226   4.517   3.520   4.366
    1C        C  227   4.517   3.379   4.367
    1C        C  228   4.516   3.593   4.487
    1C        C  229   4.528   3.527   4.611
    1C        C  230   4.505   3.741   4.728
    1C        C  231   4.538   3.603   4.730
    1C        C  232   4.494   3.817   4.846
    1C        C  233   4.548   3.755   4.959
    1C        C  234   4.013   2.613   2.061
    1C        C  235   3.892   2.545   2.066
    1C        C  236   4.080   2.649   2.179
    1C        C  237   4.019   2.609   2.299
    1C        C  238   4.194   2.734   2.419
    1C        C  239   4.079   2.651   2.419
    1C        C  240   4.249   2.785   2.539
    1C        C  241   4.193   2.742   2.662
    1C        C  242   4.334   2.906   2.782
    1C        C  243   4.242   2.798   2.782
    1C        C  244   4.379   2.961   2.904
    1C        C  245   4.338   2.904   3.026
    1C        C  246   4.438   3.091   3.146
    1C        C  247   4.376   2.965   3.148
    1C        C  248   4.456   3.161   3.267
    1C        C  249   4.430   3.098   3.391
    1C        C  250   4.501   3.301   3.511
    1C        C  251   4.461   3.165   3.511
    1C        C  252   4.512   3.370   3.634
    1C        C  253   4.502   3.302   3.757
    1C        C  254   4.519   3.514   3.876
    1C        C  255   4.516   3.373   3.879
    1C        C  256   4.516   3.587   3.997
    1C        C  257   4.521   3.519   4.120
    1C        C  258   4.489   3.728   4.241
    1C        C  259   4.516   3.589   4.243
    1C        C  260   4.468   3.798   4.362
    1C        C  261   4.485   3.731   4.485
    1C        C  262   4.421   3.935   4.601
    1C        C  263   4.472   3.803   4.605
    1C        C  264   4.398   4.005   4.722
    1C        C  265   4.434   3.945   4.844
    1C        C  266   4.313   4.128   4.956
    1C        C  267   4.395   4.016   4.959
    1C        C  268   4.261   2.773   2.062
    1C        C  269   4.191   2.737   2.178
    1C        C  270   4.345   2.888   2.298
    1C        C  271   4.248   2.783   2.298
    1C        C  272   4.381   2.953   2.418
    1C        C  273   4.338   2.895   2.539
    1C        C  274   4.451   3.079   2.659
    1C        C  275   4.379   2.958   2.658
    1C        C  276   4.476   3.149   2.779
    1C        C  277   4.446   3.085   2.901
    1C        C  278   4.505   3.290   3.021
    1C        C  279   4.471   3.153   3.023
    1C        C  280   4.516   3.361   3.143
    1C        C  281   4.501   3.295   3.267
    1C        C  282   4.520   3.508   3.386
    1C        C  283   4.518   3.367   3.387
    1C        C  284   4.517   3.580   3.508
    1C        C  285   4.515   3.511   3.631
    1C        C  286   4.491   3.723   3.751
    1C        C  287   4.513   3.583   3.753
    1C        C  288   4.474   3.792   3.873
    1C        C  289   4.493   3.727   3.997
    1C        C  290   4.426   3.928   4.115
    1C        C  291   4.480   3.798   4.118
    1C        C  292   4.395   3.995   4.236
    1C        C  293   4.423   3.932   4.359
    1C        C  294   4.322   4.123   4.475
    1C        C  295   4.390   3.999   4.479
    1C        C  296   4.284   4.187   4.595
    1C        C  297   4.322   4.125   4.716
    1C        C  298   4.193   4.305   4.835
    1C        C  299   4.277   4.189   4.835
    1C        C  300   4.168   4.396   4.943
    1C        C  301   4.348   2.882   2.062
    1C        C  302   4.475   3.062   2.176
    1C        C  303   4.402   2.939   2.178
    1C        C  304   4.483   3.140   2.294
    1C        C  305   4.449   3.077   2.416
    1C        C  306   4.515   3.281   2.535
    1C        C  307   4.478   3.145   2.537
    1C        C  308   4.518   3.357   2.655
    1C        C  309   4.506   3.287   2.777
    1C        C  310   4.529   3.500   2.898
    1C        C  311   4.518   3.359   2.899
    1C        C  312   4.524   3.573   3.019
    1C        C  313   4.523   3.502   3.141
    1C        C  314   4.491   3.714   3.262
    1C        C  315   4.516   3.575   3.262
    1C        C  316   4.472   3.783   3.384
    1C        C  317   4.495   3.719   3.508
    1C        C  318   4.426   3.923   3.624
    1C        C  319   4.477   3.791   3.628
    1C        C  320   4.387   3.983   3.746
    1C        C  321   4.417   3.921   3.870
    1C        C  322   4.314   4.105   3.987
    1C        C  323   4.393   3.988   3.992
    1C        C  324   4.272   4.166   4.108
    1C        C  325   4.316   4.112   4.231
    1C        C  326   4.180   4.278   4.350
    1C        C  327   4.275   4.173   4.352
    1C        C  328   4.132   4.334   4.470
    1C        C  329   4.188   4.290   4.593
    1C        C  330   4.022   4.431   4.709
    1C        C  331   4.134   4.344   4.712
    1C        C  332   3.970   4.489   4.827
    1C        C  333   4.052   4.474   4.940
    1C        C  334   4.554   3.261   2.059
    1C        C  335   4.532   3.123   2.059
    1C        C  336   4.547   3.345   2.172
    1C        C  337   4.515   3.279   2.292
    1C        C  338   4.523   3.492   2.407
    1C        C  339   4.526   3.351   2.413
    1C        C  340   4.525   3.565   2.528
    1C        C  341   4.524   3.498   2.652
    1C        C  342   4.492   3.706   2.771
    1C        C  343   4.521   3.568   2.775
    1C        C  344   4.478   3.777   2.892
    1C        C  345   4.494   3.711   3.016
    1C        C  346   4.427   3.913   3.134
    1C        C  347   4.474   3.780   3.138
    1C        C  348   4.391   3.976   3.255
    1C        C  349   4.422   3.915   3.378
    1C        C  350   4.312   4.097   3.499
    1C        C  351   4.393   3.981   3.500
    1C        C  352   4.272   4.160   3.619
    1C        C  353   4.313   4.103   3.742
    1C        C  354   4.171   4.259   3.862
    1C        C  355   4.269   4.158   3.864
    1C        C  356   4.119   4.310   3.983
    1C        C  357   4.173   4.266   4.106
    1C        C  358   4.009   4.401   4.227
    1C        C  359   4.123   4.319   4.227
    1C        C  360   3.948   4.444   4.347
    1C        C  361   4.015   4.412   4.468
    1C        C  362   3.825   4.511   4.589
    1C        C  363   3.954   4.456   4.588
    1C        C  364   3.763   4.547   4.711
    1C        C  365   3.840   4.543   4.829
    1C        C  366   3.630   4.598   4.948
    1C        C  367   3.767   4.580   4.943
    1C        C  368   4.514   3.557   2.050
    1C        C  369   4.535   3.486   2.169
    1C        C  370   4.504   3.703   2.284
    1C        C  371   4.525   3.564   2.286
    1C        C  372   4.480   3.772   2.405
    1C        C  373   4.500   3.704   2.528
    1C        C  374   4.418   3.904   2.647
    1C        C  375   4.473   3.774   2.648
    1C        C  376   4.388   3.970   2.769
    1C        C  377   4.425   3.908   2.890
    1C        C  378   4.313   4.090   3.013
    1C        C  379   4.395   3.975   3.011
    1C        C  380   4.266   4.147   3.133
    1C        C  381   4.312   4.094   3.255
    1C        C  382   4.170   4.253   3.376
    1C        C  383   4.269   4.153   3.376
    1C        C  384   4.113   4.300   3.496
    1C        C  385   4.167   4.254   3.619
    1C        C  386   4.001   4.387   3.742
    1C        C  387   4.116   4.305   3.740
    1C        C  388   3.940   4.425   3.864
    1C        C  389   4.005   4.394   3.985
    1C        C  390   3.812   4.487   4.102
    1C        C  391   3.943   4.433   4.106
    1C        C  392   3.748   4.512   4.225
    1C        C  393   3.819   4.502   4.347
    1C        C  394   3.616   4.555   4.472
    1C        C  395   3.756   4.536   4.468
    1C        C  396   3.546   4.567   4.594
    1C        C  397   3.622   4.562   4.713
    1C        C  398   3.412   4.550   4.837
    1C        C  399   3.551   4.573   4.834
    1C        C  400   3.343   4.515   4.954
    1C        C  401   4.509   3.696   2.049
    1C        C  402   4.457   3.912   2.165
    1C        C  403   4.495   3.776   2.163
    1C        C  404   4.404   3.970   2.283
    1C        C  405   4.431   3.904   2.405
    1C        C  406   4.317   4.088   2.522
    1C        C  407   4.395   3.970   2.525
    1C        C  408   4.269   4.142   2.644
    1C        C  409   4.312   4.089   2.767
    1C        C  410   4.170   4.245   2.889
    1C        C  411   4.269   4.144   2.890
    1C        C  412   4.114   4.293   3.009
    1C        C  413   4.166   4.247   3.132
    1C        C  414   3.995   4.373   3.252
    1C        C  415   4.114   4.297   3.253
    1C        C  416   3.933   4.404   3.376
    1C        C  417   3.995   4.377   3.500
    1C        C  418   3.808   4.481   3.617
    1C        C  419   3.934   4.416   3.621
    1C        C  420   3.742   4.507   3.738
    1C        C  421   3.810   4.482   3.860
    1C        C  422   3.606   4.540   3.984
    1C        C  423   3.744   4.512   3.981
    1C        C  424   3.537   4.543   4.107
    1C        C  425   3.609   4.537   4.229
    1C        C  426   3.400   4.555   4.354
    1C        C  427   3.542   4.556   4.352
    1C        C  428   3.331   4.549   4.477
    1C        C  429   3.405   4.560   4.597
    1C        C  430   3.196   4.515   4.721
    1C        C  431   3.335   4.544   4.719
    1C        C  432   3.125   4.495   4.842
    1C        C  433   3.205   4.497   4.957
    1C        C  434   4.382   4.118   2.047
    1C        C  435   4.445   3.993   2.052
    1C        C  436   4.298   4.157   2.157
    1C        C  437   4.330   4.091   2.279
    1C        C  438   4.182   4.248   2.402
    1C        C  439   4.276   4.143   2.399
    1C        C  440   4.122   4.294   2.521
    1C        C  441   4.171   4.244   2.644
    1C        C  442   3.998   4.367   2.765
    1C        C  443   4.114   4.286   2.766
    1C        C  444   3.936   4.407   2.886
    1C        C  445   3.994   4.369   3.009
    1C        C  446   3.806   4.469   3.129
    1C        C  447   3.931   4.404   3.130
    1C        C  448   3.741   4.498   3.251
    1C        C  449   3.808   4.469   3.372
    1C        C  450   3.607   4.537   3.494
    1C        C  451   3.744   4.505   3.493
    1C        C  452   3.535   4.548   3.616
    1C        C  453   3.605   4.539   3.738
    1C        C  454   3.395   4.546   3.860
    1C        C  455   3.537   4.552   3.862
    1C        C  456   3.329   4.538   3.985
    1C        C  457   3.396   4.546   4.109
    1C        C  458   3.191   4.508   4.236
    1C        C  459   3.329   4.538   4.233
    1C        C  460   3.123   4.490   4.358
    1C        C  461   3.195   4.512   4.478
    1C        C  462   3.000   4.429   4.602
    1C        C  463   3.129   4.488   4.600
    1C        C  464   2.932   4.398   4.722
    1C        C  465   2.991   4.444   4.843
    1C        C  466   2.803   4.337   4.959
    1C        C  467   2.906   4.431   4.958
    1C        C  468   4.120   4.279   2.042
    1C        C  469   4.186   4.246   2.161
    1C        C  470   4.004   4.366   2.277
    1C        C  471   4.127   4.295   2.281
    1C        C  472   3.940   4.399   2.399
    1C        C  473   4.004   4.372   2.522
    1C        C  474   3.811   4.467   2.642
    1C        C  475   3.937   4.403   2.643
    1C        C  476   3.743   4.497   2.762
    1C        C  477   3.811   4.473   2.883
    1C        C  478   3.605   4.525   3.008
    1C        C  479   3.743   4.497   3.005
    1C        C  480   3.533   4.540   3.128
    1C        C  481   3.603   4.528   3.250
    1C        C  482   3.393   4.542   3.375
    1C        C  483   3.534   4.540   3.373
    1C        C  484   3.321   4.539   3.496
    1C        C  485   3.394   4.551   3.617
    1C        C  486   3.187   4.506   3.743
    1C        C  487   3.323   4.543   3.739
    1C        C  488   3.127   4.476   3.867
    1C        C  489   3.193   4.501   3.990
    1C        C  490   3.003   4.412   4.112
    1C        C  491   3.128   4.479   4.113
    1C        C  492   2.948   4.373   4.236
    1C        C  493   2.998   4.424   4.358
    1C        C  494   2.830   4.297   4.483
    1C        C  495   2.940   4.387   4.482
    1C        C  496   2.776   4.251   4.605
    1C        C  497   2.822   4.309   4.725
    1C        C  498   2.664   4.164   4.843
    1C        C  499   2.755   4.272   4.844
    1C        C  500   2.597   4.117   4.957
    1C        C  501   4.002   4.353   2.042
    1C        C  502   3.815   4.469   2.155
    1C        C  503   3.940   4.403   2.157
    1C        C  504   3.745   4.489   2.276
    1C        C  505   3.814   4.462   2.397
    1C        C  506   3.607   4.515   2.517
    1C        C  507   3.746   4.487   2.518
    1C        C  508   3.536   4.522   2.639
    1C        C  509   3.604   4.520   2.763
    1C        C  510   3.393   4.529   2.883
    1C        C  511   3.534   4.530   2.885
    1C        C  512   3.323   4.524   3.006
    1C        C  513   3.392   4.540   3.128
    1C        C  514   3.187   4.497   3.252
    1C        C  515   3.324   4.535   3.252
    1C        C  516   3.122   4.468   3.374
    1C        C  517   3.186   4.498   3.496
    1C        C  518   2.999   4.409   3.623
    1C        C  519   3.122   4.478   3.621
    1C        C  520   2.940   4.370   3.745
    1C        C  521   3.002   4.410   3.866
    1C        C  522   2.840   4.278   3.995
    1C        C  523   2.945   4.372   3.990
    1C        C  524   2.793   4.229   4.119
    1C        C  525   2.840   4.283   4.241
    1C        C  526   2.701   4.125   4.364
    1C        C  527   2.783   4.240   4.363
    1C        C  528   2.658   4.071   4.488
    1C        C  529   2.690   4.139   4.607
    1C        C  530   2.582   3.956   4.731
    1C        C  531   2.640   4.085   4.728
    1C        C  532   2.543   3.899   4.855
    1C        C  533   2.530   3.994   4.961
    1C        C  534   3.616   4.554   2.037
    1C        C  535   3.748   4.507   2.039
    1C        C  536   3.534   4.531   2.153
    1C        C  537   3.605   4.515   2.275
    1C        C  538   3.393   4.524   2.398
    1C        C  539   3.534   4.523   2.397
    1C        C  540   3.322   4.511   2.519
    1C        C  541   3.395   4.522   2.640
    1C        C  542   3.184   4.488   2.763
    1C        C  543   3.322   4.518   2.762
    1C        C  544   3.119   4.463   2.885
    1C        C  545   3.186   4.486   3.007
    1C        C  546   3.000   4.395   3.131
    1C        C  547   3.122   4.467   3.131
    1C        C  548   2.944   4.357   3.255
    1C        C  549   2.999   4.398   3.378
    1C        C  550   2.830   4.276   3.504
    1C        C  551   2.939   4.366   3.502
    1C        C  552   2.782   4.227   3.628
    1C        C  553   2.830   4.283   3.748
    1C        C  554   2.701   4.119   3.873
    1C        C  555   2.787   4.232   3.873
    1C        C  556   2.664   4.060   3.996
    1C        C  557   2.701   4.121   4.118
    1C        C  558   2.598   3.940   4.244
    1C        C  559   2.664   4.065   4.242
    1C        C  560   2.569   3.877   4.367
    1C        C  561   2.589   3.948   4.488
    1C        C  562   2.532   3.746   4.614
    1C        C  563   2.562   3.884   4.611
    1C        C  564   2.511   3.679   4.737
    1C        C  565   2.516   3.758   4.855
    1C        C  566   2.528   3.544   4.973
    1C        C  567   2.519   3.683   4.973
    1C        C  568   3.328   4.463   2.038
    1C        C  569   3.395   4.502   2.155
    1C        C  570   3.184   4.473   2.278
    1C        C  571   3.322   4.508   2.277
    1C        C  572   3.119   4.451   2.401
    1C        C  573   3.185   4.479   2.523
    1C        C  574   2.987   4.400   2.645
    1C        C  575   3.112   4.464   2.643
    1C        C  576   2.927   4.362   2.767
    1C        C  577   2.993   4.398   2.886
    1C        C  578   2.828   4.269   3.016
    1C        C  579   2.939   4.356   3.010
    1C        C  580   2.779   4.218   3.138
    1C        C  581   2.836   4.266   3.258
    1C        C  582   2.697   4.110   3.384
    1C        C  583   2.787   4.220   3.382
    1C        C  584   2.658   4.052   3.507
    1C        C  585   2.699   4.113   3.628
    1C        C  586   2.594   3.933   3.753
    1C        C  587   2.661   4.057   3.753
    1C        C  588   2.569   3.871   3.878
    1C        C  589   2.604   3.933   4.000
    1C        C  590   2.535   3.735   4.125
    1C        C  591   2.574   3.870   4.123
    1C        C  592   2.525   3.669   4.250
    1C        C  593   2.530   3.741   4.371
    1C        C  594   2.502   3.533   4.497
    1C        C  595   2.518   3.673   4.494
    1C        C  596   2.509   3.461   4.619
    1C        C  597   2.515   3.537   4.737
    1C        C  598   2.526   3.323   4.860
    1C        C  599   2.516   3.464   4.858
    1C        C  600   2.528   3.247   4.977
    1C        C  601   3.192   4.440   2.039
    1C        C  602   2.982   4.392   2.159
    1C        C  603   3.117   4.438   2.157
    1C        C  604   2.926   4.352   2.283
    1C        C  605   2.991   4.393   2.402
    1C        C  606   2.823   4.264   2.526
    1C        C  607   2.927   4.359   2.523
    1C        C  608   2.773   4.215   2.649
    1C        C  609   2.822   4.267   2.771
    1C        C  610   2.688   4.107   2.894
    1C        C  611   2.777   4.217   2.895
    1C        C  612   2.652   4.048   3.017
    1C        C  613   2.690   4.107   3.139
    1C        C  614   2.588   3.927   3.263
    1C        C  615   2.651   4.053   3.264
    1C        C  616   2.566   3.861   3.386
    1C        C  617   2.595   3.926   3.508
    1C        C  618   2.530   3.728   3.637
    1C        C  619   2.569   3.864   3.633
    1C        C  620   2.517   3.663   3.761
    1C        C  621   2.529   3.736   3.881
    1C        C  622   2.509   3.524   4.007
    1C        C  623   2.521   3.664   4.003
    1C        C  624   2.509   3.456   4.131
    1C        C  625   2.511   3.529   4.252
    1C        C  626   2.536   3.322   4.377
    1C        C  627   2.508   3.461   4.376
    1C        C  628   2.553   3.250   4.497
    1C        C  629   2.532   3.322   4.617
    1C        C  630   2.595   3.118   4.740
    1C        C  631   2.549   3.253   4.740
    1C        C  632   2.622   3.051   4.863
    1C        C  633   2.561   3.110   4.978
    1C        C  634   2.777   4.306   2.051
    1C        C  635   2.888   4.391   2.051
    1C        C  636   2.748   4.227   2.163
    1C        C  637   2.812   4.267   2.283
    1C        C  638   2.676   4.106   2.407
    1C        C  639   2.767   4.214   2.406
    1C        C  640   2.638   4.047   2.529
    1C        C  641   2.685   4.104   2.649
    1C        C  642   2.590   3.917   2.774
    1C        C  643   2.654   4.043   2.773
    1C        C  644   2.559   3.855   2.897
    1C        C  645   2.587   3.923   3.018
    1C        C  646   2.524   3.723   3.145
    1C        C  647   2.561   3.859   3.141
    1C        C  648   2.511   3.655   3.268
    1C        C  649   2.527   3.726   3.389
    1C        C  650   2.512   3.518   3.517
    1C        C  651   2.517   3.660   3.514
    1C        C  652   2.517   3.451   3.641
    1C        C  653   2.510   3.522   3.764
    1C        C  654   2.530   3.312   3.888
    1C        C  655   2.505   3.451   3.886
    1C        C  656   2.555   3.247   4.010
    1C        C  657   2.534   3.317   4.132
    1C        C  658   2.609   3.122   4.256
    1C        C  659   2.555   3.252   4.256
    1C        C  660   2.635   3.055   4.378
    1C        C  661   2.599   3.117   4.500
    1C        C  662   2.704   2.931   4.621
    1C        C  663   2.630   3.051   4.621
    1C        C  664   2.750   2.878   4.743
    1C        C  665   2.696   2.929   4.865
    1C        C  666   2.742   2.871   4.984
    1C        C  667   2.680   4.023   2.052
    1C        C  668   2.682   4.102   2.168
    1C        C  669   2.583   3.911   2.289
    1C        C  670   2.636   4.043   2.287
    1C        C  671   2.557   3.845   2.411
    1C        C  672   2.586   3.915   2.530
    1C        C  673   2.513   3.717   2.658
    1C        C  674   2.557   3.852   2.653
    1C        C  675   2.508   3.648   2.781
    1C        C  676   2.521   3.719   2.902
    1C        C  677   2.505   3.509   3.029
    1C        C  678   2.511   3.650   3.025
    1C        C  679   2.511   3.441   3.152
    1C        C  680   2.504   3.514   3.273
    1C        C  681   2.530   3.305   3.401
    1C        C  682   2.508   3.445   3.397
    1C        C  683   2.558   3.241   3.524
    1C        C  684   2.536   3.311   3.644
    1C        C  685   2.594   3.109   3.769
    1C        C  686   2.544   3.241   3.766
    1C        C  687   2.628   3.045   3.890
    1C        C  688   2.601   3.113   4.011
    1C        C  689   2.709   2.935   4.137
    1C        C  690   2.636   3.055   4.135
    1C        C  691   2.751   2.876   4.258
    1C        C  692   2.706   2.933   4.379
    1C        C  693   2.749   2.873   4.500
    1C        C  694   2.629   3.892   2.055
    1C        C  695   2.523   3.703   2.174
    1C        C  696   2.578   3.833   2.171
    1C        C  697   2.512   3.634   2.296
    1C        C  698   2.522   3.708   2.416
    1C        C  699   2.484   3.502   2.542
    1C        C  700   2.500   3.642   2.539
    1C        C  701   2.498   3.433   2.664
    1C        C  702   2.499   3.507   2.785
    1C        C  703   2.522   3.297   2.910
    1C        C  704   2.500   3.436   2.907
    1C        C  705   2.539   3.228   3.033
    1C        C  706   2.529   3.301   3.153
    1C        C  707   2.594   3.104   3.276
    1C        C  708   2.543   3.236   3.278
    1C        C  709   2.629   3.043   3.399
    1C        C  710   2.606   3.109   3.522
    1C        C  711   2.708   2.929   3.648
    1C        C  712   2.630   3.047   3.647
    1C        C  713   2.754   2.875   3.771
    1C        C  714   2.710   2.930   3.893
    1C        C  715   2.754   2.875   4.016
    1C        C  716   2.447   3.497   2.061
    1C        C  717   2.494   3.629   2.058
    1C        C  718   2.461   3.419   2.180
    1C        C  719   2.484   3.494   2.299
    1C        C  720   2.512   3.288   2.424
    1C        C  721   2.484   3.426   2.423
    1C        C  722   2.534   3.221   2.546
    1C        C  723   2.519   3.293   2.667
    1C        C  724   2.593   3.095   2.790
    1C        C  725   2.538   3.225   2.789
    1C        C  726   2.626   3.033   2.913
    1C        C  727   2.589   3.096   3.034
    1C        C  728   2.702   2.917   3.158
    1C        C  729   2.625   3.036   3.156
    1C        C  730   2.746   2.864   3.282
    1C        C  731   2.703   2.923   3.403
    1C        C  732   2.748   2.870   3.526
    1C        C  733   2.490   3.194   2.072
    1C        C  734   2.491   3.279   2.184
    1C        C  735   2.587   3.084   2.306
    1C        C  736   2.528   3.214   2.304
    1C        C  737   2.620   3.021   2.428
    1C        C  738   2.587   3.090   2.547
    1C        C  739   2.698   2.909   2.667
    1C        C  740   2.621   3.027   2.669
    1C        C  741   2.741   2.856   2.791
    1C        C  742   2.701   2.914   2.913
    1C        C  743   2.749   2.863   3.036
    1C        C  744   2.538   3.064   2.076
    1C        C  745   2.684   2.894   2.183
    1C        C  746   2.606   3.011   2.186
    1C        C  747   2.729   2.839   2.305
    1C        C  748   2.686   2.897   2.427
    1C        C  749   2.736   2.844   2.548
    1C        C  750   2.737   2.835   2.067
    1C        C  751   3.654   2.315   1.970
    1C        O  752   3.685   2.196   1.999
    1C        O  753   3.660   2.340   1.833
    1C        C  754   4.599   3.049   1.950
    1C        O  755   4.547   3.055   1.835
    1C        O  756   4.735   3.015   1.948
    1C        C  757   4.453   4.216   1.962
    1C        O  758   4.516   4.317   2.004
    1C        O  759   4.500   4.185   1.834
    1C        C  760   3.585   4.653   1.932
    1C        O  761   3.568   4.775   1.959
    1C        O  762   3.551   4.618   1.800
    1C        C  763   2.878   4.498   1.948
    1C        O  764   2.901   4.478   1.826
    1C        O  765   2.782   4.600   1.954
    1C        C  766   2.333   3.486   1.968
    1C        O  767   2.344   3.451   1.848
    1C        O  768   2.203   3.457   2.012
    1C        C  769   4.664   3.585   5.081
    1C        O  770   4.627   3.599   5.201
    1C        O  771   4.800   3.557   5.067
    1C        C  772   4.282   4.462   5.011
    1C        O  773   4.278   4.500   5.131
    1C        O  774   4.401   4.502   4.950
    1C        C  775   4.137   2.513   5.073
    1C        O  776   4.246   2.461   5.039
    1C        O  777   4.108   2.488   5.208
    1C        C  778   2.885   4.545   5.050
    1C        O  779   2.818   4.648   5.023
    1C        O  780   2.945   4.554   5.176
    1C        C  781   2.468   3.035   5.066
    1C        O  782   2.352   3.005   5.026
    1C        O  783   2.495   3.031   5.202
    1C        C  784   2.415   3.986   5.055
    1C        O  785   2.302   4.035   5.030
    1C        O  786   2.438   3.962   5.191
    1C        C  787   2.944   2.407   2.005
    1C        O  788   2.878   2.445   1.905
    1C        O  789   2.963   2.270   2.015
    1C        C  790   3.184   2.382   5.066
    1C        O  791   3.151   2.262   5.042
    1C        O  792   3.219   2.399   5.200
    1C        H  793   4.248   3.039   5.028
    1C        H  794   4.147   2.821   5.057
    1C        H  795   4.493   3.127   5.063
    1C        H  796   4.540   3.369   5.062
    1C        H  797   4.565   3.818   5.044
    1C        H  798   4.434   3.990   5.055
    1C        H  799   4.246   4.145   5.038
    1C        H  800   4.039   4.548   5.017
    1C        H  801   3.817   4.651   5.006
    1C        H  802   3.593   4.665   5.023
    1C        H  803   3.394   4.499   5.046
    1C        H  804   3.172   4.448   5.046
    1C        H  805   3.885   2.477   5.063
    1C        H  806   3.675   2.444   5.066
    1C        H  807   3.032   2.603   5.072
    1C        H  808   3.440   2.466   5.074
    1C        H  809   2.849   2.717   5.074
    1C        H  810   2.716   2.916   5.077
    1C        H  811   2.471   3.281   5.060
    1C        H  812   2.514   3.495   5.067
    1C        H  813   2.554   3.732   5.061
    1C        H  814   2.627   4.147   5.055
    1C        H  815   2.784   4.285   5.051
    1C        H  816   2.732   2.884   1.972
    1C        H  817   2.803   2.656   1.987
    1C        H  818   3.206   2.440   1.980
    1C        H  819   3.429   2.476   1.982
    1C        H  820   3.862   2.502   1.972
    1C        H  821   4.042   2.649   1.965
    1C        H  822   4.266   2.704   1.981
    1C        H  823   4.375   2.922   1.967
    1C        H  824   4.582   3.305   1.966
    1C        H  825   4.504   3.506   1.957
    1C        H  826   4.507   3.744   1.953
    1C        H  827   3.814   4.555   1.970
    1C        H  828   3.980   4.398   1.947
    1C        H  829   4.152   4.226   1.955
    1C        H  830   4.502   3.968   1.964
    1C        H  831   2.669   3.836   1.973
    1C        H  832   2.733   4.053   1.964
    1C        H  833   2.699   4.324   1.979
    1C        H  834   3.386   4.412   1.965
    1C        H  835   3.146   4.386   1.958
    1C        H  836   2.504   2.994   2.002
    1C        H  837   2.458   3.225   1.975
    1C        H  838   2.524   3.664   1.962
    2V3OU   H29  839   2.797   3.538   1.594
    2V3OU   C27  840   2.783   3.497   1.698
    2V3OU   H27  841   2.723   3.569   1.760
    2V3OU   H28  842   2.721   3.404   1.684
    2V3OU   O11  843   2.909   3.475   1.761
    2V3OU   C15  844   2.919   3.400   1.877
    2V3OU   C13  845   3.048   3.375   1.928
    2V3OU   C14  846   3.077   3.267   2.013
    2V3OU   C16  847   2.971   3.186   2.052
    2V3OU    H6  848   2.987   3.104   2.124
    2V3OU   C12  849   3.214   3.227   2.052
    2V3OU    O2  850   3.235   3.119   2.111
    2V3OU   C10  851   3.325   3.308   2.001
    2V3OU    C8  852   3.455   3.270   2.030
    2V3OU   O10  853   3.491   3.152   2.088
    2V3OU   H26  854   3.401   3.116   2.097
    2V3OU    C6  855   3.566   3.351   1.990
    2V3OU    C5  856   3.537   3.469   1.921
    2V3OU    C4  857   3.702   3.292   2.003
    2V3OU    H4  858   3.722   3.234   2.098
    2V3OU    H5  859   3.711   3.223   1.915
    2V3OU    C2  860   3.815   3.396   1.994
    2V3OU    O6  861   3.808   3.478   2.111
    2V3OU   H21  862   3.761   3.558   2.081
    2V3OU    C3  863   3.783   3.494   1.882
    2V3OU    H2  864   3.866   3.569   1.880
    2V3OU    H3  865   3.783   3.429   1.791
    2V3OU   C25  866   3.952   3.328   1.984
    2V3OU    O7  867   4.005   3.300   1.877
    2V3OU   C26  868   4.026   3.288   2.111
    2V3OU   H22  869   4.064   3.384   2.155
    2V3OU   H23  870   4.115   3.226   2.084
    2V3OU    O8  871   3.965   3.207   2.209
    2V3OU   H24  872   3.922   3.257   2.281
    2V3OU    C1  873   3.648   3.564   1.889
    2V3OU    H1  874   3.629   3.619   1.792
    2V3OU    O3  875   3.657   3.650   2.003
    2V3OU   C19  876   3.617   3.786   1.983
    2V3OU    H9  877   3.524   3.802   1.920
    2V3OU    O4  878   3.711   3.844   1.895
    2V3OU   C20  879   3.841   3.873   1.946
    2V3OU   H10  880   3.888   3.771   1.955
    2V3OU   C24  881   3.610   3.854   2.120
    2V3OU   H16  882   3.540   3.796   2.186
    2V3OU   H17  883   3.568   3.955   2.098
    2V3OU   C23  884   3.750   3.873   2.179
    2V3OU   H15  885   3.793   3.769   2.200
    2V3OU    N1  886   3.733   3.958   2.296
    2V3OU   H19  887   3.798   3.924   2.363
    2V3OU   H20  888   3.647   3.934   2.341
    2V3OU   C21  889   3.848   3.944   2.082
    2V3OU   H11  890   3.951   3.930   2.125
    2V3OU    O5  891   3.823   4.084   2.076
    2V3OU   H18  892   3.780   4.106   2.160
    2V3OU   C22  893   3.908   3.951   1.834
    2V3OU   H12  894   3.858   4.050   1.820
    2V3OU   H13  895   3.906   3.889   1.740
    2V3OU   H14  896   4.018   3.962   1.852
    2V3OU   C11  897   3.160   3.468   1.904
    2V3OU    O1  898   3.137   3.587   1.873
    2V3OU    C9  899   3.300   3.427   1.927
    2V3OU    C7  900   3.405   3.507   1.884
    2V3OU    O9  901   3.386   3.614   1.799
    2V3OU   H25  902   3.291   3.623   1.778
    2V3OU   C17  903   2.815   3.315   1.917
    2V3OU    H7  904   2.713   3.346   1.896
    2V3OU   C18  905   2.844   3.209   2.002
    2V3OU    H8  906   2.756   3.147   2.028
    3SOL     OW  907   2.427   4.182   0.998
    3SOL    HW1  908   2.501   4.234   1.040
    3SOL    HW2  909   2.367   4.244   0.948
    4SOL     OW  910   6.533   5.503   1.957
    4SOL    HW1  911   6.572   5.556   2.032
    4SOL    HW2  912   6.596   5.429   1.932
    5SOL     OW  913   3.781   1.537   2.148
    5SOL    HW1  914   3.752   1.481   2.227
    5SOL    HW2  915   3.870   1.506   2.117
    6SOL     OW  916   3.968   1.923   2.372
    6SOL    HW1  917   3.902   1.876   2.431
    6SOL    HW2  918   3.920   1.986   2.312
    7SOL     OW  919   6.285   2.924   1.349
    7SOL    HW1  920   6.312   3.014   1.316
    7SOL    HW2  921   6.262   2.929   1.446
    8SOL     OW  922   2.272   6.595   5.126
    8SOL    HW1  923   2.362   6.553   5.141
    8SOL    HW2  924   2.273   6.689   5.160
    9SOL     OW  925   1.123   5.360   5.810
    9SOL    HW1  926   1.192   5.421   5.847
    9SOL    HW2  927   1.167   5.289   5.755
   10SOL     OW  928   0.863   4.422   5.592
   10SOL    HW1  929   0.873   4.514   5.556
   10SOL    HW2  930   0.770   4.410   5.628
   11SOL     OW  931   2.715   0.373   0.298
   11SOL    HW1  932   2.754   0.413   0.381
   11SOL    HW2  933   2.684   0.446   0.237
   12SOL     OW  934   4.464   6.254   3.875
   12SOL    HW1  935   4.402   6.213   3.942
   12SOL    HW2  936   4.457   6.204   3.788
   13SOL     OW  937   3.793   6.031   4.500
   13SOL    HW1  938   3.867   5.980   4.455
   13SOL    HW2  939   3.824   6.064   4.589
   14SOL     OW  940   4.508   5.946   6.599
   14SOL    HW1  941   4.480   6.038   6.629
   14SOL    HW2  942   4.427   5.889   6.588
   15SOL     OW  943   1.465   5.740   6.992
   15SOL    HW1  944   1.516   5.667   0.018
   15SOL    HW2  945   1.399   5.780   0.035
   16SOL     OW  946   6.026   2.096   5.369
   16SOL    HW1  947   5.939   2.059   5.401
   16SOL    HW2  948   6.016   2.194   5.352
   17SOL     OW  949   5.340   6.159   4.922
   17SOL    HW1  950   5.431   6.191   4.946
   17SOL    HW2  951   5.288   6.140   5.006
   18SOL     OW  952   2.842   1.724   6.752
   18SOL    HW1  953   2.837   1.781   6.670
   18SOL    HW2  954   2.824   1.780   6.833
   19SOL     OW  955   6.687   6.804   3.190
   19SOL    HW1  956   6.647   6.825   3.280
   19SOL    HW2  957   6.668   6.709   3.168
   20SOL     OW  958   3.530   1.220   4.186
   20SOL    HW1  959   3.527   1.158   4.107
   20SOL    HW2  960   3.478   1.303   4.166
   21SOL     OW  961   2.926   2.135   2.745
   21SOL    HW1  962   2.879   2.054   2.712
   21SOL    HW2  963   2.998   2.108   2.809
   22SOL     OW  964   2.008   0.085   6.705
   22SOL    HW1  965   1.925   0.041   6.670
   22SOL    HW2  966   2.029   0.050   6.796
   23SOL     OW  967   4.684   6.465   3.393
   23SOL    HW1  968   4.678   6.383   3.336
   23SOL    HW2  969   4.631   6.539   3.351
   24SOL     OW  970   5.223   1.056   4.115
   24SOL    HW1  971   5.207   1.153   4.129
   24SOL    HW2  972   5.304   1.043   4.058
   25SOL     OW  973   3.117   5.857   6.281
   25SOL    HW1  974   3.102   5.949   6.315
   25SOL    HW2  975   3.114   5.857   6.181
   26SOL     OW  976   6.045   1.080   1.191
   26SOL    HW1  977   6.094   1.106   1.274
   26SOL    HW2  978   5.996   1.159   1.155
   27SOL     OW  979   0.407   0.824   2.153
   27SOL    HW1  980   0.309   0.847   2.157
   27SOL    HW2  981   0.455   0.895   2.101
   28SOL     OW  982   4.066   1.038   0.465
   28SOL    HW1  983   4.148   1.028   0.409
   28SOL    HW2  984   4.088   1.093   0.546
   29SOL     OW  985   5.211   2.456   2.010
   29SOL    HW1  986   5.204   2.488   2.105
   29SOL    HW2  987   5.126   2.409   1.985
   30SOL     OW  988   3.019   7.007   5.406
   30SOL    HW1  989   2.973   6.919   5.401
   30SOL    HW2  990   3.077   7.019   5.326
   31SOL     OW  991   0.977   1.120   5.629
   31SOL    HW1  992   0.884   1.158   5.638
   31SOL    HW2  993   1.043   1.188   5.660
   32SOL     OW  994   0.677   2.090   2.787
   32SOL    HW1  995   0.592   2.137   2.763
   32SOL    HW2  996   0.655   2.006   2.837
   33SOL     OW  997   1.805   2.887   6.760
   33SOL    HW1  998   1.750   2.922   6.836
   33SOL    HW2  999   1.896   2.928   6.764
   34SOL     OW 1000   2.119   0.843   4.335
   34SOL    HW1 1001   2.128   0.914   4.265
   34SOL    HW2 1002   2.052   0.775   4.304
   35SOL     OW 1003   4.194   2.232   6.665
   35SOL    HW1 1004   4.246   2.238   6.750
   35SOL    HW2 1005   4.120   2.166   6.675
   36SOL     OW 1006   1.112   0.800   6.309
   36SOL    HW1 1007   1.172   0.760   6.240
   36SOL    HW2 1008   1.115   0.899   6.302
   37SOL     OW 1009   2.236   0.500   0.656
   37SOL    HW1 1010   2.285   0.445   0.723
   37SOL    HW2 1011   2.192   0.577   0.702
   38SOL     OW 1012   0.355   5.895   2.979
   38SOL    HW1 1013   0.293   5.914   2.902
   38SOL    HW2 1014   0.315   5.825   3.037
   39SOL     OW 1015   6.692   4.153   6.689
   39SOL    HW1 1016   6.645   4.132   6.604
   39SOL    HW2 1017   6.718   4.250   6.690
   40SOL     OW 1018   6.197   2.477   1.774
   40SOL    HW1 1019   6.267   2.483   1.845
   40SOL    HW2 1020   6.129   2.549   1.788
   41SOL     OW 1021   1.559   6.474   4.118
   41SOL    HW1 1022   1.639   6.524   4.085
   41SOL    HW2 1023   1.477   6.511   4.075
   42SOL     OW 1024   3.189   6.578   6.190
   42SOL    HW1 1025   3.113   6.577   6.255
   42SOL    HW2 1026   3.275   6.565   6.240
   43SOL     OW 1027   5.642   6.167   5.912
   43SOL    HW1 1028   5.561   6.109   5.916
   43SOL    HW2 1029   5.624   6.246   5.854
   44SOL     OW 1030   6.226   2.569   6.712
   44SOL    HW1 1031   6.295   2.629   6.672
   44SOL    HW2 1032   6.271   2.498   6.766
   45SOL     OW 1033   3.108   0.671   3.857
   45SOL    HW1 1034   3.105   0.588   3.912
   45SOL    HW2 1035   3.159   0.653   3.773
   46SOL     OW 1036   0.976   3.665   4.393
   46SOL    HW1 1037   0.924   3.680   4.478
   46SOL    HW2 1038   1.010   3.571   4.391
   47SOL     OW 1039   5.444   3.565   3.367
   47SOL    HW1 1040   5.542   3.572   3.389
   47SOL    HW2 1041   5.431   3.572   3.268
   48SOL     OW 1042   0.877   2.901   4.624
   48SOL    HW1 1043   0.778   2.907   4.630
   48SOL    HW2 1044   0.917   2.992   4.637
   49SOL     OW 1045   4.603   3.977   1.707
   49SOL    HW1 1046   4.559   4.049   1.761
   49SOL    HW2 1047   4.684   3.944   1.754
   50SOL     OW 1048   6.169   2.358   5.448
   50SOL    HW1 1049   6.216   2.342   5.535
   50SOL    HW2 1050   6.113   2.440   5.456
   51SOL     OW 1051   3.163   5.819   2.582
   51SOL    HW1 1052   3.083   5.874   2.561
   51SOL    HW2 1053   3.148   5.769   2.667
   52SOL     OW 1054   4.288   1.882   3.476
   52SOL    HW1 1055   4.202   1.835   3.455
   52SOL    HW2 1056   4.338   1.830   3.545
   53SOL     OW 1057   4.671   0.353   4.135
   53SOL    HW1 1058   4.607   0.401   4.075
   53SOL    HW2 1059   4.673   0.399   4.224
   54SOL     OW 1060   3.028   5.070   6.684
   54SOL    HW1 1061   3.084   5.021   6.617
   54SOL    HW2 1062   3.084   5.094   6.763
   55SOL     OW 1063   3.627   1.244   6.405
   55SOL    HW1 1064   3.695   1.314   6.384
   55SOL    HW2 1065   3.546   1.288   6.445
   56SOL     OW 1066   1.552   0.491   1.410
   56SOL    HW1 1067   1.617   0.421   1.379
   56SOL    HW2 1068   1.602   0.576   1.428
   57SOL     OW 1069   4.949   0.228   0.783
   57SOL    HW1 1070   4.944   0.140   0.829
   57SOL    HW2 1071   5.014   0.222   0.707
   58SOL     OW 1072   0.507   6.200   5.944
   58SOL    HW1 1073   0.598   6.238   5.929
   58SOL    HW2 1074   0.509   6.138   6.022
   59SOL     OW 1075   1.612   1.229   6.311
   59SOL    HW1 1076   1.686   1.187   6.258
   59SOL    HW2 1077   1.607   1.327   6.289
   60SOL     OW 1078   5.504   0.637   5.659
   60SOL    HW1 1079   5.500   0.656   5.757
   60SOL    HW2 1080   5.591   0.668   5.623
   61SOL     OW 1081   5.078   1.515   4.675
   61SOL    HW1 1082   4.986   1.554   4.663
   61SOL    HW2 1083   5.095   1.447   4.603
   62SOL     OW 1084   0.672   1.337   3.748
   62SOL    HW1 1085   0.612   1.327   3.827
   62SOL    HW2 1086   0.677   1.250   3.698
   63SOL     OW 1087   6.213   1.698   3.863
   63SOL    HW1 1088   6.213   1.602   3.834
   63SOL    HW2 1089   6.215   1.757   3.781
   64SOL     OW 1090   0.482   4.145   6.691
   64SOL    HW1 1091   0.398   4.140   6.637
   64SOL    HW2 1092   0.488   4.064   6.750
   65SOL     OW 1093   6.576   4.522   4.897
   65SOL    HW1 1094   6.517   4.582   4.951
   65SOL    HW2 1095   6.533   4.432   4.890
   66SOL     OW 1096   3.447   0.534   6.887
   66SOL    HW1 1097   3.524   0.472   6.872
   66SOL    HW2 1098   3.481   0.622   6.919
   67SOL     OW 1099   5.534   5.625   5.246
   67SOL    HW1 1100   5.592   5.585   5.176
   67SOL    HW2 1101   5.463   5.559   5.273
   68SOL     OW 1102   6.930   1.248   6.833
   68SOL    HW1 1103   6.989   1.229   6.754
   68SOL    HW2 1104   6.934   1.171   6.896
   69SOL     OW 1105   1.750   4.003   6.561
   69SOL    HW1 1106   1.818   3.931   6.552
   69SOL    HW2 1107   1.715   4.005   6.655
   70SOL     OW 1108   6.181   5.364   2.924
   70SOL    HW1 1109   6.134   5.325   3.003
   70SOL    HW2 1110   6.149   5.457   2.908
   71SOL     OW 1111   2.891   2.002   3.067
   71SOL    HW1 1112   2.841   2.010   3.154
   71SOL    HW2 1113   2.955   1.926   3.073
   72SOL     OW 1114   2.620   6.300   4.754
   72SOL    HW1 1115   2.635   6.278   4.658
   72SOL    HW2 1116   2.666   6.233   4.812
   73SOL     OW 1117   3.029   1.782   0.244
   73SOL    HW1 1118   2.957   1.850   0.258
   73SOL    HW2 1119   3.038   1.726   0.327
   74SOL     OW 1120   5.569   6.675   6.749
   74SOL    HW1 1121   5.551   6.702   6.654
   74SOL    HW2 1122   5.523   6.738   6.811
   75SOL     OW 1123   3.996   5.807   5.988
   75SOL    HW1 1124   3.982   5.750   5.906
   75SOL    HW2 1125   4.018   5.749   6.066
   76SOL     OW 1126   1.570   2.474   1.114
   76SOL    HW1 1127   1.532   2.554   1.162
   76SOL    HW2 1128   1.564   2.489   1.016
   77SOL     OW 1129   4.725   5.787   4.229
   77SOL    HW1 1130   4.694   5.695   4.207
   77SOL    HW2 1131   4.780   5.784   4.312
   78SOL     OW 1132   6.043   6.716   5.922
   78SOL    HW1 1133   6.062   6.798   5.866
   78SOL    HW2 1134   5.981   6.656   5.872
   79SOL     OW 1135   3.142   6.977   0.370
   79SOL    HW1 1136   3.144   6.923   0.454
   79SOL    HW2 1137   3.082   0.036   0.382
   80SOL     OW 1138   5.950   0.943   4.314
   80SOL    HW1 1139   5.936   0.901   4.225
   80SOL    HW2 1140   5.876   1.008   4.332
   81SOL     OW 1141   2.286   0.159   2.539
   81SOL    HW1 1142   2.227   0.187   2.615
   81SOL    HW2 1143   2.360   0.226   2.529
   82SOL     OW 1144   6.850   5.106   0.444
   82SOL    HW1 1145   6.781   5.083   0.375
   82SOL    HW2 1146   6.932   5.052   0.428
   83SOL     OW 1147   6.569   0.135   0.808
   83SOL    HW1 1148   6.643   0.190   0.769
   83SOL    HW2 1149   6.489   0.194   0.822
   84SOL     OW 1150   4.888   3.523   3.387
   84SOL    HW1 1151   4.876   3.468   3.470
   84SOL    HW2 1152   4.884   3.465   3.307
   85SOL     OW 1153   1.184   1.810   5.134
   85SOL    HW1 1154   1.255   1.879   5.151
   85SOL    HW2 1155   1.226   1.721   5.118
   86SOL     OW 1156   1.062   0.352   5.564
   86SOL    HW1 1157   1.074   0.347   5.663
   86SOL    HW2 1158   0.968   0.381   5.543
   87SOL     OW 1159   4.675   2.754   0.828
   87SOL    HW1 1160   4.758   2.698   0.826
   87SOL    HW2 1161   4.697   2.848   0.803
   88SOL     OW 1162   4.378   1.678   6.849
   88SOL    HW1 1163   4.302   1.742   6.847
   88SOL    HW2 1164   4.346   1.587   6.824
   89SOL     OW 1165   1.616   2.976   6.518
   89SOL    HW1 1166   1.699   2.966   6.462
   89SOL    HW2 1167   1.606   3.072   6.545
   90SOL     OW 1168   4.745   6.935   3.877
   90SOL    HW1 1169   4.710   0.009   3.884
   90SOL    HW2 1170   4.704   6.891   3.797
   91SOL     OW 1171   4.471   4.633   4.021
   91SOL    HW1 1172   4.395   4.588   4.067
   91SOL    HW2 1173   4.541   4.658   4.089
   92SOL     OW 1174   3.054   4.559   0.191
   92SOL    HW1 1175   3.041   4.650   0.230
   92SOL    HW2 1176   3.025   4.490   0.257
   93SOL     OW 1177   2.571   4.659   6.411
   93SOL    HW1 1178   2.507   4.666   6.334
   93SOL    HW2 1179   2.638   4.733   6.404
   94SOL     OW 1180   2.488   6.027   6.147
   94SOL    HW1 1181   2.557   5.955   6.136
   94SOL    HW2 1182   2.397   5.985   6.146
   95SOL     OW 1183   0.672   1.912   3.499
   95SOL    HW1 1184   0.685   1.835   3.437
   95SOL    HW2 1185   0.574   1.935   3.503
   96SOL     OW 1186   2.987   6.824   5.678
   96SOL    HW1 1187   2.929   6.744   5.697
   96SOL    HW2 1188   3.001   6.832   5.580
   97SOL     OW 1189   0.441   4.042   5.788
   97SOL    HW1 1190   0.395   3.956   5.767
   97SOL    HW2 1191   0.538   4.035   5.765
   98SOL     OW 1192   6.413   3.757   0.022
   98SOL    HW1 1193   6.421   3.767   6.942
   98SOL    HW2 1194   6.344   3.689   0.044
   99SOL     OW 1195   4.355   4.015   1.135
   99SOL    HW1 1196   4.360   4.006   1.234
   99SOL    HW2 1197   4.360   4.111   1.110
  100SOL     OW 1198   0.614   6.724   6.159
  100SOL    HW1 1199   0.586   6.649   6.218
  100SOL    HW2 1200   0.606   6.696   6.063
  101SOL     OW 1201   1.191   5.824   2.743
  101SOL    HW1 1202   1.111   5.820   2.683
  101SOL    HW2 1203   1.236   5.913   2.733
  102SOL     OW 1204   5.047   0.992   2.405
  102SOL    HW1 1205   5.030   0.914   2.346
  102SOL    HW2 1206   5.089   1.066   2.353
  103SOL     OW 1207   3.912   0.910   2.204
  103SOL    HW1 1208   3.844   0.838   2.209
  103SOL    HW2 1209   4.000   0.876   2.238
  104SOL     OW 1210   0.206   5.156   3.034
  104SOL    HW1 1211   0.124   5.191   3.080
  104SOL    HW2 1212   0.282   5.220   3.047
  105SOL     OW 1213   6.713   1.697   6.669
  105SOL    HW1 1214   6.634   1.698   6.730
  105SOL    HW2 1215   6.797   1.693   6.722
  106SOL     OW 1216   3.205   6.649   5.455
  106SOL    HW1 1217   3.180   6.552   5.450
  106SOL    HW2 1218   3.304   6.658   5.446
  107SOL     OW 1219   1.670   2.266   1.904
  107SOL    HW1 1220   1.643   2.227   1.992
  107SOL    HW2 1221   1.600   2.244   1.835
  108SOL     OW 1222   4.418   4.827   6.548
  108SOL    HW1 1223   4.348   4.873   6.493
  108SOL    HW2 1224   4.508   4.854   6.514
  109SOL     OW 1225   0.534   0.578   1.288
  109SOL    HW1 1226   0.521   0.662   1.342
  109SOL    HW2 1227   0.629   0.549   1.295
  110SOL     OW 1228   4.036   6.464   5.880
  110SOL    HW1 1229   4.061   6.425   5.791
  110SOL    HW2 1230   3.948   6.427   5.909
  111SOL     OW 1231   3.857   0.543   4.939
  111SOL    HW1 1232   3.831   0.624   4.887
  111SOL    HW2 1233   3.776   0.506   4.985
  112SOL     OW 1234   6.257   6.375   6.095
  112SOL    HW1 1235   6.227   6.470   6.107
  112SOL    HW2 1236   6.336   6.373   6.033
  113SOL     OW 1237   6.787   4.852   2.968
  113SOL    HW1 1238   6.693   4.839   2.997
  113SOL    HW2 1239   6.792   4.929   2.905
  114SOL     OW 1240   0.921   6.771   0.779
  114SOL    HW1 1241   0.959   6.836   0.713
  114SOL    HW2 1242   0.969   6.781   0.866
  115SOL     OW 1243   4.453   1.259   4.517
  115SOL    HW1 1244   4.414   1.276   4.426
  115SOL    HW2 1245   4.537   1.206   4.507
  116SOL     OW 1246   6.073   5.355   2.153
  116SOL    HW1 1247   6.150   5.389   2.098
  116SOL    HW2 1248   6.014   5.298   2.096
  117SOL     OW 1249   0.805   1.592   6.077
  117SOL    HW1 1250   0.707   1.598   6.095
  117SOL    HW2 1251   0.834   1.496   6.084
  118SOL     OW 1252   0.557   1.676   2.175
  118SOL    HW1 1253   0.583   1.752   2.234
  118SOL    HW2 1254   0.567   1.590   2.224
  119SOL     OW 1255   1.049   2.071   6.405
  119SOL    HW1 1256   1.099   2.137   6.350
  119SOL    HW2 1257   0.982   2.023   6.348
  120SOL     OW 1258   6.631   0.138   0.307
  120SOL    HW1 1259   6.544   0.118   0.353
  120SOL    HW2 1260   6.677   0.052   0.285
  121SOL     OW 1261   2.631   3.523   6.978
  121SOL    HW1 1262   2.606   3.477   0.043
  121SOL    HW2 1263   2.649   3.455   6.907
  122SOL     OW 1264   1.643   4.536   6.105
  122SOL    HW1 1265   1.557   4.485   6.111
  122SOL    HW2 1266   1.711   4.495   6.165
  123SOL     OW 1267   0.713   1.840   1.638
  123SOL    HW1 1268   0.723   1.747   1.675
  123SOL    HW2 1269   0.802   1.872   1.606
  124SOL     OW 1270   5.220   3.026   0.141
  124SOL    HW1 1271   5.237   3.114   0.187
  124SOL    HW2 1272   5.172   2.965   0.204
  125SOL     OW 1273   2.308   1.630   2.312
  125SOL    HW1 1274   2.288   1.644   2.409
  125SOL    HW2 1275   2.365   1.548   2.302
  126SOL     OW 1276   2.872   4.626   0.832
  126SOL    HW1 1277   2.788   4.571   0.830
  126SOL    HW2 1278   2.860   4.703   0.895
  127SOL     OW 1279   0.240   4.956   6.265
  127SOL    HW1 1280   0.310   5.007   6.214
  127SOL    HW2 1281   0.280   4.874   6.304
  128SOL     OW 1282   4.072   2.791   1.306
  128SOL    HW1 1283   4.115   2.766   1.219
  128SOL    HW2 1284   4.140   2.785   1.380
  129SOL     OW 1285   4.758   3.758   5.926
  129SOL    HW1 1286   4.748   3.845   5.974
  129SOL    HW2 1287   4.814   3.696   5.980
  130SOL     OW 1288   0.512   1.073   4.221
  130SOL    HW1 1289   0.564   1.096   4.139
  130SOL    HW2 1290   0.490   1.157   4.271
  131SOL     OW 1291   5.677   1.241   2.163
  131SOL    HW1 1292   5.704   1.337   2.170
  131SOL    HW2 1293   5.590   1.227   2.210
  132SOL     OW 1294   2.108   3.048   0.669
  132SOL    HW1 1295   2.116   2.995   0.753
  132SOL    HW2 1296   2.014   3.044   0.635
  133SOL     OW 1297   5.286   6.733   3.460
  133SOL    HW1 1298   5.301   6.649   3.512
  133SOL    HW2 1299   5.315   6.811   3.515
  134SOL     OW 1300   5.932   2.249   3.035
  134SOL    HW1 1301   5.929   2.310   2.956
  134SOL    HW2 1302   6.001   2.282   3.100
  135SOL     OW 1303   5.470   2.576   2.188
  135SOL    HW1 1304   5.492   2.484   2.220
  135SOL    HW2 1305   5.370   2.588   2.189
  136SOL     OW 1306   3.949   3.777   6.389
  136SOL    HW1 1307   3.912   3.827   6.311
  136SOL    HW2 1308   3.874   3.737   6.442
  137SOL     OW 1309   4.864   0.765   5.147
  137SOL    HW1 1310   4.845   0.699   5.219
  137SOL    HW2 1311   4.959   0.796   5.154
  138SOL     OW 1312   0.432   4.510   3.702
  138SOL    HW1 1313   0.459   4.420   3.737
  138SOL    HW2 1314   0.505   4.576   3.722
  139SOL     OW 1315   2.361   6.232   5.117
  139SOL    HW1 1316   2.268   6.198   5.102
  139SOL    HW2 1317   2.425   6.155   5.121
  140SOL     OW 1318   0.238   6.165   3.303
  140SOL    HW1 1319   0.168   6.106   3.264
  140SOL    HW2 1320   0.283   6.217   3.230
  141SOL     OW 1321   6.559   2.947   5.573
  141SOL    HW1 1322   6.539   3.038   5.608
  141SOL    HW2 1323   6.549   2.880   5.647
  142SOL     OW 1324   1.582   5.744   0.434
  142SOL    HW1 1325   1.645   5.668   0.452
  142SOL    HW2 1326   1.586   5.809   0.510
  143SOL     OW 1327   5.564   4.091   1.779
  143SOL    HW1 1328   5.583   4.145   1.861
  143SOL    HW2 1329   5.488   4.028   1.797
  144SOL     OW 1330   1.180   6.765   6.622
  144SOL    HW1 1331   1.239   6.685   6.634
  144SOL    HW2 1332   1.151   6.771   6.526
  145SOL     OW 1333   0.592   4.774   0.533
  145SOL    HW1 1334   0.606   4.763   0.632
  145SOL    HW2 1335   0.680   4.775   0.487
  146SOL     OW 1336   5.083   7.014   5.739
  146SOL    HW1 1337   4.989   7.007   5.773
  146SOL    HW2 1338   5.090   6.969   5.650
  147SOL     OW 1339   6.259   2.718   0.022
  147SOL    HW1 1340   6.246   2.783   0.097
  147SOL    HW2 1341   6.178   2.661   0.013
  148SOL     OW 1342   0.434   5.067   6.089
  148SOL    HW1 1343   0.530   5.046   6.111
  148SOL    HW2 1344   0.422   5.067   5.990
  149SOL     OW 1345   2.459   1.372   4.345
  149SOL    HW1 1346   2.396   1.377   4.423
  149SOL    HW2 1347   2.541   1.425   4.365
  150SOL     OW 1348   5.804   4.794   6.055
  150SOL    HW1 1349   5.781   4.890   6.067
  150SOL    HW2 1350   5.768   4.741   6.131
  151SOL     OW 1351   3.385   1.924   1.333
  151SOL    HW1 1352   3.424   1.990   1.269
  151SOL    HW2 1353   3.287   1.916   1.317
  152SOL     OW 1354   1.822   1.225   4.441
  152SOL    HW1 1355   1.733   1.222   4.397
  152SOL    HW2 1356   1.821   1.166   4.522
  153SOL     OW 1357   2.818   0.378   1.933
  153SOL    HW1 1358   2.894   0.440   1.952
  153SOL    HW2 1359   2.851   0.298   1.883
  154SOL     OW 1360   0.508   3.033   2.918
  154SOL    HW1 1361   0.540   3.127   2.936
  154SOL    HW2 1362   0.413   3.024   2.950
  155SOL     OW 1363   0.238   1.710   3.327
  155SOL    HW1 1364   0.210   1.806   3.317
  155SOL    HW2 1365   0.315   1.704   3.391
  156SOL     OW 1366   0.060   1.597   1.533
  156SOL    HW1 1367   0.141   1.551   1.499
  156SOL    HW2 1368   0.085   1.657   1.609
  157SOL     OW 1369   5.831   3.731   2.089
  157SOL    HW1 1370   5.816   3.827   2.113
  157SOL    HW2 1371   5.914   3.722   2.035
  158SOL     OW 1372   2.994   0.152   2.559
  158SOL    HW1 1373   3.045   0.087   2.502
  158SOL    HW2 1374   3.056   0.193   2.626
  159SOL     OW 1375   4.590   4.249   1.259
  159SOL    HW1 1376   4.493   4.258   1.236
  159SOL    HW2 1377   4.599   4.230   1.357
  160SOL     OW 1378   0.068   4.654   6.486
  160SOL    HW1 1379   0.145   4.628   6.427
  160SOL    HW2 1380   0.082   4.746   6.522
  161SOL     OW 1381   1.175   5.083   4.469
  161SOL    HW1 1382   1.265   5.099   4.510
  161SOL    HW2 1383   1.155   5.156   4.403
  162SOL     OW 1384   4.033   6.497   7.014
  162SOL    HW1 1385   4.110   6.476   6.955
  162SOL    HW2 1386   4.064   6.504   0.089
  163SOL     OW 1387   5.117   5.566   1.402
  163SOL    HW1 1388   5.019   5.573   1.382
  163SOL    HW2 1389   5.132   5.574   1.501
  164SOL     OW 1390   6.822   3.900   1.362
  164SOL    HW1 1391   6.804   3.802   1.350
  164SOL    HW2 1392   6.748   3.953   1.320
  165SOL     OW 1393   5.436   3.074   1.200
  165SOL    HW1 1394   5.392   3.108   1.282
  165SOL    HW2 1395   5.367   3.052   1.131
  166SOL     OW 1396   0.443   4.888   3.959
  166SOL    HW1 1397   0.364   4.949   3.955
  166SOL    HW2 1398   0.411   4.793   3.966
  167SOL     OW 1399   5.896   1.790   0.775
  167SOL    HW1 1400   5.902   1.823   0.680
  167SOL    HW2 1401   5.831   1.846   0.826
  168SOL     OW 1402   2.780   3.359   1.087
  168SOL    HW1 1403   2.849   3.298   1.048
  168SOL    HW2 1404   2.698   3.357   1.030
  169SOL     OW 1405   3.683   0.178   2.327
  169SOL    HW1 1406   3.725   0.262   2.293
  169SOL    HW2 1407   3.606   0.200   2.387
  170SOL     OW 1408   0.166   1.987   3.270
  170SOL    HW1 1409   0.112   2.035   3.339
  170SOL    HW2 1410   0.113   1.977   3.187
  171SOL     OW 1411   4.043   4.601   0.467
  171SOL    HW1 1412   4.037   4.648   0.555
  171SOL    HW2 1413   4.058   4.503   0.483
  172SOL     OW 1414   6.157   1.919   4.466
  172SOL    HW1 1415   6.083   1.966   4.515
  172SOL    HW2 1416   6.187   1.839   4.518
  173SOL     OW 1417   6.300   1.237   4.411
  173SOL    HW1 1418   6.278   1.332   4.391
  173SOL    HW2 1419   6.259   1.178   4.341
  174SOL     OW 1420   2.977   5.498   4.338
  174SOL    HW1 1421   2.924   5.432   4.285
  174SOL    HW2 1422   2.933   5.587   4.335
  175SOL     OW 1423   1.799   6.955   1.970
  175SOL    HW1 1424   1.762   7.016   2.039
  175SOL    HW2 1425   1.792   6.860   2.002
  176SOL     OW 1426   1.462   4.121   0.407
  176SOL    HW1 1427   1.469   4.147   0.503
  176SOL    HW2 1428   1.461   4.021   0.400
  177SOL     OW 1429   5.953   3.015   2.606
  177SOL    HW1 1430   5.927   2.941   2.544
  177SOL    HW2 1431   6.033   3.062   2.569
  178SOL     OW 1432   4.913   3.474   5.907
  178SOL    HW1 1433   4.968   3.516   5.836
  178SOL    HW2 1434   4.929   3.375   5.908
  179SOL     OW 1435   2.906   1.949   6.104
  179SOL    HW1 1436   2.959   1.872   6.069
  179SOL    HW2 1437   2.917   1.955   6.203
  180SOL     OW 1438   1.252   0.021   6.522
  180SOL    HW1 1439   1.215   0.097   6.575
  180SOL    HW2 1440   1.273   6.965   6.583
  181SOL     OW 1441   3.442   1.127   6.840
  181SOL    HW1 1442   3.372   1.075   6.889
  181SOL    HW2 1443   3.490   1.068   6.776
  182SOL     OW 1444   3.998   2.003   4.577
  182SOL    HW1 1445   3.911   2.051   4.567
  182SOL    HW2 1446   3.998   1.951   4.663
  183SOL     OW 1447   3.526   1.417   3.807
  183SOL    HW1 1448   3.599   1.393   3.871
  183SOL    HW2 1449   3.458   1.473   3.853
  184SOL     OW 1450   1.239   5.667   3.705
  184SOL    HW1 1451   1.249   5.765   3.686
  184SOL    HW2 1452   1.306   5.616   3.650
  185SOL     OW 1453   1.143   2.573   6.570
  185SOL    HW1 1454   1.084   2.629   6.630
  185SOL    HW2 1455   1.089   2.540   6.493
  186SOL     OW 1456   6.768   1.234   3.681
  186SOL    HW1 1457   6.684   1.242   3.735
  186SOL    HW2 1458   6.744   1.222   3.585
  187SOL     OW 1459   4.594   0.824   3.280
  187SOL    HW1 1460   4.546   0.826   3.192
  187SOL    HW2 1461   4.684   0.866   3.270
  188SOL     OW 1462   6.180   2.022   3.267
  188SOL    HW1 1463   6.278   2.010   3.256
  188SOL    HW2 1464   6.162   2.094   3.334
  189SOL     OW 1465   1.664   5.562   3.098
  189SOL    HW1 1466   1.617   5.575   3.010
  189SOL    HW2 1467   1.697   5.651   3.131
  190SOL     OW 1468   3.875   1.482   4.823
  190SOL    HW1 1469   3.833   1.534   4.897
  190SOL    HW2 1470   3.812   1.475   4.746
  191SOL     OW 1471   5.476   5.477   6.316
  191SOL    HW1 1472   5.551   5.486   6.250
  191SOL    HW2 1473   5.424   5.562   6.319
  192SOL     OW 1474   7.001   5.620   1.759
  192SOL    HW1 1475   0.027   5.558   1.822
  192SOL    HW2 1476   6.953   5.566   1.689
  193SOL     OW 1477   4.835   2.611   5.528
  193SOL    HW1 1478   4.922   2.660   5.522
  193SOL    HW2 1479   4.763   2.674   5.557
  194SOL     OW 1480   3.619   0.960   3.010
  194SOL    HW1 1481   3.640   0.866   2.985
  194SOL    HW2 1482   3.550   0.996   2.948
  195SOL     OW 1483   2.176   5.867   3.751
  195SOL    HW1 1484   2.203   5.932   3.822
  195SOL    HW2 1485   2.237   5.787   3.755
  196SOL     OW 1486   2.518   2.338   6.981
  196SOL    HW1 1487   2.604   2.381   6.955
  196SOL    HW2 1488   2.443   2.403   6.967
  197SOL     OW 1489   2.432   1.457   0.350
  197SOL    HW1 1490   2.438   1.408   0.263
  197SOL    HW2 1491   2.344   1.438   0.393
  198SOL     OW 1492   4.638   1.722   3.079
  198SOL    HW1 1493   4.675   1.738   3.171
  198SOL    HW2 1494   4.575   1.795   3.055
  199SOL     OW 1495   1.096   2.497   3.974
  199SOL    HW1 1496   1.157   2.557   3.923
  199SOL    HW2 1497   1.143   2.410   3.993
  200SOL     OW 1498   1.346   3.307   0.985
  200SOL    HW1 1499   1.425   3.367   0.996
  200SOL    HW2 1500   1.364   3.241   0.912
  201SOL     OW 1501   0.177   6.804   5.387
  201SOL    HW1 1502   0.101   6.842   5.440
  201SOL    HW2 1503   0.258   6.862   5.396
  202SOL     OW 1504   4.080   1.571   6.723
  202SOL    HW1 1505   4.116   1.570   6.630
  202SOL    HW2 1506   3.994   1.622   6.726
  203SOL     OW 1507   5.763   2.412   5.441
  203SOL    HW1 1508   5.732   2.352   5.515
  203SOL    HW2 1509   5.756   2.507   5.470
  204SOL     OW 1510   0.568   6.918   5.073
  204SOL    HW1 1511   0.587   6.838   5.015
  204SOL    HW2 1512   0.631   6.992   5.049
  205SOL     OW 1513   1.740   2.391   2.591
  205SOL    HW1 1514   1.644   2.410   2.612
  205SOL    HW2 1515   1.792   2.382   2.676
  206SOL     OW 1516   0.870   3.230   1.481
  206SOL    HW1 1517   0.808   3.228   1.560
  206SOL    HW2 1518   0.954   3.277   1.506
  207SOL     OW 1519   5.227   1.061   3.501
  207SOL    HW1 1520   5.321   1.040   3.530
  207SOL    HW2 1521   5.172   1.085   3.582
  208SOL     OW 1522   6.926   4.175   5.528
  208SOL    HW1 1523   6.897   4.081   5.546
  208SOL    HW2 1524   6.995   4.176   5.455
  209SOL     OW 1525   6.574   4.374   3.120
  209SOL    HW1 1526   6.513   4.396   3.044
  209SOL    HW2 1527   6.588   4.275   3.124
  210SOL     OW 1528   4.371   1.897   0.528
  210SOL    HW1 1529   4.355   1.805   0.565
  210SOL    HW2 1530   4.371   1.963   0.603
  211SOL     OW 1531   0.978   6.617   2.389
  211SOL    HW1 1532   0.992   6.533   2.336
  211SOL    HW2 1533   0.921   6.597   2.469
  212SOL     OW 1534   1.375   3.728   2.440
  212SOL    HW1 1535   1.360   3.745   2.538
  212SOL    HW2 1536   1.451   3.664   2.429
  213SOL     OW 1537   1.777   5.891   0.914
  213SOL    HW1 1538   1.873   5.873   0.893
  213SOL    HW2 1539   1.732   5.805   0.940
  214SOL     OW 1540   3.673   4.871   2.568
  214SOL    HW1 1541   3.596   4.818   2.533
  214SOL    HW2 1542   3.639   4.954   2.613
  215SOL     OW 1543   2.435   4.084   1.354
  215SOL    HW1 1544   2.364   4.035   1.405
  215SOL    HW2 1545   2.392   4.139   1.282
  216SOL     OW 1546   0.600   6.586   2.954
  216SOL    HW1 1547   0.594   6.669   3.009
  216SOL    HW2 1548   0.521   6.580   2.893
  217SOL     OW 1549   1.498   2.423   5.138
  217SOL    HW1 1550   1.435   2.454   5.209
  217SOL    HW2 1551   1.449   2.363   5.074
  218SOL     OW 1552   0.893   2.575   4.588
  218SOL    HW1 1553   0.888   2.631   4.506
  218SOL    HW2 1554   0.803   2.574   4.633
  219SOL     OW 1555   4.631   0.515   0.742
  219SOL    HW1 1556   4.674   0.596   0.701
  219SOL    HW2 1557   4.655   0.510   0.838
  220SOL     OW 1558   2.371   6.830   0.868
  220SOL    HW1 1559   2.463   6.847   0.905
  220SOL    HW2 1560   2.354   6.892   0.792
  221SOL     OW 1561   6.136   4.280   1.433
  221SOL    HW1 1562   6.158   4.350   1.366
  221SOL    HW2 1563   6.041   4.289   1.461
  222SOL     OW 1564   1.408   4.403   6.150
  222SOL    HW1 1565   1.426   4.325   6.210
  222SOL    HW2 1566   1.361   4.371   6.068
  223SOL     OW 1567   6.765   2.657   5.122
  223SOL    HW1 1568   6.686   2.617   5.168
  223SOL    HW2 1569   6.828   2.585   5.094
  224SOL     OW 1570   3.297   1.288   6.659
  224SOL    HW1 1571   3.377   1.236   6.690
  224SOL    HW2 1572   3.239   1.308   6.738
  225SOL     OW 1573   4.429   3.993   6.446
  225SOL    HW1 1574   4.336   3.955   6.439
  225SOL    HW2 1575   4.429   4.087   6.413
  226SOL     OW 1576   0.427   1.896   5.915
  226SOL    HW1 1577   0.337   1.857   5.935
  226SOL    HW2 1578   0.429   1.991   5.945
  227SOL     OW 1579   2.308   4.220   2.899
  227SOL    HW1 1580   2.340   4.315   2.892
  227SOL    HW2 1581   2.307   4.179   2.807
  228SOL     OW 1582   1.773   0.773   2.962
  228SOL    HW1 1583   1.864   0.806   2.986
  228SOL    HW2 1584   1.738   0.716   3.036
  229SOL     OW 1585   5.268   5.329   6.093
  229SOL    HW1 1586   5.247   5.421   6.126
  229SOL    HW2 1587   5.301   5.273   6.169
  230SOL     OW 1588   4.591   6.020   4.294
  230SOL    HW1 1589   4.617   6.047   4.387
  230SOL    HW2 1590   4.633   5.932   4.272
  231SOL     OW 1591   6.085   1.330   6.844
  231SOL    HW1 1592   6.165   1.333   6.784
  231SOL    HW2 1593   6.103   1.267   6.920
  232SOL     OW 1594   0.173   3.196   6.403
  232SOL    HW1 1595   0.114   3.267   6.441
  232SOL    HW2 1596   0.230   3.158   6.476
  233SOL     OW 1597   3.756   1.815   3.221
  233SOL    HW1 1598   3.743   1.747   3.149
  233SOL    HW2 1599   3.700   1.791   3.300
  234SOL     OW 1600   6.339   0.944   6.109
  234SOL    HW1 1601   6.240   0.955   6.117
  234SOL    HW2 1602   6.372   0.884   6.182
  235SOL     OW 1603   4.944   3.338   2.292
  235SOL    HW1 1604   4.915   3.264   2.353
  235SOL    HW2 1605   5.010   3.303   2.226
  236SOL     OW 1606   5.021   2.888   7.010
  236SOL    HW1 1607   5.075   2.865   6.930
  236SOL    HW2 1608   5.059   2.970   0.034
  237SOL     OW 1609   0.344   4.141   2.160
  237SOL    HW1 1610   0.328   4.227   2.112
  237SOL    HW2 1611   0.363   4.069   2.093
  238SOL     OW 1612   6.201   1.491   0.731
  238SOL    HW1 1613   6.289   1.451   0.706
  238SOL    HW2 1614   6.159   1.437   0.804
  239SOL     OW 1615   1.183   3.899   6.940
  239SOL    HW1 1616   1.206   3.826   7.003
  239SOL    HW2 1617   1.199   3.988   6.984
  240SOL     OW 1618   0.516   2.749   3.378
  240SOL    HW1 1619   0.605   2.780   3.345
  240SOL    HW2 1620   0.462   2.828   3.407
  241SOL     OW 1621   2.788   2.134   4.543
  241SOL    HW1 1622   2.831   2.202   4.603
  241SOL    HW2 1623   2.750   2.060   4.599
  242SOL     OW 1624   3.760   3.532   3.517
  242SOL    HW1 1625   3.750   3.456   3.581
  242SOL    HW2 1626   3.678   3.591   3.521
  243SOL     OW 1627   4.648   2.079   0.297
  243SOL    HW1 1628   4.637   2.095   0.395
  243SOL    HW2 1629   4.736   2.034   0.281
  244SOL     OW 1630   6.023   3.737   5.709
  244SOL    HW1 1631   6.065   3.794   5.639
  244SOL    HW2 1632   5.923   3.739   5.698
  245SOL     OW 1633   4.529   1.979   3.734
  245SOL    HW1 1634   4.468   2.025   3.798
  245SOL    HW2 1635   4.520   2.021   3.643
  246SOL     OW 1636   4.961   1.514   3.315
  246SOL    HW1 1637   4.960   1.515   3.215
  246SOL    HW2 1638   4.867   1.506   3.350
  247SOL     OW 1639   2.350   1.638   0.902
  247SOL    HW1 1640   2.322   1.563   0.842
  247SOL    HW2 1641   2.435   1.678   0.867
  248SOL     OW 1642   2.311   1.016   3.014
  248SOL    HW1 1643   2.238   1.001   2.947
  248SOL    HW2 1644   2.317   0.937   3.075
  249SOL     OW 1645   5.108   6.751   5.533
  249SOL    HW1 1646   5.122   6.693   5.453
  249SOL    HW2 1647   5.081   6.842   5.503
  250SOL     OW 1648   4.248   3.936   0.559
  250SOL    HW1 1649   4.323   3.891   0.511
  250SOL    HW2 1650   4.286   3.995   0.631
  251SOL     OW 1651   4.663   3.390   5.357
  251SOL    HW1 1652   4.633   3.411   5.450
  251SOL    HW2 1653   4.637   3.464   5.296
  252SOL     OW 1654   6.381   6.902   5.434
  252SOL    HW1 1655   6.288   6.876   5.406
  252SOL    HW2 1656   6.401   6.862   5.524
  253SOL     OW 1657   3.904   5.187   6.301
  253SOL    HW1 1658   3.885   5.088   6.297
  253SOL    HW2 1659   3.937   5.218   6.212
  254SOL     OW 1660   6.912   2.491   3.568
  254SOL    HW1 1661   6.949   2.554   3.499
  254SOL    HW2 1662   6.988   2.440   3.609
  255SOL     OW 1663   2.200   4.324   5.611
  255SOL    HW1 1664   2.296   4.297   5.619
  255SOL    HW2 1665   2.165   4.294   5.522
  256SOL     OW 1666   5.743   3.164   6.478
  256SOL    HW1 1667   5.802   3.086   6.457
  256SOL    HW2 1668   5.727   3.168   6.577
  257SOL     OW 1669   5.284   6.955   2.965
  257SOL    HW1 1670   5.228   6.875   2.941
  257SOL    HW2 1671   5.223   0.012   2.985
  258SOL     OW 1672   2.347   3.980   5.444
  258SOL    HW1 1673   2.406   3.923   5.502
  258SOL    HW2 1674   2.388   3.988   5.353
  259SOL     OW 1675   6.047   0.919   2.140
  259SOL    HW1 1676   6.022   1.004   2.093
  259SOL    HW2 1677   6.147   0.911   2.144
  260SOL     OW 1678   4.181   5.883   3.171
  260SOL    HW1 1679   4.108   5.894   3.104
  260SOL    HW2 1680   4.213   5.973   3.200
  261SOL     OW 1681   5.056   3.815   1.443
  261SOL    HW1 1682   5.110   3.750   1.390
  261SOL    HW2 1683   4.961   3.784   1.447
  262SOL     OW 1684   1.089   3.835   0.311
  262SOL    HW1 1685   1.037   3.818   0.227
  262SOL    HW2 1686   1.151   3.912   0.297
  263SOL     OW 1687   1.602   0.937   4.419
  263SOL    HW1 1688   1.673   0.961   4.484
  263SOL    HW2 1689   1.635   0.953   4.326
  264SOL     OW 1690   6.731   2.394   0.237
  264SOL    HW1 1691   6.746   2.295   0.243
  264SOL    HW2 1692   6.710   2.430   0.328
  265SOL     OW 1693   6.044   6.539   2.464
  265SOL    HW1 1694   5.954   6.507   2.494
  265SOL    HW2 1695   6.116   6.491   2.515
  266SOL     OW 1696   4.494   2.923   5.763
  266SOL    HW1 1697   4.397   2.901   5.764
  266SOL    HW2 1698   4.510   3.004   5.819
  267SOL     OW 1699   0.744   1.929   5.803
  267SOL    HW1 1700   0.831   1.888   5.831
  267SOL    HW2 1701   0.670   1.892   5.859
  268SOL     OW 1702   2.779   1.103   6.210
  268SOL    HW1 1703   2.775   1.176   6.278
  268SOL    HW2 1704   2.691   1.097   6.162
  269SOL     OW 1705   2.127   4.071   0.811
  269SOL    HW1 1706   2.151   3.985   0.766
  269SOL    HW2 1707   2.034   4.098   0.784
  270SOL     OW 1708   0.679   6.221   0.906
  270SOL    HW1 1709   0.611   6.221   0.833
  270SOL    HW2 1710   0.746   6.149   0.889
  271SOL     OW 1711   0.068   1.574   6.295
  271SOL    HW1 1712   0.048   1.671   6.287
  271SOL    HW2 1713   0.068   1.533   6.203
  272SOL     OW 1714   3.500   6.756   3.840
  272SOL    HW1 1715   3.446   6.706   3.772
  272SOL    HW2 1716   3.447   6.834   3.874
  273SOL     OW 1717   2.182   4.517   4.843
  273SOL    HW1 1718   2.221   4.607   4.826
  273SOL    HW2 1719   2.102   4.526   4.902
  274SOL     OW 1720   3.537   1.583   3.260
  274SOL    HW1 1721   3.501   1.604   3.351
  274SOL    HW2 1722   3.469   1.531   3.209
  275SOL     OW 1723   6.101   6.235   2.447
  275SOL    HW1 1724   6.114   6.269   2.539
  275SOL    HW2 1725   6.004   6.215   2.432
  276SOL     OW 1726   6.926   6.824   3.891
  276SOL    HW1 1727   6.933   6.919   3.860
  276SOL    HW2 1728   6.976   6.813   3.977
  277SOL     OW 1729   2.155   3.998   0.371
  277SOL    HW1 1730   2.107   4.053   0.439
  277SOL    HW2 1731   2.251   4.028   0.365
  278SOL     OW 1732   7.014   3.608   2.257
  278SOL    HW1 1733   0.052   3.684   2.289
  278SOL    HW2 1734   0.026   3.523   2.298
  279SOL     OW 1735   5.793   2.988   4.696
  279SOL    HW1 1736   5.811   2.953   4.605
  279SOL    HW2 1737   5.800   2.914   4.763
  280SOL     OW 1738   2.884   5.523   1.654
  280SOL    HW1 1739   2.858   5.512   1.750
  280SOL    HW2 1740   2.868   5.438   1.606
  281SOL     OW 1741   2.317   4.728   1.973
  281SOL    HW1 1742   2.236   4.680   2.006
  281SOL    HW2 1743   2.399   4.676   1.997
  282SOL     OW 1744   2.716   1.446   5.582
  282SOL    HW1 1745   2.634   1.453   5.525
  282SOL    HW2 1746   2.792   1.493   5.537
  283SOL     OW 1747   6.450   2.373   6.532
  283SOL    HW1 1748   6.483   2.282   6.509
  283SOL    HW2 1749   6.422   2.376   6.628
  284SOL     OW 1750   1.279   3.323   3.932
  284SOL    HW1 1751   1.373   3.323   3.896
  284SOL    HW2 1752   1.230   3.403   3.895
  285SOL     OW 1753   5.182   4.768   3.853
  285SOL    HW1 1754   5.238   4.713   3.916
  285SOL    HW2 1755   5.229   4.854   3.833
  286SOL     OW 1756   3.252   4.537   6.780
  286SOL    HW1 1757   3.153   4.523   6.771
  286SOL    HW2 1758   3.290   4.466   6.839
  287SOL     OW 1759   1.102   2.901   1.331
  287SOL    HW1 1760   1.052   2.840   1.393
  287SOL    HW2 1761   1.038   2.948   1.271
  288SOL     OW 1762   3.641   1.338   6.968
  288SOL    HW1 1763   3.576   1.268   6.999
  288SOL    HW2 1764   3.664   1.322   6.872
  289SOL     OW 1765   1.790   4.103   5.265
  289SOL    HW1 1766   1.755   4.128   5.355
  289SOL    HW2 1767   1.817   4.007   5.265
  290SOL     OW 1768   6.095   1.928   4.941
  290SOL    HW1 1769   6.093   2.025   4.919
  290SOL    HW2 1770   6.101   1.917   5.040
  291SOL     OW 1771   0.441   1.717   4.117
  291SOL    HW1 1772   0.404   1.797   4.165
  291SOL    HW2 1773   0.522   1.684   4.166
  292SOL     OW 1774   1.457   1.114   3.015
  292SOL    HW1 1775   1.406   1.156   3.090
  292SOL    HW2 1776   1.474   1.182   2.944
  293SOL     OW 1777   4.449   5.805   3.256
  293SOL    HW1 1778   4.468   5.731   3.320
  293SOL    HW2 1779   4.352   5.807   3.234
  294SOL     OW 1780   6.029   5.714   6.683
  294SOL    HW1 1781   5.980   5.659   6.750
  294SOL    HW2 1782   6.052   5.657   6.604
  295SOL     OW 1783   3.527   0.667   3.027
  295SOL    HW1 1784   3.617   0.641   3.063
  295SOL    HW2 1785   3.496   0.598   2.961
  296SOL     OW 1786   3.283   1.340   2.746
  296SOL    HW1 1787   3.208   1.297   2.696
  296SOL    HW2 1788   3.302   1.287   2.829
  297SOL     OW 1789   2.235   4.775   3.436
  297SOL    HW1 1790   2.244   4.861   3.486
  297SOL    HW2 1791   2.281   4.783   3.347
  298SOL     OW 1792   4.933   5.893   1.563
  298SOL    HW1 1793   5.017   5.913   1.513
  298SOL    HW2 1794   4.856   5.891   1.499
  299SOL     OW 1795   5.859   3.166   5.304
  299SOL    HW1 1796   5.910   3.177   5.219
  299SOL    HW2 1797   5.871   3.247   5.361
  300SOL     OW 1798   6.660   0.766   2.876
  300SOL    HW1 1799   6.609   0.825   2.939
  300SOL    HW2 1800   6.597   0.727   2.809
  301SOL     OW 1801   5.632   3.715   0.084
  301SOL    HW1 1802   5.703   3.771   0.041
  301SOL    HW2 1803   5.580   3.770   0.149
  302SOL     OW 1804   1.432   0.176   3.676
  302SOL    HW1 1805   1.517   0.134   3.643
  302SOL    HW2 1806   1.447   0.217   3.766
  303SOL     OW 1807   5.368   0.969   2.010
  303SOL    HW1 1808   5.376   0.921   2.098
  303SOL    HW2 1809   5.272   0.973   1.983
  304SOL     OW 1810   1.982   0.446   3.028
  304SOL    HW1 1811   1.961   0.486   2.939
  304SOL    HW2 1812   1.932   0.360   3.038
  305SOL     OW 1813   0.686   3.605   6.947
  305SOL    HW1 1814   0.592   3.585   6.974
  305SOL    HW2 1815   0.687   3.675   6.876
  306SOL     OW 1816   1.615   1.209   4.235
  306SOL    HW1 1817   1.639   1.116   4.208
  306SOL    HW2 1818   1.675   1.274   4.189
  307SOL     OW 1819   4.851   7.015   1.210
  307SOL    HW1 1820   4.815   0.053   1.283
  307SOL    HW2 1821   4.919   6.952   1.248
  308SOL     OW 1822   0.176   5.434   3.728
  308SOL    HW1 1823   0.101   5.391   3.777
  308SOL    HW2 1824   0.153   5.529   3.708
  309SOL     OW 1825   3.788   4.406   5.266
  309SOL    HW1 1826   3.735   4.409   5.182
  309SOL    HW2 1827   3.846   4.325   5.266
  310SOL     OW 1828   6.303   6.714   6.028
  310SOL    HW1 1829   6.371   6.779   6.061
  310SOL    HW2 1830   6.216   6.762   6.014
  311SOL     OW 1831   6.671   5.263   1.920
  311SOL    HW1 1832   6.733   5.241   1.995
  311SOL    HW2 1833   6.595   5.198   1.917
  312SOL     OW 1834   4.823   1.624   4.693
  312SOL    HW1 1835   4.796   1.657   4.783
  312SOL    HW2 1836   4.741   1.616   4.635
  313SOL     OW 1837   2.506   4.121   1.760
  313SOL    HW1 1838   2.442   4.056   1.720
  313SOL    HW2 1839   2.599   4.100   1.729
  314SOL     OW 1840   3.535   5.600   0.510
  314SOL    HW1 1841   3.599   5.612   0.434
  314SOL    HW2 1842   3.578   5.545   0.582
  315SOL     OW 1843   0.704   2.429   3.236
  315SOL    HW1 1844   0.622   2.437   3.180
  315SOL    HW2 1845   0.680   2.395   3.327
  316SOL     OW 1846   2.301   2.771   4.136
  316SOL    HW1 1847   2.251   2.839   4.190
  316SOL    HW2 1848   2.368   2.725   4.195
  317SOL     OW 1849   0.704   1.431   7.006
  317SOL    HW1 1850   0.609   1.426   0.018
  317SOL    HW2 1851   0.756   1.354   0.024
  318SOL     OW 1852   1.676   5.002   1.113
  318SOL    HW1 1853   1.611   5.056   1.060
  318SOL    HW2 1854   1.717   5.059   1.185
  319SOL     OW 1855   0.907   6.862   1.920
  319SOL    HW1 1856   0.970   6.881   1.995
  319SOL    HW2 1857   0.817   6.899   1.943
  320SOL     OW 1858   6.079   2.496   6.975
  320SOL    HW1 1859   6.024   2.416   6.999
  320SOL    HW2 1860   6.154   2.467   6.914
  321SOL     OW 1861   1.914   1.873   2.113
  321SOL    HW1 1862   1.942   1.777   2.109
  321SOL    HW2 1863   1.924   1.915   2.023
  322SOL     OW 1864   3.423   2.943   4.274
  322SOL    HW1 1865   3.344   2.963   4.217
  322SOL    HW2 1866   3.392   2.924   4.368
  323SOL     OW 1867   0.600   4.137   0.986
  323SOL    HW1 1868   0.592   4.229   1.025
  323SOL    HW2 1869   0.686   4.131   0.935
  324SOL     OW 1870   0.837   2.732   4.377
  324SOL    HW1 1871   0.836   2.797   4.452
  324SOL    HW2 1872   0.926   2.733   4.332
  325SOL     OW 1873   2.107   3.417   1.025
  325SOL    HW1 1874   2.084   3.514   1.036
  325SOL    HW2 1875   2.203   3.403   1.045
  326SOL     OW 1876   1.678   6.254   6.594
  326SOL    HW1 1877   1.666   6.291   6.501
  326SOL    HW2 1878   1.599   6.199   6.619
  327SOL     OW 1879   0.480   4.679   4.919
  327SOL    HW1 1880   0.529   4.735   4.853
  327SOL    HW2 1881   0.479   4.584   4.889
  328SOL     OW 1882   3.713   5.305   2.709
  328SOL    HW1 1883   3.614   5.288   2.710
  328SOL    HW2 1884   3.757   5.239   2.649
  329SOL     OW 1885   2.935   3.670   3.510
  329SOL    HW1 1886   2.906   3.585   3.466
  329SOL    HW2 1887   2.954   3.739   3.441
  330SOL     OW 1888   3.051   6.853   1.929
  330SOL    HW1 1889   2.958   6.881   1.952
  330SOL    HW2 1890   3.049   6.768   1.876
  331SOL     OW 1891   4.605   5.537   6.198
  331SOL    HW1 1892   4.698   5.534   6.162
  331SOL    HW2 1893   4.587   5.627   6.237
  332SOL     OW 1894   3.124   1.638   3.429
  332SOL    HW1 1895   3.113   1.602   3.336
  332SOL    HW2 1896   3.152   1.564   3.490
  333SOL     OW 1897   4.283   0.015   5.663
  333SOL    HW1 1898   4.291   6.948   5.614
  333SOL    HW2 1899   4.236   7.019   5.751
  334SOL     OW 1900   3.442   6.921   2.220
  334SOL    HW1 1901   3.365   6.868   2.185
  334SOL    HW2 1902   3.407   6.999   2.273
  335SOL     OW 1903   3.883   5.994   3.760
  335SOL    HW1 1904   3.948   5.922   3.738
  335SOL    HW2 1905   3.830   6.017   3.678
  336SOL     OW 1906   1.889   1.175   2.981
  336SOL    HW1 1907   1.870   1.273   2.989
  336SOL    HW2 1908   1.808   1.123   3.007
  337SOL     OW 1909   0.052   3.237   1.543
  337SOL    HW1 1910   0.026   3.229   1.639
  337SOL    HW2 1911   0.150   3.256   1.537
  338SOL     OW 1912   2.977   2.992   1.747
  338SOL    HW1 1913   3.045   2.934   1.791
  338SOL    HW2 1914   3.021   3.076   1.714
  339SOL     OW 1915   3.700   0.289   3.114
  339SOL    HW1 1916   3.724   0.264   3.020
  339SOL    HW2 1917   3.634   0.222   3.150
  340SOL     OW 1918   5.628   4.495   4.718
  340SOL    HW1 1919   5.642   4.581   4.767
  340SOL    HW2 1920   5.697   4.486   4.647
  341SOL     OW 1921   5.406   6.379   4.273
  341SOL    HW1 1922   5.330   6.423   4.226
  341SOL    HW2 1923   5.418   6.286   4.237
  342SOL     OW 1924   5.458   4.524   6.880
  342SOL    HW1 1925   5.552   4.515   6.913
  342SOL    HW2 1926   5.435   4.443   6.824
  343SOL     OW 1927   3.258   6.528   1.982
  343SOL    HW1 1928   3.174   6.483   2.014
  343SOL    HW2 1929   3.336   6.491   2.031
  344SOL     OW 1930   2.115   5.228   0.552
  344SOL    HW1 1931   2.070   5.290   0.616
  344SOL    HW2 1932   2.135   5.141   0.598
  345SOL     OW 1933   0.865   0.555   5.428
  345SOL    HW1 1934   0.851   0.462   5.395
  345SOL    HW2 1935   0.788   0.582   5.486
  346SOL     OW 1936   1.598   0.253   2.931
  346SOL    HW1 1937   1.525   0.242   2.999
  346SOL    HW2 1938   1.560   0.239   2.839
  347SOL     OW 1939   5.698   6.645   6.291
  347SOL    HW1 1940   5.765   6.620   6.221
  347SOL    HW2 1941   5.721   6.600   6.377
  348SOL     OW 1942   4.200   5.322   1.355
  348SOL    HW1 1943   4.282   5.314   1.299
  348SOL    HW2 1944   4.202   5.255   1.428
  349SOL     OW 1945   0.513   4.208   2.343
  349SOL    HW1 1946   0.538   4.296   2.301
  349SOL    HW2 1947   0.440   4.165   2.290
  350SOL     OW 1948   3.831   3.660   1.515
  350SOL    HW1 1949   3.735   3.683   1.499
  350SOL    HW2 1950   3.847   3.651   1.614
  351SOL     OW 1951   2.735   1.843   0.446
  351SOL    HW1 1952   2.808   1.908   0.470
  351SOL    HW2 1953   2.749   1.758   0.496
  352SOL     OW 1954   3.598   0.689   5.283
  352SOL    HW1 1955   3.549   0.644   5.357
  352SOL    HW2 1956   3.567   0.652   5.195
  353SOL     OW 1957   1.960   6.448   0.662
  353SOL    HW1 1958   1.964   6.458   0.562
  353SOL    HW2 1959   1.916   6.360   0.683
  354SOL     OW 1960   4.003   2.334   0.500
  354SOL    HW1 1961   3.986   2.318   0.597
  354SOL    HW2 1962   4.068   2.266   0.465
  355SOL     OW 1963   6.745   3.108   2.663
  355SOL    HW1 1964   6.747   3.208   2.662
  355SOL    HW2 1965   6.801   3.073   2.588
  356SOL     OW 1966   4.769   5.172   5.013
  356SOL    HW1 1967   4.807   5.193   5.103
  356SOL    HW2 1968   4.825   5.214   4.942
  357SOL     OW 1969   0.557   5.894   5.135
  357SOL    HW1 1970   0.613   5.863   5.211
  357SOL    HW2 1971   0.560   5.994   5.129
  358SOL     OW 1972   6.655   0.301   1.508
  358SOL    HW1 1973   6.564   0.265   1.528
  358SOL    HW2 1974   6.691   0.349   1.588
  359SOL     OW 1975   1.235   2.507   2.577
  359SOL    HW1 1976   1.183   2.567   2.516
  359SOL    HW2 1977   1.191   2.506   2.667
  360SOL     OW 1978   4.189   6.760   6.529
  360SOL    HW1 1979   4.206   6.662   6.516
  360SOL    HW2 1980   4.169   6.778   6.625
  361SOL     OW 1981   5.097   5.789   3.259
  361SOL    HW1 1982   5.109   5.886   3.283
  361SOL    HW2 1983   5.019   5.779   3.198
  362SOL     OW 1984   2.589   4.368   0.214
  362SOL    HW1 1985   2.653   4.441   0.193
  362SOL    HW2 1986   2.495   4.400   0.200
  363SOL     OW 1987   3.764   4.983   4.555
  363SOL    HW1 1988   3.860   4.968   4.535
  363SOL    HW2 1989   3.750   4.977   4.654
  364SOL     OW 1990   0.929   5.565   5.846
  364SOL    HW1 1991   0.977   5.650   5.868
  364SOL    HW2 1992   0.992   5.500   5.803
  365SOL     OW 1993   5.209   5.508   2.352
  365SOL    HW1 1994   5.238   5.412   2.355
  365SOL    HW2 1995   5.289   5.566   2.335
  366SOL     OW 1996   6.518   1.362   0.139
  366SOL    HW1 1997   6.539   1.352   0.042
  366SOL    HW2 1998   6.444   1.428   0.151
  367SOL     OW 1999   5.049   3.149   1.241
  367SOL    HW1 2000   5.072   3.207   1.163
  367SOL    HW2 2001   4.992   3.200   1.305
  368SOL     OW 2002   1.604   4.404   4.995
  368SOL    HW1 2003   1.649   4.419   4.908
  368SOL    HW2 2004   1.616   4.309   5.024
  369SOL     OW 2005   6.457   4.203   1.728
  369SOL    HW1 2006   6.529   4.272   1.733
  369SOL    HW2 2007   6.493   4.114   1.756
  370SOL     OW 2008   2.449   0.447   5.840
  370SOL    HW1 2009   2.526   0.507   5.818
  370SOL    HW2 2010   2.398   0.426   5.757
  371SOL     OW 2011   2.732   3.298   0.274
  371SOL    HW1 2012   2.649   3.341   0.238
  371SOL    HW2 2013   2.756   3.219   0.218
  372SOL     OW 2014   6.981   0.340   5.152
  372SOL    HW1 2015   0.026   0.413   5.172
  372SOL    HW2 2016   7.019   0.280   5.081
  373SOL     OW 2017   0.195   6.103   6.969
  373SOL    HW1 2018   0.181   6.167   0.025
  373SOL    HW2 2019   0.168   6.011   6.998
  374SOL     OW 2020   3.503   0.442   2.852
  374SOL    HW1 2021   3.454   0.478   2.773
  374SOL    HW2 2022   3.546   0.355   2.829
  375SOL     OW 2023   6.028   4.785   3.370
  375SOL    HW1 2024   6.026   4.782   3.470
  375SOL    HW2 2025   6.123   4.796   3.340
  376SOL     OW 2026   1.591   2.379   4.042
  376SOL    HW1 2027   1.515   2.355   3.981
  376SOL    HW2 2028   1.677   2.351   3.999
  377SOL     OW 2029   4.951   2.096   2.525
  377SOL    HW1 2030   4.951   2.065   2.620
  377SOL    HW2 2031   4.954   2.195   2.522
  378SOL     OW 2032   4.087   3.628   5.835
  378SOL    HW1 2033   4.050   3.575   5.759
  378SOL    HW2 2034   4.158   3.690   5.802
  379SOL     OW 2035   6.079   3.537   1.654
  379SOL    HW1 2036   6.128   3.590   1.585
  379SOL    HW2 2037   5.981   3.557   1.649
  380SOL     OW 2038   1.060   1.189   1.121
  380SOL    HW1 2039   0.982   1.149   1.073
  380SOL    HW2 2040   1.097   1.123   1.186
  381SOL     OW 2041   3.225   4.824   1.402
  381SOL    HW1 2042   3.165   4.898   1.371
  381SOL    HW2 2043   3.297   4.810   1.334
  382SOL     OW 2044   3.581   6.004   0.356
  382SOL    HW1 2045   3.588   6.103   0.351
  382SOL    HW2 2046   3.547   5.977   0.446
  383SOL     OW 2047   6.478   2.737   6.863
  383SOL    HW1 2048   6.444   2.692   6.781
  383SOL    HW2 2049   6.404   2.748   6.929
  384SOL     OW 2050   0.578   5.645   5.609
  384SOL    HW1 2051   0.483   5.662   5.584
  384SOL    HW2 2052   0.585   5.558   5.658
  385SOL     OW 2053   4.483   6.296   0.549
  385SOL    HW1 2054   4.506   6.380   0.501
  385SOL    HW2 2055   4.545   6.282   0.626
  386SOL     OW 2056   4.081   6.569   5.205
  386SOL    HW1 2057   4.023   6.488   5.192
  386SOL    HW2 2058   4.140   6.581   5.125
  387SOL     OW 2059   0.077   0.809   4.590
  387SOL    HW1 2060   0.050   0.857   4.506
  387SOL    HW2 2061   0.177   0.806   4.596
  388SOL     OW 2062   6.976   2.814   5.516
  388SOL    HW1 2063   0.054   2.815   5.499
  388SOL    HW2 2064   6.934   2.739   5.464
  389SOL     OW 2065   4.641   4.240   1.538
  389SOL    HW1 2066   4.572   4.308   1.563
  389SOL    HW2 2067   4.656   4.178   1.615
  390SOL     OW 2068   3.659   1.238   0.341
  390SOL    HW1 2069   3.590   1.198   0.280
  390SOL    HW2 2070   3.614   1.273   0.423
  391SOL     OW 2071   3.279   3.427   6.394
  391SOL    HW1 2072   3.259   3.331   6.414
  391SOL    HW2 2073   3.351   3.459   6.456
  392SOL     OW 2074   1.447   4.183   2.110
  392SOL    HW1 2075   1.430   4.092   2.146
  392SOL    HW2 2076   1.371   4.244   2.137
  393SOL     OW 2077   0.752   4.489   0.849
  393SOL    HW1 2078   0.838   4.471   0.898
  393SOL    HW2 2079   0.675   4.453   0.902
  394SOL     OW 2080   6.760   1.939   6.553
  394SOL    HW1 2081   6.729   1.859   6.606
  394SOL    HW2 2082   6.850   1.967   6.586
  395SOL     OW 2083   4.766   4.367   1.887
  395SOL    HW1 2084   4.673   4.340   1.914
  395SOL    HW2 2085   4.828   4.289   1.900
  396SOL     OW 2086   2.883   1.772   2.826
  396SOL    HW1 2087   2.801   1.804   2.874
  396SOL    HW2 2088   2.883   1.806   2.732
  397SOL     OW 2089   4.654   1.355   5.203
  397SOL    HW1 2090   4.733   1.414   5.217
  397SOL    HW2 2091   4.610   1.378   5.116
  398SOL     OW 2092   1.719   0.331   4.784
  398SOL    HW1 2093   1.620   0.321   4.780
  398SOL    HW2 2094   1.754   0.357   4.694
  399SOL     OW 2095   5.173   5.647   3.999
  399SOL    HW1 2096   5.102   5.716   4.008
  399SOL    HW2 2097   5.135   5.565   3.957
  400SOL     OW 2098   6.193   0.639   4.773
  400SOL    HW1 2099   6.243   0.592   4.700
  400SOL    HW2 2100   6.096   0.615   4.767
  401SOL     OW 2101   6.651   6.541   5.877
  401SOL    HW1 2102   6.672   6.458   5.928
  401SOL    HW2 2103   6.648   6.519   5.779
  402SOL     OW 2104   6.719   0.248   2.816
  402SOL    HW1 2105   6.643   0.313   2.812
  402SOL    HW2 2106   6.740   0.217   2.723
  403SOL     OW 2107   2.754   0.623   6.472
  403SOL    HW1 2108   2.671   0.585   6.431
  403SOL    HW2 2109   2.832   0.563   6.454
  404SOL     OW 2110   3.449   5.230   5.141
  404SOL    HW1 2111   3.502   5.232   5.226
  404SOL    HW2 2112   3.501   5.274   5.068
  405SOL     OW 2113   2.385   4.284   3.424
  405SOL    HW1 2114   2.390   4.273   3.523
  405SOL    HW2 2115   2.348   4.200   3.383
  406SOL     OW 2116   0.342   5.114   5.834
  406SOL    HW1 2117   0.286   5.192   5.805
  406SOL    HW2 2118   0.415   5.099   5.767
  407SOL     OW 2119   1.596   3.095   4.308
  407SOL    HW1 2120   1.686   3.120   4.273
  407SOL    HW2 2121   1.562   3.169   4.367
  408SOL     OW 2122   2.611   1.461   3.508
  408SOL    HW1 2123   2.567   1.472   3.419
  408SOL    HW2 2124   2.555   1.504   3.579
  409SOL     OW 2125   1.360   4.097   2.621
  409SOL    HW1 2126   1.297   4.100   2.698
  409SOL    HW2 2127   1.408   4.008   2.619
  410SOL     OW 2128   1.448   2.038   1.448
  410SOL    HW1 2129   1.466   2.132   1.420
  410SOL    HW2 2130   1.528   2.001   1.495
  411SOL     OW 2131   0.540   2.352   1.230
  411SOL    HW1 2132   0.517   2.313   1.319
  411SOL    HW2 2133   0.486   2.434   1.214
  412SOL     OW 2134   1.948   4.851   2.535
  412SOL    HW1 2135   1.914   4.757   2.527
  412SOL    HW2 2136   1.975   4.885   2.444
  413SOL     OW 2137   4.253   4.721   2.751
  413SOL    HW1 2138   4.228   4.707   2.655
  413SOL    HW2 2139   4.170   4.724   2.807
  414SOL     OW 2140   3.030   6.492   3.605
  414SOL    HW1 2141   3.001   6.407   3.648
  414SOL    HW2 2142   2.976   6.509   3.523
  415SOL     OW 2143   6.787   0.904   0.532
  415SOL    HW1 2144   6.707   0.942   0.487
  415SOL    HW2 2145   6.819   0.967   0.603
  416SOL     OW 2146   4.844   3.241   4.650
  416SOL    HW1 2147   4.763   3.231   4.709
  416SOL    HW2 2148   4.882   3.332   4.661
  417SOL     OW 2149   3.394   2.144   6.588
  417SOL    HW1 2150   3.329   2.177   6.656
  417SOL    HW2 2151   3.384   2.045   6.579
  418SOL     OW 2152   3.895   6.518   4.186
  418SOL    HW1 2153   3.909   6.606   4.231
  418SOL    HW2 2154   3.893   6.532   4.087
  419SOL     OW 2155   0.930   0.156   1.658
  419SOL    HW1 2156   0.872   0.192   1.731
  419SOL    HW2 2157   0.985   0.081   1.693
  420SOL     OW 2158   6.372   0.476   6.082
  420SOL    HW1 2159   6.459   0.510   6.048
  420SOL    HW2 2160   6.354   0.515   6.172
  421SOL     OW 2161   5.138   3.970   3.567
  421SOL    HW1 2162   5.129   3.925   3.478
  421SOL    HW2 2163   5.105   4.064   3.560
  422SOL     OW 2164   5.265   2.697   1.868
  422SOL    HW1 2165   5.348   2.720   1.919
  422SOL    HW2 2166   5.221   2.618   1.910
  423SOL     OW 2167   3.432   1.428   6.469
  423SOL    HW1 2168   3.373   1.396   6.543
  423SOL    HW2 2169   3.499   1.493   6.505
  424SOL     OW 2170   1.513   4.372   3.051
  424SOL    HW1 2171   1.467   4.354   3.138
  424SOL    HW2 2172   1.491   4.299   2.986
  425SOL     OW 2173   3.231   0.139   5.577
  425SOL    HW1 2174   3.301   0.068   5.580
  425SOL    HW2 2175   3.164   0.116   5.506
  426SOL     OW 2176   2.428   2.648   4.384
  426SOL    HW1 2177   2.354   2.586   4.410
  426SOL    HW2 2178   2.469   2.689   4.465
  427SOL     OW 2179   3.867   1.906   3.476
  427SOL    HW1 2180   3.791   1.964   3.503
  427SOL    HW2 2181   3.894   1.928   3.382
  428SOL     OW 2182   2.537   1.424   5.189
  428SOL    HW1 2183   2.453   1.405   5.139
  428SOL    HW2 2184   2.610   1.365   5.156
  429SOL     OW 2185   1.202   5.958   3.824
  429SOL    HW1 2186   1.143   5.981   3.902
  429SOL    HW2 2187   1.153   5.978   3.739
  430SOL     OW 2188   1.483   6.784   3.408
  430SOL    HW1 2189   1.459   6.760   3.502
  430SOL    HW2 2190   1.555   6.854   3.408
  431SOL     OW 2191   2.526   1.941   2.307
  431SOL    HW1 2192   2.438   1.936   2.260
  431SOL    HW2 2193   2.564   1.849   2.318
  432SOL     OW 2194   4.088   2.292   1.327
  432SOL    HW1 2195   4.127   2.376   1.365
  432SOL    HW2 2196   4.012   2.316   1.267
  433SOL     OW 2197   2.255   6.452   6.939
  433SOL    HW1 2198   2.349   6.431   6.966
  433SOL    HW2 2199   2.255   6.531   6.878
  434SOL     OW 2200   4.143   6.456   3.702
  434SOL    HW1 2201   4.167   6.514   3.780
  434SOL    HW2 2202   4.105   6.370   3.735
  435SOL     OW 2203   2.626   1.621   6.098
  435SOL    HW1 2204   2.531   1.632   6.127
  435SOL    HW2 2205   2.628   1.580   6.007
  436SOL     OW 2206   4.593   0.137   3.064
  436SOL    HW1 2207   4.692   0.152   3.071
  436SOL    HW2 2208   4.570   0.051   3.109
  437SOL     OW 2209   6.371   6.934   4.556
  437SOL    HW1 2210   6.322   6.969   4.476
  437SOL    HW2 2211   6.312   6.938   4.636
  438SOL     OW 2212   0.780   4.453   2.970
  438SOL    HW1 2213   0.746   4.456   3.064
  438SOL    HW2 2214   0.740   4.529   2.918
  439SOL     OW 2215   5.626   0.507   2.942
  439SOL    HW1 2216   5.657   0.412   2.938
  439SOL    HW2 2217   5.654   0.548   3.029
  440SOL     OW 2218   4.387   0.940   0.548
  440SOL    HW1 2219   4.359   0.995   0.469
  440SOL    HW2 2220   4.470   0.979   0.588
  441SOL     OW 2221   0.298   4.442   2.735
  441SOL    HW1 2222   0.360   4.458   2.658
  441SOL    HW2 2223   0.312   4.513   2.803
  442SOL     OW 2224   5.914   3.375   5.492
  442SOL    HW1 2225   5.998   3.368   5.545
  442SOL    HW2 2226   5.867   3.460   5.514
  443SOL     OW 2227   4.964   3.176   2.881
  443SOL    HW1 2228   4.943   3.147   2.788
  443SOL    HW2 2229   5.054   3.219   2.884
  444SOL     OW 2230   4.484   1.010   1.270
  444SOL    HW1 2231   4.478   1.108   1.293
  444SOL    HW2 2232   4.487   0.956   1.354
  445SOL     OW 2233   1.518   5.458   2.614
  445SOL    HW1 2234   1.460   5.387   2.574
  445SOL    HW2 2235   1.530   5.532   2.548
  446SOL     OW 2236   5.815   6.965   1.830
  446SOL    HW1 2237   5.869   6.916   1.899
  446SOL    HW2 2238   5.872   0.016   1.789
  447SOL     OW 2239   6.199   4.268   0.401
  447SOL    HW1 2240   6.175   4.203   0.473
  447SOL    HW2 2241   6.240   4.219   0.324
  448SOL     OW 2242   2.327   6.852   3.245
  448SOL    HW1 2243   2.387   6.896   3.177
  448SOL    HW2 2244   2.360   6.874   3.337
  449SOL     OW 2245   2.186   2.866   4.564
  449SOL    HW1 2246   2.148   2.789   4.512
  449SOL    HW2 2247   2.266   2.835   4.616
  450SOL     OW 2248   0.762   4.354   3.453
  450SOL    HW1 2249   0.792   4.292   3.525
  450SOL    HW2 2250   0.837   4.415   3.428
  451SOL     OW 2251   0.894   2.001   2.644
  451SOL    HW1 2252   0.827   2.051   2.699
  451SOL    HW2 2253   0.892   2.034   2.550
  452SOL     OW 2254   4.889   6.145   2.839
  452SOL    HW1 2255   4.792   6.130   2.817
  452SOL    HW2 2256   4.944   6.127   2.757
  453SOL     OW 2257   3.859   0.576   0.148
  453SOL    HW1 2258   3.877   0.566   0.050
  453SOL    HW2 2259   3.760   0.572   0.164
  454SOL     OW 2260   0.252   4.098   6.535
  454SOL    HW1 2261   0.178   4.136   6.480
  454SOL    HW2 2262   0.303   4.031   6.481
  455SOL     OW 2263   6.490   4.472   6.376
  455SOL    HW1 2264   6.564   4.410   6.402
  455SOL    HW2 2265   6.528   4.552   6.330
  456SOL     OW 2266   2.670   1.087   2.492
  456SOL    HW1 2267   2.571   1.071   2.492
  456SOL    HW2 2268   2.688   1.183   2.471
  457SOL     OW 2269   2.537   0.083   6.394
  457SOL    HW1 2270   2.523   0.162   6.454
  457SOL    HW2 2271   2.475   0.010   6.422
  458SOL     OW 2272   1.826   1.380   3.619
  458SOL    HW1 2273   1.874   1.413   3.537
  458SOL    HW2 2274   1.795   1.286   3.604
  459SOL     OW 2275   2.527   0.517   4.466
  459SOL    HW1 2276   2.533   0.550   4.372
  459SOL    HW2 2277   2.434   0.483   4.484
  460SOL     OW 2278   1.514   1.907   5.004
  460SOL    HW1 2279   1.613   1.894   5.010
  460SOL    HW2 2280   1.480   1.941   5.092
  461SOL     OW 2281   0.858   5.275   5.746
  461SOL    HW1 2282   0.936   5.334   5.761
  461SOL    HW2 2283   0.852   5.208   5.820
  462SOL     OW 2284   3.255   3.941   4.409
  462SOL    HW1 2285   3.247   3.995   4.493
  462SOL    HW2 2286   3.169   3.892   4.392
  463SOL     OW 2287   5.722   6.954   2.287
  463SOL    HW1 2288   5.659   6.960   2.365
  463SOL    HW2 2289   5.816   6.951   2.321
  464SOL     OW 2290   3.954   5.835   6.519
  464SOL    HW1 2291   3.891   5.881   6.581
  464SOL    HW2 2292   4.047   5.842   6.554
  465SOL     OW 2293   1.568   3.116   0.168
  465SOL    HW1 2294   1.490   3.171   0.198
  465SOL    HW2 2295   1.630   3.172   0.113
  466SOL     OW 2296   3.998   5.464   4.912
  466SOL    HW1 2297   4.000   5.429   5.005
  466SOL    HW2 2298   3.922   5.528   4.901
  467SOL     OW 2299   6.189   0.665   1.903
  467SOL    HW1 2300   6.229   0.694   1.990
  467SOL    HW2 2301   6.217   0.571   1.883
  468SOL     OW 2302   3.922   0.165   6.932
  468SOL    HW1 2303   3.869   0.086   6.963
  468SOL    HW2 2304   3.997   0.181   6.997
  469SOL     OW 2305   2.635   5.270   5.481
  469SOL    HW1 2306   2.593   5.202   5.541
  469SOL    HW2 2307   2.656   5.229   5.393
  470SOL     OW 2308   2.044   5.236   2.837
  470SOL    HW1 2309   2.005   5.239   2.745
  470SOL    HW2 2310   2.108   5.158   2.843
  471SOL     OW 2311   2.604   2.377   4.535
  471SOL    HW1 2312   2.634   2.405   4.626
  471SOL    HW2 2313   2.682   2.344   4.483
  472SOL     OW 2314   6.191   4.075   5.935
  472SOL    HW1 2315   6.172   4.002   6.001
  472SOL    HW2 2316   6.128   4.151   5.950
  473SOL     OW 2317   0.211   3.194   2.807
  473SOL    HW1 2318   0.192   3.174   2.903
  473SOL    HW2 2319   0.198   3.291   2.790
  474SOL     OW 2320   5.089   6.048   4.256
  474SOL    HW1 2321   5.004   6.093   4.280
  474SOL    HW2 2322   5.166   6.110   4.273
  475SOL     OW 2323   5.917   1.524   1.350
  475SOL    HW1 2324   6.013   1.522   1.377
  475SOL    HW2 2325   5.905   1.590   1.275
  476SOL     OW 2326   0.766   5.136   1.211
  476SOL    HW1 2327   0.702   5.099   1.144
  476SOL    HW2 2328   0.737   5.228   1.237
  477SOL     OW 2329   1.231   4.506   3.775
  477SOL    HW1 2330   1.135   4.506   3.748
  477SOL    HW2 2331   1.241   4.461   3.864
  478SOL     OW 2332   4.634   5.600   1.788
  478SOL    HW1 2333   4.676   5.570   1.873
  478SOL    HW2 2334   4.644   5.699   1.778
  479SOL     OW 2335   4.034   3.813   4.209
  479SOL    HW1 2336   4.014   3.904   4.246
  479SOL    HW2 2337   3.948   3.763   4.195
  480SOL     OW 2338   1.892   6.938   2.981
  480SOL    HW1 2339   1.811   6.894   3.019
  480SOL    HW2 2340   1.974   6.901   3.026
  481SOL     OW 2341   0.332   6.755   0.930
  481SOL    HW1 2342   0.233   6.744   0.935
  481SOL    HW2 2343   0.371   6.676   0.882
  482SOL     OW 2344   4.464   5.158   1.724
  482SOL    HW1 2345   4.456   5.115   1.634
  482SOL    HW2 2346   4.540   5.115   1.774
  483SOL     OW 2347   5.367   2.257   3.424
  483SOL    HW1 2348   5.434   2.205   3.370
  483SOL    HW2 2349   5.325   2.196   3.491
  484SOL     OW 2350   2.227   4.151   4.328
  484SOL    HW1 2351   2.219   4.122   4.423
  484SOL    HW2 2352   2.232   4.251   4.323
  485SOL     OW 2353   5.110   2.921   1.835
  485SOL    HW1 2354   5.023   2.872   1.836
  485SOL    HW2 2355   5.183   2.860   1.865
  486SOL     OW 2356   5.837   6.499   5.932
  486SOL    HW1 2357   5.888   6.489   6.018
  486SOL    HW2 2358   5.843   6.415   5.879
  487SOL     OW 2359   6.957   6.837   4.898
  487SOL    HW1 2360   6.928   6.828   4.803
  487SOL    HW2 2361   0.034   6.860   4.902
  488SOL     OW 2362   1.598   5.819   3.474
  488SOL    HW1 2363   1.579   5.728   3.510
  488SOL    HW2 2364   1.696   5.829   3.459
  489SOL     OW 2365   0.722   5.720   5.844
  489SOL    HW1 2366   0.670   5.718   5.759
  489SOL    HW2 2367   0.793   5.649   5.842
  490SOL     OW 2368   1.265   4.469   5.683
  490SOL    HW1 2369   1.248   4.479   5.585
  490SOL    HW2 2370   1.241   4.553   5.730
  491SOL     OW 2371   0.349   2.408   1.046
  491SOL    HW1 2372   0.444   2.420   1.021
  491SOL    HW2 2373   0.301   2.496   1.042
  492SOL     OW 2374   1.324   2.023   5.788
  492SOL    HW1 2375   1.253   2.027   5.858
  492SOL    HW2 2376   1.352   1.928   5.774
  493SOL     OW 2377   2.148   6.036   4.570
  493SOL    HW1 2378   2.160   6.133   4.550
  493SOL    HW2 2379   2.237   5.996   4.592
  494SOL     OW 2380   2.545   6.413   5.229
  494SOL    HW1 2381   2.459   6.371   5.199
  494SOL    HW2 2382   2.604   6.427   5.150
  495SOL     OW 2383   3.703   5.094   5.759
  495SOL    HW1 2384   3.660   5.136   5.839
  495SOL    HW2 2385   3.632   5.053   5.701
  496SOL     OW 2386   4.932   1.529   2.633
  496SOL    HW1 2387   5.009   1.594   2.633
  496SOL    HW2 2388   4.946   1.462   2.560
  497SOL     OW 2389   3.239   0.993   6.956
  497SOL    HW1 2390   3.160   0.949   6.999
  497SOL    HW2 2391   3.221   1.090   6.945
  498SOL     OW 2392   0.471   5.993   1.716
  498SOL    HW1 2393   0.558   6.035   1.690
  498SOL    HW2 2394   0.408   5.997   1.638
  499SOL     OW 2395   3.096   6.416   6.753
  499SOL    HW1 2396   3.105   6.363   6.837
  499SOL    HW2 2397   2.999   6.426   6.730
  500SOL     OW 2398   6.021   2.107   0.223
  500SOL    HW1 2399   6.064   2.103   0.313
  500SOL    HW2 2400   6.043   2.025   0.172
  501SOL     OW 2401   0.985   0.363   3.279
  501SOL    HW1 2402   0.947   0.455   3.268
  501SOL    HW2 2403   0.911   0.298   3.298
  502SOL     OW 2404   2.140   5.053   6.559
  502SOL    HW1 2405   2.151   5.011   6.649
  502SOL    HW2 2406   2.072   5.002   6.506
  503SOL     OW 2407   3.667   4.822   6.827
  503SOL    HW1 2408   3.659   4.774   6.740
  503SOL    HW2 2409   3.646   4.759   6.902
  504SOL     OW 2410   6.288   6.780   1.875
  504SOL    HW1 2411   6.199   6.821   1.897
  504SOL    HW2 2412   6.321   6.817   1.789
  505SOL     OW 2413   5.104   6.833   5.182
  505SOL    HW1 2414   5.068   6.841   5.089
  505SOL    HW2 2415   5.030   6.809   5.245
  506SOL     OW 2416   4.087   5.269   3.094
  506SOL    HW1 2417   3.998   5.285   3.051
  506SOL    HW2 2418   4.147   5.221   3.030
  507SOL     OW 2419   3.543   0.615   0.498
  507SOL    HW1 2420   3.525   0.567   0.412
  507SOL    HW2 2421   3.600   0.556   0.557
  508SOL     OW 2422   6.867   5.077   3.658
  508SOL    HW1 2423   6.781   5.128   3.660
  508SOL    HW2 2424   6.858   4.993   3.712
  509SOL     OW 2425   4.504   6.633   5.563
  509SOL    HW1 2426   4.565   6.666   5.635
  509SOL    HW2 2427   4.414   6.676   5.573
  510SOL     OW 2428   0.080   3.968   6.742
  510SOL    HW1 2429   0.148   4.031   6.704
  510SOL    HW2 2430   0.072   3.888   6.683
  511SOL     OW 2431   0.903   1.548   0.791
  511SOL    HW1 2432   0.894   1.626   0.853
  511SOL    HW2 2433   0.998   1.541   0.761
  512SOL     OW 2434   6.599   2.616   6.474
  512SOL    HW1 2435   6.580   2.528   6.430
  512SOL    HW2 2436   6.632   2.600   6.567
  513SOL     OW 2437   5.303   0.789   2.551
  513SOL    HW1 2438   5.396   0.819   2.572
  513SOL    HW2 2439   5.292   0.783   2.452
  514SOL     OW 2440   6.474   6.553   3.994
  514SOL    HW1 2441   6.436   6.525   4.082
  514SOL    HW2 2442   6.474   6.475   3.931
  515SOL     OW 2443   4.038   0.120   6.675
  515SOL    HW1 2444   3.987   0.053   6.620
  515SOL    HW2 2445   3.995   0.129   6.765
  516SOL     OW 2446   1.990   5.924   1.665
  516SOL    HW1 2447   1.921   5.880   1.608
  516SOL    HW2 2448   1.949   5.955   1.751
  517SOL     OW 2449   3.326   5.580   2.038
  517SOL    HW1 2450   3.313   5.629   2.124
  517SOL    HW2 2451   3.378   5.496   2.055
  518SOL     OW 2452   2.173   3.205   3.518
  518SOL    HW1 2453   2.176   3.116   3.472
  518SOL    HW2 2454   2.184   3.193   3.616
  519SOL     OW 2455   0.541   0.068   3.464
  519SOL    HW1 2456   0.551   6.993   3.432
  519SOL    HW2 2457   0.590   0.079   3.550
  520SOL     OW 2458   1.268   3.160   0.245
  520SOL    HW1 2459   1.219   3.094   0.302
  520SOL    HW2 2460   1.205   3.231   0.214
  521SOL     OW 2461   5.360   5.371   5.236
  521SOL    HW1 2462   5.374   5.305   5.162
  521SOL    HW2 2463   5.438   5.368   5.298
  522SOL     OW 2464   3.863   4.031   1.439
  522SOL    HW1 2465   3.946   3.978   1.456
  522SOL    HW2 2466   3.801   4.023   1.517
  523SOL     OW 2467   0.457   6.490   1.977
  523SOL    HW1 2468   0.408   6.432   1.913
  523SOL    HW2 2469   0.517   6.552   1.927
  524SOL     OW 2470   0.014   2.163   1.925
  524SOL    HW1 2471   6.975   2.235   1.889
  524SOL    HW2 2472   0.083   2.139   1.857
  525SOL     OW 2473   1.806   3.775   6.252
  525SOL    HW1 2474   1.837   3.843   6.318
  525SOL    HW2 2475   1.878   3.708   6.236
  526SOL     OW 2476   2.952   7.003   4.578
  526SOL    HW1 2477   2.917   6.957   4.496
  526SOL    HW2 2478   3.000   6.937   4.636
  527SOL     OW 2479   0.906   1.767   0.266
  527SOL    HW1 2480   0.858   1.711   0.333
  527SOL    HW2 2481   0.995   1.793   0.302
  528SOL     OW 2482   6.788   3.245   4.159
  528SOL    HW1 2483   6.750   3.200   4.078
  528SOL    HW2 2484   6.877   3.284   4.136
  529SOL     OW 2485   1.899   0.060   6.138
  529SOL    HW1 2486   1.991   0.080   6.172
  529SOL    HW2 2487   1.846   0.144   6.131
  530SOL     OW 2488   3.708   3.570   0.998
  530SOL    HW1 2489   3.774   3.645   1.005
  530SOL    HW2 2490   3.757   3.483   1.005
  531SOL     OW 2491   2.054   0.568   1.707
  531SOL    HW1 2492   1.970   0.620   1.694
  531SOL    HW2 2493   2.092   0.543   1.618
  532SOL     OW 2494   2.986   2.372   0.681
  532SOL    HW1 2495   2.946   2.365   0.772
  532SOL    HW2 2496   2.933   2.436   0.626
  533SOL     OW 2497   3.704   0.352   4.244
  533SOL    HW1 2498   3.716   0.384   4.338
  533SOL    HW2 2499   3.647   0.417   4.193
  534SOL     OW 2500   1.181   5.021   1.411
  534SOL    HW1 2501   1.160   5.116   1.388
  534SOL    HW2 2502   1.110   4.986   1.474
  535SOL     OW 2503   5.186   3.429   3.757
  535SOL    HW1 2504   5.241   3.380   3.689
  535SOL    HW2 2505   5.132   3.499   3.710
  536SOL     OW 2506   6.171   6.047   2.767
  536SOL    HW1 2507   6.157   6.041   2.668
  536SOL    HW2 2508   6.256   6.098   2.786
  537SOL     OW 2509   3.305   1.102   4.520
  537SOL    HW1 2510   3.401   1.090   4.493
  537SOL    HW2 2511   3.255   1.017   4.505
  538SOL     OW 2512   2.661   4.493   5.771
  538SOL    HW1 2513   2.579   4.516   5.719
  538SOL    HW2 2514   2.674   4.394   5.770
  539SOL     OW 2515   1.048   6.489   0.179
  539SOL    HW1 2516   1.031   6.568   0.237
  539SOL    HW2 2517   0.989   6.494   0.098
  540SOL     OW 2518   0.808   0.565   3.950
  540SOL    HW1 2519   0.764   0.489   3.998
  540SOL    HW2 2520   0.772   0.651   3.984
  541SOL     OW 2521   4.416   6.331   4.339
  541SOL    HW1 2522   4.322   6.355   4.317
  541SOL    HW2 2523   4.468   6.322   4.254
  542SOL     OW 2524   3.210   6.683   6.793
  542SOL    HW1 2525   3.164   6.595   6.789
  542SOL    HW2 2526   3.192   6.727   6.881
  543SOL     OW 2527   5.485   2.363   4.154
  543SOL    HW1 2528   5.518   2.328   4.242
  543SOL    HW2 2529   5.484   2.463   4.157
  544SOL     OW 2530   0.878   4.119   0.917
  544SOL    HW1 2531   0.870   4.195   0.981
  544SOL    HW2 2532   0.934   4.047   0.958
  545SOL     OW 2533   5.910   1.189   1.752
  545SOL    HW1 2534   5.889   1.287   1.759
  545SOL    HW2 2535   5.824   1.138   1.739
  546SOL     OW 2536   0.911   3.995   2.535
  546SOL    HW1 2537   0.888   4.016   2.630
  546SOL    HW2 2538   0.952   3.904   2.531
  547SOL     OW 2539   4.624   1.519   6.443
  547SOL    HW1 2540   4.639   1.492   6.538
  547SOL    HW2 2541   4.572   1.605   6.440
  548SOL     OW 2542   3.369   2.950   0.065
  548SOL    HW1 2543   3.467   2.951   0.083
  548SOL    HW2 2544   3.351   2.892   7.006
  549SOL     OW 2545   6.059   2.369   1.071
  549SOL    HW1 2546   6.045   2.332   1.163
  549SOL    HW2 2547   6.016   2.309   1.004
  550SOL     OW 2548   0.260   5.077   3.429
  550SOL    HW1 2549   0.280   5.092   3.526
  550SOL    HW2 2550   0.200   4.997   3.419
  551SOL     OW 2551   0.064   0.894   0.346
  551SOL    HW1 2552   0.016   0.966   0.396
  551SOL    HW2 2553   0.002   0.818   0.329
  552SOL     OW 2554   5.720   5.428   5.612
  552SOL    HW1 2555   5.639   5.431   5.671
  552SOL    HW2 2556   5.780   5.505   5.633
  553SOL     OW 2557   3.211   1.111   5.472
  553SOL    HW1 2558   3.221   1.037   5.538
  553SOL    HW2 2559   3.174   1.075   5.387
  554SOL     OW 2560   6.036   5.533   0.863
  554SOL    HW1 2561   6.079   5.620   0.887
  554SOL    HW2 2562   5.962   5.514   0.928
  555SOL     OW 2563   2.321   5.312   5.580
  555SOL    HW1 2564   2.384   5.241   5.609
  555SOL    HW2 2565   2.227   5.278   5.588
  556SOL     OW 2566   4.698   1.458   3.442
  556SOL    HW1 2567   4.670   1.365   3.464
  556SOL    HW2 2568   4.625   1.503   3.390
  557SOL     OW 2569   6.296   4.626   5.967
  557SOL    HW1 2570   6.355   4.691   5.919
  557SOL    HW2 2571   6.268   4.554   5.904
  558SOL     OW 2572   3.466   3.934   2.609
  558SOL    HW1 2573   3.560   3.942   2.643
  558SOL    HW2 2574   3.448   3.839   2.583
  559SOL     OW 2575   6.496   6.284   5.621
  559SOL    HW1 2576   6.554   6.358   5.586
  559SOL    HW2 2577   6.404   6.292   5.582
  560SOL     OW 2578   6.424   3.464   3.070
  560SOL    HW1 2579   6.480   3.404   3.012
  560SOL    HW2 2580   6.340   3.488   3.021
  561SOL     OW 2581   0.648   3.088   6.428
  561SOL    HW1 2582   0.642   3.054   6.334
  561SOL    HW2 2583   0.708   3.168   6.431
  562SOL     OW 2584   3.991   0.695   5.650
  562SOL    HW1 2585   3.956   0.743   5.570
  562SOL    HW2 2586   4.039   0.612   5.620
  563SOL     OW 2587   1.659   1.965   4.007
  563SOL    HW1 2588   1.620   1.923   3.925
  563SOL    HW2 2589   1.682   2.061   3.987
  564SOL     OW 2590   0.180   2.206   5.165
  564SOL    HW1 2591   0.174   2.118   5.213
  564SOL    HW2 2592   0.096   2.221   5.114
  565SOL     OW 2593   3.738   3.202   3.477
  565SOL    HW1 2594   3.674   3.128   3.497
  565SOL    HW2 2595   3.704   3.255   3.399
  566SOL     OW 2596   3.532   5.776   3.044
  566SOL    HW1 2597   3.569   5.869   3.041
  566SOL    HW2 2598   3.498   5.750   2.954
  567SOL     OW 2599   1.930   2.988   6.464
  567SOL    HW1 2600   1.910   2.891   6.470
  567SOL    HW2 2601   1.899   3.033   6.548
  568SOL     OW 2602   6.786   0.604   0.607
  568SOL    HW1 2603   6.801   0.702   0.594
  568SOL    HW2 2604   6.819   0.577   0.697
  569SOL     OW 2605   0.269   1.799   0.469
  569SOL    HW1 2606   0.298   1.738   0.396
  569SOL    HW2 2607   0.279   1.754   0.558
  570SOL     OW 2608   2.924   0.112   6.114
  570SOL    HW1 2609   2.898   0.034   6.058
  570SOL    HW2 2610   3.021   0.133   6.098
  571SOL     OW 2611   2.584   4.971   3.187
  571SOL    HW1 2612   2.609   4.902   3.119
  571SOL    HW2 2613   2.590   4.930   3.279
  572SOL     OW 2614   2.501   6.488   3.945
  572SOL    HW1 2615   2.523   6.505   3.849
  572SOL    HW2 2616   2.512   6.572   3.997
  573SOL     OW 2617   6.266   2.327   5.707
  573SOL    HW1 2618   6.177   2.346   5.748
  573SOL    HW2 2619   6.291   2.231   5.725
  574SOL     OW 2620   2.833   1.871   5.405
  574SOL    HW1 2621   2.759   1.868   5.472
  574SOL    HW2 2622   2.794   1.874   5.312
  575SOL     OW 2623   3.277   3.487   6.970
  575SOL    HW1 2624   3.257   3.390   6.985
  575SOL    HW2 2625   3.194   3.534   6.942
  576SOL     OW 2626   1.950   2.942   2.836
  576SOL    HW1 2627   2.004   2.911   2.915
  576SOL    HW2 2628   2.010   2.989   2.771
  577SOL     OW 2629   0.983   1.738   1.830
  577SOL    HW1 2630   0.980   1.795   1.748
  577SOL    HW2 2631   1.021   1.649   1.808
  578SOL     OW 2632   1.988   5.449   6.650
  578SOL    HW1 2633   2.058   5.389   6.611
  578SOL    HW2 2634   2.031   5.513   6.713
  579SOL     OW 2635   2.492   4.546   2.473
  579SOL    HW1 2636   2.525   4.548   2.379
  579SOL    HW2 2637   2.570   4.555   2.536
  580SOL     OW 2638   4.297   5.420   5.190
  580SOL    HW1 2639   4.396   5.425   5.179
  580SOL    HW2 2640   4.258   5.511   5.177
  581SOL     OW 2641   1.160   2.838   3.802
  581SOL    HW1 2642   1.204   2.750   3.822
  581SOL    HW2 2643   1.114   2.832   3.714
  582SOL     OW 2644   5.551   5.440   3.388
  582SOL    HW1 2645   5.489   5.430   3.310
  582SOL    HW2 2646   5.505   5.493   3.459
  583SOL     OW 2647   3.373   4.954   6.198
  583SOL    HW1 2648   3.351   5.051   6.198
  583SOL    HW2 2649   3.398   4.925   6.105
  584SOL     OW 2650   3.736   0.671   6.858
  584SOL    HW1 2651   3.811   0.604   6.859
  584SOL    HW2 2652   3.709   0.687   6.763
  585SOL     OW 2653   2.715   6.656   2.031
  585SOL    HW1 2654   2.711   6.557   2.046
  585SOL    HW2 2655   2.756   6.674   1.942
  586SOL     OW 2656   4.185   0.225   1.188
  586SOL    HW1 2657   4.271   0.188   1.155
  586SOL    HW2 2658   4.202   0.285   1.266
  587SOL     OW 2659   5.272   1.726   1.641
  587SOL    HW1 2660   5.233   1.817   1.649
  587SOL    HW2 2661   5.211   1.667   1.589
  588SOL     OW 2662   0.636   5.556   2.035
  588SOL    HW1 2663   0.715   5.538   1.976
  588SOL    HW2 2664   0.552   5.555   1.980
  589SOL     OW 2665   3.537   5.575   1.463
  589SOL    HW1 2666   3.443   5.566   1.495
  589SOL    HW2 2667   3.595   5.608   1.537
  590SOL     OW 2668   5.408   1.240   0.724
  590SOL    HW1 2669   5.447   1.254   0.815
  590SOL    HW2 2670   5.313   1.271   0.723
  591SOL     OW 2671   4.172   5.513   4.229
  591SOL    HW1 2672   4.240   5.513   4.156
  591SOL    HW2 2673   4.091   5.562   4.199
  592SOL     OW 2674   4.309   2.018   4.487
  592SOL    HW1 2675   4.301   1.943   4.553
  592SOL    HW2 2676   4.266   2.100   4.524
  593SOL     OW 2677   3.704   1.797   5.426
  593SOL    HW1 2678   3.721   1.702   5.452
  593SOL    HW2 2679   3.638   1.800   5.351
  594SOL     OW 2680   6.113   0.990   1.703
  594SOL    HW1 2681   6.175   1.051   1.753
  594SOL    HW2 2682   6.023   1.034   1.695
  595SOL     OW 2683   5.080   6.019   2.653
  595SOL    HW1 2684   5.130   5.960   2.716
  595SOL    HW2 2685   5.005   5.968   2.611
  596SOL     OW 2686   6.728   3.950   3.775
  596SOL    HW1 2687   6.803   3.992   3.723
  596SOL    HW2 2688   6.766   3.905   3.856
  597SOL     OW 2689   3.050   6.918   6.669
  597SOL    HW1 2690   3.056   6.884   6.762
  597SOL    HW2 2691   3.112   6.865   6.610
  598SOL     OW 2692   2.946   3.543   5.248
  598SOL    HW1 2693   2.947   3.531   5.149
  598SOL    HW2 2694   2.958   3.639   5.271
  599SOL     OW 2695   0.941   5.851   2.112
  599SOL    HW1 2696   0.985   5.762   2.097
  599SOL    HW2 2697   0.961   5.882   2.205
  600SOL     OW 2698   0.007   4.079   4.636
  600SOL    HW1 2699   0.003   4.152   4.568
  600SOL    HW2 2700   0.019   4.119   4.727
  601SOL     OW 2701   1.619   0.926   5.247
  601SOL    HW1 2702   1.577   0.842   5.211
  601SOL    HW2 2703   1.718   0.919   5.239
  602SOL     OW 2704   3.059   6.525   4.676
  602SOL    HW1 2705   3.067   6.439   4.726
  602SOL    HW2 2706   2.971   6.567   4.698
  603SOL     OW 2707   1.594   1.306   5.388
  603SOL    HW1 2708   1.560   1.340   5.300
  603SOL    HW2 2709   1.659   1.233   5.373
  604SOL     OW 2710   6.688   2.215   1.786
  604SOL    HW1 2711   6.715   2.121   1.767
  604SOL    HW2 2712   6.769   2.275   1.780
  605SOL     OW 2713   0.260   4.426   2.061
  605SOL    HW1 2714   0.205   4.405   2.142
  605SOL    HW2 2715   0.238   4.519   2.029
  606SOL     OW 2716   3.596   0.067   4.989
  606SOL    HW1 2717   3.638   0.112   4.911
  606SOL    HW2 2718   3.537   7.012   4.958
  607SOL     OW 2719   1.140   4.671   5.831
  607SOL    HW1 2720   1.095   4.587   5.864
  607SOL    HW2 2721   1.110   4.748   5.887
  608SOL     OW 2722   3.437   0.376   5.632
  608SOL    HW1 2723   3.379   0.295   5.624
  608SOL    HW2 2724   3.438   0.406   5.727
  609SOL     OW 2725   3.874   2.560   1.335
  609SOL    HW1 2726   3.941   2.597   1.272
  609SOL    HW2 2727   3.898   2.586   1.429
  610SOL     OW 2728   4.402   2.897   0.527
  610SOL    HW1 2729   4.312   2.890   0.484
  610SOL    HW2 2730   4.431   2.806   0.558
  611SOL     OW 2731   3.794   0.409   2.275
  611SOL    HW1 2732   3.749   0.493   2.244
  611SOL    HW2 2733   3.863   0.433   2.344
  612SOL     OW 2734   3.666   4.746   5.862
  612SOL    HW1 2735   3.647   4.648   5.856
  612SOL    HW2 2736   3.685   4.782   5.771
  613SOL     OW 2737   4.926   5.422   5.551
  613SOL    HW1 2738   4.869   5.372   5.485
  613SOL    HW2 2739   4.977   5.493   5.503
  614SOL     OW 2740   4.935   5.392   5.812
  614SOL    HW1 2741   4.883   5.472   5.843
  614SOL    HW2 2742   4.925   5.382   5.713
  615SOL     OW 2743   0.330   4.748   1.311
  615SOL    HW1 2744   0.234   4.733   1.337
  615SOL    HW2 2745   0.339   4.744   1.211
  616SOL     OW 2746   6.172   2.930   3.177
  616SOL    HW1 2747   6.079   2.897   3.194
  616SOL    HW2 2748   6.225   2.858   3.133
  617SOL     OW 2749   2.517   5.109   5.909
  617SOL    HW1 2750   2.459   5.037   5.948
  617SOL    HW2 2751   2.605   5.111   5.956
  618SOL     OW 2752   1.181   1.153   1.680
  618SOL    HW1 2753   1.163   1.058   1.656
  618SOL    HW2 2754   1.260   1.158   1.741
  619SOL     OW 2755   1.512   1.701   6.311
  619SOL    HW1 2756   1.505   1.722   6.214
  619SOL    HW2 2757   1.436   1.745   6.360
  620SOL     OW 2758   4.679   2.811   0.165
  620SOL    HW1 2759   4.614   2.883   0.141
  620SOL    HW2 2760   4.671   2.736   0.099
  621SOL     OW 2761   0.302   4.742   0.199
  621SOL    HW1 2762   0.279   4.646   0.212
  621SOL    HW2 2763   0.319   4.785   0.287
  622SOL     OW 2764   1.821   1.677   0.346
  622SOL    HW1 2765   1.867   1.698   0.433
  622SOL    HW2 2766   1.774   1.758   0.312
  623SOL     OW 2767   1.020   4.754   6.388
  623SOL    HW1 2768   1.014   4.800   6.299
  623SOL    HW2 2769   1.027   4.823   6.460
  624SOL     OW 2770   0.695   2.827   2.372
  624SOL    HW1 2771   0.720   2.779   2.456
  624SOL    HW2 2772   0.720   2.772   2.293
  625SOL     OW 2773   2.511   1.331   2.743
  625SOL    HW1 2774   2.553   1.420   2.759
  625SOL    HW2 2775   2.545   1.266   2.811
  626SOL     OW 2776   2.244   6.478   3.905
  626SOL    HW1 2777   2.338   6.471   3.940
  626SOL    HW2 2778   2.242   6.450   3.809
  627SOL     OW 2779   5.568   0.874   6.990
  627SOL    HW1 2780   5.557   0.925   6.905
  627SOL    HW2 2781   5.648   0.814   6.983
  628SOL     OW 2782   4.987   4.620   4.250
  628SOL    HW1 2783   4.934   4.600   4.168
  628SOL    HW2 2784   4.988   4.540   4.310
  629SOL     OW 2785   0.307   0.097   1.107
  629SOL    HW1 2786   0.388   0.051   1.140
  629SOL    HW2 2787   0.312   0.105   1.007
  630SOL     OW 2788   4.444   1.263   1.385
  630SOL    HW1 2789   4.380   1.288   1.457
  630SOL    HW2 2790   4.447   1.335   1.316
  631SOL     OW 2791   2.257   6.968   5.585
  631SOL    HW1 2792   2.289   6.962   5.679
  631SOL    HW2 2793   2.291   0.033   5.544
  632SOL     OW 2794   2.348   0.920   0.724
  632SOL    HW1 2795   2.374   0.991   0.791
  632SOL    HW2 2796   2.313   0.964   0.641
  633SOL     OW 2797   3.325   6.379   0.170
  633SOL    HW1 2798   3.410   6.430   0.184
  633SOL    HW2 2799   3.280   6.365   0.258
  634SOL     OW 2800   4.099   5.839   1.033
  634SOL    HW1 2801   4.168   5.841   1.105
  634SOL    HW2 2802   4.133   5.887   0.952
  635SOL     OW 2803   2.944   7.005   3.111
  635SOL    HW1 2804   2.987   0.060   3.161
  635SOL    HW2 2805   3.014   6.940   3.080
  636SOL     OW 2806   5.295   5.160   6.290
  636SOL    HW1 2807   5.392   5.168   6.310
  636SOL    HW2 2808   5.268   5.064   6.293
  637SOL     OW 2809   4.676   4.669   1.599
  637SOL    HW1 2810   4.669   4.743   1.666
  637SOL    HW2 2811   4.750   4.607   1.626
  638SOL     OW 2812   5.239   1.377   1.706
  638SOL    HW1 2813   5.172   1.304   1.713
  638SOL    HW2 2814   5.324   1.341   1.666
  639SOL     OW 2815   4.232   4.687   1.785
  639SOL    HW1 2816   4.311   4.634   1.816
  639SOL    HW2 2817   4.177   4.631   1.723
  640SOL     OW 2818   2.809   4.016   5.593
  640SOL    HW1 2819   2.739   4.047   5.529
  640SOL    HW2 2820   2.896   4.061   5.572
  641SOL     OW 2821   0.070   5.670   5.017
  641SOL    HW1 2822   0.112   5.579   5.009
  641SOL    HW2 2823   0.071   5.714   4.927
  642SOL     OW 2824   0.351   4.939   4.981
  642SOL    HW1 2825   0.391   4.847   4.983
  642SOL    HW2 2826   0.272   4.943   5.042
  643SOL     OW 2827   5.984   5.316   6.058
  643SOL    HW1 2828   6.078   5.332   6.089
  643SOL    HW2 2829   5.983   5.248   5.985
  644SOL     OW 2830   1.176   6.329   2.980
  644SOL    HW1 2831   1.220   6.340   3.069
  644SOL    HW2 2832   1.237   6.278   2.919
  645SOL     OW 2833   4.843   2.368   3.839
  645SOL    HW1 2834   4.834   2.466   3.854
  645SOL    HW2 2835   4.757   2.322   3.860
  646SOL     OW 2836   1.017   0.956   4.358
  646SOL    HW1 2837   0.924   0.967   4.325
  646SOL    HW2 2838   1.035   1.021   4.431
  647SOL     OW 2839   6.059   2.490   0.235
  647SOL    HW1 2840   6.084   2.474   0.330
  647SOL    HW2 2841   5.984   2.556   0.230
  648SOL     OW 2842   5.783   4.014   2.139
  648SOL    HW1 2843   5.750   4.072   2.214
  648SOL    HW2 2844   5.803   4.072   2.060
  649SOL     OW 2845   4.007   4.900   1.313
  649SOL    HW1 2846   3.940   4.826   1.313
  649SOL    HW2 2847   4.096   4.863   1.285
  650SOL     OW 2848   4.561   3.996   0.551
  650SOL    HW1 2849   4.566   3.914   0.609
  650SOL    HW2 2850   4.568   4.078   0.609
  651SOL     OW 2851   0.750   6.271   1.185
  651SOL    HW1 2852   0.701   6.191   1.221
  651SOL    HW2 2853   0.757   6.263   1.086
  652SOL     OW 2854   4.535   0.794   2.616
  652SOL    HW1 2855   4.557   0.746   2.701
  652SOL    HW2 2856   4.447   0.840   2.624
  653SOL     OW 2857   3.453   5.216   4.008
  653SOL    HW1 2858   3.492   5.124   3.998
  653SOL    HW2 2859   3.354   5.213   3.992
  654SOL     OW 2860   0.065   4.744   6.805
  654SOL    HW1 2861   0.087   4.809   6.732
  654SOL    HW2 2862   0.049   4.794   6.890
  655SOL     OW 2863   0.710   0.279   1.181
  655SOL    HW1 2864   0.713   0.194   1.233
  655SOL    HW2 2865   0.743   0.354   1.238
  656SOL     OW 2866   2.194   6.217   2.062
  656SOL    HW1 2867   2.176   6.297   2.119
  656SOL    HW2 2868   2.114   6.156   2.065
  657SOL     OW 2869   3.109   1.306   0.394
  657SOL    HW1 2870   3.168   1.271   0.466
  657SOL    HW2 2871   3.040   1.238   0.372
  658SOL     OW 2872   3.160   3.805   7.008
  658SOL    HW1 2873   3.219   3.792   0.067
  658SOL    HW2 2874   3.214   3.840   6.931
  659SOL     OW 2875   3.057   6.897   6.931
  659SOL    HW1 2876   3.131   6.938   6.984
  659SOL    HW2 2877   2.973   6.897   6.986
  660SOL     OW 2878   3.522   5.991   2.582
  660SOL    HW1 2879   3.561   6.011   2.492
  660SOL    HW2 2880   3.484   5.898   2.582
  661SOL     OW 2881   4.610   6.135   2.843
  661SOL    HW1 2882   4.594   6.158   2.747
  661SOL    HW2 2883   4.530   6.160   2.897
  662SOL     OW 2884   3.681   1.591   5.795
  662SOL    HW1 2885   3.636   1.509   5.759
  662SOL    HW2 2886   3.620   1.639   5.858
  663SOL     OW 2887   2.060   5.225   4.887
  663SOL    HW1 2888   2.052   5.296   4.817
  663SOL    HW2 2889   2.121   5.256   4.959
  664SOL     OW 2890   0.033   0.134   6.738
  664SOL    HW1 2891   0.033   0.134   6.838
  664SOL    HW2 2892   0.127   0.142   6.705
  665SOL     OW 2893   3.053   5.345   3.700
  665SOL    HW1 2894   3.011   5.286   3.631
  665SOL    HW2 2895   3.076   5.433   3.660
  666SOL     OW 2896   3.757   0.616   2.096
  666SOL    HW1 2897   3.846   0.617   2.142
  666SOL    HW2 2898   3.764   0.663   2.008
  667SOL     OW 2899   0.644   5.855   2.130
  667SOL    HW1 2900   0.742   5.871   2.139
  667SOL    HW2 2901   0.628   5.761   2.101
  668SOL     OW 2902   5.748   4.393   6.206
  668SOL    HW1 2903   5.738   4.294   6.213
  668SOL    HW2 2904   5.734   4.422   6.111
  669SOL     OW 2905   5.993   1.367   2.812
  669SOL    HW1 2906   5.915   1.383   2.871
  669SOL    HW2 2907   5.985   1.424   2.730
  670SOL     OW 2908   1.550   1.859   3.755
  670SOL    HW1 2909   1.560   1.894   3.662
  670SOL    HW2 2910   1.577   1.762   3.758
  671SOL     OW 2911   2.065   6.397   1.863
  671SOL    HW1 2912   2.053   6.362   1.956
  671SOL    HW2 2913   2.064   6.320   1.799
  672SOL     OW 2914   0.389   6.317   1.778
  672SOL    HW1 2915   0.381   6.226   1.818
  672SOL    HW2 2916   0.427   6.310   1.686
  673SOL     OW 2917   5.537   6.477   0.872
  673SOL    HW1 2918   5.490   6.390   0.860
  673SOL    HW2 2919   5.491   6.548   0.819
  674SOL     OW 2920   6.691   1.508   5.161
  674SOL    HW1 2921   6.657   1.468   5.076
  674SOL    HW2 2922   6.614   1.537   5.218
  675SOL     OW 2923   5.717   2.221   2.191
  675SOL    HW1 2924   5.761   2.141   2.230
  675SOL    HW2 2925   5.779   2.268   2.129
  676SOL     OW 2926   2.337   4.819   5.130
  676SOL    HW1 2927   2.270   4.802   5.202
  676SOL    HW2 2928   2.426   4.783   5.157
  677SOL     OW 2929   4.723   1.023   1.138
  677SOL    HW1 2930   4.741   1.056   1.045
  677SOL    HW2 2931   4.625   1.011   1.151
  678SOL     OW 2932   2.436   4.210   5.579
  678SOL    HW1 2933   2.475   4.264   5.503
  678SOL    HW2 2934   2.416   4.118   5.547
  679SOL     OW 2935   5.543   1.236   5.574
  679SOL    HW1 2936   5.526   1.138   5.585
  679SOL    HW2 2937   5.520   1.264   5.480
  680SOL     OW 2938   5.467   0.255   4.323
  680SOL    HW1 2939   5.561   0.284   4.345
  680SOL    HW2 2940   5.413   0.251   4.407
  681SOL     OW 2941   5.370   6.225   2.002
  681SOL    HW1 2942   5.381   6.261   2.094
  681SOL    HW2 2943   5.277   6.192   1.990
  682SOL     OW 2944   1.003   0.788   2.509
  682SOL    HW1 2945   0.948   0.780   2.426
  682SOL    HW2 2946   0.988   0.708   2.567
  683SOL     OW 2947   4.320   3.609   0.955
  683SOL    HW1 2948   4.326   3.703   0.920
  683SOL    HW2 2949   4.376   3.549   0.898
  684SOL     OW 2950   6.383   0.565   6.339
  684SOL    HW1 2951   6.285   0.554   6.356
  684SOL    HW2 2952   6.435   0.513   6.408
  685SOL     OW 2953   3.307   1.443   3.596
  685SOL    HW1 2954   3.374   1.372   3.618
  685SOL    HW2 2955   3.238   1.447   3.667
  686SOL     OW 2956   4.301   1.033   4.282
  686SOL    HW1 2957   4.340   1.124   4.297
  686SOL    HW2 2958   4.239   1.035   4.204
  687SOL     OW 2959   0.865   1.772   4.396
  687SOL    HW1 2960   0.948   1.798   4.346
  687SOL    HW2 2961   0.794   1.747   4.331
  688SOL     OW 2962   6.965   1.661   6.739
  688SOL    HW1 2963   0.026   1.603   6.726
  688SOL    HW2 2964   6.990   1.757   6.726
  689SOL     OW 2965   0.987   4.778   5.618
  689SOL    HW1 2966   0.912   4.836   5.651
  689SOL    HW2 2967   1.036   4.740   5.696
  690SOL     OW 2968   6.196   3.533   2.892
  690SOL    HW1 2969   6.182   3.515   2.795
  690SOL    HW2 2970   6.138   3.472   2.946
  691SOL     OW 2971   3.883   1.751   6.699
  691SOL    HW1 2972   3.889   1.829   6.637
  691SOL    HW2 2973   3.803   1.761   6.758
  692SOL     OW 2974   3.337   1.441   5.090
  692SOL    HW1 2975   3.402   1.385   5.142
  692SOL    HW2 2976   3.278   1.492   5.153
  693SOL     OW 2977   4.968   6.014   3.380
  693SOL    HW1 2978   4.981   6.108   3.411
  693SOL    HW2 2979   4.911   6.014   3.298
  694SOL     OW 2980   4.194   5.976   4.748
  694SOL    HW1 2981   4.189   5.974   4.648
  694SOL    HW2 2982   4.290   5.972   4.776
  695SOL     OW 2983   3.302   5.832   3.916
  695SOL    HW1 2984   3.265   5.896   3.983
  695SOL    HW2 2985   3.374   5.877   3.863
  696SOL     OW 2986   4.854   3.686   3.121
  696SOL    HW1 2987   4.803   3.650   3.199
  696SOL    HW2 2988   4.867   3.615   3.053
  697SOL     OW 2989   0.867   4.508   1.902
  697SOL    HW1 2990   0.845   4.459   1.986
  697SOL    HW2 2991   0.801   4.483   1.831
  698SOL     OW 2992   4.519   0.105   1.422
  698SOL    HW1 2993   4.479   0.013   1.423
  698SOL    HW2 2994   4.468   0.164   1.484
  699SOL     OW 2995   2.805   2.541   0.586
  699SOL    HW1 2996   2.855   2.586   0.513
  699SOL    HW2 2997   2.743   2.606   0.629
  700SOL     OW 2998   3.304   0.067   2.976
  700SOL    HW1 2999   3.395   0.065   3.016
  700SOL    HW2 3000   3.242   0.117   3.036
  701SOL     OW 3001   6.520   4.387   1.155
  701SOL    HW1 3002   6.529   4.310   1.091
  701SOL    HW2 3003   6.481   4.465   1.107
  702SOL     OW 3004   2.850   1.145   4.347
  702SOL    HW1 3005   2.942   1.179   4.366
  702SOL    HW2 3006   2.857   1.059   4.295
  703SOL     OW 3007   2.647   3.146   5.975
  703SOL    HW1 3008   2.696   3.219   5.928
  703SOL    HW2 3009   2.683   3.057   5.945
  704SOL     OW 3010   1.207   2.683   6.265
  704SOL    HW1 3011   1.150   2.759   6.232
  704SOL    HW2 3012   1.225   2.695   6.362
  705SOL     OW 3013   6.645   6.197   4.021
  705SOL    HW1 3014   6.606   6.238   4.103
  705SOL    HW2 3015   6.606   6.106   4.006
  706SOL     OW 3016   4.362   0.882   5.578
  706SOL    HW1 3017   4.281   0.876   5.520
  706SOL    HW2 3018   4.445   0.882   5.521
  707SOL     OW 3019   3.669   5.184   3.704
  707SOL    HW1 3020   3.711   5.137   3.782
  707SOL    HW2 3021   3.663   5.122   3.626
  708SOL     OW 3022   2.689   0.707   3.339
  708SOL    HW1 3023   2.735   0.780   3.289
  708SOL    HW2 3024   2.656   0.638   3.275
  709SOL     OW 3025   2.048   0.112   1.766
  709SOL    HW1 3026   2.055   0.211   1.782
  709SOL    HW2 3027   1.981   0.073   1.829
  710SOL     OW 3028   4.764   2.869   1.565
  710SOL    HW1 3029   4.863   2.867   1.576
  710SOL    HW2 3030   4.722   2.920   1.640
  711SOL     OW 3031   0.094   2.607   5.293
  711SOL    HW1 3032   0.026   2.542   5.328
  711SOL    HW2 3033   0.152   2.638   5.368
  712SOL     OW 3034   4.127   2.920   0.946
  712SOL    HW1 3035   4.225   2.932   0.927
  712SOL    HW2 3036   4.076   2.996   0.906
  713SOL     OW 3037   4.155   2.673   5.390
  713SOL    HW1 3038   4.254   2.671   5.407
  713SOL    HW2 3039   4.132   2.605   5.320
  714SOL     OW 3040   6.163   4.133   3.351
  714SOL    HW1 3041   6.242   4.072   3.349
  714SOL    HW2 3042   6.115   4.128   3.264
  715SOL     OW 3043   6.334   5.031   5.504
  715SOL    HW1 3044   6.307   5.101   5.570
  715SOL    HW2 3045   6.434   5.023   5.504
  716SOL     OW 3046   1.986   0.877   2.613
  716SOL    HW1 3047   1.896   0.859   2.573
  716SOL    HW2 3048   2.011   0.973   2.598
  717SOL     OW 3049   5.667   4.797   3.421
  717SOL    HW1 3050   5.743   4.847   3.463
  717SOL    HW2 3051   5.692   4.701   3.410
  718SOL     OW 3052   5.296   1.940   4.110
  718SOL    HW1 3053   5.221   1.999   4.140
  718SOL    HW2 3054   5.359   1.992   4.052
  719SOL     OW 3055   6.933   0.705   2.813
  719SOL    HW1 3056   6.834   0.718   2.821
  719SOL    HW2 3057   6.967   0.761   2.737
  720SOL     OW 3058   1.903   0.768   6.433
  720SOL    HW1 3059   1.937   0.678   6.460
  720SOL    HW2 3060   1.830   0.757   6.365
  721SOL     OW 3061   0.152   2.599   2.369
  721SOL    HW1 3062   0.231   2.658   2.352
  721SOL    HW2 3063   0.092   2.642   2.436
  722SOL     OW 3064   4.287   7.018   6.761
  722SOL    HW1 3065   4.205   0.041   6.723
  722SOL    HW2 3066   4.329   6.959   6.692
  723SOL     OW 3067   2.180   6.307   3.525
  723SOL    HW1 3068   2.243   6.261   3.587
  723SOL    HW2 3069   2.095   6.255   3.519
  724SOL     OW 3070   1.034   0.988   3.668
  724SOL    HW1 3071   1.052   1.020   3.575
  724SOL    HW2 3072   0.984   1.059   3.718
  725SOL     OW 3073   2.280   4.367   2.422
  725SOL    HW1 3074   2.361   4.405   2.468
  725SOL    HW2 3075   2.215   4.334   2.490
  726SOL     OW 3076   2.297   5.150   0.350
  726SOL    HW1 3077   2.256   5.197   0.429
  726SOL    HW2 3078   2.375   5.202   0.317
  727SOL     OW 3079   4.452   5.334   6.085
  727SOL    HW1 3080   4.502   5.415   6.115
  727SOL    HW2 3081   4.464   5.260   6.150
  728SOL     OW 3082   0.181   3.388   4.654
  728SOL    HW1 3083   0.211   3.329   4.729
  728SOL    HW2 3084   0.081   3.393   4.654
  729SOL     OW 3085   0.070   3.165   1.180
  729SOL    HW1 3086   0.047   3.259   1.205
  729SOL    HW2 3087   0.164   3.163   1.144
  730SOL     OW 3088   4.562   0.676   2.857
  730SOL    HW1 3089   4.507   0.615   2.915
  730SOL    HW2 3090   4.650   0.694   2.901
  731SOL     OW 3091   4.636   4.547   6.800
  731SOL    HW1 3092   4.648   4.453   6.770
  731SOL    HW2 3093   4.720   4.598   6.783
  732SOL     OW 3094   5.112   1.723   2.698
  732SOL    HW1 3095   5.138   1.771   2.782
  732SOL    HW2 3096   5.140   1.777   2.618
  733SOL     OW 3097   5.609   6.382   3.343
  733SOL    HW1 3098   5.700   6.366   3.381
  733SOL    HW2 3099   5.609   6.360   3.245
  734SOL     OW 3100   6.418   4.962   2.493
  734SOL    HW1 3101   6.455   5.036   2.548
  734SOL    HW2 3102   6.319   4.957   2.505
  735SOL     OW 3103   5.918   0.727   1.865
  735SOL    HW1 3104   6.018   0.723   1.869
  735SOL    HW2 3105   5.889   0.822   1.875
  736SOL     OW 3106   1.363   1.271   4.316
  736SOL    HW1 3107   1.437   1.293   4.252
  736SOL    HW2 3108   1.400   1.261   4.408
  737SOL     OW 3109   5.841   1.398   6.197
  737SOL    HW1 3110   5.828   1.477   6.258
  737SOL    HW2 3111   5.938   1.380   6.187
  738SOL     OW 3112   2.720   4.084   1.308
  738SOL    HW1 3113   2.700   4.166   1.254
  738SOL    HW2 3114   2.635   4.048   1.347
  739SOL     OW 3115   2.867   6.976   5.130
  739SOL    HW1 3116   2.950   6.949   5.180
  739SOL    HW2 3117   2.874   0.051   5.102
  740SOL     OW 3118   5.741   2.100   2.911
  740SOL    HW1 3119   5.809   2.160   2.952
  740SOL    HW2 3120   5.652   2.116   2.953
  741SOL     OW 3121   2.624   0.584   4.183
  741SOL    HW1 3122   2.667   0.660   4.134
  741SOL    HW2 3123   2.548   0.548   4.129
  742SOL     OW 3124   1.433   6.366   0.658
  742SOL    HW1 3125   1.346   6.346   0.613
  742SOL    HW2 3126   1.469   6.282   0.698
  743SOL     OW 3127   1.055   6.653   3.615
  743SOL    HW1 3128   1.040   6.587   3.541
  743SOL    HW2 3129   0.968   6.691   3.645
  744SOL     OW 3130   6.053   1.157   0.497
  744SOL    HW1 3131   6.051   1.168   0.596
  744SOL    HW2 3132   5.965   1.121   0.465
  745SOL     OW 3133   2.426   5.831   4.930
  745SOL    HW1 3134   2.405   5.798   5.022
  745SOL    HW2 3135   2.447   5.753   4.871
  746SOL     OW 3136   5.727   4.325   4.952
  746SOL    HW1 3137   5.702   4.228   4.953
  746SOL    HW2 3138   5.729   4.358   4.857
  747SOL     OW 3139   5.353   5.380   3.205
  747SOL    HW1 3140   5.284   5.403   3.136
  747SOL    HW2 3141   5.309   5.331   3.281
  748SOL     OW 3142   5.379   5.825   2.773
  748SOL    HW1 3143   5.478   5.819   2.789
  748SOL    HW2 3144   5.362   5.874   2.687
  749SOL     OW 3145   4.868   4.129   3.556
  749SOL    HW1 3146   4.931   4.202   3.582
  749SOL    HW2 3147   4.784   4.168   3.518
  750SOL     OW 3148   2.498   1.606   1.681
  750SOL    HW1 3149   2.429   1.595   1.609
  750SOL    HW2 3150   2.466   1.674   1.747
  751SOL     OW 3151   4.768   1.708   0.573
  751SOL    HW1 3152   4.734   1.701   0.480
  751SOL    HW2 3153   4.780   1.805   0.597
  752SOL     OW 3154   3.360   2.490   5.401
  752SOL    HW1 3155   3.357   2.590   5.392
  752SOL    HW2 3156   3.307   2.448   5.327
  753SOL     OW 3157   3.809   3.692   5.260
  753SOL    HW1 3158   3.863   3.729   5.335
  753SOL    HW2 3159   3.836   3.597   5.244
  754SOL     OW 3160   5.318   0.715   6.821
  754SOL    HW1 3161   5.398   0.683   6.870
  754SOL    HW2 3162   5.271   0.784   6.876
  755SOL     OW 3163   3.046   4.345   5.344
  755SOL    HW1 3164   3.077   4.390   5.428
  755SOL    HW2 3165   3.010   4.414   5.281
  756SOL     OW 3166   2.558   5.367   6.928
  756SOL    HW1 3167   2.653   5.397   6.936
  756SOL    HW2 3168   2.501   5.445   6.899
  757SOL     OW 3169   1.935   6.582   2.310
  757SOL    HW1 3170   1.902   6.593   2.216
  757SOL    HW2 3171   1.864   6.608   2.374
  758SOL     OW 3172   3.899   1.229   4.042
  758SOL    HW1 3173   3.912   1.228   4.141
  758SOL    HW2 3174   3.806   1.201   4.020
  759SOL     OW 3175   0.340   3.378   3.810
  759SOL    HW1 3176   0.301   3.294   3.846
  759SOL    HW2 3177   0.421   3.402   3.863
  760SOL     OW 3178   0.254   7.003   3.756
  760SOL    HW1 3179   0.157   6.983   3.758
  760SOL    HW2 3180   0.277   0.031   3.672
  761SOL     OW 3181   5.201   3.759   5.553
  761SOL    HW1 3182   5.158   3.687   5.608
  761SOL    HW2 3183   5.188   3.847   5.598
  762SOL     OW 3184   2.989   5.965   5.825
  762SOL    HW1 3185   2.990   6.049   5.880
  762SOL    HW2 3186   2.896   5.947   5.794
  763SOL     OW 3187   5.894   0.521   0.145
  763SOL    HW1 3188   5.953   0.545   0.222
  763SOL    HW2 3189   5.823   0.589   0.135
  764SOL     OW 3190   5.682   0.654   5.412
  764SOL    HW1 3191   5.651   0.704   5.332
  764SOL    HW2 3192   5.782   0.650   5.413
  765SOL     OW 3193   0.594   6.531   1.089
  765SOL    HW1 3194   0.507   6.499   1.124
  765SOL    HW2 3195   0.659   6.455   1.085
  766SOL     OW 3196   2.050   2.093   4.825
  766SOL    HW1 3197   2.032   2.171   4.885
  766SOL    HW2 3198   1.975   2.082   4.760
  767SOL     OW 3199   6.911   0.036   4.282
  767SOL    HW1 3200   6.919   6.986   4.211
  767SOL    HW2 3201   6.987   0.100   4.275
  768SOL     OW 3202   2.154   6.126   2.416
  768SOL    HW1 3203   2.226   6.185   2.380
  768SOL    HW2 3204   2.069   6.178   2.424
  769SOL     OW 3205   3.222   1.633   4.771
  769SOL    HW1 3206   3.129   1.657   4.742
  769SOL    HW2 3207   3.236   1.534   4.758
  770SOL     OW 3208   2.430   4.855   4.335
  770SOL    HW1 3209   2.388   4.827   4.249
  770SOL    HW2 3210   2.387   4.807   4.411
  771SOL     OW 3211   1.399   5.213   2.507
  771SOL    HW1 3212   1.441   5.144   2.449
  771SOL    HW2 3213   1.325   5.258   2.458
  772SOL     OW 3214   5.291   5.049   6.662
  772SOL    HW1 3215   5.257   5.134   6.621
  772SOL    HW2 3216   5.228   5.019   6.733
  773SOL     OW 3217   0.951   3.370   3.776
  773SOL    HW1 3218   0.956   3.450   3.835
  773SOL    HW2 3219   1.034   3.315   3.788
  774SOL     OW 3220   1.833   1.897   3.665
  774SOL    HW1 3221   1.925   1.888   3.702
  774SOL    HW2 3222   1.779   1.816   3.689
  775SOL     OW 3223   2.281   4.114   4.073
  775SOL    HW1 3224   2.228   4.036   4.037
  775SOL    HW2 3225   2.250   4.136   4.165
  776SOL     OW 3226   1.195   6.788   6.312
  776SOL    HW1 3227   1.157   6.879   6.300
  776SOL    HW2 3228   1.122   6.720   6.305
  777SOL     OW 3229   1.862   3.797   0.064
  777SOL    HW1 3230   1.910   3.765   0.146
  777SOL    HW2 3231   1.897   3.887   0.039
  778SOL     OW 3232   3.481   6.746   1.918
  778SOL    HW1 3233   3.547   6.687   1.964
  778SOL    HW2 3234   3.429   6.798   1.986
  779SOL     OW 3235   0.222   2.775   2.060
  779SOL    HW1 3236   0.135   2.726   2.067
  779SOL    HW2 3237   0.292   2.725   2.111
  780SOL     OW 3238   1.783   1.888   5.043
  780SOL    HW1 3239   1.790   1.985   5.064
  780SOL    HW2 3240   1.838   1.867   4.963
  781SOL     OW 3241   0.639   4.444   0.595
  781SOL    HW1 3242   0.542   4.461   0.578
  781SOL    HW2 3243   0.663   4.474   0.687
  782SOL     OW 3244   1.768   3.951   6.036
  782SOL    HW1 3245   1.787   3.876   6.099
  782SOL    HW2 3246   1.844   4.016   6.039
  783SOL     OW 3247   5.124   4.357   6.626
  783SOL    HW1 3248   5.107   4.407   6.711
  783SOL    HW2 3249   5.140   4.422   6.552
  784SOL     OW 3250   3.242   6.112   1.454
  784SOL    HW1 3251   3.165   6.058   1.420
  784SOL    HW2 3252   3.222   6.209   1.443
  785SOL     OW 3253   0.514   0.141   4.073
  785SOL    HW1 3254   0.438   0.108   4.017
  785SOL    HW2 3255   0.578   0.065   4.090
  786SOL     OW 3256   6.447   1.181   3.595
  786SOL    HW1 3257   6.508   1.205   3.520
  786SOL    HW2 3258   6.352   1.199   3.567
  787SOL     OW 3259   2.351   6.899   6.923
  787SOL    HW1 3260   2.356   6.996   6.948
  787SOL    HW2 3261   2.375   6.843   7.003
  788SOL     OW 3262   3.856   3.332   1.047
  788SOL    HW1 3263   3.807   3.267   1.104
  788SOL    HW2 3264   3.949   3.346   1.082
  789SOL     OW 3265   4.528   5.541   1.465
  789SOL    HW1 3266   4.489   5.518   1.555
  789SOL    HW2 3267   4.565   5.458   1.423
  790SOL     OW 3268   0.444   2.988   1.776
  790SOL    HW1 3269   0.500   2.951   1.850
  790SOL    HW2 3270   0.471   3.082   1.758
  791SOL     OW 3271   2.772   5.078   5.310
  791SOL    HW1 3272   2.786   4.980   5.295
  791SOL    HW2 3273   2.859   5.126   5.297
  792SOL     OW 3274   0.839   1.068   0.963
  792SOL    HW1 3275   0.819   1.165   0.947
  792SOL    HW2 3276   0.840   1.020   0.875
  793SOL     OW 3277   3.821   5.618   3.633
  793SOL    HW1 3278   3.802   5.528   3.593
  793SOL    HW2 3279   3.780   5.689   3.576
  794SOL     OW 3280   3.002   3.247   3.719
  794SOL    HW1 3281   3.046   3.166   3.758
  794SOL    HW2 3282   3.065   3.324   3.724
  795SOL     OW 3283   3.834   1.089   6.477
  795SOL    HW1 3284   3.840   1.025   6.401
  795SOL    HW2 3285   3.765   1.159   6.457
  796SOL     OW 3286   1.903   3.342   6.644
  796SOL    HW1 3287   1.953   3.380   6.722
  796SOL    HW2 3288   1.946   3.371   6.559
  797SOL     OW 3289   4.922   6.970   0.441
  797SOL    HW1 3290   4.961   6.972   0.349
  797SOL    HW2 3291   4.975   6.908   0.499
  798SOL     OW 3292   3.518   6.119   1.463
  798SOL    HW1 3293   3.423   6.088   1.462
  798SOL    HW2 3294   3.548   6.135   1.369
  799SOL     OW 3295   1.301   1.834   6.485
  799SOL    HW1 3296   1.228   1.776   6.449
  799SOL    HW2 3297   1.264   1.896   6.554
  800SOL     OW 3298   6.378   1.942   1.885
  800SOL    HW1 3299   6.437   1.919   1.963
  800SOL    HW2 3300   6.402   2.032   1.850
  801SOL     OW 3301   2.072   5.246   5.533
  801SOL    HW1 3302   1.993   5.299   5.503
  801SOL    HW2 3303   2.059   5.150   5.507
  802SOL     OW 3304   5.245   2.415   0.459
  802SOL    HW1 3305   5.192   2.364   0.527
  802SOL    HW2 3306   5.279   2.352   0.389
  803SOL     OW 3307   2.902   1.134   5.582
  803SOL    HW1 3308   2.936   1.116   5.489
  803SOL    HW2 3309   2.892   1.232   5.595
  804SOL     OW 3310   6.504   0.512   1.699
  804SOL    HW1 3311   6.558   0.458   1.763
  804SOL    HW2 3312   6.543   0.604   1.692
  805SOL     OW 3313   3.122   1.452   4.147
  805SOL    HW1 3314   3.100   1.380   4.213
  805SOL    HW2 3315   3.038   1.486   4.106
  806SOL     OW 3316   1.367   6.562   5.360
  806SOL    HW1 3317   1.443   6.589   5.419
  806SOL    HW2 3318   1.348   6.634   5.294
  807SOL     OW 3319   0.304   6.307   5.157
  807SOL    HW1 3320   0.334   6.398   5.131
  807SOL    HW2 3321   0.381   6.244   5.151
  808SOL     OW 3322   5.757   2.866   0.425
  808SOL    HW1 3323   5.748   2.854   0.524
  808SOL    HW2 3324   5.667   2.869   0.383
  809SOL     OW 3325   0.771   5.084   0.239
  809SOL    HW1 3326   0.725   5.070   0.151
  809SOL    HW2 3327   0.797   5.181   0.248
  810SOL     OW 3328   2.879   3.551   0.291
  810SOL    HW1 3329   2.874   3.603   0.376
  810SOL    HW2 3330   2.829   3.465   0.301
  811SOL     OW 3331   5.533   4.975   4.643
  811SOL    HW1 3332   5.449   4.921   4.634
  811SOL    HW2 3333   5.553   5.020   4.556
  812SOL     OW 3334   0.488   1.989   2.210
  812SOL    HW1 3335   0.447   2.079   2.224
  812SOL    HW2 3336   0.503   1.945   2.298
  813SOL     OW 3337   1.504   1.488   4.549
  813SOL    HW1 3338   1.430   1.484   4.616
  813SOL    HW2 3339   1.512   1.581   4.514
  814SOL     OW 3340   0.564   5.954   3.156
  814SOL    HW1 3341   0.521   5.939   3.067
  814SOL    HW2 3342   0.497   5.937   3.228
  815SOL     OW 3343   5.077   2.214   3.872
  815SOL    HW1 3344   5.078   2.183   3.967
  815SOL    HW2 3345   4.992   2.264   3.854
  816SOL     OW 3346   5.285   3.217   0.493
  816SOL    HW1 3347   5.255   3.138   0.545
  816SOL    HW2 3348   5.322   3.287   0.555
  817SOL     OW 3349   1.437   5.598   0.867
  817SOL    HW1 3350   1.445   5.505   0.830
  817SOL    HW2 3351   1.524   5.647   0.852
  818SOL     OW 3352   5.789   2.783   3.526
  818SOL    HW1 3353   5.691   2.762   3.522
  818SOL    HW2 3354   5.838   2.703   3.558
  819SOL     OW 3355   5.389   2.284   1.613
  819SOL    HW1 3356   5.404   2.289   1.712
  819SOL    HW2 3357   5.326   2.357   1.586
  820SOL     OW 3358   2.321   1.962   4.557
  820SOL    HW1 3359   2.245   2.024   4.578
  820SOL    HW2 3360   2.331   1.953   4.458
  821SOL     OW 3361   5.571   3.910   5.214
  821SOL    HW1 3362   5.645   3.899   5.280
  821SOL    HW2 3363   5.530   3.821   5.196
  822SOL     OW 3364   0.831   4.361   3.888
  822SOL    HW1 3365   0.839   4.262   3.901
  822SOL    HW2 3366   0.857   4.408   3.972
  823SOL     OW 3367   0.825   3.580   6.024
  823SOL    HW1 3368   0.914   3.621   6.046
  823SOL    HW2 3369   0.838   3.509   5.955
  824SOL     OW 3370   5.734   1.004   5.032
  824SOL    HW1 3371   5.748   0.958   4.944
  824SOL    HW2 3372   5.784   0.955   5.103
  825SOL     OW 3373   6.686   5.949   1.059
  825SOL    HW1 3374   6.763   5.922   1.002
  825SOL    HW2 3375   6.718   5.967   1.152
  826SOL     OW 3376   3.753   1.334   5.615
  826SOL    HW1 3377   3.824   1.263   5.614
  826SOL    HW2 3378   3.693   1.321   5.693
  827SOL     OW 3379   3.443   3.807   4.588
  827SOL    HW1 3380   3.420   3.773   4.679
  827SOL    HW2 3381   3.360   3.839   4.542
  828SOL     OW 3382   5.951   5.991   4.688
  828SOL    HW1 3383   5.935   5.895   4.711
  828SOL    HW2 3384   5.996   5.996   4.599
  829SOL     OW 3385   3.351   2.894   2.933
  829SOL    HW1 3386   3.436   2.896   2.880
  829SOL    HW2 3387   3.297   2.975   2.913
  830SOL     OW 3388   6.856   4.555   0.094
  830SOL    HW1 3389   6.868   4.455   0.096
  830SOL    HW2 3390   6.885   4.593   0.181
  831SOL     OW 3391   5.375   6.303   1.202
  831SOL    HW1 3392   5.323   6.334   1.282
  831SOL    HW2 3393   5.471   6.295   1.226
  832SOL     OW 3394   3.292   1.880   4.899
  832SOL    HW1 3395   3.210   1.906   4.950
  832SOL    HW2 3396   3.284   1.785   4.870
  833SOL     OW 3397   1.686   3.485   6.064
  833SOL    HW1 3398   1.766   3.541   6.090
  833SOL    HW2 3399   1.664   3.500   5.968
  834SOL     OW 3400   4.667   3.745   6.776
  834SOL    HW1 3401   4.645   3.710   6.684
  834SOL    HW2 3402   4.737   3.688   6.818
  835SOL     OW 3403   1.290   0.352   3.982
  835SOL    HW1 3404   1.306   0.356   4.080
  835SOL    HW2 3405   1.194   0.328   3.964
  836SOL     OW 3406   3.399   1.305   5.528
  836SOL    HW1 3407   3.428   1.255   5.610
  836SOL    HW2 3408   3.308   1.275   5.501
  837SOL     OW 3409   1.450   0.463   0.935
  837SOL    HW1 3410   1.546   0.437   0.936
  837SOL    HW2 3411   1.408   0.439   1.023
  838SOL     OW 3412   2.070   5.561   3.967
  838SOL    HW1 3413   2.077   5.463   3.989
  838SOL    HW2 3414   2.081   5.573   3.869
  839SOL     OW 3415   1.578   1.265   1.064
  839SOL    HW1 3416   1.671   1.239   1.092
  839SOL    HW2 3417   1.512   1.208   1.112
  840SOL     OW 3418   5.785   5.149   0.142
  840SOL    HW1 3419   5.778   5.069   0.203
  840SOL    HW2 3420   5.850   5.128   0.069
  841SOL     OW 3421   4.000   4.797   5.574
  841SOL    HW1 3422   3.990   4.828   5.479
  841SOL    HW2 3423   4.004   4.875   5.635
  842SOL     OW 3424   3.035   0.295   0.214
  842SOL    HW1 3425   3.014   0.303   0.311
  842SOL    HW2 3426   3.133   0.275   0.203
  843SOL     OW 3427   1.799   1.550   1.448
  843SOL    HW1 3428   1.813   1.601   1.363
  843SOL    HW2 3429   1.875   1.567   1.510
  844SOL     OW 3430   6.995   0.060   1.198
  844SOL    HW1 3431   6.940   0.118   1.258
  844SOL    HW2 3432   0.054   0.024   1.248
  845SOL     OW 3433   3.443   1.689   2.702
  845SOL    HW1 3434   3.513   1.694   2.631
  845SOL    HW2 3435   3.412   1.781   2.726
  846SOL     OW 3436   2.369   1.962   0.036
  846SOL    HW1 3437   2.451   1.905   0.045
  846SOL    HW2 3438   2.376   2.017   6.973
  847SOL     OW 3439   2.518   3.663   1.675
  847SOL    HW1 3440   2.421   3.671   1.699
  847SOL    HW2 3441   2.533   3.576   1.629
  848SOL     OW 3442   6.568   6.687   6.108
  848SOL    HW1 3443   6.480   6.641   6.125
  848SOL    HW2 3444   6.609   6.650   6.024
  849SOL     OW 3445   5.934   3.915   0.163
  849SOL    HW1 3446   6.031   3.939   0.149
  849SOL    HW2 3447   5.882   3.999   0.178
  850SOL     OW 3448   6.968   0.835   5.268
  850SOL    HW1 3449   6.928   0.754   5.224
  850SOL    HW2 3450   6.900   0.879   5.326
  851SOL     OW 3451   6.505   2.991   6.528
  851SOL    HW1 3452   6.600   2.983   6.556
  851SOL    HW2 3453   6.486   3.085   6.501
  852SOL     OW 3454   0.155   3.728   1.632
  852SOL    HW1 3455   0.105   3.780   1.563
  852SOL    HW2 3456   0.092   3.695   1.702
  853SOL     OW 3457   1.969   4.216   0.476
  853SOL    HW1 3458   1.887   4.204   0.420
  853SOL    HW2 3459   2.019   4.296   0.444
  854SOL     OW 3460   6.254   6.259   6.754
  854SOL    HW1 3461   6.178   6.197   6.731
  854SOL    HW2 3462   6.326   6.207   6.799
  855SOL     OW 3463   0.287   0.917   0.163
  855SOL    HW1 3464   0.295   0.836   0.105
  855SOL    HW2 3465   0.216   0.902   0.232
  856SOL     OW 3466   1.986   6.596   6.515
  856SOL    HW1 3467   2.003   6.508   6.560
  856SOL    HW2 3468   1.964   6.664   6.584
  857SOL     OW 3469   0.066   5.043   3.840
  857SOL    HW1 3470   0.048   4.948   3.867
  857SOL    HW2 3471   7.013   5.075   3.779
  858SOL     OW 3472   4.005   4.078   0.546
  858SOL    HW1 3473   4.075   4.009   0.568
  858SOL    HW2 3474   3.914   4.039   0.558
  859SOL     OW 3475   3.799   6.935   5.116
  859SOL    HW1 3476   3.721   6.994   5.094
  859SOL    HW2 3477   3.863   6.936   5.040
  860SOL     OW 3478   5.262   2.545   5.148
  860SOL    HW1 3479   5.355   2.518   5.126
  860SOL    HW2 3480   5.218   2.473   5.202
  861SOL     OW 3481   2.022   5.565   3.078
  861SOL    HW1 3482   1.955   5.594   3.009
  861SOL    HW2 3483   2.093   5.510   3.033
  862SOL     OW 3484   1.783   4.489   3.734
  862SOL    HW1 3485   1.857   4.422   3.725
  862SOL    HW2 3486   1.799   4.546   3.814
  863SOL     OW 3487   6.982   0.117   5.879
  863SOL    HW1 3488   0.008   0.125   5.968
  863SOL    HW2 3489   6.883   0.112   5.894
  864SOL     OW 3490   4.784   0.155   5.272
  864SOL    HW1 3491   4.794   0.165   5.173
  864SOL    HW2 3492   4.848   0.216   5.319
  865SOL     OW 3493   1.908   5.968   4.437
  865SOL    HW1 3494   2.003   5.986   4.459
  865SOL    HW2 3495   1.866   6.049   4.396
  866SOL     OW 3496   2.311   7.015   1.675
  866SOL    HW1 3497   2.339   7.018   1.579
  866SOL    HW2 3498   2.229   0.050   1.688
  867SOL     OW 3499   5.628   1.822   0.638
  867SOL    HW1 3500   5.616   1.724   0.650
  867SOL    HW2 3501   5.662   1.862   0.723
  868SOL     OW 3502   6.928   2.472   2.023
  868SOL    HW1 3503   6.837   2.449   2.057
  868SOL    HW2 3504   6.927   2.475   1.923
  869SOL     OW 3505   0.147   3.763   3.897
  869SOL    HW1 3506   0.098   3.850   3.905
  869SOL    HW2 3507   0.170   3.728   3.988
  870SOL     OW 3508   3.335   4.908   1.625
  870SOL    HW1 3509   3.262   4.948   1.681
  870SOL    HW2 3510   3.297   4.871   1.541
  871SOL     OW 3511   4.889   1.688   3.706
  871SOL    HW1 3512   4.945   1.765   3.736
  871SOL    HW2 3513   4.816   1.721   3.647
  872SOL     OW 3514   6.733   2.393   4.514
  872SOL    HW1 3515   6.811   2.456   4.518
  872SOL    HW2 3516   6.675   2.418   4.436
  873SOL     OW 3517   4.287   6.492   5.338
  873SOL    HW1 3518   4.199   6.518   5.299
  873SOL    HW2 3519   4.345   6.574   5.346
  874SOL     OW 3520   5.532   4.147   0.239
  874SOL    HW1 3521   5.584   4.231   0.253
  874SOL    HW2 3522   5.448   4.168   0.190
  875SOL     OW 3523   5.153   5.080   1.291
  875SOL    HW1 3524   5.223   5.152   1.297
  875SOL    HW2 3525   5.175   5.018   1.216
  876SOL     OW 3526   0.126   5.505   1.977
  876SOL    HW1 3527   0.037   5.533   2.013
  876SOL    HW2 3528   0.160   5.426   2.029
  877SOL     OW 3529   2.695   4.636   6.865
  877SOL    HW1 3530   2.751   4.663   6.944
  877SOL    HW2 3531   2.750   4.642   6.782
  878SOL     OW 3532   4.099   6.824   3.968
  878SOL    HW1 3533   4.044   6.815   4.051
  878SOL    HW2 3534   4.188   6.861   3.992
  879SOL     OW 3535   4.707   0.611   1.010
  879SOL    HW1 3536   4.710   0.691   1.069
  879SOL    HW2 3537   4.672   0.533   1.062
  880SOL     OW 3538   3.016   3.783   3.781
  880SOL    HW1 3539   2.984   3.754   3.690
  880SOL    HW2 3540   3.012   3.883   3.788
  881SOL     OW 3541   4.469   2.606   5.115
  881SOL    HW1 3542   4.464   2.686   5.056
  881SOL    HW2 3543   4.399   2.540   5.088
  882SOL     OW 3544   0.760   3.391   4.801
  882SOL    HW1 3545   0.797   3.449   4.874
  882SOL    HW2 3546   0.696   3.445   4.746
  883SOL     OW 3547   3.071   0.302   2.912
  883SOL    HW1 3548   2.978   0.265   2.907
  883SOL    HW2 3549   3.070   0.385   2.967
  884SOL     OW 3550   4.893   3.101   5.319
  884SOL    HW1 3551   4.889   3.198   5.343
  884SOL    HW2 3552   4.826   3.050   5.372
  885SOL     OW 3553   2.541   1.505   5.805
  885SOL    HW1 3554   2.619   1.474   5.751
  885SOL    HW2 3555   2.498   1.583   5.759
  886SOL     OW 3556   3.588   0.640   0.178
  886SOL    HW1 3557   3.525   0.696   0.124
  886SOL    HW2 3558   3.536   0.580   0.239
  887SOL     OW 3559   3.707   6.984   3.812
  887SOL    HW1 3560   3.806   6.996   3.809
  887SOL    HW2 3561   3.684   6.924   3.889
  888SOL     OW 3562   0.619   0.430   3.092
  888SOL    HW1 3563   0.574   0.341   3.103
  888SOL    HW2 3564   0.550   0.502   3.090
  889SOL     OW 3565   0.486   3.704   0.242
  889SOL    HW1 3566   0.552   3.736   0.175
  889SOL    HW2 3567   0.504   3.608   0.264
  890SOL     OW 3568   1.590   5.569   3.885
  890SOL    HW1 3569   1.662   5.589   3.818
  890SOL    HW2 3570   1.523   5.643   3.885
  891SOL     OW 3571   5.245   5.612   1.141
  891SOL    HW1 3572   5.248   5.710   1.162
  891SOL    HW2 3573   5.200   5.563   1.216
  892SOL     OW 3574   2.465   3.889   5.830
  892SOL    HW1 3575   2.383   3.937   5.860
  892SOL    HW2 3576   2.515   3.855   5.910
  893SOL     OW 3577   2.484   6.296   2.597
  893SOL    HW1 3578   2.451   6.360   2.528
  893SOL    HW2 3579   2.428   6.213   2.596
  894SOL     OW 3580   1.033   3.490   1.707
  894SOL    HW1 3581   0.962   3.554   1.737
  894SOL    HW2 3582   1.107   3.487   1.774
  895SOL     OW 3583   0.433   4.926   3.265
  895SOL    HW1 3584   0.380   4.981   3.330
  895SOL    HW2 3585   0.378   4.909   3.183
  896SOL     OW 3586   5.976   5.250   0.405
  896SOL    HW1 3587   5.986   5.269   0.503
  896SOL    HW2 3588   6.018   5.162   0.384
  897SOL     OW 3589   5.064   1.042   0.667
  897SOL    HW1 3590   5.021   1.131   0.680
  897SOL    HW2 3591   5.110   1.040   0.578
  898SOL     OW 3592   3.588   6.305   2.690
  898SOL    HW1 3593   3.642   6.228   2.656
  898SOL    HW2 3594   3.502   6.311   2.639
  899SOL     OW 3595   0.304   5.600   6.203
  899SOL    HW1 3596   0.395   5.625   6.169
  899SOL    HW2 3597   0.314   5.542   6.284
  900SOL     OW 3598   6.051   0.117   7.008
  900SOL    HW1 3599   6.011   0.202   0.024
  900SOL    HW2 3600   6.142   0.105   0.027
  901SOL     OW 3601   2.242   0.507   2.612
  901SOL    HW1 3602   2.182   0.508   2.532
  901SOL    HW2 3603   2.329   0.464   2.589
  902SOL     OW 3604   7.019   3.457   0.415
  902SOL    HW1 3605   6.949   3.519   0.451
  902SOL    HW2 3606   0.008   3.378   0.476
  903SOL     OW 3607   6.889   2.363   6.238
  903SOL    HW1 3608   6.892   2.273   6.279
  903SOL    HW2 3609   6.793   2.388   6.219
  904SOL     OW 3610   2.797   2.297   3.718
  904SOL    HW1 3611   2.778   2.278   3.622
  904SOL    HW2 3612   2.724   2.354   3.756
  905SOL     OW 3613   5.263   2.033   0.382
  905SOL    HW1 3614   5.354   1.996   0.404
  905SOL    HW2 3615   5.199   1.958   0.368
  906SOL     OW 3616   0.422   2.360   5.771
  906SOL    HW1 3617   0.519   2.336   5.764
  906SOL    HW2 3618   0.382   2.313   5.850
  907SOL     OW 3619   4.989   3.078   0.495
  907SOL    HW1 3620   4.988   3.168   0.539
  907SOL    HW2 3621   5.070   3.028   0.524
  908SOL     OW 3622   2.665   5.067   2.475
  908SOL    HW1 3623   2.635   5.083   2.381
  908SOL    HW2 3624   2.663   4.969   2.495
  909SOL     OW 3625   4.234   5.409   6.627
  909SOL    HW1 3626   4.145   5.366   6.646
  909SOL    HW2 3627   4.269   5.453   6.710
  910SOL     OW 3628   2.756   3.057   1.435
  910SOL    HW1 3629   2.678   3.068   1.374
  910SOL    HW2 3630   2.809   3.142   1.439
  911SOL     OW 3631   1.844   6.050   6.047
  911SOL    HW1 3632   1.825   5.978   5.981
  911SOL    HW2 3633   1.758   6.092   6.076
  912SOL     OW 3634   5.539   2.655   3.464
  912SOL    HW1 3635   5.507   2.589   3.532
  912SOL    HW2 3636   5.461   2.704   3.426
  913SOL     OW 3637   5.245   6.130   3.184
  913SOL    HW1 3638   5.230   6.095   3.276
  913SOL    HW2 3639   5.178   6.088   3.122
  914SOL     OW 3640   2.493   0.316   6.569
  914SOL    HW1 3641   2.416   0.378   6.587
  914SOL    HW2 3642   2.563   0.330   6.639
  915SOL     OW 3643   5.988   4.616   0.086
  915SOL    HW1 3644   5.972   4.524   0.121
  915SOL    HW2 3645   6.081   4.645   0.111
  916SOL     OW 3646   1.162   2.454   2.110
  916SOL    HW1 3647   1.231   2.428   2.043
  916SOL    HW2 3648   1.153   2.381   2.178
  917SOL     OW 3649   6.945   6.495   0.812
  917SOL    HW1 3650   7.005   6.534   0.742
  917SOL    HW2 3651   6.854   6.479   0.773
  918SOL     OW 3652   2.236   6.735   1.080
  918SOL    HW1 3653   2.274   6.764   0.992
  918SOL    HW2 3654   2.261   6.639   1.096
  919SOL     OW 3655   5.963   1.201   3.705
  919SOL    HW1 3656   5.915   1.223   3.620
  919SOL    HW2 3657   5.899   1.208   3.782
  920SOL     OW 3658   2.222   4.610   1.558
  920SOL    HW1 3659   2.184   4.517   1.560
  920SOL    HW2 3660   2.309   4.611   1.606
  921SOL     OW 3661   5.091   5.544   4.442
  921SOL    HW1 3662   5.049   5.511   4.527
  921SOL    HW2 3663   5.184   5.576   4.462
  922SOL     OW 3664   3.825   3.435   4.238
  922SOL    HW1 3665   3.780   3.409   4.152
  922SOL    HW2 3666   3.922   3.415   4.233
  923SOL     OW 3667   2.222   3.171   5.913
  923SOL    HW1 3668   2.285   3.150   5.987
  923SOL    HW2 3669   2.262   3.142   5.826
  924SOL     OW 3670   6.499   3.731   2.486
  924SOL    HW1 3671   6.587   3.690   2.459
  924SOL    HW2 3672   6.447   3.754   2.403
  925SOL     OW 3673   6.901   1.944   0.185
  925SOL    HW1 3674   6.940   1.857   0.215
  925SOL    HW2 3675   6.973   2.001   0.146
  926SOL     OW 3676   6.839   1.446   1.506
  926SOL    HW1 3677   6.930   1.477   1.534
  926SOL    HW2 3678   6.771   1.513   1.537
  927SOL     OW 3679   5.825   3.701   4.012
  927SOL    HW1 3680   5.886   3.683   3.934
  927SOL    HW2 3681   5.878   3.698   4.097
  928SOL     OW 3682   3.137   6.297   6.989
  928SOL    HW1 3683   3.208   6.299   0.039
  928SOL    HW2 3684   3.105   6.204   6.976
  929SOL     OW 3685   6.578   1.352   6.862
  929SOL    HW1 3686   6.630   1.432   6.890
  929SOL    HW2 3687   6.633   1.270   6.876
  930SOL     OW 3688   4.070   5.064   6.031
  930SOL    HW1 3689   4.033   5.052   5.938
  930SOL    HW2 3690   4.099   5.159   6.043
  931SOL     OW 3691   6.328   2.436   3.390
  931SOL    HW1 3692   6.294   2.528   3.409
  931SOL    HW2 3693   6.309   2.377   3.468
  932SOL     OW 3694   3.578   0.980   3.516
  932SOL    HW1 3695   3.641   0.905   3.537
  932SOL    HW2 3696   3.578   0.996   3.418
  933SOL     OW 3697   1.132   5.011   2.872
  933SOL    HW1 3698   1.130   5.062   2.957
  933SOL    HW2 3699   1.211   5.040   2.817
  934SOL     OW 3700   2.322   5.616   6.036
  934SOL    HW1 3701   2.332   5.561   5.953
  934SOL    HW2 3702   2.275   5.562   6.106
  935SOL     OW 3703   5.188   4.256   3.401
  935SOL    HW1 3704   5.286   4.264   3.420
  935SOL    HW2 3705   5.141   4.336   3.439
  936SOL     OW 3706   1.422   0.553   5.701
  936SOL    HW1 3707   1.497   0.503   5.658
  936SOL    HW2 3708   1.344   0.493   5.714
  937SOL     OW 3709   4.218   1.068   5.387
  937SOL    HW1 3710   4.187   1.088   5.294
  937SOL    HW2 3711   4.296   1.127   5.409
  938SOL     OW 3712   6.963   5.638   3.853
  938SOL    HW1 3713   6.916   5.695   3.920
  938SOL    HW2 3714   0.041   5.653   3.859
  939SOL     OW 3715   6.806   6.533   4.706
  939SOL    HW1 3716   6.831   6.619   4.663
  939SOL    HW2 3717   6.807   6.543   4.806
  940SOL     OW 3718   1.240   4.942   0.877
  940SOL    HW1 3719   1.262   4.864   0.935
  940SOL    HW2 3720   1.209   5.018   0.934
  941SOL     OW 3721   4.239   0.424   6.388
  941SOL    HW1 3722   4.242   0.363   6.309
  941SOL    HW2 3723   4.152   0.412   6.436
  942SOL     OW 3724   6.879   5.893   0.835
  942SOL    HW1 3725   6.873   5.920   0.739
  942SOL    HW2 3726   6.868   5.794   0.843
  943SOL     OW 3727   2.946   4.923   2.726
  943SOL    HW1 3728   2.887   5.003   2.734
  943SOL    HW2 3729   2.956   4.898   2.630
  944SOL     OW 3730   0.158   6.135   4.319
  944SOL    HW1 3731   0.059   6.143   4.330
  944SOL    HW2 3732   0.198   6.097   4.402
  945SOL     OW 3733   0.338   5.799   5.720
  945SOL    HW1 3734   0.302   5.789   5.628
  945SOL    HW2 3735   0.337   5.711   5.767
  946SOL     OW 3736   4.842   5.039   4.187
  946SOL    HW1 3737   4.905   4.978   4.235
  946SOL    HW2 3738   4.895   5.103   4.131
  947SOL     OW 3739   3.951   3.660   3.846
  947SOL    HW1 3740   3.963   3.758   3.858
  947SOL    HW2 3741   3.853   3.638   3.843
  948SOL     OW 3742   4.696   1.039   2.561
  948SOL    HW1 3743   4.678   1.136   2.548
  948SOL    HW2 3744   4.657   0.987   2.484
  949SOL     OW 3745   3.128   6.594   0.357
  949SOL    HW1 3746   3.148   6.500   0.385
  949SOL    HW2 3747   3.206   6.652   0.379
  950SOL     OW 3748   6.637   5.900   2.068
  950SOL    HW1 3749   6.721   5.935   2.029
  950SOL    HW2 3750   6.577   5.867   1.995
  951SOL     OW 3751   1.633   0.001   3.410
  951SOL    HW1 3752   1.681   0.057   3.343
  951SOL    HW2 3753   1.653   0.036   3.502
  952SOL     OW 3754   4.014   2.155   2.545
  952SOL    HW1 3755   3.997   2.072   2.492
  952SOL    HW2 3756   3.931   2.211   2.545
  953SOL     OW 3757   6.859   5.375   4.873
  953SOL    HW1 3758   6.772   5.423   4.873
  953SOL    HW2 3759   6.892   5.366   4.779
  954SOL     OW 3760   4.939   5.348   2.212
  954SOL    HW1 3761   4.916   5.307   2.124
  954SOL    HW2 3762   5.038   5.365   2.216
  955SOL     OW 3763   1.555   4.665   6.811
  955SOL    HW1 3764   1.636   4.721   6.827
  955SOL    HW2 3765   1.583   4.571   6.790
  956SOL     OW 3766   0.487   0.277   0.764
  956SOL    HW1 3767   0.433   0.323   0.834
  956SOL    HW2 3768   0.566   0.232   0.808
  957SOL     OW 3769   6.186   2.067   3.006
  957SOL    HW1 3770   6.141   2.064   3.095
  957SOL    HW2 3771   6.249   1.989   2.997
  958SOL     OW 3772   5.176   6.861   2.155
  958SOL    HW1 3773   5.237   6.803   2.209
  958SOL    HW2 3774   5.089   6.873   2.203
  959SOL     OW 3775   3.396   6.963   4.041
  959SOL    HW1 3776   3.308   6.951   3.994
  959SOL    HW2 3777   3.415   0.040   4.052
  960SOL     OW 3778   0.854   0.061   6.915
  960SOL    HW1 3779   0.767   0.013   6.898
  960SOL    HW2 3780   0.895   0.087   6.828
  961SOL     OW 3781   3.320   6.128   2.931
  961SOL    HW1 3782   3.321   6.218   2.889
  961SOL    HW2 3783   3.412   6.105   2.964
  962SOL     OW 3784   6.380   0.121   4.928
  962SOL    HW1 3785   6.357   0.207   4.974
  962SOL    HW2 3786   6.320   0.048   4.963
  963SOL     OW 3787   4.604   2.120   1.235
  963SOL    HW1 3788   4.532   2.093   1.300
  963SOL    HW2 3789   4.650   2.038   1.200
  964SOL     OW 3790   5.025   4.693   4.972
  964SOL    HW1 3791   5.004   4.606   4.927
  964SOL    HW2 3792   4.972   4.702   5.056
  965SOL     OW 3793   5.464   2.208   2.904
  965SOL    HW1 3794   5.366   2.230   2.907
  965SOL    HW2 3795   5.513   2.281   2.857
  966SOL     OW 3796   5.164   1.908   3.533
  966SOL    HW1 3797   5.165   1.951   3.623
  966SOL    HW2 3798   5.156   1.809   3.544
  967SOL     OW 3799   4.787   4.194   6.280
  967SOL    HW1 3800   4.840   4.224   6.201
  967SOL    HW2 3801   4.848   4.182   6.359
  968SOL     OW 3802   3.959   0.088   1.901
  968SOL    HW1 3803   3.919   0.179   1.910
  968SOL    HW2 3804   4.031   0.076   1.969
  969SOL     OW 3805   3.278   4.831   5.692
  969SOL    HW1 3806   3.336   4.830   5.610
  969SOL    HW2 3807   3.185   4.805   5.668
  970SOL     OW 3808   6.410   0.271   5.364
  970SOL    HW1 3809   6.445   0.355   5.406
  970SOL    HW2 3810   6.477   0.197   5.376
  971SOL     OW 3811   6.986   4.380   3.297
  971SOL    HW1 3812   0.041   4.359   3.361
  971SOL    HW2 3813   6.900   4.343   3.333
  972SOL     OW 3814   0.056   2.353   1.020
  972SOL    HW1 3815   7.002   2.349   1.087
  972SOL    HW2 3816   0.144   2.364   1.066
  973SOL     OW 3817   0.520   4.162   6.110
  973SOL    HW1 3818   0.502   4.075   6.156
  973SOL    HW2 3819   0.487   4.158   6.016
  974SOL     OW 3820   0.256   5.047   4.541
  974SOL    HW1 3821   0.184   4.978   4.530
  974SOL    HW2 3822   0.301   5.064   4.454
  975SOL     OW 3823   2.194   6.689   2.125
  975SOL    HW1 3824   2.197   6.683   2.025
  975SOL    HW2 3825   2.176   6.599   2.163
  976SOL     OW 3826   6.346   4.323   2.225
  976SOL    HW1 3827   6.346   4.359   2.132
  976SOL    HW2 3828   6.441   4.315   2.257
  977SOL     OW 3829   0.773   1.443   2.199
  977SOL    HW1 3830   0.841   1.371   2.214
  977SOL    HW2 3831   0.694   1.426   2.258
  978SOL     OW 3832   5.457   2.224   2.123
  978SOL    HW1 3833   5.545   2.200   2.164
  978SOL    HW2 3834   5.394   2.252   2.195
  979SOL     OW 3835   0.118   3.703   6.651
  979SOL    HW1 3836   0.039   3.649   6.681
  979SOL    HW2 3837   0.202   3.661   6.687
  980SOL     OW 3838   3.818   1.655   5.110
  980SOL    HW1 3839   3.731   1.658   5.061
  980SOL    HW2 3840   3.875   1.733   5.082
  981SOL     OW 3841   0.140   0.436   4.853
  981SOL    HW1 3842   0.231   0.394   4.857
  981SOL    HW2 3843   0.088   0.394   4.778
  982SOL     OW 3844   0.807   2.033   4.959
  982SOL    HW1 3845   0.897   2.020   4.917
  982SOL    HW2 3846   0.815   2.024   5.058
  983SOL     OW 3847   0.602   3.809   3.670
  983SOL    HW1 3848   0.542   3.746   3.721
  983SOL    HW2 3849   0.562   3.828   3.581
  984SOL     OW 3850   1.476   2.523   3.341
  984SOL    HW1 3851   1.537   2.464   3.395
  984SOL    HW2 3852   1.528   2.566   3.267
  985SOL     OW 3853   6.451   3.546   4.229
  985SOL    HW1 3854   6.364   3.586   4.258
  985SOL    HW2 3855   6.493   3.499   4.306
  986SOL     OW 3856   5.183   4.204   1.132
  986SOL    HW1 3857   5.107   4.155   1.173
  986SOL    HW2 3858   5.217   4.272   1.197
  987SOL     OW 3859   5.988   5.627   3.437
  987SOL    HW1 3860   5.953   5.681   3.514
  987SOL    HW2 3861   6.078   5.591   3.461
  988SOL     OW 3862   3.686   4.077   1.652
  988SOL    HW1 3863   3.674   4.074   1.751
  988SOL    HW2 3864   3.678   4.171   1.619
  989SOL     OW 3865   0.306   2.151   0.706
  989SOL    HW1 3866   0.372   2.097   0.758
  989SOL    HW2 3867   0.333   2.248   0.708
  990SOL     OW 3868   3.349   0.855   3.143
  990SOL    HW1 3869   3.407   0.774   3.134
  990SOL    HW2 3870   3.315   0.862   3.237
  991SOL     OW 3871   6.862   3.822   3.975
  991SOL    HW1 3872   6.845   3.831   4.073
  991SOL    HW2 3873   6.928   3.891   3.946
  992SOL     OW 3874   0.790   2.506   1.362
  992SOL    HW1 3875   0.833   2.567   1.428
  992SOL    HW2 3876   0.697   2.537   1.344
  993SOL     OW 3877   1.595   4.746   1.136
  993SOL    HW1 3878   1.669   4.694   1.179
  993SOL    HW2 3879   1.618   4.843   1.138
  994SOL     OW 3880   3.344   6.562   1.683
  994SOL    HW1 3881   3.435   6.522   1.675
  994SOL    HW2 3882   3.314   6.558   1.778
  995SOL     OW 3883   5.232   3.437   5.954
  995SOL    HW1 3884   5.184   3.349   5.948
  995SOL    HW2 3885   5.185   3.504   5.896
  996SOL     OW 3886   3.832   6.064   5.366
  996SOL    HW1 3887   3.917   6.027   5.329
  996SOL    HW2 3888   3.768   5.988   5.382
  997SOL     OW 3889   1.443   6.531   3.897
  997SOL    HW1 3890   1.345   6.540   3.878
  997SOL    HW2 3891   1.495   6.574   3.824
  998SOL     OW 3892   6.103   0.217   6.296
  998SOL    HW1 3893   6.137   0.123   6.289
  998SOL    HW2 3894   6.039   0.235   6.222
  999SOL     OW 3895   4.679   3.232   1.552
  999SOL    HW1 3896   4.749   3.196   1.613
  999SOL    HW2 3897   4.639   3.315   1.592
 1000SOL     OW 3898   3.837   1.719   1.385
 1000SOL    HW1 3899   3.870   1.649   1.448
 1000SOL    HW2 3900   3.791   1.791   1.436
 1001SOL     OW 3901   2.815   6.985   1.995
 1001SOL    HW1 3902   2.777   0.007   2.077
 1001SOL    HW2 3903   2.852   0.037   1.935
 1002SOL     OW 3904   5.215   2.499   1.521
 1002SOL    HW1 3905   5.180   2.591   1.540
 1002SOL    HW2 3906   5.154   2.431   1.562
 1003SOL     OW 3907   1.274   6.206   2.402
 1003SOL    HW1 3908   1.185   6.245   2.380
 1003SOL    HW2 3909   1.306   6.149   2.326
 1004SOL     OW 3910   6.213   1.398   3.822
 1004SOL    HW1 3911   6.189   1.414   3.918
 1004SOL    HW2 3912   6.311   1.411   3.809
 1005SOL     OW 3913   1.577   4.458   4.073
 1005SOL    HW1 3914   1.584   4.522   3.996
 1005SOL    HW2 3915   1.505   4.488   4.135
 1006SOL     OW 3916   2.275   4.263   0.647
 1006SOL    HW1 3917   2.249   4.185   0.704
 1006SOL    HW2 3918   2.339   4.321   0.697
 1007SOL     OW 3919   4.646   1.931   6.683
 1007SOL    HW1 3920   4.602   1.993   6.748
 1007SOL    HW2 3921   4.660   1.842   6.726
 1008SOL     OW 3922   0.534   4.681   5.188
 1008SOL    HW1 3923   0.608   4.748   5.181
 1008SOL    HW2 3924   0.500   4.660   5.096
 1009SOL     OW 3925   5.828   4.967   4.968
 1009SOL    HW1 3926   5.887   4.975   5.048
 1009SOL    HW2 3927   5.859   4.890   4.912
 1010SOL     OW 3928   2.031   3.186   1.544
 1010SOL    HW1 3929   2.083   3.252   1.599
 1010SOL    HW2 3930   2.033   3.096   1.589
 1011SOL     OW 3931   0.839   5.159   2.616
 1011SOL    HW1 3932   0.864   5.100   2.692
 1011SOL    HW2 3933   0.806   5.104   2.540
 1012SOL     OW 3934   5.907   0.338   2.328
 1012SOL    HW1 3935   5.924   0.415   2.266
 1012SOL    HW2 3936   5.852   0.269   2.281
 1013SOL     OW 3937   6.820   0.641   5.727
 1013SOL    HW1 3938   6.772   0.679   5.648
 1013SOL    HW2 3939   6.902   0.592   5.696
 1014SOL     OW 3940   1.632   5.107   3.974
 1014SOL    HW1 3941   1.631   5.185   4.036
 1014SOL    HW2 3942   1.721   5.060   3.979
 1015SOL     OW 3943   3.557   7.014   6.189
 1015SOL    HW1 3944   3.554   0.020   6.092
 1015SOL    HW2 3945   3.584   6.918   6.197
 1016SOL     OW 3946   5.345   3.912   1.363
 1016SOL    HW1 3947   5.342   3.815   1.390
 1016SOL    HW2 3948   5.274   3.962   1.414
 1017SOL     OW 3949   1.946   1.439   1.835
 1017SOL    HW1 3950   1.866   1.488   1.869
 1017SOL    HW2 3951   1.995   1.496   1.770
 1018SOL     OW 3952   0.281   5.149   3.693
 1018SOL    HW1 3953   0.279   5.249   3.692
 1018SOL    HW2 3954   0.194   5.114   3.725
 1019SOL     OW 3955   6.925   4.739   0.710
 1019SOL    HW1 3956   6.826   4.752   0.718
 1019SOL    HW2 3957   6.943   4.652   0.662
 1020SOL     OW 3958   0.115   0.251   1.598
 1020SOL    HW1 3959   0.190   0.212   1.544
 1020SOL    HW2 3960   0.094   0.343   1.564
 1021SOL     OW 3961   6.198   6.072   1.640
 1021SOL    HW1 3962   6.144   6.085   1.723
 1021SOL    HW2 3963   6.234   5.979   1.638
 1022SOL     OW 3964   2.390   6.193   6.597
 1022SOL    HW1 3965   2.380   6.272   6.538
 1022SOL    HW2 3966   2.322   6.197   6.670
 1023SOL     OW 3967   0.332   1.631   2.820
 1023SOL    HW1 3968   0.249   1.584   2.791
 1023SOL    HW2 3969   0.387   1.653   2.740
 1024SOL     OW 3970   1.216   1.753   4.635
 1024SOL    HW1 3971   1.125   1.712   4.634
 1024SOL    HW2 3972   1.265   1.723   4.717
 1025SOL     OW 3973   5.151   3.793   6.550
 1025SOL    HW1 3974   5.169   3.696   6.535
 1025SOL    HW2 3975   5.169   3.817   6.645
 1026SOL     OW 3976   2.994   2.306   1.457
 1026SOL    HW1 3977   3.003   2.379   1.524
 1026SOL    HW2 3978   3.076   2.248   1.459
 1027SOL     OW 3979   1.205   6.236   1.694
 1027SOL    HW1 3980   1.161   6.293   1.624
 1027SOL    HW2 3981   1.134   6.188   1.746
 1028SOL     OW 3982   0.863   6.290   3.233
 1028SOL    HW1 3983   0.868   6.357   3.159
 1028SOL    HW2 3984   0.851   6.199   3.194
 1029SOL     OW 3985   1.275   2.248   5.676
 1029SOL    HW1 3986   1.175   2.250   5.673
 1029SOL    HW2 3987   1.305   2.166   5.724
 1030SOL     OW 3988   3.185   3.387   1.458
 1030SOL    HW1 3989   3.133   3.469   1.434
 1030SOL    HW2 3990   3.283   3.405   1.447
 1031SOL     OW 3991   3.596   3.437   1.231
 1031SOL    HW1 3992   3.607   3.495   1.150
 1031SOL    HW2 3993   3.659   3.468   1.303
 1032SOL     OW 3994   2.103   1.455   6.178
 1032SOL    HW1 3995   2.093   1.398   6.260
 1032SOL    HW2 3996   2.038   1.426   6.108
 1033SOL     OW 3997   0.819   6.075   2.511
 1033SOL    HW1 3998   0.756   6.063   2.434
 1033SOL    HW2 3999   0.809   6.166   2.549
 1034SOL     OW 4000   3.499   6.898   4.385
 1034SOL    HW1 4001   3.518   6.985   4.339
 1034SOL    HW2 4002   3.433   6.845   4.333
 1035SOL     OW 4003   0.890   1.639   5.530
 1035SOL    HW1 4004   0.960   1.698   5.491
 1035SOL    HW2 4005   0.801   1.661   5.490
 1036SOL     OW 4006   5.274   1.108   1.077
 1036SOL    HW1 4007   5.302   1.014   1.056
 1036SOL    HW2 4008   5.176   1.111   1.094
 1037SOL     OW 4009   2.166   2.254   2.362
 1037SOL    HW1 4010   2.087   2.263   2.423
 1037SOL    HW2 4011   2.137   2.212   2.276
 1038SOL     OW 4012   2.635   0.214   6.970
 1038SOL    HW1 4013   2.687   0.251   6.892
 1038SOL    HW2 4014   2.698   0.174   0.016
 1039SOL     OW 4015   3.351   3.209   3.544
 1039SOL    HW1 4016   3.288   3.158   3.485
 1039SOL    HW2 4017   3.343   3.307   3.524
 1040SOL     OW 4018   4.439   1.187   2.422
 1040SOL    HW1 4019   4.412   1.091   2.417
 1040SOL    HW2 4020   4.363   1.241   2.459
 1041SOL     OW 4021   6.799   5.998   4.869
 1041SOL    HW1 4022   6.867   5.974   4.800
 1041SOL    HW2 4023   6.808   6.095   4.893
 1042SOL     OW 4024   4.558   4.840   2.167
 1042SOL    HW1 4025   4.501   4.921   2.181
 1042SOL    HW2 4026   4.627   4.835   2.239
 1043SOL     OW 4027   3.449   1.204   3.640
 1043SOL    HW1 4028   3.479   1.257   3.719
 1043SOL    HW2 4029   3.515   1.131   3.622
 1044SOL     OW 4030   5.895   4.365   0.937
 1044SOL    HW1 4031   5.802   4.351   0.902
 1044SOL    HW2 4032   5.903   4.323   1.028
 1045SOL     OW 4033   2.047   0.652   3.715
 1045SOL    HW1 4034   2.101   0.725   3.673
 1045SOL    HW2 4035   1.963   0.691   3.754
 1046SOL     OW 4036   2.953   1.424   1.069
 1046SOL    HW1 4037   3.023   1.406   1.138
 1046SOL    HW2 4038   2.971   1.513   1.026
 1047SOL     OW 4039   2.972   6.953   3.520
 1047SOL    HW1 4040   3.049   6.901   3.557
 1047SOL    HW2 4041   2.910   6.892   3.472
 1048SOL     OW 4042   1.835   5.874   2.206
 1048SOL    HW1 4043   1.763   5.901   2.271
 1048SOL    HW2 4044   1.813   5.784   2.168
 1049SOL     OW 4045   3.772   0.068   4.519
 1049SOL    HW1 4046   3.825   7.005   4.506
 1049SOL    HW2 4047   3.694   0.069   4.456
 1050SOL     OW 4048   4.015   5.031   3.693
 1050SOL    HW1 4049   4.112   5.049   3.711
 1050SOL    HW2 4050   3.959   5.077   3.762
 1051SOL     OW 4051   6.959   6.836   0.230
 1051SOL    HW1 4052   6.923   6.896   0.302
 1051SOL    HW2 4053   6.904   6.845   0.147
 1052SOL     OW 4054   4.228   0.716   6.168
 1052SOL    HW1 4055   4.201   0.808   6.197
 1052SOL    HW2 4056   4.211   0.651   6.242
 1053SOL     OW 4057   5.786   3.487   2.207
 1053SOL    HW1 4058   5.787   3.584   2.182
 1053SOL    HW2 4059   5.757   3.477   2.302
 1054SOL     OW 4060   3.548   4.486   0.539
 1054SOL    HW1 4061   3.466   4.534   0.509
 1054SOL    HW2 4062   3.606   4.466   0.460
 1055SOL     OW 4063   4.864   5.736   0.067
 1055SOL    HW1 4064   4.879   5.811   0.004
 1055SOL    HW2 4065   4.950   5.690   0.086
 1056SOL     OW 4066   2.019   4.512   0.251
 1056SOL    HW1 4067   2.092   4.466   0.301
 1056SOL    HW2 4068   1.951   4.547   0.315
 1057SOL     OW 4069   3.504   1.893   1.593
 1057SOL    HW1 4070   3.459   1.870   1.507
 1057SOL    HW2 4071   3.517   1.992   1.598
 1058SOL     OW 4072   3.781   2.090   2.856
 1058SOL    HW1 4073   3.713   2.153   2.819
 1058SOL    HW2 4074   3.742   1.998   2.859
 1059SOL     OW 4075   1.983   6.052   2.049
 1059SOL    HW1 4076   1.951   6.014   2.136
 1059SOL    HW2 4077   1.923   6.020   1.975
 1060SOL     OW 4078   0.269   5.448   4.564
 1060SOL    HW1 4079   0.347   5.407   4.611
 1060SOL    HW2 4080   0.275   5.429   4.466
 1061SOL     OW 4081   6.662   3.805   0.130
 1061SOL    HW1 4082   6.572   3.779   0.093
 1061SOL    HW2 4083   6.734   3.763   0.075
 1062SOL     OW 4084   4.145   6.328   4.806
 1062SOL    HW1 4085   4.105   6.311   4.716
 1062SOL    HW2 4086   4.235   6.284   4.811
 1063SOL     OW 4087   1.197   6.886   5.511
 1063SOL    HW1 4088   1.193   6.985   5.494
 1063SOL    HW2 4089   1.280   6.849   5.470
 1064SOL     OW 4090   0.761   4.570   1.202
 1064SOL    HW1 4091   0.817   4.625   1.263
 1064SOL    HW2 4092   0.708   4.630   1.142
 1065SOL     OW 4093   3.982   0.649   4.318
 1065SOL    HW1 4094   4.076   0.678   4.301
 1065SOL    HW2 4095   3.982   0.569   4.378
 1066SOL     OW 4096   4.659   0.532   2.153
 1066SOL    HW1 4097   4.577   0.535   2.096
 1066SOL    HW2 4098   4.656   0.607   2.220
 1067SOL     OW 4099   2.932   1.086   0.333
 1067SOL    HW1 4100   2.927   1.093   0.234
 1067SOL    HW2 4101   3.000   1.017   0.358
 1068SOL     OW 4102   6.306   3.224   0.950
 1068SOL    HW1 4103   6.239   3.154   0.924
 1068SOL    HW2 4104   6.258   3.300   0.995
 1069SOL     OW 4105   5.840   4.212   0.495
 1069SOL    HW1 4106   5.938   4.196   0.482
 1069SOL    HW2 4107   5.804   4.145   0.561
 1070SOL     OW 4108   2.236   0.792   2.547
 1070SOL    HW1 4109   2.137   0.803   2.545
 1070SOL    HW2 4110   2.259   0.709   2.598
 1071SOL     OW 4111   7.009   2.302   4.794
 1071SOL    HW1 4112   6.912   2.290   4.817
 1071SOL    HW2 4113   7.020   2.313   4.695
 1072SOL     OW 4114   2.943   0.816   1.652
 1072SOL    HW1 4115   2.902   0.759   1.723
 1072SOL    HW2 4116   2.996   0.759   1.589
 1073SOL     OW 4117   5.415   1.674   3.366
 1073SOL    HW1 4118   5.325   1.667   3.409
 1073SOL    HW2 4119   5.406   1.662   3.268
 1074SOL     OW 4120   3.193   5.062   1.870
 1074SOL    HW1 4121   3.180   5.123   1.948
 1074SOL    HW2 4122   3.213   4.970   1.903
 1075SOL     OW 4123   5.595   1.859   5.218
 1075SOL    HW1 4124   5.680   1.883   5.172
 1075SOL    HW2 4125   5.600   1.765   5.252
 1076SOL     OW 4126   2.136   4.017   5.270
 1076SOL    HW1 4127   2.203   4.021   5.344
 1076SOL    HW2 4128   2.184   4.010   5.182
 1077SOL     OW 4129   0.138   0.818   6.694
 1077SOL    HW1 4130   0.210   0.756   6.727
 1077SOL    HW2 4131   0.162   0.912   6.719
 1078SOL     OW 4132   6.670   6.768   3.970
 1078SOL    HW1 4133   6.603   6.694   3.974
 1078SOL    HW2 4134   6.751   6.742   4.022
 1079SOL     OW 4135   1.411   5.754   2.176
 1079SOL    HW1 4136   1.363   5.669   2.157
 1079SOL    HW2 4137   1.484   5.767   2.109
 1080SOL     OW 4138   2.123   5.580   5.207
 1080SOL    HW1 4139   2.139   5.665   5.157
 1080SOL    HW2 4140   2.203   5.520   5.195
 1081SOL     OW 4141   6.539   5.479   4.570
 1081SOL    HW1 4142   6.598   5.555   4.595
 1081SOL    HW2 4143   6.444   5.510   4.569
 1082SOL     OW 4144   5.548   6.999   5.792
 1082SOL    HW1 4145   5.527   0.037   5.714
 1082SOL    HW2 4146   5.465   6.952   5.822
 1083SOL     OW 4147   5.189   3.876   0.878
 1083SOL    HW1 4148   5.240   3.844   0.957
 1083SOL    HW2 4149   5.175   3.975   0.885
 1084SOL     OW 4150   6.941   6.647   6.676
 1084SOL    HW1 4151   6.971   6.553   6.658
 1084SOL    HW2 4152   6.844   6.655   6.655
 1085SOL     OW 4153   1.873   4.054   4.087
 1085SOL    HW1 4154   1.946   4.001   4.132
 1085SOL    HW2 4155   1.788   4.043   4.139
 1086SOL     OW 4156   6.559   4.703   6.245
 1086SOL    HW1 4157   6.585   4.709   6.148
 1086SOL    HW2 4158   6.533   4.793   6.278
 1087SOL     OW 4159   1.800   0.609   5.700
 1087SOL    HW1 4160   1.786   0.571   5.792
 1087SOL    HW2 4161   1.761   0.701   5.697
 1088SOL     OW 4162   0.022   4.926   3.487
 1088SOL    HW1 4163   6.999   5.011   3.516
 1088SOL    HW2 4164   6.973   4.856   3.471
 1089SOL     OW 4165   6.954   4.865   4.519
 1089SOL    HW1 4166   6.980   4.777   4.558
 1089SOL    HW2 4167   6.955   4.935   4.590
 1090SOL     OW 4168   5.982   1.637   4.541
 1090SOL    HW1 4169   5.946   1.570   4.476
 1090SOL    HW2 4170   5.912   1.707   4.558
 1091SOL     OW 4171   2.216   3.153   3.778
 1091SOL    HW1 4172   2.253   3.079   3.836
 1091SOL    HW2 4173   2.122   3.172   3.805
 1092SOL     OW 4174   1.218   5.188   1.021
 1092SOL    HW1 4175   1.151   5.258   0.998
 1092SOL    HW2 4176   1.178   5.124   1.086
 1093SOL     OW 4177   2.394   6.612   1.478
 1093SOL    HW1 4178   2.374   6.548   1.552
 1093SOL    HW2 4179   2.308   6.651   1.444
 1094SOL     OW 4180   0.660   7.017   2.416
 1094SOL    HW1 4181   0.725   0.005   2.492
 1094SOL    HW2 4182   0.567   0.013   2.450
 1095SOL     OW 4183   0.027   2.731   6.703
 1095SOL    HW1 4184   6.995   2.796   6.758
 1095SOL    HW2 4185   7.006   2.723   6.612
 1096SOL     OW 4186   2.901   6.015   1.036
 1096SOL    HW1 4187   2.901   5.956   0.955
 1096SOL    HW2 4188   2.880   6.109   1.009
 1097SOL     OW 4189   2.276   5.213   4.054
 1097SOL    HW1 4190   2.198   5.196   4.115
 1097SOL    HW2 4191   2.276   5.146   3.980
 1098SOL     OW 4192   5.967   4.368   0.227
 1098SOL    HW1 4193   5.940   4.301   0.158
 1098SOL    HW2 4194   6.029   4.325   0.292
 1099SOL     OW 4195   4.530   1.567   6.044
 1099SOL    HW1 4196   4.597   1.539   6.112
 1099SOL    HW2 4197   4.524   1.497   5.972
 1100SOL     OW 4198   4.112   0.885   3.868
 1100SOL    HW1 4199   4.145   0.977   3.892
 1100SOL    HW2 4200   4.153   0.819   3.931
 1101SOL     OW 4201   5.531   2.998   5.588
 1101SOL    HW1 4202   5.549   3.061   5.512
 1101SOL    HW2 4203   5.595   2.921   5.583
 1102SOL     OW 4204   2.384   0.990   4.278
 1102SOL    HW1 4205   2.386   1.044   4.362
 1102SOL    HW2 4206   2.326   0.910   4.290
 1103SOL     OW 4207   2.613   0.830   6.240
 1103SOL    HW1 4208   2.639   0.919   6.277
 1103SOL    HW2 4209   2.685   0.797   6.179
 1104SOL     OW 4210   0.738   4.727   3.314
 1104SOL    HW1 4211   0.654   4.674   3.305
 1104SOL    HW2 4212   0.757   4.774   3.228
 1105SOL     OW 4213   5.705   1.554   5.144
 1105SOL    HW1 4214   5.696   1.455   5.157
 1105SOL    HW2 4215   5.712   1.598   5.234
 1106SOL     OW 4216   0.866   1.262   0.173
 1106SOL    HW1 4217   0.859   1.166   0.144
 1106SOL    HW2 4218   0.900   1.266   0.267
 1107SOL     OW 4219   1.378   1.052   6.344
 1107SOL    HW1 4220   1.400   1.005   6.429
 1107SOL    HW2 4221   1.442   1.127   6.330
 1108SOL     OW 4222   3.195   6.269   4.342
 1108SOL    HW1 4223   3.287   6.308   4.335
 1108SOL    HW2 4224   3.189   6.187   4.285
 1109SOL     OW 4225   5.511   1.431   3.879
 1109SOL    HW1 4226   5.437   1.414   3.814
 1109SOL    HW2 4227   5.592   1.464   3.830
 1110SOL     OW 4228   3.291   0.840   2.806
 1110SOL    HW1 4229   3.194   0.856   2.786
 1110SOL    HW2 4230   3.311   0.875   2.898
 1111SOL     OW 4231   4.823   3.909   6.236
 1111SOL    HW1 4232   4.843   4.004   6.213
 1111SOL    HW2 4233   4.905   3.853   6.220
 1112SOL     OW 4234   6.538   0.454   2.835
 1112SOL    HW1 4235   6.536   0.526   2.766
 1112SOL    HW2 4236   6.450   0.405   2.835
 1113SOL     OW 4237   6.408   4.061   2.857
 1113SOL    HW1 4238   6.472   4.016   2.795
 1113SOL    HW2 4239   6.455   4.084   2.943
 1114SOL     OW 4240   4.036   2.300   6.220
 1114SOL    HW1 4241   3.981   2.382   6.209
 1114SOL    HW2 4242   3.978   2.224   6.251
 1115SOL     OW 4243   3.342   3.898   5.681
 1115SOL    HW1 4244   3.280   3.821   5.668
 1115SOL    HW2 4245   3.431   3.876   5.640
 1116SOL     OW 4246   4.998   1.093   0.319
 1116SOL    HW1 4247   4.912   1.126   0.358
 1116SOL    HW2 4248   5.016   1.140   0.233
 1117SOL     OW 4249   0.905   2.490   1.708
 1117SOL    HW1 4250   0.807   2.489   1.690
 1117SOL    HW2 4251   0.953   2.438   1.638
 1118SOL     OW 4252   2.821   5.456   6.882
 1118SOL    HW1 4253   2.822   5.553   6.904
 1118SOL    HW2 4254   2.859   5.442   6.790
 1119SOL     OW 4255   4.099   4.755   3.426
 1119SOL    HW1 4256   4.018   4.766   3.483
 1119SOL    HW2 4257   4.145   4.669   3.450
 1120SOL     OW 4258   6.469   5.418   1.069
 1120SOL    HW1 4259   6.560   5.451   1.046
 1120SOL    HW2 4260   6.473   5.322   1.095
 1121SOL     OW 4261   0.808   5.331   4.557
 1121SOL    HW1 4262   0.831   5.328   4.654
 1121SOL    HW2 4263   0.872   5.273   4.506
 1122SOL     OW 4264   5.517   2.816   2.004
 1122SOL    HW1 4265   5.583   2.824   1.929
 1122SOL    HW2 4266   5.552   2.750   2.071
 1123SOL     OW 4267   4.130   1.848   3.015
 1123SOL    HW1 4268   4.107   1.945   3.013
 1123SOL    HW2 4269   4.166   1.821   2.926
 1124SOL     OW 4270   1.921   2.797   4.904
 1124SOL    HW1 4271   1.945   2.755   4.991
 1124SOL    HW2 4272   1.922   2.896   4.914
 1125SOL     OW 4273   1.876   3.689   4.534
 1125SOL    HW1 4274   1.856   3.655   4.443
 1125SOL    HW2 4275   1.964   3.652   4.566
 1126SOL     OW 4276   4.118   5.788   5.539
 1126SOL    HW1 4277   4.101   5.849   5.461
 1126SOL    HW2 4278   4.198   5.819   5.589
 1127SOL     OW 4279   5.434   6.192   4.079
 1127SOL    HW1 4280   5.352   6.179   4.024
 1127SOL    HW2 4281   5.451   6.109   4.133
 1128SOL     OW 4282   6.185   1.229   3.529
 1128SOL    HW1 4283   6.104   1.238   3.588
 1128SOL    HW2 4284   6.162   1.263   3.438
 1129SOL     OW 4285   1.678   6.761   1.299
 1129SOL    HW1 4286   1.722   6.777   1.211
 1129SOL    HW2 4287   1.734   6.802   1.372
 1130SOL     OW 4288   1.755   5.320   3.195
 1130SOL    HW1 4289   1.851   5.304   3.171
 1130SOL    HW2 4290   1.728   5.411   3.164
 1131SOL     OW 4291   0.987   6.810   3.885
 1131SOL    HW1 4292   1.078   6.846   3.867
 1131SOL    HW2 4293   0.993   6.735   3.950
 1132SOL     OW 4294   4.295   0.960   2.624
 1132SOL    HW1 4295   4.308   1.021   2.702
 1132SOL    HW2 4296   4.202   0.923   2.626
 1133SOL     OW 4297   1.078   6.964   5.261
 1133SOL    HW1 4298   1.035   6.889   5.210
 1133SOL    HW2 4299   1.176   6.965   5.240
 1134SOL     OW 4300   4.753   0.081   1.734
 1134SOL    HW1 4301   4.835   0.077   1.678
 1134SOL    HW2 4302   4.752   0.003   1.797
 1135SOL     OW 4303   2.475   6.260   3.406
 1135SOL    HW1 4304   2.499   6.232   3.499
 1135SOL    HW2 4305   2.458   6.359   3.405
 1136SOL     OW 4306   2.746   6.099   2.723
 1136SOL    HW1 4307   2.752   6.193   2.688
 1136SOL    HW2 4308   2.664   6.055   2.688
 1137SOL     OW 4309   0.443   6.145   6.495
 1137SOL    HW1 4310   0.423   6.199   6.414
 1137SOL    HW2 4311   0.474   6.054   6.468
 1138SOL     OW 4312   2.206   3.043   5.436
 1138SOL    HW1 4313   2.234   3.130   5.395
 1138SOL    HW2 4314   2.223   2.969   5.371
 1139SOL     OW 4315   2.538   4.677   3.988
 1139SOL    HW1 4316   2.517   4.620   4.068
 1139SOL    HW2 4317   2.614   4.738   4.010
 1140SOL     OW 4318   2.190   1.260   1.486
 1140SOL    HW1 4319   2.093   1.282   1.472
 1140SOL    HW2 4320   2.219   1.295   1.576
 1141SOL     OW 4321   5.679   5.052   6.089
 1141SOL    HW1 4322   5.705   5.061   5.993
 1141SOL    HW2 4323   5.698   5.138   6.137
 1142SOL     OW 4324   2.269   7.012   3.601
 1142SOL    HW1 4325   2.329   6.938   3.570
 1142SOL    HW2 4326   2.324   0.069   3.633
 1143SOL     OW 4327   1.294   3.706   1.677
 1143SOL    HW1 4328   1.281   3.703   1.578
 1143SOL    HW2 4329   1.340   3.792   1.702
 1144SOL     OW 4330   5.479   4.253   2.668
 1144SOL    HW1 4331   5.529   4.332   2.633
 1144SOL    HW2 4332   5.489   4.249   2.768
 1145SOL     OW 4333   1.233   2.258   0.673
 1145SOL    HW1 4334   1.272   2.286   0.586
 1145SOL    HW2 4335   1.218   2.159   0.673
 1146SOL     OW 4336   0.671   1.179   1.746
 1146SOL    HW1 4337   0.705   1.261   1.701
 1146SOL    HW2 4338   0.652   1.199   1.842
 1147SOL     OW 4339   3.026   5.901   1.455
 1147SOL    HW1 4340   3.048   5.841   1.532
 1147SOL    HW2 4341   2.930   5.928   1.460
 1148SOL     OW 4342   3.915   6.502   2.028
 1148SOL    HW1 4343   3.939   6.573   2.095
 1148SOL    HW2 4344   3.916   6.412   2.072
 1149SOL     OW 4345   6.060   2.678   1.917
 1149SOL    HW1 4346   6.055   2.749   1.848
 1149SOL    HW2 4347   5.971   2.668   1.962
 1150SOL     OW 4348   1.607   4.417   6.691
 1150SOL    HW1 4349   1.679   4.365   6.645
 1150SOL    HW2 4350   1.518   4.376   6.671
 1151SOL     OW 4351   6.298   5.043   3.402
 1151SOL    HW1 4352   6.387   5.021   3.441
 1151SOL    HW2 4353   6.281   4.985   3.322
 1152SOL     OW 4354   4.493   0.876   0.270
 1152SOL    HW1 4355   4.520   0.787   0.307
 1152SOL    HW2 4356   4.571   0.919   0.226
 1153SOL     OW 4357   6.788   6.896   1.427
 1153SOL    HW1 4358   6.795   6.993   1.405
 1153SOL    HW2 4359   6.817   6.842   1.348
 1154SOL     OW 4360   1.307   3.444   2.717
 1154SOL    HW1 4361   1.244   3.433   2.640
 1154SOL    HW2 4362   1.400   3.424   2.688
 1155SOL     OW 4363   2.297   6.993   4.961
 1155SOL    HW1 4364   2.351   6.946   5.032
 1155SOL    HW2 4365   2.356   0.040   4.914
 1156SOL     OW 4366   3.991   1.550   4.470
 1156SOL    HW1 4367   4.032   1.543   4.561
 1156SOL    HW2 4368   3.892   1.541   4.477
 1157SOL     OW 4369   4.039   0.528   5.382
 1157SOL    HW1 4370   3.940   0.513   5.381
 1157SOL    HW2 4371   4.058   0.623   5.360
 1158SOL     OW 4372   5.359   5.990   3.879
 1158SOL    HW1 4373   5.263   6.004   3.855
 1158SOL    HW2 4374   5.368   5.909   3.936
 1159SOL     OW 4375   6.533   6.072   3.069
 1159SOL    HW1 4376   6.515   5.991   3.126
 1159SOL    HW2 4377   6.627   6.069   3.035
 1160SOL     OW 4378   4.400   6.808   1.053
 1160SOL    HW1 4379   4.486   6.857   1.038
 1160SOL    HW2 4380   4.401   6.765   1.144
 1161SOL     OW 4381   6.685   5.329   6.703
 1161SOL    HW1 4382   6.708   5.414   6.656
 1161SOL    HW2 4383   6.641   5.267   6.639
 1162SOL     OW 4384   1.961   3.010   5.548
 1162SOL    HW1 4385   1.964   2.981   5.643
 1162SOL    HW2 4386   2.054   3.021   5.514
 1163SOL     OW 4387   5.845   4.169   1.926
 1163SOL    HW1 4388   5.784   4.248   1.925
 1163SOL    HW2 4389   5.938   4.198   1.901
 1164SOL     OW 4390   5.593   2.335   4.409
 1164SOL    HW1 4391   5.614   2.306   4.502
 1164SOL    HW2 4392   5.669   2.391   4.374
 1165SOL     OW 4393   4.498   6.123   3.639
 1165SOL    HW1 4394   4.560   6.072   3.580
 1165SOL    HW2 4395   4.413   6.072   3.650
 1166SOL     OW 4396   2.288   6.452   6.491
 1166SOL    HW1 4397   2.326   6.480   6.579
 1166SOL    HW2 4398   2.204   6.504   6.474
 1167SOL     OW 4399   4.883   4.156   2.069
 1167SOL    HW1 4400   4.967   4.139   2.121
 1167SOL    HW2 4401   4.811   4.189   2.130
 1168SOL     OW 4402   5.981   2.511   2.592
 1168SOL    HW1 4403   6.077   2.521   2.568
 1168SOL    HW2 4404   5.935   2.453   2.525
 1169SOL     OW 4405   5.788   0.947   5.621
 1169SOL    HW1 4406   5.818   0.998   5.702
 1169SOL    HW2 4407   5.689   0.950   5.615
 1170SOL     OW 4408   4.854   0.185   3.124
 1170SOL    HW1 4409   4.936   0.166   3.071
 1170SOL    HW2 4410   4.855   0.281   3.153
 1171SOL     OW 4411   1.669   6.919   0.536
 1171SOL    HW1 4412   1.738   6.938   0.467
 1171SOL    HW2 4413   1.587   6.882   0.492
 1172SOL     OW 4414   6.025   3.572   0.523
 1172SOL    HW1 4415   5.947   3.612   0.570
 1172SOL    HW2 4416   6.074   3.511   0.585
 1173SOL     OW 4417   2.962   0.942   1.153
 1173SOL    HW1 4418   2.979   0.852   1.113
 1173SOL    HW2 4419   2.875   0.941   1.203
 1174SOL     OW 4420   3.594   3.813   1.529
 1174SOL    HW1 4421   3.620   3.894   1.580
 1174SOL    HW2 4422   3.495   3.798   1.537
 1175SOL     OW 4423   4.311   3.223   5.572
 1175SOL    HW1 4424   4.334   3.200   5.667
 1175SOL    HW2 4425   4.224   3.179   5.548
 1176SOL     OW 4426   4.942   3.170   5.934
 1176SOL    HW1 4427   4.887   3.149   6.015
 1176SOL    HW2 4428   4.975   3.085   5.893
 1177SOL     OW 4429   6.329   2.596   5.168
 1177SOL    HW1 4430   6.277   2.511   5.173
 1177SOL    HW2 4431   6.285   2.658   5.104
 1178SOL     OW 4432   3.151   4.044   0.748
 1178SOL    HW1 4433   3.209   4.020   0.670
 1178SOL    HW2 4434   3.057   4.018   0.727
 1179SOL     OW 4435   2.243   6.336   0.568
 1179SOL    HW1 4436   2.170   6.395   0.601
 1179SOL    HW2 4437   2.279   6.282   0.644
 1180SOL     OW 4438   3.174   5.503   1.836
 1180SOL    HW1 4439   3.083   5.527   1.870
 1180SOL    HW2 4440   3.242   5.528   1.904
 1181SOL     OW 4441   0.594   5.366   6.638
 1181SOL    HW1 4442   0.531   5.385   6.564
 1181SOL    HW2 4443   0.654   5.290   6.612
 1182SOL     OW 4444   3.479   5.405   3.016
 1182SOL    HW1 4445   3.429   5.491   3.010
 1182SOL    HW2 4446   3.502   5.386   3.112
 1183SOL     OW 4447   1.811   4.889   0.358
 1183SOL    HW1 4448   1.859   4.914   0.442
 1183SOL    HW2 4449   1.739   4.956   0.338
 1184SOL     OW 4450   0.545   0.466   4.344
 1184SOL    HW1 4451   0.476   0.481   4.273
 1184SOL    HW2 4452   0.553   0.368   4.362
 1185SOL     OW 4453   0.205   1.195   6.241
 1185SOL    HW1 4454   0.199   1.122   6.308
 1185SOL    HW2 4455   0.147   1.271   6.269
 1186SOL     OW 4456   4.947   5.441   4.637
 1186SOL    HW1 4457   4.907   5.511   4.697
 1186SOL    HW2 4458   4.879   5.370   4.621
 1187SOL     OW 4459   6.830   6.889   6.999
 1187SOL    HW1 4460   6.915   6.875   6.947
 1187SOL    HW2 4461   6.758   6.921   6.937
 1188SOL     OW 4462   2.883   6.288   5.115
 1188SOL    HW1 4463   2.916   6.360   5.176
 1188SOL    HW2 4464   2.818   6.326   5.049
 1189SOL     OW 4465   6.566   3.388   2.845
 1189SOL    HW1 4466   6.539   3.479   2.816
 1189SOL    HW2 4467   6.664   3.375   2.827
 1190SOL     OW 4468   2.457   5.951   3.396
 1190SOL    HW1 4469   2.362   5.944   3.425
 1190SOL    HW2 4470   2.483   6.047   3.389
 1191SOL     OW 4471   4.374   5.176   3.287
 1191SOL    HW1 4472   4.275   5.160   3.285
 1191SOL    HW2 4473   4.419   5.097   3.330
 1192SOL     OW 4474   3.695   5.776   3.437
 1192SOL    HW1 4475   3.607   5.733   3.454
 1192SOL    HW2 4476   3.725   5.757   3.343
 1193SOL     OW 4477   5.769   4.350   4.292
 1193SOL    HW1 4478   5.844   4.403   4.251
 1193SOL    HW2 4479   5.682   4.377   4.250
 1194SOL     OW 4480   5.573   0.081   1.624
 1194SOL    HW1 4481   5.515   0.027   1.685
 1194SOL    HW2 4482   5.516   0.135   1.562
 1195SOL     OW 4483   6.224   4.575   1.730
 1195SOL    HW1 4484   6.269   4.654   1.771
 1195SOL    HW2 4485   6.215   4.589   1.631
 1196SOL     OW 4486   0.009   5.850   2.984
 1196SOL    HW1 4487   0.061   5.882   2.904
 1196SOL    HW2 4488   0.068   5.792   3.040
 1197SOL     OW 4489   3.717   0.845   6.587
 1197SOL    HW1 4490   3.756   0.926   6.631
 1197SOL    HW2 4491   3.787   0.799   6.533
 1198SOL     OW 4492   1.236   3.160   1.808
 1198SOL    HW1 4493   1.248   3.257   1.831
 1198SOL    HW2 4494   1.310   3.106   1.849
 1199SOL     OW 4495   4.675   5.000   1.817
 1199SOL    HW1 4496   4.671   4.911   1.861
 1199SOL    HW2 4497   4.722   4.992   1.729
 1200SOL     OW 4498   3.471   3.322   2.790
 1200SOL    HW1 4499   3.541   3.265   2.834
 1200SOL    HW2 4500   3.393   3.333   2.852
 1201SOL     OW 4501   0.877   1.078   4.728
 1201SOL    HW1 4502   0.931   1.004   4.769
 1201SOL    HW2 4503   0.780   1.058   4.739
 1202SOL     OW 4504   0.747   6.264   6.404
 1202SOL    HW1 4505   0.667   6.258   6.464
 1202SOL    HW2 4506   0.773   6.173   6.373
 1203SOL     OW 4507   5.461   5.968   6.577
 1203SOL    HW1 4508   5.361   5.968   6.573
 1203SOL    HW2 4509   5.491   5.941   6.668
 1204SOL     OW 4510   2.813   0.372   1.169
 1204SOL    HW1 4511   2.727   0.321   1.173
 1204SOL    HW2 4512   2.800   0.454   1.113
 1205SOL     OW 4513   5.021   4.007   1.659
 1205SOL    HW1 4514   4.965   3.970   1.733
 1205SOL    HW2 4515   5.060   3.932   1.605
 1206SOL     OW 4516   3.333   2.853   5.094
 1206SOL    HW1 4517   3.293   2.789   5.028
 1206SOL    HW2 4518   3.260   2.898   5.145
 1207SOL     OW 4519   2.269   0.210   1.113
 1207SOL    HW1 4520   2.253   0.115   1.140
 1207SOL    HW2 4521   2.331   0.253   1.178
 1208SOL     OW 4522   3.486   4.154   0.420
 1208SOL    HW1 4523   3.557   4.173   0.352
 1208SOL    HW2 4524   3.468   4.237   0.473
 1209SOL     OW 4525   3.843   0.807   5.431
 1209SOL    HW1 4526   3.819   0.881   5.495
 1209SOL    HW2 4527   3.761   0.777   5.382
 1210SOL     OW 4528   2.511   0.006   3.109
 1210SOL    HW1 4529   2.588   0.023   3.048
 1210SOL    HW2 4530   2.427   0.044   3.070
 1211SOL     OW 4531   1.790   3.515   1.200
 1211SOL    HW1 4532   1.810   3.418   1.197
 1211SOL    HW2 4533   1.872   3.568   1.178
 1212SOL     OW 4534   0.397   0.729   5.898
 1212SOL    HW1 4535   0.345   0.811   5.873
 1212SOL    HW2 4536   0.339   0.648   5.885
 1213SOL     OW 4537   5.678   2.455   0.301
 1213SOL    HW1 4538   5.741   2.480   0.374
 1213SOL    HW2 4539   5.604   2.522   0.295
 1214SOL     OW 4540   0.054   2.130   0.867
 1214SOL    HW1 4541   0.131   2.148   0.805
 1214SOL    HW2 4542   0.044   2.207   0.930
 1215SOL     OW 4543   1.888   4.532   4.210
 1215SOL    HW1 4544   1.971   4.494   4.169
 1215SOL    HW2 4545   1.847   4.465   4.272
 1216SOL     OW 4546   3.989   0.345   0.246
 1216SOL    HW1 4547   3.910   0.403   0.228
 1216SOL    HW2 4548   3.979   0.301   0.335
 1217SOL     OW 4549   1.459   5.335   0.750
 1217SOL    HW1 4550   1.546   5.336   0.699
 1217SOL    HW2 4551   1.394   5.277   0.703
 1218SOL     OW 4552   1.598   4.882   4.467
 1218SOL    HW1 4553   1.670   4.848   4.407
 1218SOL    HW2 4554   1.524   4.921   4.411
 1219SOL     OW 4555   5.345   5.716   1.899
 1219SOL    HW1 4556   5.337   5.762   1.811
 1219SOL    HW2 4557   5.439   5.724   1.932
 1220SOL     OW 4558   1.105   5.243   3.052
 1220SOL    HW1 4559   1.051   5.172   3.097
 1220SOL    HW2 4560   1.045   5.317   3.020
 1221SOL     OW 4561   5.124   2.688   5.512
 1221SOL    HW1 4562   5.210   2.655   5.550
 1221SOL    HW2 4563   5.134   2.702   5.413
 1222SOL     OW 4564   5.888   0.220   6.776
 1222SOL    HW1 4565   5.970   0.167   6.798
 1222SOL    HW2 4566   5.913   0.294   6.714
 1223SOL     OW 4567   4.035   0.503   0.648
 1223SOL    HW1 4568   4.026   0.598   0.618
 1223SOL    HW2 4569   4.097   0.499   0.726
 1224SOL     OW 4570   2.169   6.719   1.352
 1224SOL    HW1 4571   2.119   6.804   1.373
 1224SOL    HW2 4572   2.205   6.723   1.259
 1225SOL     OW 4573   3.390   4.135   6.172
 1225SOL    HW1 4574   3.370   4.230   6.152
 1225SOL    HW2 4575   3.420   4.088   6.089
 1226SOL     OW 4576   2.448   4.629   1.696
 1226SOL    HW1 4577   2.490   4.546   1.733
 1226SOL    HW2 4578   2.504   4.708   1.721
 1227SOL     OW 4579   6.667   2.894   6.956
 1227SOL    HW1 4580   6.613   2.842   6.890
 1227SOL    HW2 4581   6.622   2.980   6.976
 1228SOL     OW 4582   4.103   3.379   6.394
 1228SOL    HW1 4583   4.073   3.319   6.469
 1228SOL    HW2 4584   4.040   3.369   6.317
 1229SOL     OW 4585   4.572   4.474   5.943
 1229SOL    HW1 4586   4.563   4.479   6.043
 1229SOL    HW2 4587   4.497   4.523   5.900
 1230SOL     OW 4588   4.416   0.301   4.338
 1230SOL    HW1 4589   4.468   0.227   4.295
 1230SOL    HW2 4590   4.321   0.297   4.308
 1231SOL     OW 4591   1.775   3.811   5.108
 1231SOL    HW1 4592   1.686   3.830   5.149
 1231SOL    HW2 4593   1.807   3.720   5.138
 1232SOL     OW 4594   1.105   2.261   5.156
 1232SOL    HW1 4595   1.180   2.265   5.090
 1232SOL    HW2 4596   1.018   2.264   5.106
 1233SOL     OW 4597   1.678   2.960   5.319
 1233SOL    HW1 4598   1.771   2.978   5.349
 1233SOL    HW2 4599   1.614   3.018   5.370
 1234SOL     OW 4600   6.715   4.363   3.935
 1234SOL    HW1 4601   6.796   4.317   3.899
 1234SOL    HW2 4602   6.645   4.295   3.958
 1235SOL     OW 4603   6.735   5.908   2.435
 1235SOL    HW1 4604   6.711   5.937   2.528
 1235SOL    HW2 4605   6.779   5.983   2.387
 1236SOL     OW 4606   5.341   1.010   6.348
 1236SOL    HW1 4607   5.246   1.041   6.340
 1236SOL    HW2 4608   5.353   0.960   6.434
 1237SOL     OW 4609   2.666   4.822   6.078
 1237SOL    HW1 4610   2.593   4.817   6.010
 1237SOL    HW2 4611   2.741   4.878   6.042
 1238SOL     OW 4612   1.932   1.106   0.863
 1238SOL    HW1 4613   1.958   1.014   0.833
 1238SOL    HW2 4614   1.851   1.136   0.813
 1239SOL     OW 4615   6.722   6.175   6.571
 1239SOL    HW1 4616   6.642   6.151   6.516
 1239SOL    HW2 4617   6.693   6.233   6.648
 1240SOL     OW 4618   5.385   6.312   1.666
 1240SOL    HW1 4619   5.337   6.331   1.751
 1240SOL    HW2 4620   5.467   6.369   1.660
 1241SOL     OW 4621   6.631   3.470   4.010
 1241SOL    HW1 4622   6.724   3.448   4.040
 1241SOL    HW2 4623   6.588   3.528   4.079
 1242SOL     OW 4624   1.749   3.719   6.825
 1242SOL    HW1 4625   1.832   3.731   6.881
 1242SOL    HW2 4626   1.775   3.695   6.732
 1243SOL     OW 4627   1.777   5.282   5.586
 1243SOL    HW1 4628   1.693   5.238   5.618
 1243SOL    HW2 4629   1.856   5.239   5.629
 1244SOL     OW 4630   0.137   0.396   2.641
 1244SOL    HW1 4631   0.082   0.423   2.720
 1244SOL    HW2 4632   0.077   0.383   2.561
 1245SOL     OW 4633   3.431   3.527   6.594
 1245SOL    HW1 4634   3.494   3.531   6.672
 1245SOL    HW2 4635   3.376   3.610   6.590
 1246SOL     OW 4636   2.137   6.416   2.217
 1246SOL    HW1 4637   2.224   6.406   2.267
 1246SOL    HW2 4638   2.079   6.480   2.266
 1247SOL     OW 4639   2.889   0.104   6.602
 1247SOL    HW1 4640   2.957   0.035   6.626
 1247SOL    HW2 4641   2.832   0.070   6.527
 1248SOL     OW 4642   1.591   6.700   3.743
 1248SOL    HW1 4643   1.599   6.791   3.785
 1248SOL    HW2 4644   1.682   6.662   3.730
 1249SOL     OW 4645   5.450   2.906   2.609
 1249SOL    HW1 4646   5.358   2.879   2.582
 1249SOL    HW2 4647   5.507   2.824   2.618
 1250SOL     OW 4648   1.092   4.664   4.545
 1250SOL    HW1 4649   1.149   4.590   4.510
 1250SOL    HW2 4650   1.125   4.690   4.637
 1251SOL     OW 4651   3.990   0.459   4.516
 1251SOL    HW1 4652   4.050   0.394   4.470
 1251SOL    HW2 4653   3.964   0.423   4.606
 1252SOL     OW 4654   3.422   3.960   5.935
 1252SOL    HW1 4655   3.406   3.932   5.840
 1252SOL    HW2 4656   3.435   3.878   5.991
 1253SOL     OW 4657   3.707   5.529   2.231
 1253SOL    HW1 4658   3.764   5.589   2.175
 1253SOL    HW2 4659   3.638   5.485   2.173
 1254SOL     OW 4660   6.137   2.606   3.025
 1254SOL    HW1 4661   6.148   2.513   2.990
 1254SOL    HW2 4662   6.125   2.670   2.949
 1255SOL     OW 4663   0.269   0.306   5.335
 1255SOL    HW1 4664   0.347   0.283   5.277
 1255SOL    HW2 4665   0.217   0.380   5.293
 1256SOL     OW 4666   6.725   0.139   2.536
 1256SOL    HW1 4667   6.760   0.098   2.452
 1256SOL    HW2 4668   6.636   0.181   2.518
 1257SOL     OW 4669   6.961   0.843   3.068
 1257SOL    HW1 4670   6.906   0.840   2.985
 1257SOL    HW2 4671   6.987   0.751   3.095
 1258SOL     OW 4672   0.953   5.677   3.139
 1258SOL    HW1 4673   0.868   5.676   3.087
 1258SOL    HW2 4674   1.030   5.685   3.076
 1259SOL     OW 4675   4.007   1.822   4.780
 1259SOL    HW1 4676   3.988   1.855   4.872
 1259SOL    HW2 4677   4.055   1.734   4.785
 1260SOL     OW 4678   0.995   1.231   6.391
 1260SOL    HW1 4679   0.982   1.197   6.484
 1260SOL    HW2 4680   1.036   1.159   6.334
 1261SOL     OW 4681   0.131   4.949   0.151
 1261SOL    HW1 4682   0.201   4.878   0.143
 1261SOL    HW2 4683   0.079   4.935   0.235
 1262SOL     OW 4684   5.595   5.553   1.912
 1262SOL    HW1 4685   5.537   5.473   1.930
 1262SOL    HW2 4686   5.686   5.538   1.951
 1263SOL     OW 4687   0.884   1.902   2.181
 1263SOL    HW1 4688   0.830   1.951   2.112
 1263SOL    HW2 4689   0.900   1.808   2.149
 1264SOL     OW 4690   1.071   3.892   5.312
 1264SOL    HW1 4691   1.109   3.900   5.220
 1264SOL    HW2 4692   0.988   3.837   5.310
 1265SOL     OW 4693   6.355   5.458   5.473
 1265SOL    HW1 4694   6.420   5.462   5.550
 1265SOL    HW2 4695   6.293   5.536   5.478
 1266SOL     OW 4696   1.458   1.111   5.145
 1266SOL    HW1 4697   1.523   1.047   5.187
 1266SOL    HW2 4698   1.369   1.068   5.137
 1267SOL     OW 4699   5.238   0.777   1.674
 1267SOL    HW1 4700   5.328   0.737   1.690
 1267SOL    HW2 4701   5.206   0.823   1.757
 1268SOL     OW 4702   4.322   2.362   5.314
 1268SOL    HW1 4703   4.375   2.320   5.240
 1268SOL    HW2 4704   4.251   2.421   5.275
 1269SOL     OW 4705   5.319   2.393   3.869
 1269SOL    HW1 4706   5.232   2.344   3.870
 1269SOL    HW2 4707   5.389   2.337   3.913
 1270SOL     OW 4708   1.545   4.520   2.548
 1270SOL    HW1 4709   1.569   4.437   2.598
 1270SOL    HW2 4710   1.555   4.600   2.609
 1271SOL     OW 4711   1.831   1.162   1.124
 1271SOL    HW1 4712   1.888   1.168   1.042
 1271SOL    HW2 4713   1.808   1.067   1.142
 1272SOL     OW 4714   6.373   3.782   6.747
 1272SOL    HW1 4715   6.465   3.815   6.767
 1272SOL    HW2 4716   6.354   3.790   6.649
 1273SOL     OW 4717   1.353   4.497   4.970
 1273SOL    HW1 4718   1.336   4.577   5.028
 1273SOL    HW2 4719   1.448   4.467   4.981
 1274SOL     OW 4720   0.414   4.775   2.145
 1274SOL    HW1 4721   0.458   4.703   2.092
 1274SOL    HW2 4722   0.319   4.784   2.116
 1275SOL     OW 4723   3.125   1.234   3.468
 1275SOL    HW1 4724   3.183   1.228   3.387
 1275SOL    HW2 4725   3.152   1.314   3.522
 1276SOL     OW 4726   5.564   4.956   4.285
 1276SOL    HW1 4727   5.634   4.938   4.216
 1276SOL    HW2 4728   5.602   5.013   4.358
 1277SOL     OW 4729   0.524   5.780   6.843
 1277SOL    HW1 4730   0.622   5.763   6.838
 1277SOL    HW2 4731   0.478   5.734   6.766
 1278SOL     OW 4732   1.473   6.676   3.140
 1278SOL    HW1 4733   1.485   6.700   3.237
 1278SOL    HW2 4734   1.391   6.719   3.105
 1279SOL     OW 4735   3.031   2.993   6.451
 1279SOL    HW1 4736   2.933   2.979   6.466
 1279SOL    HW2 4737   3.055   2.958   6.361
 1280SOL     OW 4738   3.123   1.546   3.165
 1280SOL    HW1 4739   3.208   1.494   3.165
 1280SOL    HW2 4740   3.065   1.515   3.090
 1281SOL     OW 4741   3.506   6.360   3.756
 1281SOL    HW1 4742   3.598   6.399   3.761
 1281SOL    HW2 4743   3.507   6.280   3.697
 1282SOL     OW 4744   6.997   3.010   0.640
 1282SOL    HW1 4745   6.915   3.033   0.692
 1282SOL    HW2 4746   7.004   2.911   0.631
 1283SOL     OW 4747   6.158   3.989   4.998
 1283SOL    HW1 4748   6.065   3.964   5.026
 1283SOL    HW2 4749   6.183   3.936   4.917
 1284SOL     OW 4750   3.617   1.432   1.107
 1284SOL    HW1 4751   3.647   1.369   1.179
 1284SOL    HW2 4752   3.527   1.403   1.073
 1285SOL     OW 4753   3.490   1.531   4.452
 1285SOL    HW1 4754   3.443   1.515   4.365
 1285SOL    HW2 4755   3.465   1.620   4.488
 1286SOL     OW 4756   4.735   2.600   1.528
 1286SOL    HW1 4757   4.817   2.544   1.520
 1286SOL    HW2 4758   4.757   2.695   1.504
 1287SOL     OW 4759   6.773   4.919   4.817
 1287SOL    HW1 4760   6.833   4.999   4.817
 1287SOL    HW2 4761   6.828   4.836   4.816
 1288SOL     OW 4762   4.415   4.263   6.346
 1288SOL    HW1 4763   4.480   4.339   6.355
 1288SOL    HW2 4764   4.322   4.296   6.364
 1289SOL     OW 4765   6.135   0.635   1.025
 1289SOL    HW1 4766   6.122   0.623   0.927
 1289SOL    HW2 4767   6.133   0.733   1.047
 1290SOL     OW 4768   1.617   0.398   0.090
 1290SOL    HW1 4769   1.593   0.490   0.118
 1290SOL    HW2 4770   1.633   0.341   0.171
 1291SOL     OW 4771   6.508   4.717   3.064
 1291SOL    HW1 4772   6.515   4.668   2.977
 1291SOL    HW2 4773   6.558   4.666   3.135
 1292SOL     OW 4774   0.271   5.833   2.307
 1292SOL    HW1 4775   0.305   5.904   2.368
 1292SOL    HW2 4776   0.181   5.858   2.273
 1293SOL     OW 4777   2.369   1.600   0.018
 1293SOL    HW1 4778   2.337   1.674   6.978
 1293SOL    HW2 4779   2.295   1.573   0.079
 1294SOL     OW 4780   1.894   4.140   6.324
 1294SOL    HW1 4781   1.840   4.148   6.408
 1294SOL    HW2 4782   1.849   4.191   6.251
 1295SOL     OW 4783   0.208   3.632   1.358
 1295SOL    HW1 4784   0.154   3.706   1.397
 1295SOL    HW2 4785   0.264   3.668   1.283
 1296SOL     OW 4786   4.952   6.632   5.776
 1296SOL    HW1 4787   5.013   6.657   5.701
 1296SOL    HW2 4788   5.004   6.633   5.862
 1297SOL     OW 4789   0.722   0.482   2.826
 1297SOL    HW1 4790   0.705   0.578   2.848
 1297SOL    HW2 4791   0.741   0.432   2.910
 1298SOL     OW 4792   5.606   5.488   2.847
 1298SOL    HW1 4793   5.556   5.411   2.807
 1298SOL    HW2 4794   5.627   5.554   2.775
 1299SOL     OW 4795   2.155   3.213   4.145
 1299SOL    HW1 4796   2.194   3.181   4.058
 1299SOL    HW2 4797   2.147   3.137   4.209
 1300SOL     OW 4798   2.549   3.967   0.949
 1300SOL    HW1 4799   2.491   3.888   0.971
 1300SOL    HW2 4800   2.495   4.051   0.957
 1301SOL     OW 4801   1.003   0.721   1.547
 1301SOL    HW1 4802   1.029   0.636   1.594
 1301SOL    HW2 4803   0.906   0.738   1.560
 1302SOL     OW 4804   5.548   6.788   6.506
 1302SOL    HW1 4805   5.473   6.847   6.477
 1302SOL    HW2 4806   5.601   6.760   6.426
 1303SOL     OW 4807   4.201   6.739   1.980
 1303SOL    HW1 4808   4.104   6.764   1.978
 1303SOL    HW2 4809   4.256   6.821   1.999
 1304SOL     OW 4810   1.060   1.051   1.372
 1304SOL    HW1 4811   1.080   0.964   1.326
 1304SOL    HW2 4812   1.139   1.080   1.426
 1305SOL     OW 4813   5.287   4.786   6.564
 1305SOL    HW1 4814   5.304   4.882   6.544
 1305SOL    HW2 4815   5.282   4.772   6.663
 1306SOL     OW 4816   1.353   5.825   5.147
 1306SOL    HW1 4817   1.434   5.771   5.171
 1306SOL    HW2 4818   1.336   5.819   5.049
 1307SOL     OW 4819   1.856   3.101   3.936
 1307SOL    HW1 4820   1.899   3.176   3.886
 1307SOL    HW2 4821   1.893   3.014   3.903
 1308SOL     OW 4822   6.612   5.222   6.954
 1308SOL    HW1 4823   6.640   5.299   7.010
 1308SOL    HW2 4824   6.606   5.250   6.858
 1309SOL     OW 4825   5.322   4.370   6.196
 1309SOL    HW1 4826   5.355   4.339   6.106
 1309SOL    HW2 4827   5.228   4.403   6.187
 1310SOL     OW 4828   1.237   3.699   4.031
 1310SOL    HW1 4829   1.242   3.726   4.127
 1310SOL    HW2 4830   1.292   3.762   3.976
 1311SOL     OW 4831   6.384   5.685   0.270
 1311SOL    HW1 4832   6.325   5.639   0.204
 1311SOL    HW2 4833   6.412   5.619   0.340
 1312SOL     OW 4834   1.224   0.976   5.508
 1312SOL    HW1 4835   1.228   1.051   5.442
 1312SOL    HW2 4836   1.129   0.963   5.538
 1313SOL     OW 4837   6.273   5.021   3.078
 1313SOL    HW1 4838   6.239   5.095   3.135
 1313SOL    HW2 4839   6.372   5.032   3.064
 1314SOL     OW 4840   2.428   1.701   4.845
 1314SOL    HW1 4841   2.498   1.749   4.897
 1314SOL    HW2 4842   2.340   1.746   4.858
 1315SOL     OW 4843   6.284   0.528   4.046
 1315SOL    HW1 4844   6.296   0.606   3.985
 1315SOL    HW2 4845   6.215   0.549   4.114
 1316SOL     OW 4846   4.106   0.487   5.082
 1316SOL    HW1 4847   4.027   0.512   5.026
 1316SOL    HW2 4848   4.087   0.512   5.177
 1317SOL     OW 4849   2.826   3.690   6.198
 1317SOL    HW1 4850   2.748   3.703   6.259
 1317SOL    HW2 4851   2.911   3.706   6.249
 1318SOL     OW 4852   2.140   2.557   0.253
 1318SOL    HW1 4853   2.162   2.560   0.155
 1318SOL    HW2 4854   2.213   2.600   0.305
 1319SOL     OW 4855   6.872   6.281   0.082
 1319SOL    HW1 4856   6.810   6.277   0.160
 1319SOL    HW2 4857   6.857   6.202   0.022
 1320SOL     OW 4858   3.679   3.013   6.383
 1320SOL    HW1 4859   3.713   3.027   6.290
 1320SOL    HW2 4860   3.580   3.019   6.384
 1321SOL     OW 4861   5.534   1.914   6.772
 1321SOL    HW1 4862   5.540   1.849   6.696
 1321SOL    HW2 4863   5.578   1.875   6.853
 1322SOL     OW 4864   3.194   1.171   6.141
 1322SOL    HW1 4865   3.137   1.096   6.108
 1322SOL    HW2 4866   3.209   1.236   6.066
 1323SOL     OW 4867   3.591   0.071   0.688
 1323SOL    HW1 4868   3.617   0.150   0.744
 1323SOL    HW2 4869   3.512   0.026   0.729
 1324SOL     OW 4870   1.458   3.919   0.112
 1324SOL    HW1 4871   1.480   3.829   0.073
 1324SOL    HW2 4872   1.381   3.910   0.175
 1325SOL     OW 4873   2.199   5.889   5.830
 1325SOL    HW1 4874   2.149   5.953   5.888
 1325SOL    HW2 4875   2.220   5.932   5.742
 1326SOL     OW 4876   4.784   4.094   4.550
 1326SOL    HW1 4877   4.723   4.115   4.627
 1326SOL    HW2 4878   4.854   4.030   4.580
 1327SOL     OW 4879   0.307   6.732   1.215
 1327SOL    HW1 4880   0.327   6.771   1.126
 1327SOL    HW2 4881   0.376   6.763   1.281
 1328SOL     OW 4882   0.894   3.363   5.816
 1328SOL    HW1 4883   0.820   3.314   5.862
 1328SOL    HW2 4884   0.978   3.309   5.822
 1329SOL     OW 4885   0.432   2.526   2.636
 1329SOL    HW1 4886   0.340   2.547   2.670
 1329SOL    HW2 4887   0.466   2.444   2.681
 1330SOL     OW 4888   6.633   2.060   0.926
 1330SOL    HW1 4889   6.697   1.990   0.894
 1330SOL    HW2 4890   6.653   2.082   1.021
 1331SOL     OW 4891   4.363   2.388   2.462
 1331SOL    HW1 4892   4.313   2.475   2.459
 1331SOL    HW2 4893   4.400   2.374   2.554
 1332SOL     OW 4894   1.725   0.427   0.994
 1332SOL    HW1 4895   1.729   0.399   1.090
 1332SOL    HW2 4896   1.798   0.492   0.975
 1333SOL     OW 4897   3.812   4.038   3.313
 1333SOL    HW1 4898   3.788   4.103   3.385
 1333SOL    HW2 4899   3.858   3.959   3.353
 1334SOL     OW 4900   6.915   1.647   2.730
 1334SOL    HW1 4901   7.002   1.600   2.745
 1334SOL    HW2 4902   6.864   1.601   2.658
 1335SOL     OW 4903   1.883   4.066   1.763
 1335SOL    HW1 4904   1.858   3.997   1.831
 1335SOL    HW2 4905   1.968   4.111   1.790
 1336SOL     OW 4906   3.803   0.846   5.805
 1336SOL    HW1 4907   3.887   0.809   5.766
 1336SOL    HW2 4908   3.726   0.788   5.779
 1337SOL     OW 4909   6.264   1.535   3.521
 1337SOL    HW1 4910   6.173   1.543   3.480
 1337SOL    HW2 4911   6.328   1.498   3.453
 1338SOL     OW 4912   6.234   3.688   4.303
 1338SOL    HW1 4913   6.302   3.705   4.375
 1338SOL    HW2 4914   6.232   3.766   4.240
 1339SOL     OW 4915   0.166   0.428   6.914
 1339SOL    HW1 4916   0.100   0.365   6.955
 1339SOL    HW2 4917   0.123   0.519   6.905
 1340SOL     OW 4918   5.377   1.440   1.960
 1340SOL    HW1 4919   5.347   1.429   2.055
 1340SOL    HW2 4920   5.300   1.464   1.902
 1341SOL     OW 4921   4.471   6.798   6.727
 1341SOL    HW1 4922   4.482   6.883   6.777
 1341SOL    HW2 4923   4.554   6.744   6.734
 1342SOL     OW 4924   3.111   5.505   0.742
 1342SOL    HW1 4925   3.087   5.526   0.647
 1342SOL    HW2 4926   3.202   5.541   0.762
 1343SOL     OW 4927   5.275   4.757   2.876
 1343SOL    HW1 4928   5.309   4.846   2.844
 1343SOL    HW2 4929   5.267   4.759   2.976
 1344SOL     OW 4930   6.805   7.017   4.546
 1344SOL    HW1 4931   6.853   7.012   4.458
 1344SOL    HW2 4932   6.710   0.025   4.530
 1345SOL     OW 4933   0.276   5.423   1.764
 1345SOL    HW1 4934   0.218   5.396   1.688
 1345SOL    HW2 4935   0.220   5.448   1.843
 1346SOL     OW 4936   2.372   5.510   5.775
 1346SOL    HW1 4937   2.358   5.441   5.704
 1346SOL    HW2 4938   2.470   5.532   5.781
 1347SOL     OW 4939   1.531   0.201   6.184
 1347SOL    HW1 4940   1.599   0.203   6.258
 1347SOL    HW2 4941   1.439   0.195   6.222
 1348SOL     OW 4942   6.711   5.775   5.364
 1348SOL    HW1 4943   6.741   5.797   5.271
 1348SOL    HW2 4944   6.712   5.857   5.421
 1349SOL     OW 4945   5.446   2.839   3.939
 1349SOL    HW1 4946   5.506   2.767   3.902
 1349SOL    HW2 4947   5.354   2.826   3.904
 1350SOL     OW 4948   3.794   3.864   0.478
 1350SOL    HW1 4949   3.777   3.911   0.391
 1350SOL    HW2 4950   3.790   3.765   0.463
 1351SOL     OW 4951   6.213   2.028   4.009
 1351SOL    HW1 4952   6.161   2.014   4.093
 1351SOL    HW2 4953   6.281   1.955   4.000
 1352SOL     OW 4954   6.573   0.164   2.260
 1352SOL    HW1 4955   6.638   0.137   2.189
 1352SOL    HW2 4956   6.595   0.256   2.292
 1353SOL     OW 4957   0.076   1.632   0.988
 1353SOL    HW1 4958   0.072   1.728   1.016
 1353SOL    HW2 4959   0.128   1.624   0.903
 1354SOL     OW 4960   6.581   4.348   2.319
 1354SOL    HW1 4961   6.655   4.308   2.373
 1354SOL    HW2 4962   6.612   4.433   2.277
 1355SOL     OW 4963   5.787   3.453   4.381
 1355SOL    HW1 4964   5.783   3.354   4.388
 1355SOL    HW2 4965   5.753   3.482   4.291
 1356SOL     OW 4966   3.628   3.090   2.569
 1356SOL    HW1 4967   3.648   3.046   2.482
 1356SOL    HW2 4968   3.598   3.184   2.553
 1357SOL     OW 4969   6.514   3.694   5.843
 1357SOL    HW1 4970   6.532   3.609   5.794
 1357SOL    HW2 4971   6.559   3.770   5.795
 1358SOL     OW 4972   0.476   6.643   6.659
 1358SOL    HW1 4973   0.444   6.690   6.577
 1358SOL    HW2 4974   0.571   6.614   6.646
 1359SOL     OW 4975   6.222   4.098   1.653
 1359SOL    HW1 4976   6.312   4.117   1.691
 1359SOL    HW2 4977   6.201   4.164   1.581
 1360SOL     OW 4978   3.427   2.960   6.495
 1360SOL    HW1 4979   3.469   2.927   6.580
 1360SOL    HW2 4980   3.399   3.055   6.508
 1361SOL     OW 4981   0.302   4.121   4.765
 1361SOL    HW1 4982   0.296   4.117   4.665
 1361SOL    HW2 4983   0.287   4.029   4.802
 1362SOL     OW 4984   3.881   2.982   2.676
 1362SOL    HW1 4985   3.802   3.038   2.649
 1362SOL    HW2 4986   3.930   3.027   2.750
 1363SOL     OW 4987   6.630   5.530   5.220
 1363SOL    HW1 4988   6.712   5.474   5.209
 1363SOL    HW2 4989   6.642   5.591   5.299
 1364SOL     OW 4990   4.568   4.314   0.019
 1364SOL    HW1 4991   4.615   4.394   7.001
 1364SOL    HW2 4992   4.527   4.261   6.966
 1365SOL     OW 4993   0.559   3.723   6.536
 1365SOL    HW1 4994   0.620   3.767   6.470
 1365SOL    HW2 4995   0.610   3.652   6.586
 1366SOL     OW 4996   1.161   0.537   4.760
 1366SOL    HW1 4997   1.230   0.482   4.713
 1366SOL    HW2 4998   1.124   0.485   4.837
 1367SOL     OW 4999   1.726   1.246   2.518
 1367SOL    HW1 5000   1.772   1.333   2.537
 1367SOL    HW2 5001   1.769   1.173   2.570
 1368SOL     OW 5002   5.814   0.215   4.108
 1368SOL    HW1 5003   5.724   0.182   4.137
 1368SOL    HW2 5004   5.880   0.202   4.182
 1369SOL     OW 5005   0.448   0.187   3.197
 1369SOL    HW1 5006   0.502   0.188   3.281
 1369SOL    HW2 5007   0.427   0.093   3.171
 1370SOL     OW 5008   3.213   0.742   1.970
 1370SOL    HW1 5009   3.250   0.711   1.882
 1370SOL    HW2 5010   3.161   0.826   1.957
 1371SOL     OW 5011   3.717   0.415   5.591
 1371SOL    HW1 5012   3.770   0.333   5.569
 1371SOL    HW2 5013   3.621   0.391   5.599
 1372SOL     OW 5014   2.561   2.143   2.069
 1372SOL    HW1 5015   2.583   2.093   2.153
 1372SOL    HW2 5016   2.640   2.143   2.008
 1373SOL     OW 5017   0.658   5.356   1.314
 1373SOL    HW1 5018   0.668   5.438   1.370
 1373SOL    HW2 5019   0.598   5.291   1.361
 1374SOL     OW 5020   4.261   2.158   1.133
 1374SOL    HW1 5021   4.235   2.176   1.228
 1374SOL    HW2 5022   4.322   2.230   1.100
 1375SOL     OW 5023   0.136   4.973   5.980
 1375SOL    HW1 5024   0.201   4.998   5.909
 1375SOL    HW2 5025   0.173   4.998   6.070
 1376SOL     OW 5026   4.815   3.007   3.488
 1376SOL    HW1 5027   4.832   2.974   3.581
 1376SOL    HW2 5028   4.830   2.932   3.424
 1377SOL     OW 5029   6.615   5.022   5.467
 1377SOL    HW1 5030   6.690   4.989   5.524
 1377SOL    HW2 5031   6.601   5.120   5.483
 1378SOL     OW 5032   1.260   2.428   0.185
 1378SOL    HW1 5033   1.247   2.394   0.091
 1378SOL    HW2 5034   1.299   2.520   0.181
 1379SOL     OW 5035   3.920   6.772   2.612
 1379SOL    HW1 5036   3.857   6.775   2.535
 1379SOL    HW2 5037   3.964   6.861   2.624
 1380SOL     OW 5038   6.369   0.141   2.607
 1380SOL    HW1 5039   6.339   0.220   2.554
 1380SOL    HW2 5040   6.290   0.081   2.625
 1381SOL     OW 5041   6.380   2.091   0.163
 1381SOL    HW1 5042   6.438   2.091   0.244
 1381SOL    HW2 5043   6.314   2.165   0.168
 1382SOL     OW 5044   5.489   4.680   6.135
 1382SOL    HW1 5045   5.539   4.744   6.194
 1382SOL    HW2 5046   5.391   4.689   6.152
 1383SOL     OW 5047   1.839   0.263   0.529
 1383SOL    HW1 5048   1.806   0.197   0.596
 1383SOL    HW2 5049   1.937   0.279   0.544
 1384SOL     OW 5050   3.252   1.891   2.750
 1384SOL    HW1 5051   3.309   1.938   2.683
 1384SOL    HW2 5052   3.192   1.957   2.795
 1385SOL     OW 5053   6.808   3.336   3.145
 1385SOL    HW1 5054   6.808   3.258   3.082
 1385SOL    HW2 5055   6.875   3.319   3.218
 1386SOL     OW 5056   2.128   2.952   4.283
 1386SOL    HW1 5057   2.033   2.921   4.283
 1386SOL    HW2 5058   2.167   2.942   4.374
 1387SOL     OW 5059   2.893   0.193   5.026
 1387SOL    HW1 5060   2.975   0.213   4.972
 1387SOL    HW2 5061   2.849   0.278   5.054
 1388SOL     OW 5062   6.431   1.160   4.066
 1388SOL    HW1 5063   6.431   1.250   4.110
 1388SOL    HW2 5064   6.342   1.145   4.022
 1389SOL     OW 5065   5.878   6.923   4.690
 1389SOL    HW1 5066   5.832   6.900   4.776
 1389SOL    HW2 5067   5.812   6.916   4.615
 1390SOL     OW 5068   4.552   2.205   1.807
 1390SOL    HW1 5069   4.500   2.231   1.888
 1390SOL    HW2 5070   4.632   2.152   1.835
 1391SOL     OW 5071   5.521   0.762   4.387
 1391SOL    HW1 5072   5.487   0.672   4.413
 1391SOL    HW2 5073   5.614   0.775   4.421
 1392SOL     OW 5074   5.414   5.663   6.664
 1392SOL    HW1 5075   5.444   5.669   6.569
 1392SOL    HW2 5076   5.486   5.620   6.719
 1393SOL     OW 5077   6.721   1.122   6.517
 1393SOL    HW1 5078   6.711   1.192   6.446
 1393SOL    HW2 5079   6.689   1.034   6.483
 1394SOL     OW 5080   4.560   6.807   3.734
 1394SOL    HW1 5081   4.532   6.739   3.801
 1394SOL    HW2 5082   4.479   6.855   3.699
 1395SOL     OW 5083   1.502   4.822   2.543
 1395SOL    HW1 5084   1.514   4.790   2.449
 1395SOL    HW2 5085   1.574   4.888   2.565
 1396SOL     OW 5086   1.935   0.887   4.047
 1396SOL    HW1 5087   1.989   0.959   4.091
 1396SOL    HW2 5088   1.878   0.928   3.975
 1397SOL     OW 5089   0.267   5.359   4.315
 1397SOL    HW1 5090   0.279   5.406   4.228
 1397SOL    HW2 5091   0.321   5.274   4.315
 1398SOL     OW 5092   0.805   0.613   1.058
 1398SOL    HW1 5093   0.872   0.558   1.107
 1398SOL    HW2 5094   0.803   0.585   0.962
 1399SOL     OW 5095   3.857   0.034   0.493
 1399SOL    HW1 5096   3.827   6.999   0.571
 1399SOL    HW2 5097   3.908   0.114   0.526
 1400SOL     OW 5098   6.052   0.263   4.910
 1400SOL    HW1 5099   6.092   0.240   4.821
 1400SOL    HW2 5100   6.010   0.353   4.907
 1401SOL     OW 5101   5.377   0.426   3.285
 1401SOL    HW1 5102   5.360   0.484   3.205
 1401SOL    HW2 5103   5.474   0.406   3.292
 1402SOL     OW 5104   6.129   4.461   1.961
 1402SOL    HW1 5105   6.146   4.502   1.871
 1402SOL    HW2 5106   6.193   4.386   1.976
 1403SOL     OW 5107   3.062   3.043   6.840
 1403SOL    HW1 5108   3.112   2.961   6.815
 1403SOL    HW2 5109   3.066   3.056   6.939
 1404SOL     OW 5110   4.309   6.670   0.656
 1404SOL    HW1 5111   4.262   6.719   0.584
 1404SOL    HW2 5112   4.264   6.686   0.744
 1405SOL     OW 5113   1.646   3.342   0.502
 1405SOL    HW1 5114   1.706   3.406   0.456
 1405SOL    HW2 5115   1.556   3.342   0.457
 1406SOL     OW 5116   2.423   3.143   1.217
 1406SOL    HW1 5117   2.474   3.209   1.273
 1406SOL    HW2 5118   2.487   3.080   1.174
 1407SOL     OW 5119   0.651   3.141   0.916
 1407SOL    HW1 5120   0.706   3.206   0.967
 1407SOL    HW2 5121   0.647   3.054   0.965
 1408SOL     OW 5122   5.822   6.083   0.001
 1408SOL    HW1 5123   5.852   5.999   6.977
 1408SOL    HW2 5124   5.838   6.160   6.959
 1409SOL     OW 5125   6.881   1.784   5.805
 1409SOL    HW1 5126   6.933   1.820   5.728
 1409SOL    HW2 5127   6.809   1.723   5.772
 1410SOL     OW 5128   3.816   2.007   6.063
 1410SOL    HW1 5129   3.826   1.926   6.005
 1410SOL    HW2 5130   3.722   2.011   6.098
 1411SOL     OW 5131   4.453   5.220   0.197
 1411SOL    HW1 5132   4.379   5.216   0.130
 1411SOL    HW2 5133   4.434   5.156   0.272
 1412SOL     OW 5134   1.929   2.784   0.675
 1412SOL    HW1 5135   1.895   2.705   0.726
 1412SOL    HW2 5136   2.015   2.760   0.629
 1413SOL     OW 5137   1.891   1.910   5.407
 1413SOL    HW1 5138   1.866   1.866   5.321
 1413SOL    HW2 5139   1.809   1.951   5.448
 1414SOL     OW 5140   1.244   4.433   2.100
 1414SOL    HW1 5141   1.229   4.447   2.198
 1414SOL    HW2 5142   1.179   4.366   2.065
 1415SOL     OW 5143   1.894   2.012   4.591
 1415SOL    HW1 5144   1.812   2.066   4.612
 1415SOL    HW2 5145   1.868   1.932   4.537
 1416SOL     OW 5146   4.006   0.250   5.162
 1416SOL    HW1 5147   4.055   0.170   5.126
 1416SOL    HW2 5148   4.039   0.332   5.116
 1417SOL     OW 5149   3.682   3.038   5.881
 1417SOL    HW1 5150   3.721   2.953   5.846
 1417SOL    HW2 5151   3.583   3.037   5.870
 1418SOL     OW 5152   3.281   3.930   6.772
 1418SOL    HW1 5153   3.286   4.018   6.724
 1418SOL    HW2 5154   3.373   3.893   6.782
 1419SOL     OW 5155   1.889   4.588   2.623
 1419SOL    HW1 5156   1.931   4.514   2.572
 1419SOL    HW2 5157   1.843   4.550   2.704
 1420SOL     OW 5158   2.905   6.019   3.272
 1420SOL    HW1 5159   2.919   5.953   3.346
 1420SOL    HW2 5160   2.989   6.028   3.219
 1421SOL     OW 5161   1.264   5.062   5.804
 1421SOL    HW1 5162   1.267   5.094   5.710
 1421SOL    HW2 5163   1.355   5.029   5.831
 1422SOL     OW 5164   2.487   4.163   6.152
 1422SOL    HW1 5165   2.510   4.235   6.086
 1422SOL    HW2 5166   2.552   4.088   6.145
 1423SOL     OW 5167   4.108   0.781   5.308
 1423SOL    HW1 5168   4.019   0.824   5.295
 1423SOL    HW2 5169   4.179   0.836   5.264
 1424SOL     OW 5170   5.795   2.793   6.595
 1424SOL    HW1 5171   5.851   2.779   6.677
 1424SOL    HW2 5172   5.818   2.723   6.527
 1425SOL     OW 5173   4.927   6.544   4.041
 1425SOL    HW1 5174   4.856   6.614   4.042
 1425SOL    HW2 5175   4.956   6.526   3.947
 1426SOL     OW 5176   3.244   2.231   6.784
 1426SOL    HW1 5177   3.203   2.315   6.820
 1426SOL    HW2 5178   3.174   2.159   6.779
 1427SOL     OW 5179   1.712   0.941   4.172
 1427SOL    HW1 5180   1.634   0.894   4.132
 1427SOL    HW2 5181   1.796   0.912   4.127
 1428SOL     OW 5182   0.448   3.694   3.841
 1428SOL    HW1 5183   0.356   3.668   3.809
 1428SOL    HW2 5184   0.480   3.626   3.907
 1429SOL     OW 5185   6.028   0.882   0.731
 1429SOL    HW1 5186   5.973   0.840   0.804
 1429SOL    HW2 5187   6.017   0.981   0.734
 1430SOL     OW 5188   1.737   3.729   3.532
 1430SOL    HW1 5189   1.777   3.816   3.504
 1430SOL    HW2 5190   1.694   3.740   3.621
 1431SOL     OW 5191   2.066   1.211   6.029
 1431SOL    HW1 5192   2.160   1.225   6.061
 1431SOL    HW2 5193   2.066   1.146   5.953
 1432SOL     OW 5194   2.540   1.658   2.649
 1432SOL    HW1 5195   2.608   1.668   2.575
 1432SOL    HW2 5196   2.583   1.613   2.727
 1433SOL     OW 5197   2.663   6.926   4.189
 1433SOL    HW1 5198   2.613   7.011   4.205
 1433SOL    HW2 5199   2.755   6.947   4.156
 1434SOL     OW 5200   0.443   2.941   0.407
 1434SOL    HW1 5201   0.406   2.879   0.338
 1434SOL    HW2 5202   0.385   2.940   0.488
 1435SOL     OW 5203   0.644   6.925   4.116
 1435SOL    HW1 5204   0.680   6.869   4.191
 1435SOL    HW2 5205   0.620   6.866   4.039
 1436SOL     OW 5206   5.283   1.814   0.079
 1436SOL    HW1 5207   5.205   1.828   0.139
 1436SOL    HW2 5208   5.283   1.886   0.008
 1437SOL     OW 5209   4.400   0.252   5.988
 1437SOL    HW1 5210   4.342   0.278   5.912
 1437SOL    HW2 5211   4.444   0.164   5.968
 1438SOL     OW 5212   2.591   0.254   2.008
 1438SOL    HW1 5213   2.591   0.190   2.085
 1438SOL    HW2 5214   2.681   0.296   1.998
 1439SOL     OW 5215   0.650   5.040   6.959
 1439SOL    HW1 5216   0.742   5.001   6.955
 1439SOL    HW2 5217   0.587   4.974   6.998
 1440SOL     OW 5218   3.189   3.054   3.803
 1440SOL    HW1 5219   3.185   3.011   3.712
 1440SOL    HW2 5220   3.284   3.081   3.823
 1441SOL     OW 5221   6.456   3.133   3.586
 1441SOL    HW1 5222   6.522   3.158   3.516
 1441SOL    HW2 5223   6.378   3.196   3.583
 1442SOL     OW 5224   5.117   4.361   0.589
 1442SOL    HW1 5225   5.052   4.394   0.520
 1442SOL    HW2 5226   5.194   4.316   0.544
 1443SOL     OW 5227   0.454   2.266   2.776
 1443SOL    HW1 5228   0.414   2.255   2.685
 1443SOL    HW2 5229   0.384   2.303   2.838
 1444SOL     OW 5230   4.471   1.001   3.737
 1444SOL    HW1 5231   4.566   1.031   3.739
 1444SOL    HW2 5232   4.448   0.957   3.824
 1445SOL     OW 5233   6.171   2.294   1.585
 1445SOL    HW1 5234   6.169   2.368   1.652
 1445SOL    HW2 5235   6.259   2.294   1.538
 1446SOL     OW 5236   4.272   0.592   1.255
 1446SOL    HW1 5237   4.176   0.567   1.250
 1446SOL    HW2 5238   4.298   0.643   1.173
 1447SOL     OW 5239   6.356   0.340   5.072
 1447SOL    HW1 5240   6.415   0.314   5.148
 1447SOL    HW2 5241   6.372   0.435   5.048
 1448SOL     OW 5242   5.361   0.899   6.601
 1448SOL    HW1 5243   5.316   0.966   6.660
 1448SOL    HW2 5244   5.378   0.815   6.652
 1449SOL     OW 5245   5.178   6.111   1.123
 1449SOL    HW1 5246   5.244   6.183   1.143
 1449SOL    HW2 5247   5.094   6.128   1.173
 1450SOL     OW 5248   5.887   2.919   3.278
 1450SOL    HW1 5249   5.858   2.860   3.353
 1450SOL    HW2 5250   5.941   2.994   3.314
 1451SOL     OW 5251   1.349   6.104   3.317
 1451SOL    HW1 5252   1.277   6.070   3.256
 1451SOL    HW2 5253   1.332   6.070   3.410
 1452SOL     OW 5254   4.444   1.250   5.463
 1452SOL    HW1 5255   4.537   1.212   5.455
 1452SOL    HW2 5256   4.449   1.346   5.488
 1453SOL     OW 5257   5.243   4.770   5.260
 1453SOL    HW1 5258   5.258   4.711   5.182
 1453SOL    HW2 5259   5.263   4.720   5.344
 1454SOL     OW 5260   4.049   4.031   1.153
 1454SOL    HW1 5261   4.148   4.028   1.168
 1454SOL    HW2 5262   4.003   4.031   1.242
 1455SOL     OW 5263   1.797   2.106   1.613
 1455SOL    HW1 5264   1.860   2.149   1.549
 1455SOL    HW2 5265   1.733   2.174   1.648
 1456SOL     OW 5266   6.052   6.209   3.483
 1456SOL    HW1 5267   6.113   6.282   3.452
 1456SOL    HW2 5268   6.088   6.170   3.568
 1457SOL     OW 5269   1.402   0.624   2.906
 1457SOL    HW1 5270   1.345   0.556   2.953
 1457SOL    HW2 5271   1.356   0.712   2.906
 1458SOL     OW 5272   5.594   5.303   6.817
 1458SOL    HW1 5273   5.690   5.275   6.824
 1458SOL    HW2 5274   5.574   5.331   6.723
 1459SOL     OW 5275   2.184   6.665   6.783
 1459SOL    HW1 5276   2.215   6.757   6.807
 1459SOL    HW2 5277   2.086   6.658   6.798
 1460SOL     OW 5278   1.387   0.070   6.900
 1460SOL    HW1 5279   1.307   0.033   6.854
 1460SOL    HW2 5280   1.374   0.064   6.999
 1461SOL     OW 5281   5.520   4.393   1.676
 1461SOL    HW1 5282   5.590   4.337   1.720
 1461SOL    HW2 5283   5.439   4.337   1.658
 1462SOL     OW 5284   5.834   1.151   6.478
 1462SOL    HW1 5285   5.804   1.154   6.383
 1462SOL    HW2 5286   5.801   1.066   6.521
 1463SOL     OW 5287   0.771   1.430   4.824
 1463SOL    HW1 5288   0.752   1.336   4.798
 1463SOL    HW2 5289   0.715   1.454   4.904
 1464SOL     OW 5290   0.325   6.478   1.130
 1464SOL    HW1 5291   0.319   6.416   1.208
 1464SOL    HW2 5292   0.310   6.572   1.162
 1465SOL     OW 5293   6.908   6.764   4.596
 1465SOL    HW1 5294   6.993   6.769   4.543
 1465SOL    HW2 5295   6.877   6.857   4.618
 1466SOL     OW 5296   5.686   4.513   3.474
 1466SOL    HW1 5297   5.661   4.419   3.452
 1466SOL    HW2 5298   5.756   4.513   3.545
 1467SOL     OW 5299   0.906   2.247   3.174
 1467SOL    HW1 5300   0.909   2.161   3.226
 1467SOL    HW2 5301   0.836   2.307   3.214
 1468SOL     OW 5302   5.637   6.025   3.823
 1468SOL    HW1 5303   5.540   6.038   3.844
 1468SOL    HW2 5304   5.647   5.951   3.757
 1469SOL     OW 5305   1.052   1.377   2.679
 1469SOL    HW1 5306   0.975   1.370   2.743
 1469SOL    HW2 5307   1.109   1.455   2.704
 1470SOL     OW 5308   0.975   1.306   3.192
 1470SOL    HW1 5309   0.955   1.282   3.097
 1470SOL    HW2 5310   0.893   1.346   3.234
 1471SOL     OW 5311   0.461   6.950   0.074
 1471SOL    HW1 5312   0.544   6.973   0.124
 1471SOL    HW2 5313   0.420   6.868   0.113
 1472SOL     OW 5314   4.288   1.160   5.709
 1472SOL    HW1 5315   4.344   1.191   5.633
 1472SOL    HW2 5316   4.302   1.062   5.724
 1473SOL     OW 5317   6.129   3.933   3.867
 1473SOL    HW1 5318   6.134   3.893   3.776
 1473SOL    HW2 5319   6.178   4.020   3.868
 1474SOL     OW 5320   4.736   5.545   3.852
 1474SOL    HW1 5321   4.734   5.622   3.788
 1474SOL    HW2 5322   4.728   5.579   3.946
 1475SOL     OW 5323   0.537   1.184   2.534
 1475SOL    HW1 5324   0.574   1.132   2.458
 1475SOL    HW2 5325   0.440   1.161   2.546
 1476SOL     OW 5326   6.600   1.885   2.055
 1476SOL    HW1 5327   6.692   1.923   2.049
 1476SOL    HW2 5328   6.588   1.839   2.143
 1477SOL     OW 5329   2.851   5.740   4.297
 1477SOL    HW1 5330   2.819   5.834   4.314
 1477SOL    HW2 5331   2.808   5.705   4.214
 1478SOL     OW 5332   6.428   4.261   0.923
 1478SOL    HW1 5333   6.374   4.202   0.982
 1478SOL    HW2 5334   6.376   4.344   0.902
 1479SOL     OW 5335   1.908   5.389   0.882
 1479SOL    HW1 5336   1.941   5.335   0.959
 1479SOL    HW2 5337   1.985   5.411   0.822
 1480SOL     OW 5338   2.615   1.081   6.875
 1480SOL    HW1 5339   2.517   1.090   6.890
 1480SOL    HW2 5340   2.659   1.170   6.887
 1481SOL     OW 5341   6.028   2.443   6.262
 1481SOL    HW1 5342   5.986   2.382   6.195
 1481SOL    HW2 5343   6.086   2.390   6.324
 1482SOL     OW 5344   6.446   0.341   6.516
 1482SOL    HW1 5345   6.441   0.263   6.579
 1482SOL    HW2 5346   6.509   0.320   6.442
 1483SOL     OW 5347   5.915   1.898   0.515
 1483SOL    HW1 5348   5.906   1.997   0.527
 1483SOL    HW2 5349   5.939   1.878   0.419
 1484SOL     OW 5350   6.293   5.205   2.426
 1484SOL    HW1 5351   6.298   5.296   2.384
 1484SOL    HW2 5352   6.237   5.209   2.509
 1485SOL     OW 5353   4.849   2.630   3.917
 1485SOL    HW1 5354   4.817   2.711   3.966
 1485SOL    HW2 5355   4.948   2.637   3.904
 1486SOL     OW 5356   4.730   1.753   2.223
 1486SOL    HW1 5357   4.687   1.739   2.133
 1486SOL    HW2 5358   4.722   1.849   2.249
 1487SOL     OW 5359   6.141   1.438   5.311
 1487SOL    HW1 5360   6.179   1.526   5.340
 1487SOL    HW2 5361   6.215   1.372   5.299
 1488SOL     OW 5362   4.509   1.983   3.001
 1488SOL    HW1 5363   4.563   1.939   2.930
 1488SOL    HW2 5364   4.418   2.005   2.965
 1489SOL     OW 5365   3.781   5.711   5.138
 1489SOL    HW1 5366   3.807   5.616   5.155
 1489SOL    HW2 5367   3.840   5.749   5.066
 1490SOL     OW 5368   1.821   2.797   0.135
 1490SOL    HW1 5369   1.915   2.830   0.119
 1490SOL    HW2 5370   1.757   2.854   0.084
 1491SOL     OW 5371   0.193   3.160   3.928
 1491SOL    HW1 5372   0.124   3.108   3.877
 1491SOL    HW2 5373   0.232   3.102   4.000
 1492SOL     OW 5374   5.031   1.949   1.714
 1492SOL    HW1 5375   4.995   1.942   1.621
 1492SOL    HW2 5376   5.127   1.976   1.711
 1493SOL     OW 5377   5.127   0.911   5.231
 1493SOL    HW1 5378   5.136   0.899   5.330
 1493SOL    HW2 5379   5.090   1.002   5.212
 1494SOL     OW 5380   4.695   2.571   6.012
 1494SOL    HW1 5381   4.620   2.514   5.980
 1494SOL    HW2 5382   4.691   2.660   5.966
 1495SOL     OW 5383   1.582   2.980   2.376
 1495SOL    HW1 5384   1.557   3.029   2.293
 1495SOL    HW2 5385   1.681   2.988   2.391
 1496SOL     OW 5386   0.698   0.336   2.189
 1496SOL    HW1 5387   0.615   0.298   2.146
 1496SOL    HW2 5388   0.750   0.262   2.231
 1497SOL     OW 5389   6.266   5.476   4.564
 1497SOL    HW1 5390   6.218   5.521   4.489
 1497SOL    HW2 5391   6.245   5.522   4.650
 1498SOL     OW 5392   2.384   6.372   0.323
 1498SOL    HW1 5393   2.374   6.281   0.283
 1498SOL    HW2 5394   2.340   6.373   0.413
 1499SOL     OW 5395   0.881   3.848   5.638
 1499SOL    HW1 5396   0.826   3.920   5.595
 1499SOL    HW2 5397   0.859   3.760   5.598
 1500SOL     OW 5398   4.597   0.146   6.293
 1500SOL    HW1 5399   4.694   0.147   6.316
 1500SOL    HW2 5400   4.574   0.059   6.248
 1501SOL     OW 5401   4.008   6.237   6.314
 1501SOL    HW1 5402   3.938   6.177   6.275
 1501SOL    HW2 5403   4.023   6.212   6.409
 1502SOL     OW 5404   6.172   6.397   0.174
 1502SOL    HW1 5405   6.139   6.304   0.160
 1502SOL    HW2 5406   6.100   6.452   0.216
 1503SOL     OW 5407   3.981   2.903   6.043
 1503SOL    HW1 5408   4.004   2.975   5.978
 1503SOL    HW2 5409   3.901   2.852   6.010
 1504SOL     OW 5410   3.143   6.080   4.750
 1504SOL    HW1 5411   3.182   6.048   4.836
 1504SOL    HW2 5412   3.216   6.093   4.682
 1505SOL     OW 5413   5.432   5.493   0.223
 1505SOL    HW1 5414   5.442   5.576   0.277
 1505SOL    HW2 5415   5.417   5.415   0.284
 1506SOL     OW 5416   0.814   6.319   4.473
 1506SOL    HW1 5417   0.784   6.412   4.492
 1506SOL    HW2 5418   0.842   6.311   4.377
 1507SOL     OW 5419   1.747   1.722   5.995
 1507SOL    HW1 5420   1.813   1.702   5.922
 1507SOL    HW2 5421   1.767   1.665   6.074
 1508SOL     OW 5422   5.272   6.954   0.372
 1508SOL    HW1 5423   5.186   6.937   0.324
 1508SOL    HW2 5424   5.254   7.005   0.455
 1509SOL     OW 5425   4.844   2.377   0.579
 1509SOL    HW1 5426   4.892   2.295   0.612
 1509SOL    HW2 5427   4.842   2.376   0.479
 1510SOL     OW 5428   6.918   1.914   3.881
 1510SOL    HW1 5429   6.943   1.853   3.957
 1510SOL    HW2 5430   6.829   1.955   3.899
 1511SOL     OW 5431   1.839   3.116   0.508
 1511SOL    HW1 5432   1.808   3.026   0.477
 1511SOL    HW2 5433   1.761   3.169   0.541
 1512SOL     OW 5434   0.217   1.109   2.053
 1512SOL    HW1 5435   0.293   1.153   2.101
 1512SOL    HW2 5436   0.198   1.021   2.095
 1513SOL     OW 5437   3.598   1.043   3.262
 1513SOL    HW1 5438   3.589   1.004   3.171
 1513SOL    HW2 5439   3.651   1.128   3.257
 1514SOL     OW 5440   5.495   1.187   5.294
 1514SOL    HW1 5441   5.424   1.212   5.228
 1514SOL    HW2 5442   5.583   1.225   5.265
 1515SOL     OW 5443   7.020   4.593   4.322
 1515SOL    HW1 5444   6.931   4.613   4.364
 1515SOL    HW2 5445   0.020   4.664   4.255
 1516SOL     OW 5446   0.954   0.663   0.413
 1516SOL    HW1 5447   0.909   0.575   0.422
 1516SOL    HW2 5448   1.053   0.650   0.413
 1517SOL     OW 5449   4.413   5.656   3.495
 1517SOL    HW1 5450   4.425   5.582   3.428
 1517SOL    HW2 5451   4.323   5.698   3.481
 1518SOL     OW 5452   0.550   4.489   1.365
 1518SOL    HW1 5453   0.571   4.415   1.430
 1518SOL    HW2 5454   0.633   4.513   1.314
 1519SOL     OW 5455   6.162   4.523   0.531
 1519SOL    HW1 5456   6.167   4.426   0.505
 1519SOL    HW2 5457   6.067   4.553   0.526
 1520SOL     OW 5458   1.477   3.696   3.084
 1520SOL    HW1 5459   1.539   3.683   3.160
 1520SOL    HW2 5460   1.513   3.765   3.022
 1521SOL     OW 5461   2.800   3.654   6.778
 1521SOL    HW1 5462   2.753   3.737   6.748
 1521SOL    HW2 5463   2.761   3.623   6.864
 1522SOL     OW 5464   5.908   2.248   0.005
 1522SOL    HW1 5465   5.948   2.212   0.089
 1522SOL    HW2 5466   5.977   2.247   6.952
 1523SOL     OW 5467   0.487   1.904   1.161
 1523SOL    HW1 5468   0.453   1.995   1.184
 1523SOL    HW2 5469   0.451   1.838   1.227
 1524SOL     OW 5470   0.147   0.869   2.170
 1524SOL    HW1 5471   0.056   0.885   2.131
 1524SOL    HW2 5472   0.137   0.827   2.261
 1525SOL     OW 5473   4.885   2.087   6.335
 1525SOL    HW1 5474   4.847   2.091   6.428
 1525SOL    HW2 5475   4.842   2.157   6.278
 1526SOL     OW 5476   6.647   2.529   1.747
 1526SOL    HW1 5477   6.660   2.432   1.729
 1526SOL    HW2 5478   6.564   2.541   1.802
 1527SOL     OW 5479   3.492   2.122   5.554
 1527SOL    HW1 5480   3.420   2.077   5.501
 1527SOL    HW2 5481   3.545   2.054   5.603
 1528SOL     OW 5482   4.956   6.263   3.515
 1528SOL    HW1 5483   4.874   6.249   3.570
 1528SOL    HW2 5484   4.956   6.355   3.477
 1529SOL     OW 5485   3.360   0.152   5.840
 1529SOL    HW1 5486   3.298   0.109   5.774
 1529SOL    HW2 5487   3.310   0.168   5.925
 1530SOL     OW 5488   3.769   6.763   2.400
 1530SOL    HW1 5489   3.679   6.718   2.406
 1530SOL    HW2 5490   3.770   6.823   2.320
 1531SOL     OW 5491   6.538   6.948   4.788
 1531SOL    HW1 5492   6.536   6.939   4.689
 1531SOL    HW2 5493   6.480   0.005   4.816
 1532SOL     OW 5494   3.082   2.014   5.062
 1532SOL    HW1 5495   3.002   1.999   5.004
 1532SOL    HW2 5496   3.105   2.112   5.062
 1533SOL     OW 5497   5.895   2.961   6.906
 1533SOL    HW1 5498   5.950   2.905   6.844
 1533SOL    HW2 5499   5.953   3.033   6.946
 1534SOL     OW 5500   7.010   5.959   1.075
 1534SOL    HW1 5501   7.016   6.039   1.134
 1534SOL    HW2 5502   6.947   5.978   0.999
 1535SOL     OW 5503   4.262   5.037   4.356
 1535SOL    HW1 5504   4.258   5.083   4.445
 1535SOL    HW2 5505   4.320   5.090   4.294
 1536SOL     OW 5506   2.892   6.106   5.350
 1536SOL    HW1 5507   2.971   6.052   5.380
 1536SOL    HW2 5508   2.907   6.138   5.256
 1537SOL     OW 5509   1.522   5.948   4.613
 1537SOL    HW1 5510   1.487   5.995   4.531
 1537SOL    HW2 5511   1.473   5.862   4.626
 1538SOL     OW 5512   2.244   5.527   6.402
 1538SOL    HW1 5513   2.241   5.446   6.460
 1538SOL    HW2 5514   2.153   5.545   6.364
 1539SOL     OW 5515   3.589   4.822   1.654
 1539SOL    HW1 5516   3.499   4.864   1.646
 1539SOL    HW2 5517   3.583   4.744   1.717
 1540SOL     OW 5518   0.371   6.791   4.764
 1540SOL    HW1 5519   0.385   6.768   4.667
 1540SOL    HW2 5520   0.431   6.734   4.820
 1541SOL     OW 5521   5.093   2.526   1.023
 1541SOL    HW1 5522   5.057   2.610   0.983
 1541SOL    HW2 5523   5.023   2.454   1.018
 1542SOL     OW 5524   0.731   6.769   1.128
 1542SOL    HW1 5525   0.824   6.757   1.094
 1542SOL    HW2 5526   0.680   6.684   1.117
 1543SOL     OW 5527   3.276   4.132   4.210
 1543SOL    HW1 5528   3.270   4.057   4.275
 1543SOL    HW2 5529   3.212   4.204   4.236
 1544SOL     OW 5530   3.263   4.099   2.927
 1544SOL    HW1 5531   3.243   4.133   2.835
 1544SOL    HW2 5532   3.352   4.053   2.927
 1545SOL     OW 5533   5.860   0.077   4.967
 1545SOL    HW1 5534   5.957   0.095   4.958
 1545SOL    HW2 5535   5.829   0.101   5.059
 1546SOL     OW 5536   0.576   6.610   5.916
 1546SOL    HW1 5537   0.584   6.673   5.838
 1546SOL    HW2 5538   0.480   6.599   5.941
 1547SOL     OW 5539   3.492   5.977   1.045
 1547SOL    HW1 5540   3.429   6.005   0.972
 1547SOL    HW2 5541   3.464   5.888   1.080
 1548SOL     OW 5542   5.203   4.336   4.821
 1548SOL    HW1 5543   5.246   4.271   4.884
 1548SOL    HW2 5544   5.112   4.359   4.854
 1549SOL     OW 5545   6.876   1.806   1.481
 1549SOL    HW1 5546   6.942   1.734   1.505
 1549SOL    HW2 5547   6.783   1.770   1.491
 1550SOL     OW 5548   2.482   6.026   4.406
 1550SOL    HW1 5549   2.421   6.102   4.385
 1550SOL    HW2 5550   2.446   5.942   4.366
 1551SOL     OW 5551   1.644   2.081   1.223
 1551SOL    HW1 5552   1.709   2.120   1.158
 1551SOL    HW2 5553   1.591   2.155   1.264
 1552SOL     OW 5554   0.850   0.541   0.775
 1552SOL    HW1 5555   0.854   0.442   0.788
 1552SOL    HW2 5556   0.760   0.566   0.739
 1553SOL     OW 5557   5.990   1.595   6.362
 1553SOL    HW1 5558   6.070   1.561   6.410
 1553SOL    HW2 5559   6.017   1.631   6.273
 1554SOL     OW 5560   3.754   1.704   1.811
 1554SOL    HW1 5561   3.744   1.804   1.816
 1554SOL    HW2 5562   3.822   1.675   1.879
 1555SOL     OW 5563   3.966   1.513   5.640
 1555SOL    HW1 5564   4.016   1.452   5.701
 1555SOL    HW2 5565   3.870   1.485   5.636
 1556SOL     OW 5566   3.547   1.518   0.809
 1556SOL    HW1 5567   3.481   1.528   0.734
 1556SOL    HW2 5568   3.513   1.449   0.873
 1557SOL     OW 5569   1.663   1.890   0.958
 1557SOL    HW1 5570   1.626   1.983   0.967
 1557SOL    HW2 5571   1.756   1.888   0.995
 1558SOL     OW 5572   6.677   3.274   6.384
 1558SOL    HW1 5573   6.716   3.199   6.331
 1558SOL    HW2 5574   6.577   3.263   6.389
 1559SOL     OW 5575   1.814   4.946   2.968
 1559SOL    HW1 5576   1.764   5.031   2.951
 1559SOL    HW2 5577   1.750   4.870   2.972
 1560SOL     OW 5578   3.839   1.313   1.537
 1560SOL    HW1 5579   3.919   1.256   1.552
 1560SOL    HW2 5580   3.864   1.410   1.548
 1561SOL     OW 5581   6.266   5.914   1.199
 1561SOL    HW1 5582   6.286   5.905   1.101
 1561SOL    HW2 5583   6.348   5.947   1.247
 1562SOL     OW 5584   3.508   6.639   2.377
 1562SOL    HW1 5585   3.459   6.560   2.413
 1562SOL    HW2 5586   3.500   6.640   2.277
 1563SOL     OW 5587   4.003   2.225   4.344
 1563SOL    HW1 5588   4.057   2.193   4.422
 1563SOL    HW2 5589   4.056   2.212   4.260
 1564SOL     OW 5590   1.154   1.953   2.700
 1564SOL    HW1 5591   1.160   1.974   2.797
 1564SOL    HW2 5592   1.058   1.949   2.672
 1565SOL     OW 5593   3.999   0.903   4.754
 1565SOL    HW1 5594   4.007   0.894   4.655
 1565SOL    HW2 5595   4.084   0.873   4.797
 1566SOL     OW 5596   4.596   4.702   3.061
 1566SOL    HW1 5597   4.616   4.667   3.152
 1566SOL    HW2 5598   4.536   4.637   3.013
 1567SOL     OW 5599   5.128   6.564   4.985
 1567SOL    HW1 5600   5.096   6.658   4.969
 1567SOL    HW2 5601   5.104   6.537   5.079
 1568SOL     OW 5602   2.572   5.866   2.722
 1568SOL    HW1 5603   2.587   5.835   2.815
 1568SOL    HW2 5604   2.475   5.855   2.698
 1569SOL     OW 5605   2.513   6.868   3.541
 1569SOL    HW1 5606   2.571   6.813   3.601
 1569SOL    HW2 5607   2.568   6.936   3.494
 1570SOL     OW 5608   3.511   6.726   0.326
 1570SOL    HW1 5609   3.517   6.668   0.244
 1570SOL    HW2 5610   3.593   6.784   0.331
 1571SOL     OW 5611   0.738   2.277   4.291
 1571SOL    HW1 5612   0.724   2.371   4.321
 1571SOL    HW2 5613   0.672   2.217   4.336
 1572SOL     OW 5614   1.896   5.136   1.989
 1572SOL    HW1 5615   1.907   5.146   1.891
 1572SOL    HW2 5616   1.920   5.042   2.016
 1573SOL     OW 5617   5.081   5.193   0.658
 1573SOL    HW1 5618   5.075   5.140   0.742
 1573SOL    HW2 5619   5.173   5.230   0.647
 1574SOL     OW 5620   6.965   3.466   2.914
 1574SOL    HW1 5621   6.956   3.565   2.916
 1574SOL    HW2 5622   6.920   3.426   2.994
 1575SOL     OW 5623   0.607   1.265   0.430
 1575SOL    HW1 5624   0.574   1.227   0.344
 1575SOL    HW2 5625   0.540   1.331   0.465
 1576SOL     OW 5626   0.118   0.091   2.410
 1576SOL    HW1 5627   0.151   0.075   2.503
 1576SOL    HW2 5628   0.104   0.003   2.364
 1577SOL     OW 5629   4.716   6.868   5.480
 1577SOL    HW1 5630   4.655   6.906   5.410
 1577SOL    HW2 5631   4.809   6.865   5.444
 1578SOL     OW 5632   5.038   0.868   0.172
 1578SOL    HW1 5633   5.016   0.780   0.213
 1578SOL    HW2 5634   5.010   0.942   0.234
 1579SOL     OW 5635   1.501   2.296   1.327
 1579SOL    HW1 5636   1.419   2.350   1.345
 1579SOL    HW2 5637   1.568   2.352   1.278
 1580SOL     OW 5638   3.514   3.541   3.024
 1580SOL    HW1 5639   3.437   3.575   2.970
 1580SOL    HW2 5640   3.582   3.613   3.034
 1581SOL     OW 5641   6.553   4.466   5.595
 1581SOL    HW1 5642   6.483   4.396   5.603
 1581SOL    HW2 5643   6.629   4.431   5.539
 1582SOL     OW 5644   4.506   6.711   5.297
 1582SOL    HW1 5645   4.522   6.695   5.394
 1582SOL    HW2 5646   4.544   6.800   5.271
 1583SOL     OW 5647   0.942   5.801   5.185
 1583SOL    HW1 5648   0.917   5.882   5.238
 1583SOL    HW2 5649   0.958   5.827   5.090
 1584SOL     OW 5650   0.653   5.066   6.630
 1584SOL    HW1 5651   0.724   4.997   6.644
 1584SOL    HW2 5652   0.623   5.102   6.719
 1585SOL     OW 5653   3.908   0.247   3.314
 1585SOL    HW1 5654   3.942   0.153   3.321
 1585SOL    HW2 5655   3.828   0.249   3.255
 1586SOL     OW 5656   2.815   4.809   3.763
 1586SOL    HW1 5657   2.845   4.899   3.731
 1586SOL    HW2 5658   2.780   4.756   3.686
 1587SOL     OW 5659   1.962   6.106   5.603
 1587SOL    HW1 5660   2.046   6.054   5.614
 1587SOL    HW2 5661   1.973   6.172   5.528
 1588SOL     OW 5662   5.827   0.701   2.544
 1588SOL    HW1 5663   5.766   0.677   2.620
 1588SOL    HW2 5664   5.802   0.649   2.463
 1589SOL     OW 5665   6.420   4.464   3.847
 1589SOL    HW1 5666   6.447   4.378   3.891
 1589SOL    HW2 5667   6.370   4.521   3.913
 1590SOL     OW 5668   6.562   2.163   3.689
 1590SOL    HW1 5669   6.477   2.215   3.680
 1590SOL    HW2 5670   6.640   2.226   3.687
 1591SOL     OW 5671   0.610   6.214   2.029
 1591SOL    HW1 5672   0.637   6.271   1.952
 1591SOL    HW2 5673   0.527   6.163   2.005
 1592SOL     OW 5674   0.731   3.837   6.773
 1592SOL    HW1 5675   0.823   3.812   6.742
 1592SOL    HW2 5676   0.715   3.934   6.755
 1593SOL     OW 5677   2.227   0.275   6.786
 1593SOL    HW1 5678   2.140   0.232   6.761
 1593SOL    HW2 5679   2.260   0.330   6.710
 1594SOL     OW 5680   6.371   0.444   2.141
 1594SOL    HW1 5681   6.353   0.366   2.081
 1594SOL    HW2 5682   6.354   0.418   2.236
 1595SOL     OW 5683   1.064   4.549   6.607
 1595SOL    HW1 5684   0.970   4.536   6.637
 1595SOL    HW2 5685   1.065   4.594   6.518
 1596SOL     OW 5686   5.072   4.616   2.329
 1596SOL    HW1 5687   5.126   4.584   2.406
 1596SOL    HW2 5688   4.984   4.568   2.328
 1597SOL     OW 5689   3.797   6.563   6.894
 1597SOL    HW1 5690   3.787   6.661   6.880
 1597SOL    HW2 5691   3.868   6.546   6.961
 1598SOL     OW 5692   1.579   5.953   6.850
 1598SOL    HW1 5693   1.570   5.865   6.897
 1598SOL    HW2 5694   1.607   6.023   6.916
 1599SOL     OW 5695   4.509   5.043   4.010
 1599SOL    HW1 5696   4.433   5.077   4.064
 1599SOL    HW2 5697   4.547   4.961   4.053
 1600SOL     OW 5698   3.961   0.403   2.793
 1600SOL    HW1 5699   3.899   0.480   2.780
 1600SOL    HW2 5700   4.052   0.426   2.759
 1601SOL     OW 5701   5.788   6.268   4.186
 1601SOL    HW1 5702   5.757   6.341   4.125
 1601SOL    HW2 5703   5.797   6.304   4.279
 1602SOL     OW 5704   4.255   5.114   3.758
 1602SOL    HW1 5705   4.341   5.064   3.758
 1602SOL    HW2 5706   4.270   5.208   3.726
 1603SOL     OW 5707   2.840   5.332   3.451
 1603SOL    HW1 5708   2.745   5.353   3.430
 1603SOL    HW2 5709   2.872   5.259   3.390
 1604SOL     OW 5710   3.965   5.175   2.271
 1604SOL    HW1 5711   4.030   5.217   2.207
 1604SOL    HW2 5712   3.875   5.170   2.228
 1605SOL     OW 5713   4.887   5.174   1.253
 1605SOL    HW1 5714   4.981   5.146   1.273
 1605SOL    HW2 5715   4.847   5.110   1.188
 1606SOL     OW 5716   4.434   6.276   4.865
 1606SOL    HW1 5717   4.446   6.180   4.889
 1606SOL    HW2 5718   4.474   6.293   4.775
 1607SOL     OW 5719   4.724   5.878   2.879
 1607SOL    HW1 5720   4.644   5.938   2.876
 1607SOL    HW2 5721   4.694   5.783   2.879
 1608SOL     OW 5722   6.569   0.931   3.070
 1608SOL    HW1 5723   6.583   1.030   3.068
 1608SOL    HW2 5724   6.589   0.896   3.161
 1609SOL     OW 5725   3.591   6.179   1.204
 1609SOL    HW1 5726   3.569   6.088   1.170
 1609SOL    HW2 5727   3.673   6.213   1.157
 1610SOL     OW 5728   4.493   0.377   0.260
 1610SOL    HW1 5729   4.551   0.453   0.288
 1610SOL    HW2 5730   4.398   0.408   0.254
 1611SOL     OW 5731   1.210   3.806   1.115
 1611SOL    HW1 5732   1.263   3.772   1.037
 1611SOL    HW2 5733   1.154   3.732   1.153
 1612SOL     OW 5734   3.739   0.004   1.733
 1612SOL    HW1 5735   3.668   0.075   1.728
 1612SOL    HW2 5736   3.815   0.037   1.789
 1613SOL     OW 5737   6.719   5.646   2.446
 1613SOL    HW1 5738   6.673   5.636   2.535
 1613SOL    HW2 5739   6.736   5.743   2.429
 1614SOL     OW 5740   6.343   2.365   6.170
 1614SOL    HW1 5741   6.253   2.355   6.128
 1614SOL    HW2 5742   6.369   2.279   6.213
 1615SOL     OW 5743   0.849   5.104   5.973
 1615SOL    HW1 5744   0.774   5.103   6.040
 1615SOL    HW2 5745   0.930   5.144   6.015
 1616SOL     OW 5746   2.448   1.433   4.914
 1616SOL    HW1 5747   2.375   1.374   4.950
 1616SOL    HW2 5748   2.412   1.524   4.896
 1617SOL     OW 5749   5.529   6.079   3.349
 1617SOL    HW1 5750   5.492   5.999   3.397
 1617SOL    HW2 5751   5.500   6.162   3.397
 1618SOL     OW 5752   2.950   5.460   3.079
 1618SOL    HW1 5753   3.017   5.386   3.087
 1618SOL    HW2 5754   2.860   5.426   3.106
 1619SOL     OW 5755   1.310   5.167   0.139
 1619SOL    HW1 5756   1.402   5.131   0.154
 1619SOL    HW2 5757   1.247   5.125   0.206
 1620SOL     OW 5758   3.866   5.460   6.674
 1620SOL    HW1 5759   3.928   5.384   6.696
 1620SOL    HW2 5760   3.835   5.452   6.580
 1621SOL     OW 5761   5.446   6.504   0.238
 1621SOL    HW1 5762   5.521   6.510   0.172
 1621SOL    HW2 5763   5.436   6.592   0.286
 1622SOL     OW 5764   0.614   4.090   4.378
 1622SOL    HW1 5765   0.527   4.077   4.427
 1622SOL    HW2 5766   0.596   4.130   4.288
 1623SOL     OW 5767   0.860   2.094   4.521
 1623SOL    HW1 5768   0.846   1.995   4.523
 1623SOL    HW2 5769   0.943   2.116   4.469
 1624SOL     OW 5770   3.945   1.169   1.077
 1624SOL    HW1 5771   3.954   1.217   0.990
 1624SOL    HW2 5772   3.987   1.223   1.149
 1625SOL     OW 5773   1.773   5.418   1.425
 1625SOL    HW1 5774   1.849   5.456   1.477
 1625SOL    HW2 5775   1.750   5.480   1.349
 1626SOL     OW 5776   3.079   1.578   1.288
 1626SOL    HW1 5777   3.024   1.545   1.365
 1626SOL    HW2 5778   3.141   1.506   1.258
 1627SOL     OW 5779   4.386   1.654   4.398
 1627SOL    HW1 5780   4.456   1.693   4.339
 1627SOL    HW2 5781   4.316   1.610   4.342
 1628SOL     OW 5782   5.787   6.548   6.588
 1628SOL    HW1 5783   5.868   6.562   6.644
 1628SOL    HW2 5784   5.705   6.568   6.643
 1629SOL     OW 5785   1.707   1.016   3.096
 1629SOL    HW1 5786   1.725   0.934   3.041
 1629SOL    HW2 5787   1.613   1.046   3.081
 1630SOL     OW 5788   0.870   3.695   0.122
 1630SOL    HW1 5789   0.864   3.665   0.217
 1630SOL    HW2 5790   0.794   3.657   0.070
 1631SOL     OW 5791   0.397   3.233   0.592
 1631SOL    HW1 5792   0.344   3.149   0.577
 1631SOL    HW2 5793   0.404   3.284   0.507
 1632SOL     OW 5794   6.692   4.698   2.625
 1632SOL    HW1 5795   6.650   4.715   2.536
 1632SOL    HW2 5796   6.621   4.685   2.694
 1633SOL     OW 5797   4.810   3.053   3.999
 1633SOL    HW1 5798   4.863   3.042   4.083
 1633SOL    HW2 5799   4.814   3.148   3.969
 1634SOL     OW 5800   5.342   0.269   4.575
 1634SOL    HW1 5801   5.406   0.251   4.650
 1634SOL    HW2 5802   5.248   0.255   4.606
 1635SOL     OW 5803   3.693   5.650   4.120
 1635SOL    HW1 5804   3.612   5.687   4.166
 1635SOL    HW2 5805   3.694   5.551   4.129
 1636SOL     OW 5806   5.620   6.459   1.616
 1636SOL    HW1 5807   5.672   6.542   1.633
 1636SOL    HW2 5808   5.674   6.380   1.645
 1637SOL     OW 5809   0.108   0.277   2.193
 1637SOL    HW1 5810   0.127   0.210   2.265
 1637SOL    HW2 5811   0.193   0.301   2.146
 1638SOL     OW 5812   0.185   2.940   1.847
 1638SOL    HW1 5813   0.202   2.883   1.928
 1638SOL    HW2 5814   0.272   2.961   1.802
 1639SOL     OW 5815   5.081   2.780   2.632
 1639SOL    HW1 5816   4.982   2.776   2.643
 1639SOL    HW2 5817   5.105   2.849   2.563
 1640SOL     OW 5818   6.326   0.115   0.078
 1640SOL    HW1 5819   6.391   0.165   0.020
 1640SOL    HW2 5820   6.353   0.125   0.174
 1641SOL     OW 5821   6.642   2.517   2.957
 1641SOL    HW1 5822   6.697   2.592   2.921
 1641SOL    HW2 5823   6.549   2.523   2.921
 1642SOL     OW 5824   5.569   2.002   5.515
 1642SOL    HW1 5825   5.594   2.006   5.419
 1642SOL    HW2 5826   5.476   2.036   5.527
 1643SOL     OW 5827   3.203   5.714   4.343
 1643SOL    HW1 5828   3.230   5.618   4.335
 1643SOL    HW2 5829   3.231   5.750   4.432
 1644SOL     OW 5830   5.730   2.802   0.698
 1644SOL    HW1 5831   5.720   2.720   0.754
 1644SOL    HW2 5832   5.767   2.876   0.754
 1645SOL     OW 5833   2.625   0.978   5.407
 1645SOL    HW1 5834   2.595   1.030   5.487
 1645SOL    HW2 5835   2.567   0.999   5.329
 1646SOL     OW 5836   0.837   5.622   0.785
 1646SOL    HW1 5837   0.799   5.536   0.753
 1646SOL    HW2 5838   0.763   5.686   0.805
 1647SOL     OW 5839   6.526   2.775   4.535
 1647SOL    HW1 5840   6.610   2.750   4.584
 1647SOL    HW2 5841   6.448   2.773   4.598
 1648SOL     OW 5842   5.359   6.260   0.911
 1648SOL    HW1 5843   5.355   6.275   1.009
 1648SOL    HW2 5844   5.386   6.166   0.892
 1649SOL     OW 5845   2.926   0.350   3.336
 1649SOL    HW1 5846   2.835   0.359   3.378
 1649SOL    HW2 5847   2.996   0.360   3.406
 1650SOL     OW 5848   2.782   5.145   6.578
 1650SOL    HW1 5849   2.874   5.112   6.596
 1650SOL    HW2 5850   2.785   5.243   6.556
 1651SOL     OW 5851   0.838   2.914   4.097
 1651SOL    HW1 5852   0.932   2.882   4.111
 1651SOL    HW2 5853   0.836   3.014   4.103
 1652SOL     OW 5854   0.585   2.657   1.278
 1652SOL    HW1 5855   0.605   2.704   1.191
 1652SOL    HW2 5856   0.493   2.681   1.308
 1653SOL     OW 5857   0.088   4.582   3.154
 1653SOL    HW1 5858   0.047   4.618   3.070
 1653SOL    HW2 5859   0.026   4.515   3.195
 1654SOL     OW 5860   0.507   3.231   1.653
 1654SOL    HW1 5861   0.514   3.163   1.580
 1654SOL    HW2 5862   0.599   3.265   1.676
 1655SOL     OW 5863   7.008   0.082   4.705
 1655SOL    HW1 5864   6.932   0.051   4.648
 1655SOL    HW2 5865   6.973   0.139   4.779
 1656SOL     OW 5866   2.306   4.847   4.053
 1656SOL    HW1 5867   2.312   4.942   4.082
 1656SOL    HW2 5868   2.381   4.826   3.991
 1657SOL     OW 5869   1.216   0.557   5.413
 1657SOL    HW1 5870   1.178   0.507   5.491
 1657SOL    HW2 5871   1.145   0.615   5.373
 1658SOL     OW 5872   6.769   6.958   6.385
 1658SOL    HW1 5873   6.863   6.989   6.396
 1658SOL    HW2 5874   6.768   6.866   6.347
 1659SOL     OW 5875   4.537   6.821   6.429
 1659SOL    HW1 5876   4.534   6.869   6.342
 1659SOL    HW2 5877   4.447   6.783   6.450
 1660SOL     OW 5878   1.697   0.041   1.733
 1660SOL    HW1 5879   1.747   0.006   1.812
 1660SOL    HW2 5880   1.698   0.141   1.735
 1661SOL     OW 5881   3.766   4.825   2.827
 1661SOL    HW1 5882   3.787   4.825   2.729
 1661SOL    HW2 5883   3.834   4.770   2.876
 1662SOL     OW 5884   0.367   0.985   4.845
 1662SOL    HW1 5885   0.421   0.910   4.883
 1662SOL    HW2 5886   0.358   0.972   4.746
 1663SOL     OW 5887   4.324   4.289   1.191
 1663SOL    HW1 5888   4.253   4.283   1.261
 1663SOL    HW2 5889   4.358   4.383   1.186
 1664SOL     OW 5890   0.817   0.300   5.429
 1664SOL    HW1 5891   0.874   0.219   5.441
 1664SOL    HW2 5892   0.722   0.277   5.448
 1665SOL     OW 5893   2.023   4.101   1.065
 1665SOL    HW1 5894   2.071   4.087   0.978
 1665SOL    HW2 5895   1.931   4.135   1.048
 1666SOL     OW 5896   6.003   6.892   6.347
 1666SOL    HW1 5897   6.048   6.821   6.401
 1666SOL    HW2 5898   6.054   6.909   6.263
 1667SOL     OW 5899   0.455   6.338   1.492
 1667SOL    HW1 5900   0.535   6.381   1.533
 1667SOL    HW2 5901   0.400   6.407   1.445
 1668SOL     OW 5902   4.806   4.334   4.076
 1668SOL    HW1 5903   4.760   4.298   3.995
 1668SOL    HW2 5904   4.806   4.265   4.148
 1669SOL     OW 5905   6.810   3.841   5.170
 1669SOL    HW1 5906   6.825   3.905   5.095
 1669SOL    HW2 5907   6.898   3.806   5.202
 1670SOL     OW 5908   2.048   4.379   5.846
 1670SOL    HW1 5909   2.090   4.358   5.758
 1670SOL    HW2 5910   1.953   4.405   5.832
 1671SOL     OW 5911   5.617   1.764   1.397
 1671SOL    HW1 5912   5.528   1.810   1.397
 1671SOL    HW2 5913   5.605   1.668   1.374
 1672SOL     OW 5914   0.752   2.805   6.921
 1672SOL    HW1 5915   0.825   2.754   6.966
 1672SOL    HW2 5916   0.792   2.870   6.856
 1673SOL     OW 5917   2.418   1.655   4.175
 1673SOL    HW1 5918   2.517   1.645   4.162
 1673SOL    HW2 5919   2.373   1.567   4.160
 1674SOL     OW 5920   4.718   2.348   2.582
 1674SOL    HW1 5921   4.677   2.421   2.638
 1674SOL    HW2 5922   4.672   2.261   2.602
 1675SOL     OW 5923   5.372   0.882   0.990
 1675SOL    HW1 5924   5.327   0.813   1.047
 1675SOL    HW2 5925   5.397   0.841   0.902
 1676SOL     OW 5926   1.778   1.685   3.084
 1676SOL    HW1 5927   1.808   1.743   3.160
 1676SOL    HW2 5928   1.829   1.710   3.002
 1677SOL     OW 5929   3.915   3.837   3.460
 1677SOL    HW1 5930   3.909   3.744   3.425
 1677SOL    HW2 5931   3.880   3.839   3.554
 1678SOL     OW 5932   0.482   6.535   0.817
 1678SOL    HW1 5933   0.497   6.506   0.912
 1678SOL    HW2 5934   0.565   6.579   0.782
 1679SOL     OW 5935   1.909   1.674   5.764
 1679SOL    HW1 5936   1.975   1.748   5.779
 1679SOL    HW2 5937   1.838   1.705   5.700
 1680SOL     OW 5938   4.559   2.559   4.004
 1680SOL    HW1 5939   4.554   2.640   4.062
 1680SOL    HW2 5940   4.635   2.501   4.035
 1681SOL     OW 5941   1.806   6.526   3.547
 1681SOL    HW1 5942   1.849   6.614   3.568
 1681SOL    HW2 5943   1.798   6.471   3.630
 1682SOL     OW 5944   2.455   0.050   5.311
 1682SOL    HW1 5945   2.549   0.083   5.305
 1682SOL    HW2 5946   2.392   0.127   5.300
 1683SOL     OW 5947   6.076   4.547   2.449
 1683SOL    HW1 5948   6.044   4.633   2.409
 1683SOL    HW2 5949   6.176   4.547   2.450
 1684SOL     OW 5950   2.323   4.844   1.452
 1684SOL    HW1 5951   2.397   4.884   1.505
 1684SOL    HW2 5952   2.278   4.773   1.507
 1685SOL     OW 5953   0.570   1.310   5.649
 1685SOL    HW1 5954   0.567   1.218   5.610
 1685SOL    HW2 5955   0.665   1.334   5.672
 1686SOL     OW 5956   4.856   5.774   3.109
 1686SOL    HW1 5957   4.883   5.678   3.099
 1686SOL    HW2 5958   4.800   5.801   3.031
 1687SOL     OW 5959   6.586   3.911   2.724
 1687SOL    HW1 5960   6.598   3.839   2.792
 1687SOL    HW2 5961   6.600   3.873   2.633
 1688SOL     OW 5962   2.111   2.082   3.658
 1688SOL    HW1 5963   2.078   2.038   3.574
 1688SOL    HW2 5964   2.084   2.027   3.737
 1689SOL     OW 5965   5.791   0.908   1.592
 1689SOL    HW1 5966   5.713   0.966   1.566
 1689SOL    HW2 5967   5.782   0.881   1.688
 1690SOL     OW 5968   1.058   4.093   4.293
 1690SOL    HW1 5969   1.032   4.186   4.319
 1690SOL    HW2 5970   0.976   4.036   4.283
 1691SOL     OW 5971   5.160   2.484   4.869
 1691SOL    HW1 5972   5.166   2.483   4.969
 1691SOL    HW2 5973   5.119   2.571   4.840
 1692SOL     OW 5974   6.052   5.470   1.265
 1692SOL    HW1 5975   6.119   5.518   1.209
 1692SOL    HW2 5976   6.055   5.372   1.244
 1693SOL     OW 5977   6.106   0.387   5.428
 1693SOL    HW1 5978   6.184   0.340   5.388
 1693SOL    HW2 5979   6.028   0.325   5.434
 1694SOL     OW 5980   5.383   0.765   5.449
 1694SOL    HW1 5981   5.349   0.698   5.384
 1694SOL    HW2 5982   5.399   0.721   5.537
 1695SOL     OW 5983   3.933   0.658   6.222
 1695SOL    HW1 5984   3.875   0.594   6.273
 1695SOL    HW2 5985   3.977   0.609   6.147
 1696SOL     OW 5986   4.569   5.973   0.223
 1696SOL    HW1 5987   4.548   5.972   0.125
 1696SOL    HW2 5988   4.628   6.051   0.244
 1697SOL     OW 5989   6.000   2.021   1.183
 1697SOL    HW1 5990   6.069   1.976   1.126
 1697SOL    HW2 5991   5.920   1.961   1.191
 1698SOL     OW 5992   3.250   0.650   1.717
 1698SOL    HW1 5993   3.232   0.552   1.729
 1698SOL    HW2 5994   3.201   0.684   1.637
 1699SOL     OW 5995   2.438   0.251   0.291
 1699SOL    HW1 5996   2.390   0.305   0.222
 1699SOL    HW2 5997   2.523   0.298   0.317
 1700SOL     OW 5998   5.769   3.637   3.121
 1700SOL    HW1 5999   5.861   3.652   3.085
 1700SOL    HW2 6000   5.753   3.539   3.132
 1701SOL     OW 6001   0.047   5.075   4.949
 1701SOL    HW1 6002   0.138   5.102   4.982
 1701SOL    HW2 6003   6.998   5.100   5.018
 1702SOL     OW 6004   1.857   2.555   5.858
 1702SOL    HW1 6005   1.774   2.607   5.837
 1702SOL    HW2 6006   1.935   2.600   5.814
 1703SOL     OW 6007   3.034   2.117   0.020
 1703SOL    HW1 6008   2.951   2.105   0.074
 1703SOL    HW2 6009   3.011   2.110   6.942
 1704SOL     OW 6010   2.155   1.858   0.918
 1704SOL    HW1 6011   2.207   1.938   0.889
 1704SOL    HW2 6012   2.200   1.775   0.884
 1705SOL     OW 6013   4.302   1.121   0.973
 1705SOL    HW1 6014   4.352   1.196   0.928
 1705SOL    HW2 6015   4.316   1.127   1.072
 1706SOL     OW 6016   3.888   2.298   0.766
 1706SOL    HW1 6017   3.811   2.299   0.830
 1706SOL    HW2 6018   3.935   2.210   0.772
 1707SOL     OW 6019   4.333   1.728   2.237
 1707SOL    HW1 6020   4.369   1.657   2.178
 1707SOL    HW2 6021   4.234   1.719   2.245
 1708SOL     OW 6022   3.085   5.050   1.336
 1708SOL    HW1 6023   3.031   5.095   1.265
 1708SOL    HW2 6024   3.143   5.118   1.382
 1709SOL     OW 6025   4.841   5.593   0.499
 1709SOL    HW1 6026   4.897   5.663   0.544
 1709SOL    HW2 6027   4.779   5.636   0.434
 1710SOL     OW 6028   4.144   5.605   3.138
 1710SOL    HW1 6029   4.166   5.700   3.163
 1710SOL    HW2 6030   4.080   5.567   3.205
 1711SOL     OW 6031   3.807   5.457   6.055
 1711SOL    HW1 6032   3.768   5.530   5.999
 1711SOL    HW2 6033   3.767   5.369   6.029
 1712SOL     OW 6034   0.152   1.992   4.109
 1712SOL    HW1 6035   0.088   1.916   4.097
 1712SOL    HW2 6036   0.233   1.976   4.052
 1713SOL     OW 6037   3.992   0.834   2.542
 1713SOL    HW1 6038   4.051   0.831   2.461
 1713SOL    HW2 6039   3.897   0.824   2.514
 1714SOL     OW 6040   3.534   2.859   6.734
 1714SOL    HW1 6041   3.619   2.896   6.772
 1714SOL    HW2 6042   3.472   2.835   6.809
 1715SOL     OW 6043   1.702   6.492   2.784
 1715SOL    HW1 6044   1.742   6.406   2.817
 1715SOL    HW2 6045   1.605   6.477   2.762
 1716SOL     OW 6046   4.440   0.205   3.921
 1716SOL    HW1 6047   4.453   0.295   3.963
 1716SOL    HW2 6048   4.517   0.184   3.861
 1717SOL     OW 6049   3.896   6.016   5.847
 1717SOL    HW1 6050   3.857   6.084   5.908
 1717SOL    HW2 6051   3.952   5.952   5.899
 1718SOL     OW 6052   1.654   2.832   1.774
 1718SOL    HW1 6053   1.750   2.846   1.799
 1718SOL    HW2 6054   1.603   2.799   1.853
 1719SOL     OW 6055   1.080   5.284   1.417
 1719SOL    HW1 6056   1.050   5.360   1.359
 1719SOL    HW2 6057   1.001   5.228   1.442
 1720SOL     OW 6058   6.427   3.117   5.746
 1720SOL    HW1 6059   6.378   3.187   5.800
 1720SOL    HW2 6060   6.362   3.048   5.714
 1721SOL     OW 6061   1.676   1.784   1.771
 1721SOL    HW1 6062   1.648   1.814   1.679
 1721SOL    HW2 6063   1.772   1.807   1.786
 1722SOL     OW 6064   2.968   2.269   3.292
 1722SOL    HW1 6065   2.952   2.302   3.200
 1722SOL    HW2 6066   3.066   2.261   3.309
 1723SOL     OW 6067   5.503   2.872   0.326
 1723SOL    HW1 6068   5.509   2.932   0.246
 1723SOL    HW2 6069   5.453   2.789   0.301
 1724SOL     OW 6070   6.859   2.360   1.214
 1724SOL    HW1 6071   6.805   2.280   1.187
 1724SOL    HW2 6072   6.797   2.434   1.239
 1725SOL     OW 6073   1.951   6.070   6.965
 1725SOL    HW1 6074   1.968   6.155   6.915
 1725SOL    HW2 6075   1.989   6.077   0.037
 1726SOL     OW 6076   5.841   4.059   3.976
 1726SOL    HW1 6077   5.747   4.074   4.004
 1726SOL    HW2 6078   5.863   3.962   3.983
 1727SOL     OW 6079   3.421   3.296   3.108
 1727SOL    HW1 6080   3.324   3.272   3.100
 1727SOL    HW2 6081   3.431   3.395   3.109
 1728SOL     OW 6082   4.761   2.278   4.434
 1728SOL    HW1 6083   4.831   2.207   4.443
 1728SOL    HW2 6084   4.672   2.240   4.459
 1729SOL     OW 6085   1.729   4.113   2.148
 1729SOL    HW1 6086   1.631   4.132   2.140
 1729SOL    HW2 6087   1.768   4.170   2.220
 1730SOL     OW 6088   2.822   5.060   5.587
 1730SOL    HW1 6089   2.796   5.088   5.495
 1730SOL    HW2 6090   2.806   4.962   5.599
 1731SOL     OW 6091   6.068   4.084   4.328
 1731SOL    HW1 6092   6.101   4.120   4.241
 1731SOL    HW2 6093   5.972   4.057   4.319
 1732SOL     OW 6094   2.143   4.491   6.322
 1732SOL    HW1 6095   2.222   4.430   6.329
 1732SOL    HW2 6096   2.135   4.545   6.405
 1733SOL     OW 6097   3.227   4.184   0.084
 1733SOL    HW1 6098   3.211   4.266   0.140
 1733SOL    HW2 6099   3.140   4.142   0.061
 1734SOL     OW 6100   6.822   3.137   1.074
 1734SOL    HW1 6101   6.914   3.143   1.112
 1734SOL    HW2 6102   6.827   3.120   0.976
 1735SOL     OW 6103   3.902   4.876   6.189
 1735SOL    HW1 6104   3.963   4.939   6.142
 1735SOL    HW2 6105   3.944   4.786   6.194
 1736SOL     OW 6106   4.533   3.163   0.839
 1736SOL    HW1 6107   4.632   3.156   0.846
 1736SOL    HW2 6108   4.493   3.073   0.824
 1737SOL     OW 6109   4.831   1.364   4.859
 1737SOL    HW1 6110   4.751   1.377   4.917
 1737SOL    HW2 6111   4.839   1.441   4.796
 1738SOL     OW 6112   1.291   3.589   4.532
 1738SOL    HW1 6113   1.387   3.596   4.508
 1738SOL    HW2 6114   1.270   3.496   4.561
 1739SOL     OW 6115   5.297   0.369   4.114
 1739SOL    HW1 6116   5.346   0.360   4.027
 1739SOL    HW2 6117   5.362   0.360   4.190
 1740SOL     OW 6118   6.629   2.830   4.289
 1740SOL    HW1 6119   6.654   2.743   4.246
 1740SOL    HW2 6120   6.579   2.812   4.374
 1741SOL     OW 6121   1.351   1.977   4.578
 1741SOL    HW1 6122   1.293   1.899   4.601
 1741SOL    HW2 6123   1.345   1.996   4.480
 1742SOL     OW 6124   6.180   5.929   6.314
 1742SOL    HW1 6125   6.093   5.950   6.269
 1742SOL    HW2 6126   6.227   6.014   6.336
 1743SOL     OW 6127   1.353   0.895   2.910
 1743SOL    HW1 6128   1.407   0.961   2.963
 1743SOL    HW2 6129   1.282   0.943   2.858
 1744SOL     OW 6130   4.113   1.923   3.967
 1744SOL    HW1 6131   4.033   1.965   3.924
 1744SOL    HW2 6132   4.119   1.954   4.062
 1745SOL     OW 6133   6.735   6.382   1.303
 1745SOL    HW1 6134   6.675   6.422   1.373
 1745SOL    HW2 6135   6.760   6.452   1.236
 1746SOL     OW 6136   2.135   4.139   3.695
 1746SOL    HW1 6137   2.153   4.238   3.692
 1746SOL    HW2 6138   2.068   4.116   3.625
 1747SOL     OW 6139   3.712   0.795   2.416
 1747SOL    HW1 6140   3.660   0.856   2.356
 1747SOL    HW2 6141   3.657   0.713   2.435
 1748SOL     OW 6142   6.754   2.216   4.829
 1748SOL    HW1 6143   6.656   2.197   4.826
 1748SOL    HW2 6144   6.804   2.131   4.847
 1749SOL     OW 6145   1.966   5.230   1.084
 1749SOL    HW1 6146   2.041   5.168   1.059
 1749SOL    HW2 6147   1.904   5.183   1.146
 1750SOL     OW 6148   4.566   0.004   5.283
 1750SOL    HW1 6149   4.496   0.043   5.342
 1750SOL    HW2 6150   4.644   0.066   5.279
 1751SOL     OW 6151   5.869   2.501   4.912
 1751SOL    HW1 6152   5.959   2.458   4.921
 1751SOL    HW2 6153   5.827   2.507   5.002
 1752SOL     OW 6154   6.568   0.995   1.182
 1752SOL    HW1 6155   6.490   0.975   1.241
 1752SOL    HW2 6156   6.631   1.057   1.229
 1753SOL     OW 6157   6.388   1.560   1.810
 1753SOL    HW1 6158   6.429   1.495   1.873
 1753SOL    HW2 6159   6.419   1.540   1.717
 1754SOL     OW 6160   3.254   5.278   5.694
 1754SOL    HW1 6161   3.348   5.312   5.707
 1754SOL    HW2 6162   3.224   5.298   5.601
 1755SOL     OW 6163   6.562   6.821   5.047
 1755SOL    HW1 6164   6.523   6.887   4.982
 1755SOL    HW2 6165   6.513   6.734   5.039
 1756SOL     OW 6166   5.271   0.300   5.987
 1756SOL    HW1 6167   5.273   0.388   6.034
 1756SOL    HW2 6168   5.222   0.234   6.043
 1757SOL     OW 6169   2.220   5.259   5.117
 1757SOL    HW1 6170   2.296   5.291   5.175
 1757SOL    HW2 6171   2.139   5.245   5.174
 1758SOL     OW 6172   2.528   6.575   4.721
 1758SOL    HW1 6173   2.458   6.593   4.790
 1758SOL    HW2 6174   2.579   6.493   4.744
 1759SOL     OW 6175   1.334   6.517   6.590
 1759SOL    HW1 6176   1.307   6.498   6.685
 1759SOL    HW2 6177   1.431   6.537   6.587
 1760SOL     OW 6178   6.051   1.135   5.178
 1760SOL    HW1 6179   6.098   1.054   5.145
 1760SOL    HW2 6180   5.994   1.111   5.256
 1761SOL     OW 6181   6.039   1.881   2.276
 1761SOL    HW1 6182   6.067   1.789   2.305
 1761SOL    HW2 6183   5.946   1.876   2.239
 1762SOL     OW 6184   6.951   1.589   5.219
 1762SOL    HW1 6185   6.860   1.554   5.196
 1762SOL    HW2 6186   6.982   1.546   5.304
 1763SOL     OW 6187   0.834   3.951   4.235
 1763SOL    HW1 6188   0.750   3.988   4.275
 1763SOL    HW2 6189   0.840   3.853   4.255
 1764SOL     OW 6190   0.991   5.359   2.523
 1764SOL    HW1 6191   1.006   5.410   2.607
 1764SOL    HW2 6192   0.944   5.273   2.544
 1765SOL     OW 6193   5.286   3.271   2.565
 1765SOL    HW1 6194   5.332   3.286   2.477
 1765SOL    HW2 6195   5.206   3.330   2.571
 1766SOL     OW 6196   4.494   5.208   4.739
 1766SOL    HW1 6197   4.456   5.124   4.778
 1766SOL    HW2 6198   4.563   5.185   4.671
 1767SOL     OW 6199   0.629   4.907   2.239
 1767SOL    HW1 6200   0.647   4.998   2.203
 1767SOL    HW2 6201   0.549   4.868   2.194
 1768SOL     OW 6202   5.220   6.486   2.236
 1768SOL    HW1 6203   5.219   6.494   2.136
 1768SOL    HW2 6204   5.215   6.577   2.277
 1769SOL     OW 6205   4.949   0.595   6.926
 1769SOL    HW1 6206   5.002   0.579   7.009
 1769SOL    HW2 6207   5.003   0.566   6.847
 1770SOL     OW 6208   2.276   5.121   6.321
 1770SOL    HW1 6209   2.260   5.083   6.412
 1770SOL    HW2 6210   2.362   5.084   6.284
 1771SOL     OW 6211   1.069   3.665   6.310
 1771SOL    HW1 6212   1.118   3.616   6.382
 1771SOL    HW2 6213   1.135   3.703   6.245
 1772SOL     OW 6214   2.454   4.582   3.500
 1772SOL    HW1 6215   2.449   4.492   3.457
 1772SOL    HW2 6216   2.390   4.644   3.456
 1773SOL     OW 6217   0.533   6.664   4.924
 1773SOL    HW1 6218   0.475   6.609   4.985
 1773SOL    HW2 6219   0.613   6.611   4.898
 1774SOL     OW 6220   5.692   4.944   1.204
 1774SOL    HW1 6221   5.618   4.992   1.157
 1774SOL    HW2 6222   5.655   4.860   1.245
 1775SOL     OW 6223   2.219   5.789   6.445
 1775SOL    HW1 6224   2.253   5.695   6.451
 1775SOL    HW2 6225   2.219   5.818   6.349
 1776SOL     OW 6226   5.005   1.285   6.427
 1776SOL    HW1 6227   5.040   1.317   6.515
 1776SOL    HW2 6228   5.008   1.360   6.360
 1777SOL     OW 6229   4.774   6.926   6.465
 1777SOL    HW1 6230   4.684   6.882   6.474
 1777SOL    HW2 6231   4.776   7.008   6.522
 1778SOL     OW 6232   5.920   6.898   4.219
 1778SOL    HW1 6233   5.986   6.959   4.263
 1778SOL    HW2 6234   5.947   6.881   4.125
 1779SOL     OW 6235   5.838   6.047   4.013
 1779SOL    HW1 6236   5.774   6.030   3.937
 1779SOL    HW2 6237   5.817   6.136   4.054
 1780SOL     OW 6238   2.281   5.459   4.669
 1780SOL    HW1 6239   2.215   5.492   4.736
 1780SOL    HW2 6240   2.312   5.367   4.696
 1781SOL     OW 6241   4.077   0.535   3.971
 1781SOL    HW1 6242   4.061   0.479   3.890
 1781SOL    HW2 6243   4.149   0.602   3.951
 1782SOL     OW 6244   1.436   1.513   2.559
 1782SOL    HW1 6245   1.425   1.545   2.653
 1782SOL    HW2 6246   1.489   1.581   2.507
 1783SOL     OW 6247   2.149   4.166   6.537
 1783SOL    HW1 6248   2.108   4.174   6.446
 1783SOL    HW2 6249   2.123   4.244   6.593
 1784SOL     OW 6250   2.544   0.029   1.026
 1784SOL    HW1 6251   2.564   0.111   1.079
 1784SOL    HW2 6252   2.600   6.973   1.059
 1785SOL     OW 6253   0.872   6.284   4.214
 1785SOL    HW1 6254   0.773   6.277   4.203
 1785SOL    HW2 6255   0.917   6.242   4.135
 1786SOL     OW 6256   1.109   5.950   0.449
 1786SOL    HW1 6257   1.195   5.986   0.412
 1786SOL    HW2 6258   1.090   5.992   0.537
 1787SOL     OW 6259   2.647   3.935   6.153
 1787SOL    HW1 6260   2.726   3.949   6.213
 1787SOL    HW2 6261   2.676   3.891   6.069
 1788SOL     OW 6262   4.594   3.804   0.728
 1788SOL    HW1 6263   4.638   3.715   0.732
 1788SOL    HW2 6264   4.534   3.816   0.807
 1789SOL     OW 6265   6.352   3.721   1.999
 1789SOL    HW1 6266   6.447   3.688   1.995
 1789SOL    HW2 6267   6.326   3.734   2.095
 1790SOL     OW 6268   2.719   2.362   4.779
 1790SOL    HW1 6269   2.669   2.394   4.860
 1790SOL    HW2 6270   2.816   2.354   4.801
 1791SOL     OW 6271   4.992   6.284   3.211
 1791SOL    HW1 6272   5.089   6.260   3.211
 1791SOL    HW2 6273   4.976   6.360   3.274
 1792SOL     OW 6274   6.945   1.525   5.491
 1792SOL    HW1 6275   6.924   1.597   5.556
 1792SOL    HW2 6276   7.003   1.456   5.535
 1793SOL     OW 6277   0.027   1.481   6.049
 1793SOL    HW1 6278   0.086   1.418   5.999
 1793SOL    HW2 6279   6.972   1.430   6.092
 1794SOL     OW 6280   0.717   6.958   6.207
 1794SOL    HW1 6281   0.641   7.017   6.235
 1794SOL    HW2 6282   0.683   6.866   6.188
 1795SOL     OW 6283   6.059   4.154   0.874
 1795SOL    HW1 6284   5.974   4.207   0.870
 1795SOL    HW2 6285   6.066   4.111   0.965
 1796SOL     OW 6286   0.973   0.120   6.280
 1796SOL    HW1 6287   0.965   0.051   6.352
 1796SOL    HW2 6288   1.050   0.098   6.221
 1797SOL     OW 6289   2.533   5.429   4.951
 1797SOL    HW1 6290   2.619   5.388   4.920
 1797SOL    HW2 6291   2.469   5.433   4.875
 1798SOL     OW 6292   2.885   3.485   4.363
 1798SOL    HW1 6293   2.835   3.479   4.276
 1798SOL    HW2 6294   2.983   3.478   4.345
 1799SOL     OW 6295   3.322   1.243   0.119
 1799SOL    HW1 6296   3.392   1.173   0.104
 1799SOL    HW2 6297   3.340   1.290   0.205
 1800SOL     OW 6298   5.469   3.465   4.775
 1800SOL    HW1 6299   5.446   3.472   4.678
 1800SOL    HW2 6300   5.568   3.455   4.785
 1801SOL     OW 6301   1.463   1.469   1.814
 1801SOL    HW1 6302   1.446   1.505   1.723
 1801SOL    HW2 6303   1.562   1.462   1.829
 1802SOL     OW 6304   6.810   4.800   3.432
 1802SOL    HW1 6305   6.769   4.725   3.379
 1802SOL    HW2 6306   6.761   4.885   3.413
 1803SOL     OW 6307   0.871   6.973   3.530
 1803SOL    HW1 6308   0.904   6.917   3.454
 1803SOL    HW2 6309   0.945   0.010   3.565
 1804SOL     OW 6310   2.096   3.328   5.725
 1804SOL    HW1 6311   2.159   3.405   5.730
 1804SOL    HW2 6312   2.107   3.271   5.806
 1805SOL     OW 6313   0.254   5.854   6.584
 1805SOL    HW1 6314   0.313   5.935   6.587
 1805SOL    HW2 6315   0.238   5.822   6.678
 1806SOL     OW 6316   7.010   1.674   2.071
 1806SOL    HW1 6317   6.984   1.746   2.007
 1806SOL    HW2 6318   0.075   1.700   2.118
 1807SOL     OW 6319   6.761   3.324   2.244
 1807SOL    HW1 6320   6.680   3.362   2.290
 1807SOL    HW2 6321   6.746   3.325   2.145
 1808SOL     OW 6322   4.988   2.113   5.990
 1808SOL    HW1 6323   5.010   2.194   6.043
 1808SOL    HW2 6324   5.048   2.038   6.018
 1809SOL     OW 6325   3.927   1.337   5.945
 1809SOL    HW1 6326   3.934   1.410   6.013
 1809SOL    HW2 6327   3.834   1.335   5.908
 1810SOL     OW 6328   0.176   0.233   4.260
 1810SOL    HW1 6329   0.119   0.314   4.249
 1810SOL    HW2 6330   0.211   0.204   4.171
 1811SOL     OW 6331   4.190   5.738   1.976
 1811SOL    HW1 6332   4.103   5.787   1.970
 1811SOL    HW2 6333   4.196   5.672   1.901
 1812SOL     OW 6334   4.490   6.589   5.041
 1812SOL    HW1 6335   4.452   6.636   4.961
 1812SOL    HW2 6336   4.497   6.654   5.117
 1813SOL     OW 6337   4.399   4.546   2.920
 1813SOL    HW1 6338   4.361   4.593   2.840
 1813SOL    HW2 6339   4.426   4.453   2.894
 1814SOL     OW 6340   6.934   6.022   0.351
 1814SOL    HW1 6341   0.002   6.046   0.311
 1814SOL    HW2 6342   6.865   6.088   0.321
 1815SOL     OW 6343   5.682   6.498   1.278
 1815SOL    HW1 6344   5.768   6.536   1.312
 1815SOL    HW2 6345   5.679   6.400   1.299
 1816SOL     OW 6346   4.295   5.271   5.848
 1816SOL    HW1 6347   4.338   5.273   5.938
 1816SOL    HW2 6348   4.255   5.360   5.828
 1817SOL     OW 6349   0.908   1.531   3.711
 1817SOL    HW1 6350   0.820   1.484   3.714
 1817SOL    HW2 6351   0.976   1.474   3.665
 1818SOL     OW 6352   2.076   6.971   1.075
 1818SOL    HW1 6353   2.094   7.009   0.984
 1818SOL    HW2 6354   2.133   6.889   1.089
 1819SOL     OW 6355   2.244   5.024   3.819
 1819SOL    HW1 6356   2.185   4.945   3.838
 1819SOL    HW2 6357   2.230   5.054   3.724
 1820SOL     OW 6358   3.705   0.433   4.524
 1820SOL    HW1 6359   3.677   0.375   4.601
 1820SOL    HW2 6360   3.804   0.449   4.528
 1821SOL     OW 6361   3.517   2.138   2.780
 1821SOL    HW1 6362   3.458   2.153   2.700
 1821SOL    HW2 6363   3.460   2.118   2.859
 1822SOL     OW 6364   6.979   2.958   2.554
 1822SOL    HW1 6365   6.956   3.007   2.470
 1822SOL    HW2 6366   0.041   2.999   2.595
 1823SOL     OW 6367   3.988   6.638   2.253
 1823SOL    HW1 6368   4.040   6.724   2.249
 1823SOL    HW2 6369   3.898   6.655   2.293
 1824SOL     OW 6370   3.820   2.887   1.426
 1824SOL    HW1 6371   3.728   2.901   1.391
 1824SOL    HW2 6372   3.882   2.864   1.351
 1825SOL     OW 6373   2.136   1.539   5.362
 1825SOL    HW1 6374   2.043   1.563   5.334
 1825SOL    HW2 6375   2.172   1.610   5.423
 1826SOL     OW 6376   3.572   2.163   1.665
 1826SOL    HW1 6377   3.598   2.236   1.729
 1826SOL    HW2 6378   3.629   2.169   1.583
 1827SOL     OW 6379   5.724   4.179   1.338
 1827SOL    HW1 6380   5.683   4.114   1.401
 1827SOL    HW2 6381   5.658   4.203   1.267
 1828SOL     OW 6382   1.719   3.253   5.175
 1828SOL    HW1 6383   1.766   3.339   5.159
 1828SOL    HW2 6384   1.786   3.181   5.193
 1829SOL     OW 6385   3.276   0.544   3.690
 1829SOL    HW1 6386   3.305   0.464   3.743
 1829SOL    HW2 6387   3.328   0.547   3.604
 1830SOL     OW 6388   4.732   6.996   4.844
 1830SOL    HW1 6389   4.672   6.999   4.764
 1830SOL    HW2 6390   4.746   0.069   4.879
 1831SOL     OW 6391   4.316   5.609   1.322
 1831SOL    HW1 6392   4.399   5.596   1.377
 1831SOL    HW2 6393   4.259   5.527   1.329
 1832SOL     OW 6394   2.508   3.430   0.189
 1832SOL    HW1 6395   2.427   3.390   0.148
 1832SOL    HW2 6396   2.494   3.528   0.201
 1833SOL     OW 6397   5.025   0.290   0.474
 1833SOL    HW1 6398   5.080   0.373   0.460
 1833SOL    HW2 6399   4.933   0.306   0.439
 1834SOL     OW 6400   2.132   2.224   6.074
 1834SOL    HW1 6401   2.032   2.219   6.066
 1834SOL    HW2 6402   2.157   2.304   6.129
 1835SOL     OW 6403   6.451   5.951   0.954
 1835SOL    HW1 6404   6.536   5.958   1.007
 1835SOL    HW2 6405   6.472   5.914   0.864
 1836SOL     OW 6406   5.068   2.293   1.742
 1836SOL    HW1 6407   5.008   2.225   1.700
 1836SOL    HW2 6408   5.029   2.322   1.829
 1837SOL     OW 6409   3.500   2.702   6.364
 1837SOL    HW1 6410   3.452   2.790   6.373
 1837SOL    HW2 6411   3.595   2.719   6.338
 1838SOL     OW 6412   6.436   1.009   0.183
 1838SOL    HW1 6413   6.438   0.914   0.154
 1838SOL    HW2 6414   6.489   1.065   0.119
 1839SOL     OW 6415   0.575   1.198   6.722
 1839SOL    HW1 6416   0.606   1.283   6.678
 1839SOL    HW2 6417   0.580   1.123   6.657
 1840SOL     OW 6418   4.707   6.244   3.247
 1840SOL    HW1 6419   4.806   6.238   3.237
 1840SOL    HW2 6420   4.669   6.152   3.258
 1841SOL     OW 6421   2.446   1.357   2.435
 1841SOL    HW1 6422   2.374   1.346   2.504
 1841SOL    HW2 6423   2.426   1.298   2.357
 1842SOL     OW 6424   1.535   5.521   0.144
 1842SOL    HW1 6425   1.479   5.501   0.224
 1842SOL    HW2 6426   1.632   5.514   0.167
 1843SOL     OW 6427   3.366   1.361   4.653
 1843SOL    HW1 6428   3.420   1.424   4.597
 1843SOL    HW2 6429   3.327   1.290   4.595
 1844SOL     OW 6430   5.583   2.427   6.849
 1844SOL    HW1 6431   5.613   2.371   6.926
 1844SOL    HW2 6432   5.581   2.523   6.875
 1845SOL     OW 6433   1.470   1.648   3.372
 1845SOL    HW1 6434   1.461   1.624   3.275
 1845SOL    HW2 6435   1.424   1.579   3.428
 1846SOL     OW 6436   4.258   1.587   1.908
 1846SOL    HW1 6437   4.307   1.627   1.831
 1846SOL    HW2 6438   4.316   1.589   1.990
 1847SOL     OW 6439   2.203   6.557   5.515
 1847SOL    HW1 6440   2.301   6.576   5.510
 1847SOL    HW2 6441   2.158   6.625   5.572
 1848SOL     OW 6442   2.877   5.860   3.976
 1848SOL    HW1 6443   2.818   5.795   3.928
 1848SOL    HW2 6444   2.940   5.809   4.035
 1849SOL     OW 6445   4.502   2.849   1.683
 1849SOL    HW1 6446   4.552   2.772   1.724
 1849SOL    HW2 6447   4.506   2.928   1.744
 1850SOL     OW 6448   5.281   1.535   1.048
 1850SOL    HW1 6449   5.249   1.565   1.138
 1850SOL    HW2 6450   5.204   1.535   0.984
 1851SOL     OW 6451   0.004   4.045   5.277
 1851SOL    HW1 6452   0.002   3.945   5.281
 1851SOL    HW2 6453   6.938   4.079   5.239
 1852SOL     OW 6454   0.848   6.332   2.581
 1852SOL    HW1 6455   0.788   6.410   2.600
 1852SOL    HW2 6456   0.913   6.320   2.656
 1853SOL     OW 6457   0.374   2.680   4.320
 1853SOL    HW1 6458   0.348   2.686   4.223
 1853SOL    HW2 6459   0.465   2.639   4.328
 1854SOL     OW 6460   0.277   0.137   3.527
 1854SOL    HW1 6461   0.349   0.122   3.459
 1854SOL    HW2 6462   0.199   0.182   3.483
 1855SOL     OW 6463   4.552   2.604   4.347
 1855SOL    HW1 6464   4.480   2.568   4.289
 1855SOL    HW2 6465   4.640   2.594   4.301
 1856SOL     OW 6466   3.680   2.508   0.037
 1856SOL    HW1 6467   3.775   2.497   0.067
 1856SOL    HW2 6468   3.640   2.588   0.081
 1857SOL     OW 6469   4.313   1.654   1.049
 1857SOL    HW1 6470   4.259   1.580   1.009
 1857SOL    HW2 6471   4.251   1.724   1.085
 1858SOL     OW 6472   4.409   2.369   4.172
 1858SOL    HW1 6473   4.491   2.354   4.227
 1858SOL    HW2 6474   4.430   2.437   4.101
 1859SOL     OW 6475   6.228   2.297   4.102
 1859SOL    HW1 6476   6.144   2.303   4.156
 1859SOL    HW2 6477   6.220   2.222   4.036
 1860SOL     OW 6478   1.284   1.450   4.715
 1860SOL    HW1 6479   1.285   1.476   4.812
 1860SOL    HW2 6480   1.202   1.487   4.672
 1861SOL     OW 6481   6.847   0.127   3.190
 1861SOL    HW1 6482   6.780   0.097   3.258
 1861SOL    HW2 6483   6.816   0.212   3.148
 1862SOL     OW 6484   2.561   5.468   6.572
 1862SOL    HW1 6485   2.511   5.382   6.571
 1862SOL    HW2 6486   2.584   5.494   6.478
 1863SOL     OW 6487   0.771   3.008   0.731
 1863SOL    HW1 6488   0.737   2.914   0.735
 1863SOL    HW2 6489   0.734   3.060   0.808
 1864SOL     OW 6490   3.913   5.485   2.840
 1864SOL    HW1 6491   3.871   5.439   2.763
 1864SOL    HW2 6492   4.012   5.484   2.830
 1865SOL     OW 6493   5.371   1.956   6.454
 1865SOL    HW1 6494   5.273   1.974   6.460
 1865SOL    HW2 6495   5.387   1.858   6.454
 1866SOL     OW 6496   0.662   5.190   3.648
 1866SOL    HW1 6497   0.664   5.125   3.573
 1866SOL    HW2 6498   0.661   5.283   3.611
 1867SOL     OW 6499   1.926   2.343   1.533
 1867SOL    HW1 6500   2.024   2.334   1.552
 1867SOL    HW2 6501   1.881   2.385   1.612
 1868SOL     OW 6502   6.082   3.935   5.536
 1868SOL    HW1 6503   6.020   4.014   5.534
 1868SOL    HW2 6504   6.171   3.961   5.500
 1869SOL     OW 6505   4.584   1.477   4.146
 1869SOL    HW1 6506   4.625   1.394   4.108
 1869SOL    HW2 6507   4.598   1.553   4.084
 1870SOL     OW 6508   0.124   5.709   4.183
 1870SOL    HW1 6509   0.159   5.704   4.276
 1870SOL    HW2 6510   0.028   5.682   4.182
 1871SOL     OW 6511   0.326   6.378   0.622
 1871SOL    HW1 6512   0.351   6.448   0.690
 1871SOL    HW2 6513   0.401   6.313   0.613
 1872SOL     OW 6514   2.495   2.512   1.555
 1872SOL    HW1 6515   2.566   2.556   1.500
 1872SOL    HW2 6516   2.436   2.583   1.595
 1873SOL     OW 6517   0.233   1.551   0.761
 1873SOL    HW1 6518   0.268   1.457   0.755
 1873SOL    HW2 6519   0.308   1.616   0.753
 1874SOL     OW 6520   0.399   6.287   0.302
 1874SOL    HW1 6521   0.310   6.286   0.348
 1874SOL    HW2 6522   0.419   6.196   0.266
 1875SOL     OW 6523   6.666   4.801   0.430
 1875SOL    HW1 6524   6.661   4.772   0.526
 1875SOL    HW2 6525   6.619   4.888   0.419
 1876SOL     OW 6526   6.849   5.991   6.990
 1876SOL    HW1 6527   6.850   6.055   6.913
 1876SOL    HW2 6528   6.756   5.958   7.004
 1877SOL     OW 6529   0.732   1.075   2.723
 1877SOL    HW1 6530   0.665   1.133   2.676
 1877SOL    HW2 6531   0.816   1.071   2.669
 1878SOL     OW 6532   6.565   3.991   3.461
 1878SOL    HW1 6533   6.593   3.954   3.550
 1878SOL    HW2 6534   6.619   4.073   3.441
 1879SOL     OW 6535   4.246   5.782   4.500
 1879SOL    HW1 6536   4.211   5.876   4.498
 1879SOL    HW2 6537   4.322   5.776   4.565
 1880SOL     OW 6538   0.746   1.897   3.999
 1880SOL    HW1 6539   0.840   1.910   3.968
 1880SOL    HW2 6540   0.691   1.976   3.973
 1881SOL     OW 6541   0.944   1.458   4.449
 1881SOL    HW1 6542   0.902   1.547   4.430
 1881SOL    HW2 6543   1.019   1.442   4.384
 1882SOL     OW 6544   1.779   5.627   6.376
 1882SOL    HW1 6545   1.721   5.550   6.403
 1882SOL    HW2 6546   1.791   5.689   6.453
 1883SOL     OW 6547   1.500   2.736   2.306
 1883SOL    HW1 6548   1.519   2.834   2.310
 1883SOL    HW2 6549   1.489   2.701   2.399
 1884SOL     OW 6550   2.958   1.128   0.026
 1884SOL    HW1 6551   2.963   1.028   0.020
 1884SOL    HW2 6552   2.870   1.159   7.010
 1885SOL     OW 6553   0.164   1.927   1.281
 1885SOL    HW1 6554   0.214   1.841   1.289
 1885SOL    HW2 6555   0.224   1.996   1.241
 1886SOL     OW 6556   2.869   2.833   6.160
 1886SOL    HW1 6557   2.958   2.843   6.205
 1886SOL    HW2 6558   2.819   2.758   6.203
 1887SOL     OW 6559   0.501   6.681   5.357
 1887SOL    HW1 6560   0.597   6.666   5.330
 1887SOL    HW2 6561   0.495   6.764   5.413
 1888SOL     OW 6562   2.433   2.076   6.194
 1888SOL    HW1 6563   2.343   2.034   6.185
 1888SOL    HW2 6564   2.501   2.019   6.148
 1889SOL     OW 6565   3.661   2.932   0.057
 1889SOL    HW1 6566   3.628   2.853   0.108
 1889SOL    HW2 6567   3.728   2.982   0.113
 1890SOL     OW 6568   6.292   5.268   6.530
 1890SOL    HW1 6569   6.356   5.217   6.586
 1890SOL    HW2 6570   6.338   5.348   6.490
 1891SOL     OW 6571   5.908   4.061   5.112
 1891SOL    HW1 6572   5.931   4.158   5.123
 1891SOL    HW2 6573   5.817   4.053   5.070
 1892SOL     OW 6574   3.919   6.185   1.492
 1892SOL    HW1 6575   3.929   6.152   1.398
 1892SOL    HW2 6576   3.991   6.252   1.512
 1893SOL     OW 6577   3.742   2.128   4.117
 1893SOL    HW1 6578   3.667   2.161   4.174
 1893SOL    HW2 6579   3.817   2.194   4.120
 1894SOL     OW 6580   4.113   4.094   0.886
 1894SOL    HW1 6581   4.085   4.076   0.980
 1894SOL    HW2 6582   4.097   4.013   0.830
 1895SOL     OW 6583   5.102   0.628   3.071
 1895SOL    HW1 6584   5.189   0.604   3.028
 1895SOL    HW2 6585   5.116   0.645   3.168
 1896SOL     OW 6586   6.726   1.153   5.919
 1896SOL    HW1 6587   6.701   1.069   5.968
 1896SOL    HW2 6588   6.788   1.207   5.976
 1897SOL     OW 6589   5.946   4.527   3.233
 1897SOL    HW1 6590   5.886   4.526   3.153
 1897SOL    HW2 6591   5.940   4.616   3.278
 1898SOL     OW 6592   5.933   4.956   6.987
 1898SOL    HW1 6593   5.962   4.908   6.904
 1898SOL    HW2 6594   5.840   4.928   7.010
 1899SOL     OW 6595   1.070   3.434   3.051
 1899SOL    HW1 6596   1.104   3.503   2.986
 1899SOL    HW2 6597   1.010   3.370   3.003
 1900SOL     OW 6598   2.502   5.710   7.012
 1900SOL    HW1 6599   2.441   5.663   0.056
 1900SOL    HW2 6600   2.497   5.665   6.923
 1901SOL     OW 6601   1.549   1.413   6.940
 1901SOL    HW1 6602   1.612   1.416   6.863
 1901SOL    HW2 6603   1.569   1.489   7.002
 1902SOL     OW 6604   1.167   3.109   4.748
 1902SOL    HW1 6605   1.214   3.065   4.671
 1902SOL    HW2 6606   1.223   3.100   4.830
 1903SOL     OW 6607   6.145   3.121   3.874
 1903SOL    HW1 6608   6.089   3.192   3.830
 1903SOL    HW2 6609   6.104   3.095   3.961
 1904SOL     OW 6610   6.656   6.929   3.695
 1904SOL    HW1 6611   6.742   6.979   3.689
 1904SOL    HW2 6612   6.653   6.876   3.780
 1905SOL     OW 6613   6.805   3.034   3.659
 1905SOL    HW1 6614   6.731   3.004   3.719
 1905SOL    HW2 6615   6.767   3.073   3.575
 1906SOL     OW 6616   2.435   6.936   0.592
 1906SOL    HW1 6617   2.434   6.842   0.557
 1906SOL    HW2 6618   2.393   6.997   0.525
 1907SOL     OW 6619   3.916   6.268   3.486
 1907SOL    HW1 6620   4.015   6.286   3.480
 1907SOL    HW2 6621   3.869   6.316   3.412
 1908SOL     OW 6622   5.027   1.693   6.445
 1908SOL    HW1 6623   5.016   1.699   6.545
 1908SOL    HW2 6624   4.959   1.751   6.400
 1909SOL     OW 6625   2.891   4.973   4.630
 1909SOL    HW1 6626   2.846   4.891   4.596
 1909SOL    HW2 6627   2.941   5.017   4.555
 1910SOL     OW 6628   5.159   1.612   5.548
 1910SOL    HW1 6629   5.252   1.602   5.513
 1910SOL    HW2 6630   5.132   1.709   5.543
 1911SOL     OW 6631   6.408   3.560   6.103
 1911SOL    HW1 6632   6.330   3.498   6.113
 1911SOL    HW2 6633   6.398   3.614   6.020
 1912SOL     OW 6634   3.679   0.315   3.455
 1912SOL    HW1 6635   3.628   0.230   3.440
 1912SOL    HW2 6636   3.767   0.310   3.408
 1913SOL     OW 6637   1.465   4.285   5.383
 1913SOL    HW1 6638   1.455   4.242   5.293
 1913SOL    HW2 6639   1.440   4.382   5.376
 1914SOL     OW 6640   4.104   2.051   5.558
 1914SOL    HW1 6641   4.076   1.959   5.585
 1914SOL    HW2 6642   4.203   2.060   5.571
 1915SOL     OW 6643   3.069   0.320   5.692
 1915SOL    HW1 6644   3.123   0.374   5.756
 1915SOL    HW2 6645   3.125   0.245   5.656
 1916SOL     OW 6646   3.542   6.404   1.741
 1916SOL    HW1 6647   3.536   6.402   1.841
 1916SOL    HW2 6648   3.580   6.318   1.708
 1917SOL     OW 6649   3.076   3.186   4.232
 1917SOL    HW1 6650   3.171   3.205   4.207
 1917SOL    HW2 6651   3.015   3.232   4.168
 1918SOL     OW 6652   5.719   6.883   4.470
 1918SOL    HW1 6653   5.742   6.918   4.379
 1918SOL    HW2 6654   5.619   6.883   4.480
 1919SOL     OW 6655   6.566   6.795   1.538
 1919SOL    HW1 6656   6.609   6.717   1.582
 1919SOL    HW2 6657   6.634   6.847   1.487
 1920SOL     OW 6658   6.837   5.867   4.378
 1920SOL    HW1 6659   6.750   5.858   4.329
 1920SOL    HW2 6660   6.819   5.868   4.477
 1921SOL     OW 6661   0.929   6.688   6.758
 1921SOL    HW1 6662   0.860   6.649   6.697
 1921SOL    HW2 6663   1.017   6.691   6.711
 1922SOL     OW 6664   3.702   4.323   0.315
 1922SOL    HW1 6665   3.746   4.412   0.317
 1922SOL    HW2 6666   3.739   4.266   0.389
 1923SOL     OW 6667   1.541   1.672   0.849
 1923SOL    HW1 6668   1.548   1.667   0.749
 1923SOL    HW2 6669   1.608   1.738   0.883
 1924SOL     OW 6670   0.489   4.657   1.585
 1924SOL    HW1 6671   0.398   4.696   1.591
 1924SOL    HW2 6672   0.497   4.602   1.502
 1925SOL     OW 6673   2.972   3.964   1.247
 1925SOL    HW1 6674   2.927   3.889   1.198
 1925SOL    HW2 6675   2.904   4.012   1.302
 1926SOL     OW 6676   1.239   6.883   3.820
 1926SOL    HW1 6677   1.196   6.938   3.749
 1926SOL    HW2 6678   1.282   6.944   3.887
 1927SOL     OW 6679   4.039   3.586   6.561
 1927SOL    HW1 6680   4.029   3.674   6.515
 1927SOL    HW2 6681   4.072   3.518   6.496
 1928SOL     OW 6682   6.338   4.295   5.572
 1928SOL    HW1 6683   6.308   4.281   5.478
 1928SOL    HW2 6684   6.332   4.208   5.622
 1929SOL     OW 6685   1.278   0.145   1.799
 1929SOL    HW1 6686   1.344   0.090   1.851
 1929SOL    HW2 6687   1.205   0.086   1.765
 1930SOL     OW 6688   5.797   3.675   6.123
 1930SOL    HW1 6689   5.711   3.708   6.084
 1930SOL    HW2 6690   5.791   3.576   6.138
 1931SOL     OW 6691   0.605   2.934   4.628
 1931SOL    HW1 6692   0.609   3.011   4.692
 1931SOL    HW2 6693   0.544   2.863   4.665
 1932SOL     OW 6694   6.142   3.698   1.451
 1932SOL    HW1 6695   6.091   3.781   1.477
 1932SOL    HW2 6696   6.200   3.718   1.372
 1933SOL     OW 6697   2.747   4.556   1.357
 1933SOL    HW1 6698   2.787   4.501   1.429
 1933SOL    HW2 6699   2.817   4.617   1.319
 1934SOL     OW 6700   0.968   5.993   5.402
 1934SOL    HW1 6701   0.956   5.929   5.477
 1934SOL    HW2 6702   0.916   6.076   5.421
 1935SOL     OW 6703   2.171   1.118   3.633
 1935SOL    HW1 6704   2.177   1.142   3.730
 1935SOL    HW2 6705   2.077   1.130   3.602
 1936SOL     OW 6706   5.869   5.525   5.279
 1936SOL    HW1 6707   5.798   5.524   5.209
 1936SOL    HW2 6708   5.902   5.432   5.294
 1937SOL     OW 6709   3.833   6.438   1.682
 1937SOL    HW1 6710   3.736   6.427   1.706
 1937SOL    HW2 6711   3.871   6.515   1.732
 1938SOL     OW 6712   4.724   1.043   3.824
 1938SOL    HW1 6713   4.736   0.984   3.904
 1938SOL    HW2 6714   4.779   1.007   3.748
 1939SOL     OW 6715   1.671   1.050   3.454
 1939SOL    HW1 6716   1.617   0.993   3.392
 1939SOL    HW2 6717   1.610   1.098   3.517
 1940SOL     OW 6718   0.263   5.037   6.915
 1940SOL    HW1 6719   0.324   4.959   6.927
 1940SOL    HW2 6720   0.209   5.051   6.998
 1941SOL     OW 6721   4.790   4.101   2.817
 1941SOL    HW1 6722   4.804   4.043   2.737
 1941SOL    HW2 6723   4.828   4.057   2.898
 1942SOL     OW 6724   6.095   4.797   2.339
 1942SOL    HW1 6725   6.135   4.830   2.253
 1942SOL    HW2 6726   6.140   4.841   2.416
 1943SOL     OW 6727   2.586   5.018   2.787
 1943SOL    HW1 6728   2.608   5.114   2.769
 1943SOL    HW2 6729   2.575   5.004   2.886
 1944SOL     OW 6730   6.845   1.182   1.222
 1944SOL    HW1 6731   6.929   1.147   1.180
 1944SOL    HW2 6732   6.853   1.177   1.322
 1945SOL     OW 6733   3.319   4.883   3.974
 1945SOL    HW1 6734   3.227   4.897   3.936
 1945SOL    HW2 6735   3.313   4.884   4.074
 1946SOL     OW 6736   1.225   0.364   6.795
 1946SOL    HW1 6737   1.320   0.380   6.767
 1946SOL    HW2 6738   1.211   0.395   6.889
 1947SOL     OW 6739   5.809   5.763   3.641
 1947SOL    HW1 6740   5.863   5.704   3.701
 1947SOL    HW2 6741   5.712   5.748   3.659
 1948SOL     OW 6742   6.541   5.276   4.208
 1948SOL    HW1 6743   6.610   5.348   4.222
 1948SOL    HW2 6744   6.582   5.201   4.156
 1949SOL     OW 6745   4.119   4.041   6.674
 1949SOL    HW1 6746   4.114   4.032   6.575
 1949SOL    HW2 6747   4.213   4.024   6.704
 1950SOL     OW 6748   3.211   3.707   6.624
 1950SOL    HW1 6749   3.138   3.653   6.665
 1950SOL    HW2 6750   3.231   3.786   6.682
 1951SOL     OW 6751   6.216   1.728   6.874
 1951SOL    HW1 6752   6.284   1.680   6.818
 1951SOL    HW2 6753   6.125   1.701   6.845
 1952SOL     OW 6754   3.586   2.081   6.879
 1952SOL    HW1 6755   3.546   2.159   6.831
 1952SOL    HW2 6756   3.684   2.097   6.891
 1953SOL     OW 6757   6.890   2.692   6.493
 1953SOL    HW1 6758   6.910   2.751   6.415
 1953SOL    HW2 6759   6.801   2.718   6.532
 1954SOL     OW 6760   3.244   2.106   4.174
 1954SOL    HW1 6761   3.225   2.132   4.079
 1954SOL    HW2 6762   3.160   2.115   4.228
 1955SOL     OW 6763   0.136   6.575   3.082
 1955SOL    HW1 6764   0.098   6.647   3.024
 1955SOL    HW2 6765   0.152   6.611   3.174
 1956SOL     OW 6766   6.195   5.659   2.554
 1956SOL    HW1 6767   6.273   5.688   2.498
 1956SOL    HW2 6768   6.121   5.627   2.495
 1957SOL     OW 6769   0.054   6.685   5.149
 1957SOL    HW1 6770   0.086   6.729   5.065
 1957SOL    HW2 6771   0.069   6.746   5.227
 1958SOL     OW 6772   5.658   3.158   5.822
 1958SOL    HW1 6773   5.615   3.129   5.736
 1958SOL    HW2 6774   5.615   3.242   5.854
 1959SOL     OW 6775   1.566   2.300   6.182
 1959SOL    HW1 6776   1.577   2.232   6.110
 1959SOL    HW2 6777   1.649   2.355   6.189
 1960SOL     OW 6778   5.324   5.575   0.899
 1960SOL    HW1 6779   5.306   5.600   0.994
 1960SOL    HW2 6780   5.402   5.513   0.895
 1961SOL     OW 6781   5.589   3.982   3.742
 1961SOL    HW1 6782   5.565   3.998   3.837
 1961SOL    HW2 6783   5.650   3.903   3.736
 1962SOL     OW 6784   1.043   6.288   3.752
 1962SOL    HW1 6785   1.093   6.273   3.666
 1962SOL    HW2 6786   1.083   6.232   3.824
 1963SOL     OW 6787   1.150   0.208   3.085
 1963SOL    HW1 6788   1.089   0.270   3.134
 1963SOL    HW2 6789   1.104   0.175   3.002
 1964SOL     OW 6790   4.995   3.009   3.087
 1964SOL    HW1 6791   4.958   3.082   3.029
 1964SOL    HW2 6792   5.061   3.047   3.151
 1965SOL     OW 6793   1.474   3.707   3.390
 1965SOL    HW1 6794   1.483   3.694   3.489
 1965SOL    HW2 6795   1.398   3.653   3.356
 1966SOL     OW 6796   6.662   5.563   5.579
 1966SOL    HW1 6797   6.631   5.597   5.668
 1966SOL    HW2 6798   6.682   5.641   5.519
 1967SOL     OW 6799   4.942   2.804   5.014
 1967SOL    HW1 6800   5.040   2.818   5.028
 1967SOL    HW2 6801   4.897   2.893   5.000
 1968SOL     OW 6802   3.472   5.990   6.916
 1968SOL    HW1 6803   3.486   5.891   6.911
 1968SOL    HW2 6804   3.397   6.010   6.978
 1969SOL     OW 6805   0.339   2.304   1.438
 1969SOL    HW1 6806   0.369   2.231   1.499
 1969SOL    HW2 6807   0.240   2.317   1.448
 1970SOL     OW 6808   1.558   0.423   4.360
 1970SOL    HW1 6809   1.585   0.511   4.399
 1970SOL    HW2 6810   1.562   0.352   4.431
 1971SOL     OW 6811   0.053   6.838   6.866
 1971SOL    HW1 6812   0.140   6.886   6.862
 1971SOL    HW2 6813   0.043   6.780   6.785
 1972SOL     OW 6814   0.912   4.526   4.098
 1972SOL    HW1 6815   0.838   4.580   4.059
 1972SOL    HW2 6816   0.970   4.584   4.155
 1973SOL     OW 6817   3.123   3.223   1.661
 1973SOL    HW1 6818   3.198   3.190   1.719
 1973SOL    HW2 6819   3.159   3.285   1.592
 1974SOL     OW 6820   5.422   0.728   4.115
 1974SOL    HW1 6821   5.322   0.736   4.113
 1974SOL    HW2 6822   5.455   0.740   4.208
 1975SOL     OW 6823   3.320   0.449   4.190
 1975SOL    HW1 6824   3.412   0.489   4.187
 1975SOL    HW2 6825   3.273   0.480   4.272
 1976SOL     OW 6826   6.931   5.765   0.228
 1976SOL    HW1 6827   6.861   5.706   0.268
 1976SOL    HW2 6828   6.947   5.844   0.288
 1977SOL     OW 6829   1.080   2.459   4.814
 1977SOL    HW1 6830   1.085   2.420   4.722
 1977SOL    HW2 6831   1.102   2.557   4.810
 1978SOL     OW 6832   6.574   1.990   4.281
 1978SOL    HW1 6833   6.647   2.052   4.311
 1978SOL    HW2 6834   6.485   2.031   4.300
 1979SOL     OW 6835   5.878   4.720   3.969
 1979SOL    HW1 6836   5.831   4.739   3.882
 1979SOL    HW2 6837   5.854   4.791   4.035
 1980SOL     OW 6838   3.886   0.335   1.440
 1980SOL    HW1 6839   3.862   0.260   1.378
 1980SOL    HW2 6840   3.972   0.377   1.411
 1981SOL     OW 6841   4.859   2.797   1.868
 1981SOL    HW1 6842   4.791   2.726   1.847
 1981SOL    HW2 6843   4.813   2.879   1.900
 1982SOL     OW 6844   5.859   5.487   4.629
 1982SOL    HW1 6845   5.925   5.413   4.622
 1982SOL    HW2 6846   5.786   5.462   4.693
 1983SOL     OW 6847   0.936   3.467   3.300
 1983SOL    HW1 6848   1.003   3.463   3.226
 1983SOL    HW2 6849   0.955   3.546   3.358
 1984SOL     OW 6850   4.148   1.853   6.270
 1984SOL    HW1 6851   4.074   1.909   6.233
 1984SOL    HW2 6852   4.174   1.783   6.203
 1985SOL     OW 6853   1.274   0.483   1.381
 1985SOL    HW1 6854   1.276   0.441   1.290
 1985SOL    HW2 6855   1.365   0.519   1.403
 1986SOL     OW 6856   1.542   2.112   6.882
 1986SOL    HW1 6857   1.524   2.207   6.854
 1986SOL    HW2 6858   1.604   2.111   6.960
 1987SOL     OW 6859   2.204   3.337   0.759
 1987SOL    HW1 6860   2.112   3.315   0.793
 1987SOL    HW2 6861   2.271   3.281   0.807
 1988SOL     OW 6862   4.643   3.861   0.317
 1988SOL    HW1 6863   4.600   3.903   0.237
 1988SOL    HW2 6864   4.617   3.910   0.399
 1989SOL     OW 6865   2.505   0.162   4.124
 1989SOL    HW1 6866   2.503   0.259   4.148
 1989SOL    HW2 6867   2.477   0.151   4.028
 1990SOL     OW 6868   3.067   1.139   1.305
 1990SOL    HW1 6869   3.034   1.070   1.241
 1990SOL    HW2 6870   3.087   1.096   1.393
 1991SOL     OW 6871   3.056   5.683   4.091
 1991SOL    HW1 6872   3.085   5.683   4.187
 1991SOL    HW2 6873   3.136   5.697   4.032
 1992SOL     OW 6874   2.177   6.320   5.725
 1992SOL    HW1 6875   2.095   6.322   5.782
 1992SOL    HW2 6876   2.174   6.396   5.660
 1993SOL     OW 6877   3.745   3.402   5.606
 1993SOL    HW1 6878   3.835   3.436   5.581
 1993SOL    HW2 6879   3.680   3.479   5.607
 1994SOL     OW 6880   6.485   2.241   2.228
 1994SOL    HW1 6881   6.425   2.321   2.223
 1994SOL    HW2 6882   6.432   2.161   2.258
 1995SOL     OW 6883   5.888   1.916   1.950
 1995SOL    HW1 6884   5.859   1.915   1.854
 1995SOL    HW2 6885   5.987   1.904   1.956
 1996SOL     OW 6886   3.622   4.341   0.051
 1996SOL    HW1 6887   3.652   4.265   7.013
 1996SOL    HW2 6888   3.665   4.334   0.141
 1997SOL     OW 6889   5.163   0.637   4.133
 1997SOL    HW1 6890   5.186   0.640   4.036
 1997SOL    HW2 6891   5.178   0.545   4.168
 1998SOL     OW 6892   2.665   4.525   6.090
 1998SOL    HW1 6893   2.656   4.498   5.995
 1998SOL    HW2 6894   2.636   4.621   6.100
 1999SOL     OW 6895   2.603   0.076   2.199
 1999SOL    HW1 6896   2.561   7.009   2.173
 1999SOL    HW2 6897   2.610   0.081   2.298
 2000SOL     OW 6898   4.195   1.545   4.992
 2000SOL    HW1 6899   4.199   1.446   4.975
 2000SOL    HW2 6900   4.111   1.566   5.042
 2001SOL     OW 6901   2.864   1.199   0.854
 2001SOL    HW1 6902   2.870   1.250   0.940
 2001SOL    HW2 6903   2.892   1.258   0.779
 2002SOL     OW 6904   1.959   5.255   5.836
 2002SOL    HW1 6905   1.958   5.329   5.904
 2002SOL    HW2 6906   2.020   5.182   5.866
 2003SOL     OW 6907   6.024   6.094   3.201
 2003SOL    HW1 6908   5.974   6.009   3.184
 2003SOL    HW2 6909   6.038   6.106   3.299
 2004SOL     OW 6910   3.187   0.872   5.682
 2004SOL    HW1 6911   3.220   0.883   5.776
 2004SOL    HW2 6912   3.260   0.832   5.626
 2005SOL     OW 6913   2.016   5.482   5.987
 2005SOL    HW1 6914   2.042   5.559   5.928
 2005SOL    HW2 6915   2.003   5.515   6.080
 2006SOL     OW 6916   4.284   5.217   4.561
 2006SOL    HW1 6917   4.359   5.197   4.624
 2006SOL    HW2 6918   4.269   5.316   4.558
 2007SOL     OW 6919   5.430   5.756   0.717
 2007SOL    HW1 6920   5.406   5.702   0.798
 2007SOL    HW2 6921   5.356   5.750   0.650
 2008SOL     OW 6922   6.913   6.515   3.511
 2008SOL    HW1 6923   6.851   6.547   3.583
 2008SOL    HW2 6924   7.003   6.497   3.550
 2009SOL     OW 6925   7.011   0.580   2.112
 2009SOL    HW1 6926   6.948   0.619   2.180
 2009SOL    HW2 6927   6.977   0.492   2.081
 2010SOL     OW 6928   0.903   0.389   0.276
 2010SOL    HW1 6929   0.851   0.396   0.361
 2010SOL    HW2 6930   0.847   0.344   0.206
 2011SOL     OW 6931   6.609   1.762   5.009
 2011SOL    HW1 6932   6.667   1.743   5.088
 2011SOL    HW2 6933   6.516   1.779   5.039
 2012SOL     OW 6934   1.554   4.576   0.913
 2012SOL    HW1 6935   1.566   4.657   0.971
 2012SOL    HW2 6936   1.643   4.531   0.900
 2013SOL     OW 6937   5.637   1.840   2.595
 2013SOL    HW1 6938   5.648   1.740   2.593
 2013SOL    HW2 6939   5.718   1.882   2.635
 2014SOL     OW 6940   1.805   5.594   3.726
 2014SOL    HW1 6941   1.851   5.679   3.697
 2014SOL    HW2 6942   1.873   5.532   3.764
 2015SOL     OW 6943   3.226   0.515   0.078
 2015SOL    HW1 6944   3.304   0.531   0.017
 2015SOL    HW2 6945   3.146   0.564   0.043
 2016SOL     OW 6946   0.619   5.412   4.390
 2016SOL    HW1 6947   0.683   5.377   4.457
 2016SOL    HW2 6948   0.546   5.462   4.437
 2017SOL     OW 6949   2.604   5.786   2.982
 2017SOL    HW1 6950   2.620   5.855   3.052
 2017SOL    HW2 6951   2.518   5.740   2.999
 2018SOL     OW 6952   0.556   5.367   6.015
 2018SOL    HW1 6953   0.546   5.460   6.051
 2018SOL    HW2 6954   0.466   5.328   5.998
 2019SOL     OW 6955   5.917   2.264   1.939
 2019SOL    HW1 6956   6.010   2.273   1.975
 2019SOL    HW2 6957   5.921   2.229   1.845
 2020SOL     OW 6958   2.432   5.420   3.214
 2020SOL    HW1 6959   2.383   5.333   3.204
 2020SOL    HW2 6960   2.369   5.495   3.194
 2021SOL     OW 6961   1.823   0.838   2.390
 2021SOL    HW1 6962   1.893   0.788   2.339
 2021SOL    HW2 6963   1.820   0.933   2.358
 2022SOL     OW 6964   2.248   3.660   1.723
 2022SOL    HW1 6965   2.202   3.723   1.786
 2022SOL    HW2 6966   2.273   3.576   1.772
 2023SOL     OW 6967   6.458   1.177   6.329
 2023SOL    HW1 6968   6.409   1.155   6.413
 2023SOL    HW2 6969   6.416   1.128   6.252
 2024SOL     OW 6970   6.083   0.458   3.605
 2024SOL    HW1 6971   5.990   0.469   3.571
 2024SOL    HW2 6972   6.147   0.503   3.543
 2025SOL     OW 6973   0.352   1.547   1.890
 2025SOL    HW1 6974   0.438   1.595   1.911
 2025SOL    HW2 6975   0.337   1.474   1.958
 2026SOL     OW 6976   2.416   1.673   5.622
 2026SOL    HW1 6977   2.323   1.701   5.649
 2026SOL    HW2 6978   2.410   1.604   5.550
 2027SOL     OW 6979   1.271   1.189   2.052
 2027SOL    HW1 6980   1.294   1.187   2.150
 2027SOL    HW2 6981   1.354   1.171   1.998
 2028SOL     OW 6982   3.449   2.407   0.098
 2028SOL    HW1 6983   3.449   2.356   0.184
 2028SOL    HW2 6984   3.544   2.423   0.069
 2029SOL     OW 6985   0.967   1.317   6.135
 2029SOL    HW1 6986   0.986   1.232   6.086
 2029SOL    HW2 6987   0.944   1.296   6.230
 2030SOL     OW 6988   1.935   2.157   3.077
 2030SOL    HW1 6989   1.998   2.092   3.119
 2030SOL    HW2 6990   1.873   2.193   3.146
 2031SOL     OW 6991   5.758   6.640   1.961
 2031SOL    HW1 6992   5.819   6.599   1.893
 2031SOL    HW2 6993   5.802   6.639   2.051
 2032SOL     OW 6994   4.856   6.173   0.359
 2032SOL    HW1 6995   4.928   6.150   0.293
 2032SOL    HW2 6996   4.877   6.133   0.448
 2033SOL     OW 6997   5.521   4.398   6.388
 2033SOL    HW1 6998   5.596   4.406   6.323
 2033SOL    HW2 6999   5.434   4.394   6.339
 2034SOL     OW 7000   2.272   0.045   2.953
 2034SOL    HW1 7001   2.301   0.000   2.868
 2034SOL    HW2 7002   2.177   0.022   2.972
 2035SOL     OW 7003   0.916   1.535   2.451
 2035SOL    HW1 7004   0.888   1.571   2.362
 2035SOL    HW2 7005   0.966   1.449   2.437
 2036SOL     OW 7006   0.525   5.446   0.823
 2036SOL    HW1 7007   0.442   5.421   0.874
 2036SOL    HW2 7008   0.500   5.505   0.746
 2037SOL     OW 7009   6.843   2.478   5.661
 2037SOL    HW1 7010   6.849   2.505   5.565
 2037SOL    HW2 7011   6.883   2.387   5.672
 2038SOL     OW 7012   0.373   1.503   4.505
 2038SOL    HW1 7013   0.434   1.522   4.581
 2038SOL    HW2 7014   0.293   1.452   4.539
 2039SOL     OW 7015   6.570   5.407   3.221
 2039SOL    HW1 7016   6.621   5.413   3.136
 2039SOL    HW2 7017   6.490   5.467   3.217
 2040SOL     OW 7018   3.915   3.049   4.831
 2040SOL    HW1 7019   4.012   3.052   4.853
 2040SOL    HW2 7020   3.903   3.049   4.731
 2041SOL     OW 7021   5.783   4.750   5.306
 2041SOL    HW1 7022   5.716   4.691   5.261
 2041SOL    HW2 7023   5.819   4.705   5.388
 2042SOL     OW 7024   4.927   5.322   0.460
 2042SOL    HW1 7025   5.002   5.300   0.521
 2042SOL    HW2 7026   4.893   5.415   0.480
 2043SOL     OW 7027   5.701   4.491   2.244
 2043SOL    HW1 7028   5.781   4.457   2.195
 2043SOL    HW2 7029   5.671   4.577   2.204
 2044SOL     OW 7030   6.044   0.417   1.610
 2044SOL    HW1 7031   5.962   0.445   1.660
 2044SOL    HW2 7032   6.059   0.479   1.533
 2045SOL     OW 7033   2.482   4.736   5.883
 2045SOL    HW1 7034   2.427   4.659   5.916
 2045SOL    HW2 7035   2.546   4.704   5.814
 2046SOL     OW 7036   6.341   0.281   4.278
 2046SOL    HW1 7037   6.261   0.340   4.273
 2046SOL    HW2 7038   6.403   0.302   4.202
 2047SOL     OW 7039   5.061   2.797   0.926
 2047SOL    HW1 7040   5.065   2.773   0.829
 2047SOL    HW2 7041   4.975   2.844   0.944
 2048SOL     OW 7042   4.108   0.538   6.891
 2048SOL    HW1 7043   4.155   0.626   6.904
 2048SOL    HW2 7044   4.175   0.466   6.876
 2049SOL     OW 7045   4.221   1.602   0.158
 2049SOL    HW1 7046   4.205   1.565   0.067
 2049SOL    HW2 7047   4.210   1.702   0.156
 2050SOL     OW 7048   6.309   2.801   3.873
 2050SOL    HW1 7049   6.235   2.844   3.822
 2050SOL    HW2 7050   6.306   2.831   3.969
 2051SOL     OW 7051   1.188   6.273   0.166
 2051SOL    HW1 7052   1.227   6.266   0.074
 2051SOL    HW2 7053   1.131   6.355   0.171
 2052SOL     OW 7054   0.776   2.981   6.670
 2052SOL    HW1 7055   0.752   3.061   6.724
 2052SOL    HW2 7056   0.735   2.987   6.580
 2053SOL     OW 7057   6.391   0.862   6.636
 2053SOL    HW1 7058   6.454   0.790   6.664
 2053SOL    HW2 7059   6.299   0.823   6.628
 2054SOL     OW 7060   5.847   2.485   0.560
 2054SOL    HW1 7061   5.909   2.557   0.529
 2054SOL    HW2 7062   5.827   2.496   0.657
 2055SOL     OW 7063   5.452   2.458   3.602
 2055SOL    HW1 7064   5.419   2.398   3.529
 2055SOL    HW2 7065   5.376   2.480   3.664
 2056SOL     OW 7066   2.031   1.027   3.196
 2056SOL    HW1 7067   2.106   0.967   3.169
 2056SOL    HW2 7068   1.985   1.062   3.114
 2057SOL     OW 7069   6.285   2.699   4.253
 2057SOL    HW1 7070   6.284   2.776   4.189
 2057SOL    HW2 7071   6.367   2.643   4.236
 2058SOL     OW 7072   0.051   2.094   2.674
 2058SOL    HW1 7073   0.033   2.187   2.643
 2058SOL    HW2 7074   0.106   2.096   2.757
 2059SOL     OW 7075   2.075   1.231   6.867
 2059SOL    HW1 7076   2.015   1.185   6.802
 2059SOL    HW2 7077   2.047   1.326   6.876
 2060SOL     OW 7078   0.053   4.568   1.793
 2060SOL    HW1 7079   0.044   4.519   1.706
 2060SOL    HW2 7080   7.011   4.527   1.861
 2061SOL     OW 7081   0.162   1.369   2.398
 2061SOL    HW1 7082   0.090   1.398   2.334
 2061SOL    HW2 7083   0.171   1.270   2.395
 2062SOL     OW 7084   4.662   0.355   2.344
 2062SOL    HW1 7085   4.657   0.402   2.256
 2062SOL    HW2 7086   4.743   0.386   2.395
 2063SOL     OW 7087   1.729   3.016   6.138
 2063SOL    HW1 7088   1.773   3.106   6.133
 2063SOL    HW2 7089   1.704   2.987   6.045
 2064SOL     OW 7090   0.733   2.301   5.622
 2064SOL    HW1 7091   0.742   2.386   5.570
 2064SOL    HW2 7092   0.728   2.321   5.719
 2065SOL     OW 7093   6.090   3.530   2.642
 2065SOL    HW1 7094   6.044   3.616   2.620
 2065SOL    HW2 7095   6.021   3.458   2.657
 2066SOL     OW 7096   0.206   6.858   4.954
 2066SOL    HW1 7097   0.262   6.833   4.875
 2066SOL    HW2 7098   0.252   6.929   5.007
 2067SOL     OW 7099   6.063   6.699   0.481
 2067SOL    HW1 7100   6.040   6.741   0.393
 2067SOL    HW2 7101   6.160   6.676   0.483
 2068SOL     OW 7102   2.139   1.270   5.446
 2068SOL    HW1 7103   2.159   1.354   5.397
 2068SOL    HW2 7104   2.050   1.234   5.417
 2069SOL     OW 7105   0.737   3.093   2.008
 2069SOL    HW1 7106   0.671   3.019   2.023
 2069SOL    HW2 7107   0.732   3.158   2.084
 2070SOL     OW 7108   1.680   0.593   2.476
 2070SOL    HW1 7109   1.645   0.574   2.568
 2070SOL    HW2 7110   1.719   0.685   2.474
 2071SOL     OW 7111   0.073   6.885   4.099
 2071SOL    HW1 7112   0.161   6.931   4.108
 2071SOL    HW2 7113   0.081   6.790   4.129
 2072SOL     OW 7114   4.800   6.291   1.891
 2072SOL    HW1 7115   4.797   6.195   1.918
 2072SOL    HW2 7116   4.802   6.348   1.973
 2073SOL     OW 7117   3.726   6.547   5.437
 2073SOL    HW1 7118   3.720   6.464   5.383
 2073SOL    HW2 7119   3.668   6.618   5.397
 2074SOL     OW 7120   6.668   1.691   1.125
 2074SOL    HW1 7121   6.732   1.730   1.058
 2074SOL    HW2 7122   6.714   1.617   1.175
 2075SOL     OW 7123   4.038   3.458   0.825
 2075SOL    HW1 7124   4.040   3.511   0.910
 2075SOL    HW2 7125   4.068   3.364   0.844
 2076SOL     OW 7126   5.260   5.895   0.500
 2076SOL    HW1 7127   5.196   5.948   0.555
 2076SOL    HW2 7128   5.345   5.947   0.489
 2077SOL     OW 7129   5.914   1.548   2.642
 2077SOL    HW1 7130   5.866   1.614   2.700
 2077SOL    HW2 7131   5.972   1.598   2.576
 2078SOL     OW 7132   2.913   5.478   6.602
 2078SOL    HW1 7133   2.876   5.571   6.604
 2078SOL    HW2 7134   2.885   5.433   6.517
 2079SOL     OW 7135   6.028   0.813   3.472
 2079SOL    HW1 7136   5.967   0.881   3.432
 2079SOL    HW2 7137   6.010   0.724   3.431
 2080SOL     OW 7138   2.893   2.250   4.985
 2080SOL    HW1 7139   2.833   2.280   5.060
 2080SOL    HW2 7140   2.988   2.261   5.013
 2081SOL     OW 7141   1.323   6.658   5.082
 2081SOL    HW1 7142   1.365   6.593   5.018
 2081SOL    HW2 7143   1.289   6.738   5.032
 2082SOL     OW 7144   5.566   0.776   0.769
 2082SOL    HW1 7145   5.529   0.809   0.683
 2082SOL    HW2 7146   5.657   0.739   0.754
 2083SOL     OW 7147   3.821   5.147   6.560
 2083SOL    HW1 7148   3.725   5.121   6.573
 2083SOL    HW2 7149   3.844   5.143   6.463
 2084SOL     OW 7150   6.957   2.274   3.326
 2084SOL    HW1 7151   7.000   2.364   3.322
 2084SOL    HW2 7152   6.872   2.276   3.273
 2085SOL     OW 7153   5.050   1.021   6.263
 2085SOL    HW1 7154   5.079   1.112   6.233
 2085SOL    HW2 7155   5.059   1.014   6.362
 2086SOL     OW 7156   3.305   4.902   0.545
 2086SOL    HW1 7157   3.271   4.980   0.491
 2086SOL    HW2 7158   3.362   4.936   0.620
 2087SOL     OW 7159   5.687   6.585   2.477
 2087SOL    HW1 7160   5.596   6.568   2.514
 2087SOL    HW2 7161   5.749   6.611   2.552
 2088SOL     OW 7162   3.568   6.528   1.059
 2088SOL    HW1 7163   3.661   6.566   1.068
 2088SOL    HW2 7164   3.529   6.516   1.150
 2089SOL     OW 7165   4.740   1.461   0.162
 2089SOL    HW1 7166   4.682   1.396   0.113
 2089SOL    HW2 7167   4.822   1.480   0.108
 2090SOL     OW 7168   3.706   3.545   4.676
 2090SOL    HW1 7169   3.695   3.561   4.774
 2090SOL    HW2 7170   3.790   3.493   4.659
 2091SOL     OW 7171   0.441   5.893   0.576
 2091SOL    HW1 7172   0.525   5.855   0.539
 2091SOL    HW2 7173   0.368   5.825   0.570
 2092SOL     OW 7174   5.859   6.186   1.159
 2092SOL    HW1 7175   5.957   6.173   1.167
 2092SOL    HW2 7176   5.840   6.248   1.082
 2093SOL     OW 7177   1.098   2.862   2.044
 2093SOL    HW1 7178   1.142   2.792   2.101
 2093SOL    HW2 7179   1.028   2.819   1.986
 2094SOL     OW 7180   6.268   0.212   2.035
 2094SOL    HW1 7181   6.226   0.260   1.957
 2094SOL    HW2 7182   6.211   0.225   2.116
 2095SOL     OW 7183   5.816   6.066   4.356
 2095SOL    HW1 7184   5.819   6.122   4.439
 2095SOL    HW2 7185   5.784   6.121   4.279
 2096SOL     OW 7186   4.842   3.982   2.571
 2096SOL    HW1 7187   4.789   3.952   2.491
 2096SOL    HW2 7188   4.924   4.030   2.540
 2097SOL     OW 7189   0.257   2.403   6.875
 2097SOL    HW1 7190   0.332   2.343   6.902
 2097SOL    HW2 7191   0.217   2.446   6.957
 2098SOL     OW 7192   4.465   6.474   3.563
 2098SOL    HW1 7193   4.420   6.481   3.652
 2098SOL    HW2 7194   4.564   6.473   3.576
 2099SOL     OW 7195   2.667   1.221   4.535
 2099SOL    HW1 7196   2.738   1.187   4.474
 2099SOL    HW2 7197   2.629   1.306   4.499
 2100SOL     OW 7198   3.995   4.030   6.947
 2100SOL    HW1 7199   4.024   4.019   6.851
 2100SOL    HW2 7200   4.019   3.948   6.999
 2101SOL     OW 7201   0.333   0.510   3.135
 2101SOL    HW1 7202   0.317   0.433   3.074
 2101SOL    HW2 7203   0.341   0.477   3.229
 2102SOL     OW 7204   6.872   5.456   2.781
 2102SOL    HW1 7205   6.846   5.435   2.686
 2102SOL    HW2 7206   6.971   5.452   2.790
 2103SOL     OW 7207   3.715   3.170   6.874
 2103SOL    HW1 7208   3.652   3.231   6.923
 2103SOL    HW2 7209   3.743   3.095   6.935
 2104SOL     OW 7210   1.440   3.330   5.778
 2104SOL    HW1 7211   1.513   3.394   5.757
 2104SOL    HW2 7212   1.479   3.239   5.795
 2105SOL     OW 7213   5.357   5.062   2.806
 2105SOL    HW1 7214   5.423   5.116   2.754
 2105SOL    HW2 7215   5.267   5.105   2.799
 2106SOL     OW 7216   4.552   5.550   6.704
 2106SOL    HW1 7217   4.623   5.612   6.735
 2106SOL    HW2 7218   4.592   5.460   6.687
 2107SOL     OW 7219   3.860   4.225   5.930
 2107SOL    HW1 7220   3.893   4.308   5.885
 2107SOL    HW2 7221   3.764   4.209   5.906
 2108SOL     OW 7222   5.873   5.622   5.710
 2108SOL    HW1 7223   5.952   5.563   5.723
 2108SOL    HW2 7224   5.854   5.673   5.794
 2109SOL     OW 7225   5.880   5.772   2.896
 2109SOL    HW1 7226   5.790   5.807   2.868
 2109SOL    HW2 7227   5.935   5.847   2.931
 2110SOL     OW 7228   2.947   4.439   6.450
 2110SOL    HW1 7229   3.043   4.452   6.473
 2110SOL    HW2 7230   2.939   4.410   6.354
 2111SOL     OW 7231   0.604   2.544   6.269
 2111SOL    HW1 7232   0.698   2.563   6.241
 2111SOL    HW2 7233   0.602   2.527   6.368
 2112SOL     OW 7234   3.852   2.796   1.678
 2112SOL    HW1 7235   3.914   2.864   1.715
 2112SOL    HW2 7236   3.822   2.825   1.587
 2113SOL     OW 7237   1.613   0.533   2.753
 2113SOL    HW1 7238   1.698   0.531   2.806
 2113SOL    HW2 7239   1.545   0.589   2.800
 2114SOL     OW 7240   1.452   4.555   0.298
 2114SOL    HW1 7241   1.369   4.517   0.258
 2114SOL    HW2 7242   1.457   4.653   0.279
 2115SOL     OW 7243   2.214   4.995   2.820
 2115SOL    HW1 7244   2.135   4.938   2.800
 2115SOL    HW2 7245   2.285   4.980   2.751
 2116SOL     OW 7246   6.973   3.709   2.776
 2116SOL    HW1 7247   6.926   3.710   2.688
 2116SOL    HW2 7248   7.007   3.801   2.797
 2117SOL     OW 7249   0.011   4.405   1.575
 2117SOL    HW1 7250   0.040   4.427   1.482
 2117SOL    HW2 7251   6.948   4.349   1.571
 2118SOL     OW 7252   6.853   3.775   2.553
 2118SOL    HW1 7253   6.838   3.872   2.534
 2118SOL    HW2 7254   6.803   3.720   2.487
 2119SOL     OW 7255   2.212   5.592   1.354
 2119SOL    HW1 7256   2.263   5.606   1.269
 2119SOL    HW2 7257   2.211   5.495   1.377
 2120SOL     OW 7258   5.921   4.418   2.113
 2120SOL    HW1 7259   5.965   4.386   2.197
 2120SOL    HW2 7260   5.991   4.443   2.046
 2121SOL     OW 7261   0.719   5.331   5.285
 2121SOL    HW1 7262   0.661   5.262   5.242
 2121SOL    HW2 7263   0.759   5.295   5.369
 2122SOL     OW 7264   5.312   4.393   5.309
 2122SOL    HW1 7265   5.334   4.295   5.316
 2122SOL    HW2 7266   5.305   4.418   5.212
 2123SOL     OW 7267   0.099   4.389   2.470
 2123SOL    HW1 7268   0.197   4.404   2.482
 2123SOL    HW2 7269   0.055   4.385   2.559
 2124SOL     OW 7270   1.920   1.242   1.393
 2124SOL    HW1 7271   1.934   1.313   1.324
 2124SOL    HW2 7272   1.828   1.205   1.384
 2125SOL     OW 7273   2.046   0.583   6.801
 2125SOL    HW1 7274   2.086   0.596   6.892
 2125SOL    HW2 7275   1.978   0.510   6.804
 2126SOL     OW 7276   2.814   0.741   6.704
 2126SOL    HW1 7277   2.768   0.706   6.622
 2126SOL    HW2 7278   2.826   0.840   6.696
 2127SOL     OW 7279   6.018   3.050   4.105
 2127SOL    HW1 7280   6.021   3.117   4.179
 2127SOL    HW2 7281   5.923   3.023   4.089
 2128SOL     OW 7282   0.773   4.445   4.778
 2128SOL    HW1 7283   0.714   4.366   4.796
 2128SOL    HW2 7284   0.736   4.497   4.701
 2129SOL     OW 7285   4.709   2.994   5.502
 2129SOL    HW1 7286   4.674   2.900   5.498
 2129SOL    HW2 7287   4.634   3.058   5.489
 2130SOL     OW 7288   5.150   6.943   2.570
 2130SOL    HW1 7289   5.209   0.003   2.579
 2130SOL    HW2 7290   5.087   6.955   2.493
 2131SOL     OW 7291   0.274   0.837   0.776
 2131SOL    HW1 7292   0.175   0.841   0.787
 2131SOL    HW2 7293   0.313   0.775   0.845
 2132SOL     OW 7294   2.630   2.948   1.137
 2132SOL    HW1 7295   2.584   2.863   1.112
 2132SOL    HW2 7296   2.727   2.930   1.152
 2133SOL     OW 7297   2.998   2.395   6.137
 2133SOL    HW1 7298   3.035   2.407   6.229
 2133SOL    HW2 7299   3.059   2.336   6.084
 2134SOL     OW 7300   6.775   1.457   1.232
 2134SOL    HW1 7301   6.819   1.392   1.169
 2134SOL    HW2 7302   6.817   1.450   1.322
 2135SOL     OW 7303   1.093   4.233   4.561
 2135SOL    HW1 7304   1.126   4.165   4.627
 2135SOL    HW2 7305   0.994   4.221   4.549
 2136SOL     OW 7306   2.484   5.199   1.966
 2136SOL    HW1 7307   2.573   5.178   1.926
 2136SOL    HW2 7308   2.456   5.291   1.938
 2137SOL     OW 7309   3.143   5.845   5.021
 2137SOL    HW1 7310   3.044   5.833   5.011
 2137SOL    HW2 7311   3.190   5.771   4.973
 2138SOL     OW 7312   6.237   1.000   2.860
 2138SOL    HW1 7313   6.210   0.998   2.956
 2138SOL    HW2 7314   6.158   0.977   2.803
 2139SOL     OW 7315   3.384   0.779   5.515
 2139SOL    HW1 7316   3.309   0.758   5.452
 2139SOL    HW2 7317   3.428   0.865   5.487
 2140SOL     OW 7318   2.893   0.902   4.506
 2140SOL    HW1 7319   2.885   0.895   4.407
 2140SOL    HW2 7320   2.834   0.833   4.549
 2141SOL     OW 7321   6.109   4.261   2.328
 2141SOL    HW1 7322   6.093   4.336   2.392
 2141SOL    HW2 7323   6.192   4.280   2.275
 2142SOL     OW 7324   1.961   2.878   3.773
 2142SOL    HW1 7325   1.928   2.791   3.809
 2142SOL    HW2 7326   1.952   2.879   3.674
 2143SOL     OW 7327   2.551   5.348   1.413
 2143SOL    HW1 7328   2.623   5.297   1.366
 2143SOL    HW2 7329   2.541   5.314   1.506
 2144SOL     OW 7330   6.992   5.646   4.621
 2144SOL    HW1 7331   6.902   5.629   4.661
 2144SOL    HW2 7332   0.041   5.594   4.672
 2145SOL     OW 7333   4.271   6.578   4.311
 2145SOL    HW1 7334   4.344   6.553   4.375
 2145SOL    HW2 7335   4.193   6.615   4.362
 2146SOL     OW 7336   2.209   2.915   0.882
 2146SOL    HW1 7337   2.282   2.846   0.880
 2146SOL    HW2 7338   2.145   2.893   0.956
 2147SOL     OW 7339   6.678   1.608   5.711
 2147SOL    HW1 7340   6.644   1.522   5.674
 2147SOL    HW2 7341   6.622   1.635   5.790
 2148SOL     OW 7342   6.926   2.951   6.835
 2148SOL    HW1 7343   6.921   3.033   6.777
 2148SOL    HW2 7344   6.840   2.939   6.884
 2149SOL     OW 7345   0.693   0.495   0.434
 2149SOL    HW1 7346   0.645   0.547   0.363
 2149SOL    HW2 7347   0.680   0.540   0.522
 2150SOL     OW 7348   2.475   2.824   1.734
 2150SOL    HW1 7349   2.389   2.876   1.730
 2150SOL    HW2 7350   2.463   2.746   1.795
 2151SOL     OW 7351   0.598   6.460   0.012
 2151SOL    HW1 7352   0.590   6.470   0.111
 2151SOL    HW2 7353   0.509   6.477   6.989
 2152SOL     OW 7354   4.104   5.811   2.544
 2152SOL    HW1 7355   4.099   5.888   2.481
 2152SOL    HW2 7356   4.013   5.772   2.557
 2153SOL     OW 7357   4.143   0.800   2.308
 2153SOL    HW1 7358   4.205   0.878   2.311
 2153SOL    HW2 7359   4.194   0.715   2.323
 2154SOL     OW 7360   3.748   6.660   3.460
 2154SOL    HW1 7361   3.787   6.599   3.390
 2154SOL    HW2 7362   3.650   6.643   3.468
 2155SOL     OW 7363   4.192   6.675   0.899
 2155SOL    HW1 7364   4.119   6.740   0.881
 2155SOL    HW2 7365   4.271   6.724   0.937
 2156SOL     OW 7366   5.704   1.471   3.679
 2156SOL    HW1 7367   5.697   1.502   3.585
 2156SOL    HW2 7368   5.801   1.464   3.705
 2157SOL     OW 7369   4.165   5.084   4.031
 2157SOL    HW1 7370   4.154   5.110   3.935
 2157SOL    HW2 7371   4.146   4.987   4.042
 2158SOL     OW 7372   3.731   0.471   0.628
 2158SOL    HW1 7373   3.826   0.454   0.652
 2158SOL    HW2 7374   3.694   0.391   0.580
 2159SOL     OW 7375   1.707   0.626   5.959
 2159SOL    HW1 7376   1.635   0.580   6.012
 2159SOL    HW2 7377   1.732   0.711   6.005
 2160SOL     OW 7378   5.281   6.049   0.181
 2160SOL    HW1 7379   5.321   6.056   0.273
 2160SOL    HW2 7380   5.318   6.122   0.124
 2161SOL     OW 7381   1.444   3.928   2.226
 2161SOL    HW1 7382   1.532   3.885   2.208
 2161SOL    HW2 7383   1.397   3.878   2.299
 2162SOL     OW 7384   2.085   6.873   3.167
 2162SOL    HW1 7385   2.177   6.871   3.205
 2162SOL    HW2 7386   2.018   6.877   3.242
 2163SOL     OW 7387   1.402   3.084   0.666
 2163SOL    HW1 7388   1.436   2.990   0.665
 2163SOL    HW2 7389   1.479   3.147   0.678
 2164SOL     OW 7390   2.244   2.807   1.358
 2164SOL    HW1 7391   2.208   2.841   1.271
 2164SOL    HW2 7392   2.274   2.884   1.414
 2165SOL     OW 7393   0.075   2.128   3.501
 2165SOL    HW1 7394   0.164   2.168   3.525
 2165SOL    HW2 7395   0.020   2.195   3.452
 2166SOL     OW 7396   0.594   4.191   4.102
 2166SOL    HW1 7397   0.512   4.151   4.063
 2166SOL    HW2 7398   0.673   4.169   4.045
 2167SOL     OW 7399   1.678   2.662   4.174
 2167SOL    HW1 7400   1.595   2.712   4.199
 2167SOL    HW2 7401   1.676   2.640   4.077
 2168SOL     OW 7402   1.150   2.296   3.277
 2168SOL    HW1 7403   1.057   2.289   3.240
 2168SOL    HW2 7404   1.208   2.346   3.213
 2169SOL     OW 7405   0.337   0.445   1.396
 2169SOL    HW1 7406   0.407   0.488   1.340
 2169SOL    HW2 7407   0.283   0.517   1.441
 2170SOL     OW 7408   0.724   4.057   5.811
 2170SOL    HW1 7409   0.803   4.111   5.784
 2170SOL    HW2 7410   0.753   3.964   5.833
 2171SOL     OW 7411   0.022   5.220   1.223
 2171SOL    HW1 7412   0.120   5.239   1.219
 2171SOL    HW2 7413   0.007   5.123   1.242
 2172SOL     OW 7414   0.138   1.909   5.198
 2172SOL    HW1 7415   0.121   1.906   5.099
 2172SOL    HW2 7416   0.204   1.838   5.222
 2173SOL     OW 7417   5.966   0.646   5.337
 2173SOL    HW1 7418   5.964   0.587   5.256
 2173SOL    HW2 7419   6.036   0.612   5.400
 2174SOL     OW 7420   0.221   5.982   5.008
 2174SOL    HW1 7421   0.130   6.011   5.038
 2174SOL    HW2 7422   0.278   5.965   5.088
 2175SOL     OW 7423   2.787   3.004   5.533
 2175SOL    HW1 7424   2.784   3.063   5.452
 2175SOL    HW2 7425   2.704   2.950   5.538
 2176SOL     OW 7426   5.399   2.761   1.334
 2176SOL    HW1 7427   5.424   2.747   1.430
 2176SOL    HW2 7428   5.360   2.853   1.323
 2177SOL     OW 7429   6.919   1.007   3.296
 2177SOL    HW1 7430   6.928   0.940   3.222
 2177SOL    HW2 7431   6.914   0.960   3.384
 2178SOL     OW 7432   0.923   1.648   2.111
 2178SOL    HW1 7433   0.986   1.620   2.039
 2178SOL    HW2 7434   0.864   1.571   2.136
 2179SOL     OW 7435   2.236   4.418   6.642
 2179SOL    HW1 7436   2.180   4.498   6.620
 2179SOL    HW2 7437   2.327   4.428   6.602
 2180SOL     OW 7438   1.431   4.698   1.981
 2180SOL    HW1 7439   1.365   4.719   2.053
 2180SOL    HW2 7440   1.388   4.714   1.892
 2181SOL     OW 7441   5.043   4.891   4.312
 2181SOL    HW1 7442   5.125   4.846   4.277
 2181SOL    HW2 7443   4.975   4.822   4.338
 2182SOL     OW 7444   0.717   4.989   3.414
 2182SOL    HW1 7445   0.668   5.017   3.332
 2182SOL    HW2 7446   0.734   4.890   3.411
 2183SOL     OW 7447   3.613   3.283   0.081
 2183SOL    HW1 7448   3.588   3.364   0.135
 2183SOL    HW2 7449   3.692   3.238   0.122
 2184SOL     OW 7450   6.508   0.504   0.264
 2184SOL    HW1 7451   6.448   0.425   0.277
 2184SOL    HW2 7452   6.599   0.483   0.299
 2185SOL     OW 7453   1.029   1.691   6.482
 2185SOL    HW1 7454   0.961   1.709   6.410
 2185SOL    HW2 7455   1.016   1.756   6.557
 2186SOL     OW 7456   6.480   5.312   4.800
 2186SOL    HW1 7457   6.542   5.354   4.866
 2186SOL    HW2 7458   6.485   5.362   4.713
 2187SOL     OW 7459   0.728   5.670   2.974
 2187SOL    HW1 7460   0.640   5.655   3.020
 2187SOL    HW2 7461   0.712   5.693   2.878
 2188SOL     OW 7462   2.030   6.419   0.092
 2188SOL    HW1 7463   2.115   6.431   0.042
 2188SOL    HW2 7464   1.962   6.377   0.033
 2189SOL     OW 7465   2.047   1.316   2.270
 2189SOL    HW1 7466   1.991   1.397   2.250
 2189SOL    HW2 7467   2.095   1.288   2.187
 2190SOL     OW 7468   6.725   4.303   2.556
 2190SOL    HW1 7469   6.813   4.332   2.593
 2190SOL    HW2 7470   6.652   4.362   2.592
 2191SOL     OW 7471   2.180   0.818   5.549
 2191SOL    HW1 7472   2.204   0.863   5.463
 2191SOL    HW2 7473   2.084   0.835   5.570
 2192SOL     OW 7474   5.280   0.816   2.253
 2192SOL    HW1 7475   5.243   0.724   2.245
 2192SOL    HW2 7476   5.379   0.811   2.267
 2193SOL     OW 7477   6.756   6.676   6.311
 2193SOL    HW1 7478   6.670   6.685   6.261
 2193SOL    HW2 7479   6.750   6.599   6.374
 2194SOL     OW 7480   0.626   4.409   5.227
 2194SOL    HW1 7481   0.598   4.502   5.203
 2194SOL    HW2 7482   0.726   4.404   5.231
 2195SOL     OW 7483   0.719   5.356   6.236
 2195SOL    HW1 7484   0.693   5.356   6.139
 2195SOL    HW2 7485   0.817   5.339   6.244
 2196SOL     OW 7486   2.406   6.067   5.386
 2196SOL    HW1 7487   2.477   6.129   5.418
 2196SOL    HW2 7488   2.447   5.994   5.332
 2197SOL     OW 7489   3.093   3.106   5.898
 2197SOL    HW1 7490   3.052   3.064   5.817
 2197SOL    HW2 7491   3.172   3.051   5.927
 2198SOL     OW 7492   0.218   0.230   6.360
 2198SOL    HW1 7493   0.233   0.328   6.348
 2198SOL    HW2 7494   0.259   0.200   6.445
 2199SOL     OW 7495   4.950   6.779   4.240
 2199SOL    HW1 7496   5.033   6.783   4.183
 2199SOL    HW2 7497   4.871   6.761   4.181
 2200SOL     OW 7498   3.181   1.063   4.109
 2200SOL    HW1 7499   3.184   0.963   4.107
 2200SOL    HW2 7500   3.114   1.096   4.043
 2201SOL     OW 7501   6.744   2.728   3.313
 2201SOL    HW1 7502   6.689   2.646   3.291
 2201SOL    HW2 7503   6.686   2.795   3.358
 2202SOL     OW 7504   3.517   5.066   2.680
 2202SOL    HW1 7505   3.496   5.153   2.724
 2202SOL    HW2 7506   3.497   4.991   2.743
 2203SOL     OW 7507   2.220   3.842   0.684
 2203SOL    HW1 7508   2.181   3.817   0.595
 2203SOL    HW2 7509   2.253   3.759   0.729
 2204SOL     OW 7510   4.149   3.071   1.224
 2204SOL    HW1 7511   4.248   3.059   1.224
 2204SOL    HW2 7512   4.104   2.981   1.213
 2205SOL     OW 7513   1.469   6.659   0.704
 2205SOL    HW1 7514   1.430   6.567   0.703
 2205SOL    HW2 7515   1.568   6.654   0.694
 2206SOL     OW 7516   3.011   3.451   6.506
 2206SOL    HW1 7517   3.053   3.438   6.595
 2206SOL    HW2 7518   3.080   3.442   6.435
 2207SOL     OW 7519   4.292   5.600   0.972
 2207SOL    HW1 7520   4.200   5.565   0.953
 2207SOL    HW2 7521   4.285   5.686   1.023
 2208SOL     OW 7522   1.028   5.946   3.625
 2208SOL    HW1 7523   0.939   5.991   3.629
 2208SOL    HW2 7524   1.051   5.925   3.530
 2209SOL     OW 7525   2.767   5.297   4.886
 2209SOL    HW1 7526   2.860   5.295   4.848
 2209SOL    HW2 7527   2.754   5.219   4.947
 2210SOL     OW 7528   5.875   6.304   1.725
 2210SOL    HW1 7529   5.926   6.318   1.810
 2210SOL    HW2 7530   5.835   6.212   1.725
 2211SOL     OW 7531   6.303   0.438   0.588
 2211SOL    HW1 7532   6.220   0.482   0.622
 2211SOL    HW2 7533   6.383   0.493   0.614
 2212SOL     OW 7534   2.339   5.988   6.882
 2212SOL    HW1 7535   2.419   6.034   6.918
 2212SOL    HW2 7536   2.272   6.056   6.850
 2213SOL     OW 7537   4.412   2.450   4.544
 2213SOL    HW1 7538   4.464   2.512   4.485
 2213SOL    HW2 7539   4.409   2.487   4.637
 2214SOL     OW 7540   4.215   2.898   5.816
 2214SOL    HW1 7541   4.240   2.909   5.912
 2214SOL    HW2 7542   4.148   2.969   5.791
 2215SOL     OW 7543   5.399   1.426   6.616
 2215SOL    HW1 7544   5.315   1.411   6.668
 2215SOL    HW2 7545   5.406   1.357   6.544
 2216SOL     OW 7546   0.516   6.031   6.153
 2216SOL    HW1 7547   0.513   5.980   6.239
 2216SOL    HW2 7548   0.596   6.002   6.101
 2217SOL     OW 7549   4.510   0.563   3.687
 2217SOL    HW1 7550   4.447   0.485   3.682
 2217SOL    HW2 7551   4.482   0.633   3.622
 2218SOL     OW 7552   0.715   5.521   6.827
 2218SOL    HW1 7553   0.678   5.468   6.751
 2218SOL    HW2 7554   0.767   5.461   6.888
 2219SOL     OW 7555   5.756   1.326   0.632
 2219SOL    HW1 7556   5.683   1.275   0.585
 2219SOL    HW2 7557   5.814   1.371   0.565
 2220SOL     OW 7558   2.019   6.255   5.384
 2220SOL    HW1 7559   1.950   6.284   5.318
 2220SOL    HW2 7560   2.100   6.314   5.376
 2221SOL     OW 7561   6.352   1.282   4.859
 2221SOL    HW1 7562   6.327   1.261   4.764
 2221SOL    HW2 7563   6.277   1.258   4.920
 2222SOL     OW 7564   6.069   6.992   0.582
 2222SOL    HW1 7565   6.116   0.052   0.547
 2222SOL    HW2 7566   6.121   6.909   0.560
 2223SOL     OW 7567   6.647   0.976   5.677
 2223SOL    HW1 7568   6.559   0.962   5.723
 2223SOL    HW2 7569   6.705   1.035   5.734
 2224SOL     OW 7570   5.600   3.646   1.946
 2224SOL    HW1 7571   5.685   3.683   1.983
 2224SOL    HW2 7572   5.533   3.636   2.020
 2225SOL     OW 7573   0.064   6.625   3.736
 2225SOL    HW1 7574   0.156   6.651   3.708
 2225SOL    HW2 7575   0.016   6.704   3.773
 2226SOL     OW 7576   3.613   5.223   0.403
 2226SOL    HW1 7577   3.514   5.237   0.396
 2226SOL    HW2 7578   3.643   5.162   0.328
 2227SOL     OW 7579   4.192   2.500   1.458
 2227SOL    HW1 7580   4.134   2.516   1.538
 2227SOL    HW2 7581   4.287   2.523   1.480
 2228SOL     OW 7582   4.520   5.479   0.320
 2228SOL    HW1 7583   4.487   5.411   0.254
 2228SOL    HW2 7584   4.584   5.541   0.275
 2229SOL     OW 7585   3.188   3.614   4.878
 2229SOL    HW1 7586   3.263   3.679   4.868
 2229SOL    HW2 7587   3.183   3.557   4.796
 2230SOL     OW 7588   4.994   6.338   1.489
 2230SOL    HW1 7589   4.940   6.417   1.518
 2230SOL    HW2 7590   4.951   6.295   1.410
 2231SOL     OW 7591   0.882   1.466   6.522
 2231SOL    HW1 7592   0.944   1.395   6.489
 2231SOL    HW2 7593   0.928   1.555   6.517
 2232SOL     OW 7594   0.853   0.817   4.823
 2232SOL    HW1 7595   0.905   0.790   4.904
 2232SOL    HW2 7596   0.862   0.746   4.753
 2233SOL     OW 7597   3.029   3.208   0.610
 2233SOL    HW1 7598   3.066   3.301   0.609
 2233SOL    HW2 7599   3.089   3.148   0.662
 2234SOL     OW 7600   3.601   1.642   0.495
 2234SOL    HW1 7601   3.586   1.738   0.471
 2234SOL    HW2 7602   3.693   1.631   0.533
 2235SOL     OW 7603   2.705   0.264   2.510
 2235SOL    HW1 7604   2.784   0.271   2.449
 2235SOL    HW2 7605   2.678   0.169   2.519
 2236SOL     OW 7606   2.229   4.077   6.153
 2236SOL    HW1 7607   2.320   4.111   6.177
 2236SOL    HW2 7608   2.160   4.142   6.184
 2237SOL     OW 7609   6.185   5.617   4.760
 2237SOL    HW1 7610   6.196   5.618   4.859
 2237SOL    HW2 7611   6.106   5.673   4.735
 2238SOL     OW 7612   4.706   4.708   2.795
 2238SOL    HW1 7613   4.687   4.727   2.891
 2238SOL    HW2 7614   4.643   4.760   2.737
 2239SOL     OW 7615   4.080   5.545   3.907
 2239SOL    HW1 7616   4.014   5.470   3.914
 2239SOL    HW2 7617   4.158   5.516   3.851
 2240SOL     OW 7618   3.801   5.778   2.688
 2240SOL    HW1 7619   3.746   5.715   2.634
 2240SOL    HW2 7620   3.816   5.739   2.779
 2241SOL     OW 7621   6.624   6.723   1.822
 2241SOL    HW1 7622   6.697   6.654   1.826
 2241SOL    HW2 7623   6.555   6.702   1.890
 2242SOL     OW 7624   5.447   3.075   2.863
 2242SOL    HW1 7625   5.466   3.004   2.795
 2242SOL    HW2 7626   5.382   3.141   2.826
 2243SOL     OW 7627   2.654   6.215   0.157
 2243SOL    HW1 7628   2.753   6.218   0.166
 2243SOL    HW2 7629   2.614   6.183   0.243
 2244SOL     OW 7630   3.077   0.159   1.234
 2244SOL    HW1 7631   3.137   0.154   1.154
 2244SOL    HW2 7632   2.995   0.104   1.219
 2245SOL     OW 7633   0.328   1.305   0.827
 2245SOL    HW1 7634   0.416   1.264   0.800
 2245SOL    HW2 7635   0.282   1.244   0.892
 2246SOL     OW 7636   1.861   0.358   3.723
 2246SOL    HW1 7637   1.836   0.389   3.631
 2246SOL    HW2 7638   1.901   0.435   3.774
 2247SOL     OW 7639   3.132   3.890   2.707
 2247SOL    HW1 7640   3.210   3.831   2.732
 2247SOL    HW2 7641   3.167   3.977   2.671
 2248SOL     OW 7642   6.400   4.060   4.193
 2248SOL    HW1 7643   6.379   4.060   4.290
 2248SOL    HW2 7644   6.499   4.048   4.180
 2249SOL     OW 7645   3.375   6.591   3.668
 2249SOL    HW1 7646   3.384   6.574   3.570
 2249SOL    HW2 7647   3.389   6.506   3.718
 2250SOL     OW 7648   3.617   3.890   5.587
 2250SOL    HW1 7649   3.701   3.931   5.622
 2250SOL    HW2 7650   3.616   3.896   5.488
 2251SOL     OW 7651   5.097   6.914   6.084
 2251SOL    HW1 7652   5.007   6.896   6.123
 2251SOL    HW2 7653   5.115   7.013   6.086
 2252SOL     OW 7654   5.529   1.666   3.082
 2252SOL    HW1 7655   5.447   1.648   3.027
 2252SOL    HW2 7656   5.576   1.746   3.046
 2253SOL     OW 7657   0.385   3.186   0.316
 2253SOL    HW1 7658   0.394   3.094   0.355
 2253SOL    HW2 7659   0.347   3.179   0.224
 2254SOL     OW 7660   3.617   3.783   3.260
 2254SOL    HW1 7661   3.690   3.847   3.283
 2254SOL    HW2 7662   3.618   3.766   3.162
 2255SOL     OW 7663   2.754   4.182   5.829
 2255SOL    HW1 7664   2.823   4.173   5.758
 2255SOL    HW2 7665   2.759   4.104   5.891
 2256SOL     OW 7666   4.547   6.600   2.120
 2256SOL    HW1 7667   4.458   6.611   2.163
 2256SOL    HW2 7668   4.536   6.557   2.030
 2257SOL     OW 7669   0.338   1.800   4.631
 2257SOL    HW1 7670   0.410   1.774   4.567
 2257SOL    HW2 7671   0.359   1.891   4.668
 2258SOL     OW 7672   2.510   6.266   4.108
 2258SOL    HW1 7673   2.524   6.170   4.085
 2258SOL    HW2 7674   2.501   6.319   4.024
 2259SOL     OW 7675   5.852   2.804   4.880
 2259SOL    HW1 7676   5.855   2.708   4.856
 2259SOL    HW2 7677   5.932   2.827   4.935
 2260SOL     OW 7678   1.096   3.156   1.059
 2260SOL    HW1 7679   1.107   3.229   0.991
 2260SOL    HW2 7680   1.153   3.176   1.139
 2261SOL     OW 7681   6.313   3.970   0.837
 2261SOL    HW1 7682   6.237   3.905   0.839
 2261SOL    HW2 7683   6.278   4.063   0.841
 2262SOL     OW 7684   6.528   0.931   3.397
 2262SOL    HW1 7685   6.430   0.943   3.416
 2262SOL    HW2 7686   6.565   0.861   3.458
 2263SOL     OW 7687   1.937   5.809   1.320
 2263SOL    HW1 7688   1.979   5.730   1.275
 2263SOL    HW2 7689   1.846   5.824   1.282
 2264SOL     OW 7690   2.718   6.693   6.679
 2264SOL    HW1 7691   2.731   6.785   6.715
 2264SOL    HW2 7692   2.724   6.694   6.579
 2265SOL     OW 7693   1.341   0.305   4.268
 2265SOL    HW1 7694   1.432   0.329   4.303
 2265SOL    HW2 7695   1.328   0.206   4.277
 2266SOL     OW 7696   4.993   1.464   6.219
 2266SOL    HW1 7697   5.066   1.428   6.160
 2266SOL    HW2 7698   5.002   1.563   6.228
 2267SOL     OW 7699   4.697   2.799   4.569
 2267SOL    HW1 7700   4.648   2.776   4.486
 2267SOL    HW2 7701   4.723   2.896   4.567
 2268SOL     OW 7702   6.193   3.310   6.523
 2268SOL    HW1 7703   6.138   3.383   6.483
 2268SOL    HW2 7704   6.156   3.286   6.613
 2269SOL     OW 7705   0.405   3.400   5.048
 2269SOL    HW1 7706   0.382   3.334   5.119
 2269SOL    HW2 7707   0.496   3.380   5.012
 2270SOL     OW 7708   4.300   3.160   6.322
 2270SOL    HW1 7709   4.241   3.108   6.383
 2270SOL    HW2 7710   4.281   3.258   6.333
 2271SOL     OW 7711   5.708   4.575   0.028
 2271SOL    HW1 7712   5.745   4.633   6.976
 2271SOL    HW2 7713   5.781   4.548   0.090
 2272SOL     OW 7714   6.668   1.587   6.387
 2272SOL    HW1 7715   6.704   1.617   6.475
 2272SOL    HW2 7716   6.663   1.664   6.324
 2273SOL     OW 7717   1.744   2.262   2.281
 2273SOL    HW1 7718   1.697   2.193   2.225
 2273SOL    HW2 7719   1.677   2.312   2.335
 2274SOL     OW 7720   0.647   1.882   6.751
 2274SOL    HW1 7721   0.670   1.805   6.692
 2274SOL    HW2 7722   0.573   1.935   6.710
 2275SOL     OW 7723   5.942   5.260   2.391
 2275SOL    HW1 7724   5.989   5.317   2.324
 2275SOL    HW2 7725   5.997   5.254   2.474
 2276SOL     OW 7726   1.403   6.331   1.283
 2276SOL    HW1 7727   1.468   6.401   1.255
 2276SOL    HW2 7728   1.327   6.373   1.332
 2277SOL     OW 7729   3.443   3.772   4.259
 2277SOL    HW1 7730   3.377   3.827   4.309
 2277SOL    HW2 7731   3.490   3.709   4.322
 2278SOL     OW 7732   6.746   2.896   4.026
 2278SOL    HW1 7733   6.750   2.993   4.003
 2278SOL    HW2 7734   6.680   2.882   4.100
 2279SOL     OW 7735   6.671   6.265   6.007
 2279SOL    HW1 7736   6.639   6.181   6.051
 2279SOL    HW2 7737   6.770   6.263   5.997
 2280SOL     OW 7738   6.388   0.596   4.963
 2280SOL    HW1 7739   6.319   0.645   4.910
 2280SOL    HW2 7740   6.469   0.654   4.975
 2281SOL     OW 7741   4.395   0.735   1.756
 2281SOL    HW1 7742   4.341   0.743   1.672
 2281SOL    HW2 7743   4.457   0.813   1.763
 2282SOL     OW 7744   4.731   6.212   5.524
 2282SOL    HW1 7745   4.643   6.238   5.483
 2282SOL    HW2 7746   4.774   6.293   5.564
 2283SOL     OW 7747   1.691   0.422   2.259
 2283SOL    HW1 7748   1.711   0.484   2.335
 2283SOL    HW2 7749   1.777   0.384   2.224
 2284SOL     OW 7750   0.817   3.545   5.651
 2284SOL    HW1 7751   0.833   3.489   5.570
 2284SOL    HW2 7752   0.855   3.499   5.731
 2285SOL     OW 7753   1.126   3.373   0.135
 2285SOL    HW1 7754   1.030   3.395   0.120
 2285SOL    HW2 7755   1.170   3.355   0.046
 2286SOL     OW 7756   5.268   6.745   3.152
 2286SOL    HW1 7757   5.240   6.689   3.230
 2286SOL    HW2 7758   5.282   6.840   3.182
 2287SOL     OW 7759   2.686   1.148   3.455
 2287SOL    HW1 7760   2.668   1.237   3.412
 2287SOL    HW2 7761   2.645   1.146   3.546
 2288SOL     OW 7762   0.680   5.514   3.855
 2288SOL    HW1 7763   0.647   5.530   3.948
 2288SOL    HW2 7764   0.778   5.536   3.850
 2289SOL     OW 7765   6.726   4.573   1.280
 2289SOL    HW1 7766   6.658   4.500   1.273
 2289SOL    HW2 7767   6.762   4.576   1.374
 2290SOL     OW 7768   0.875   4.335   1.073
 2290SOL    HW1 7769   0.783   4.371   1.091
 2290SOL    HW2 7770   0.934   4.410   1.043
 2291SOL     OW 7771   3.056   1.985   5.763
 2291SOL    HW1 7772   3.049   2.006   5.666
 2291SOL    HW2 7773   3.103   2.060   5.810
 2292SOL     OW 7774   1.329   1.484   4.999
 2292SOL    HW1 7775   1.246   1.445   5.039
 2292SOL    HW2 7776   1.410   1.444   5.043
 2293SOL     OW 7777   5.712   5.783   1.849
 2293SOL    HW1 7778   5.747   5.816   1.936
 2293SOL    HW2 7779   5.663   5.697   1.862
 2294SOL     OW 7780   3.718   6.693   0.735
 2294SOL    HW1 7781   3.779   6.726   0.806
 2294SOL    HW2 7782   3.764   6.697   0.646
 2295SOL     OW 7783   0.527   1.837   2.430
 2295SOL    HW1 7784   0.446   1.815   2.485
 2295SOL    HW2 7785   0.609   1.826   2.485
 2296SOL     OW 7786   3.414   6.852   0.785
 2296SOL    HW1 7787   3.473   6.858   0.866
 2296SOL    HW2 7788   3.463   6.805   0.712
 2297SOL     OW 7789   3.902   4.236   5.519
 2297SOL    HW1 7790   3.953   4.313   5.481
 2297SOL    HW2 7791   3.921   4.154   5.465
 2298SOL     OW 7792   3.503   2.467   1.103
 2298SOL    HW1 7793   3.487   2.565   1.117
 2298SOL    HW2 7794   3.448   2.435   1.025
 2299SOL     OW 7795   5.490   6.921   6.947
 2299SOL    HW1 7796   5.565   6.949   6.887
 2299SOL    HW2 7797   5.524   6.907   0.020
 2300SOL     OW 7798   1.571   5.381   1.602
 2300SOL    HW1 7799   1.637   5.385   1.526
 2300SOL    HW2 7800   1.617   5.408   1.687
 2301SOL     OW 7801   2.987   3.583   3.081
 2301SOL    HW1 7802   3.085   3.565   3.090
 2301SOL    HW2 7803   2.967   3.617   2.989
 2302SOL     OW 7804   4.331   6.682   2.535
 2302SOL    HW1 7805   4.260   6.709   2.600
 2302SOL    HW2 7806   4.373   6.596   2.564
 2303SOL     OW 7807   1.335   3.601   5.251
 2303SOL    HW1 7808   1.319   3.626   5.347
 2303SOL    HW2 7809   1.363   3.505   5.245
 2304SOL     OW 7810   2.678   0.581   3.807
 2304SOL    HW1 7811   2.593   0.634   3.800
 2304SOL    HW2 7812   2.756   0.643   3.811
 2305SOL     OW 7813   3.853   5.742   2.953
 2305SOL    HW1 7814   3.892   5.654   2.926
 2305SOL    HW2 7815   3.807   5.732   3.042
 2306SOL     OW 7816   2.419   5.536   1.651
 2306SOL    HW1 7817   2.362   5.616   1.631
 2306SOL    HW2 7818   2.514   5.558   1.628
 2307SOL     OW 7819   2.075   4.358   2.862
 2307SOL    HW1 7820   2.151   4.294   2.871
 2307SOL    HW2 7821   2.111   4.450   2.849
 2308SOL     OW 7822   0.958   0.581   6.340
 2308SOL    HW1 7823   1.020   0.659   6.351
 2308SOL    HW2 7824   0.931   0.573   6.244
 2309SOL     OW 7825   2.819   6.425   0.300
 2309SOL    HW1 7826   2.767   6.506   0.324
 2309SOL    HW2 7827   2.827   6.419   0.200
 2310SOL     OW 7828   6.477   6.677   1.057
 2310SOL    HW1 7829   6.490   6.772   1.031
 2310SOL    HW2 7830   6.460   6.671   1.156
 2311SOL     OW 7831   2.594   6.996   2.485
 2311SOL    HW1 7832   2.612   6.939   2.566
 2311SOL    HW2 7833   2.502   6.977   2.451
 2312SOL     OW 7834   2.874   6.682   3.391
 2312SOL    HW1 7835   2.878   6.600   3.333
 2312SOL    HW2 7836   2.818   6.752   3.346
 2313SOL     OW 7837   4.274   5.139   1.907
 2313SOL    HW1 7838   4.251   5.042   1.903
 2313SOL    HW2 7839   4.336   5.162   1.832
 2314SOL     OW 7840   5.688   0.596   3.204
 2314SOL    HW1 7841   5.653   0.629   3.291
 2314SOL    HW2 7842   5.788   0.602   3.204
 2315SOL     OW 7843   5.280   3.426   5.452
 2315SOL    HW1 7844   5.303   3.410   5.357
 2315SOL    HW2 7845   5.321   3.355   5.509
 2316SOL     OW 7846   2.486   1.456   5.472
 2316SOL    HW1 7847   2.506   1.472   5.375
 2316SOL    HW2 7848   2.478   1.358   5.489
 2317SOL     OW 7849   6.506   6.528   3.639
 2317SOL    HW1 7850   6.587   6.568   3.684
 2317SOL    HW2 7851   6.433   6.517   3.706
 2318SOL     OW 7852   2.010   3.408   4.304
 2318SOL    HW1 7853   2.067   3.364   4.234
 2318SOL    HW2 7854   2.041   3.379   4.395
 2319SOL     OW 7855   3.473   5.316   4.712
 2319SOL    HW1 7856   3.397   5.258   4.742
 2319SOL    HW2 7857   3.548   5.308   4.777
 2320SOL     OW 7858   1.400   2.453   5.418
 2320SOL    HW1 7859   1.420   2.516   5.493
 2320SOL    HW2 7860   1.342   2.379   5.451
 2321SOL     OW 7861   2.628   5.488   6.233
 2321SOL    HW1 7862   2.617   5.547   6.153
 2321SOL    HW2 7863   2.563   5.413   6.228
 2322SOL     OW 7864   1.854   4.367   2.220
 2322SOL    HW1 7865   1.919   4.340   2.149
 2322SOL    HW2 7866   1.773   4.409   2.178
 2323SOL     OW 7867   3.287   4.789   1.890
 2323SOL    HW1 7868   3.374   4.755   1.925
 2323SOL    HW2 7869   3.268   4.747   1.802
 2324SOL     OW 7870   6.674   5.623   0.824
 2324SOL    HW1 7871   6.601   5.688   0.800
 2324SOL    HW2 7872   6.749   5.632   0.759
 2325SOL     OW 7873   0.078   4.677   1.377
 2325SOL    HW1 7874   0.094   4.607   1.307
 2325SOL    HW2 7875   7.000   4.679   1.399
 2326SOL     OW 7876   1.404   6.084   6.371
 2326SOL    HW1 7877   1.466   6.091   6.293
 2326SOL    HW2 7878   1.457   6.073   6.455
 2327SOL     OW 7879   0.398   1.423   3.434
 2327SOL    HW1 7880   0.387   1.353   3.363
 2327SOL    HW2 7881   0.318   1.484   3.434
 2328SOL     OW 7882   1.607   2.004   2.598
 2328SOL    HW1 7883   1.562   2.089   2.570
 2328SOL    HW2 7884   1.681   2.025   2.662
 2329SOL     OW 7885   0.819   4.636   4.574
 2329SOL    HW1 7886   0.770   4.584   4.504
 2329SOL    HW2 7887   0.916   4.641   4.550
 2330SOL     OW 7888   0.394   2.777   0.718
 2330SOL    HW1 7889   0.479   2.729   0.744
 2330SOL    HW2 7890   0.327   2.710   0.685
 2331SOL     OW 7891   3.137   5.441   6.803
 2331SOL    HW1 7892   3.223   5.483   6.773
 2331SOL    HW2 7893   3.070   5.448   6.729
 2332SOL     OW 7894   0.066   6.975   5.694
 2332SOL    HW1 7895   0.007   7.019   5.762
 2332SOL    HW2 7896   0.085   0.020   5.620
 2333SOL     OW 7897   0.072   5.096   2.800
 2333SOL    HW1 7898   0.143   5.110   2.870
 2333SOL    HW2 7899   7.002   5.101   2.842
 2334SOL     OW 7900   1.298   1.320   6.892
 2334SOL    HW1 7901   1.392   1.344   6.914
 2334SOL    HW2 7902   1.240   1.401   6.896
 2335SOL     OW 7903   5.766   0.241   3.715
 2335SOL    HW1 7904   5.823   0.176   3.663
 2335SOL    HW2 7905   5.683   0.261   3.664
 2336SOL     OW 7906   3.124   1.226   4.338
 2336SOL    HW1 7907   3.185   1.176   4.277
 2336SOL    HW2 7908   3.165   1.231   4.429
 2337SOL     OW 7909   4.018   0.715   1.888
 2337SOL    HW1 7910   4.059   0.680   1.803
 2337SOL    HW2 7911   4.047   0.657   1.964
 2338SOL     OW 7912   0.899   3.304   4.225
 2338SOL    HW1 7913   0.852   3.266   4.306
 2338SOL    HW2 7914   0.975   3.362   4.255
 2339SOL     OW 7915   3.113   3.946   3.458
 2339SOL    HW1 7916   3.204   3.940   3.417
 2339SOL    HW2 7917   3.044   3.919   3.391
 2340SOL     OW 7918   0.725   4.585   6.877
 2340SOL    HW1 7919   0.704   4.496   6.836
 2340SOL    HW2 7920   0.807   4.576   6.934
 2341SOL     OW 7921   2.741   4.845   1.996
 2341SOL    HW1 7922   2.770   4.758   1.957
 2341SOL    HW2 7923   2.794   4.919   1.955
 2342SOL     OW 7924   1.775   0.079   4.935
 2342SOL    HW1 7925   1.753   0.158   4.878
 2342SOL    HW2 7926   1.866   0.091   4.976
 2343SOL     OW 7927   1.697   5.267   2.715
 2343SOL    HW1 7928   1.655   5.232   2.798
 2343SOL    HW2 7929   1.631   5.322   2.664
 2344SOL     OW 7930   0.269   5.704   6.830
 2344SOL    HW1 7931   0.339   5.650   6.877
 2344SOL    HW2 7932   0.198   5.731   6.896
 2345SOL     OW 7933   2.486   5.650   4.691
 2345SOL    HW1 7934   2.560   5.666   4.625
 2345SOL    HW2 7935   2.411   5.603   4.646
 2346SOL     OW 7936   3.813   3.153   5.689
 2346SOL    HW1 7937   3.767   3.235   5.655
 2346SOL    HW2 7938   3.767   3.121   5.772
 2347SOL     OW 7939   2.592   1.939   1.468
 2347SOL    HW1 7940   2.497   1.918   1.491
 2347SOL    HW2 7941   2.600   2.037   1.448
 2348SOL     OW 7942   1.528   6.190   3.621
 2348SOL    HW1 7943   1.513   6.263   3.554
 2348SOL    HW2 7944   1.622   6.158   3.613
 2349SOL     OW 7945   0.952   4.753   6.104
 2349SOL    HW1 7946   1.007   4.825   6.060
 2349SOL    HW2 7947   0.878   4.725   6.043
 2350SOL     OW 7948   6.000   5.161   5.819
 2350SOL    HW1 7949   5.957   5.168   5.728
 2350SOL    HW2 7950   6.072   5.092   5.816
 2351SOL     OW 7951   3.294   4.892   4.234
 2351SOL    HW1 7952   3.378   4.880   4.288
 2351SOL    HW2 7953   3.218   4.912   4.295
 2352SOL     OW 7954   0.522   3.198   2.665
 2352SOL    HW1 7955   0.543   3.155   2.577
 2352SOL    HW2 7956   0.510   3.127   2.735
 2353SOL     OW 7957   3.501   5.004   4.398
 2353SOL    HW1 7958   3.523   5.046   4.310
 2353SOL    HW2 7959   3.586   4.985   4.448
 2354SOL     OW 7960   2.399   1.998   4.279
 2354SOL    HW1 7961   2.493   1.967   4.288
 2354SOL    HW2 7962   2.360   1.964   4.194
 2355SOL     OW 7963   1.840   6.646   5.828
 2355SOL    HW1 7964   1.935   6.657   5.798
 2355SOL    HW2 7965   1.785   6.723   5.796
 2356SOL     OW 7966   1.330   3.073   6.220
 2356SOL    HW1 7967   1.252   3.129   6.247
 2356SOL    HW2 7968   1.408   3.131   6.198
 2357SOL     OW 7969   4.359   0.646   2.257
 2357SOL    HW1 7970   4.453   0.651   2.289
 2357SOL    HW2 7971   4.357   0.615   2.162
 2358SOL     OW 7972   3.154   5.357   5.436
 2358SOL    HW1 7973   3.230   5.421   5.430
 2358SOL    HW2 7974   3.085   5.381   5.368
 2359SOL     OW 7975   0.165   0.572   5.261
 2359SOL    HW1 7976   0.196   0.625   5.182
 2359SOL    HW2 7977   0.149   0.633   5.338
 2360SOL     OW 7978   5.681   3.503   6.902
 2360SOL    HW1 7979   5.689   3.536   6.808
 2360SOL    HW2 7980   5.670   3.580   6.964
 2361SOL     OW 7981   2.266   0.496   6.584
 2361SOL    HW1 7982   2.310   0.583   6.605
 2361SOL    HW2 7983   2.214   0.504   6.499
 2362SOL     OW 7984   2.515   5.970   4.066
 2362SOL    HW1 7985   2.417   5.978   4.049
 2362SOL    HW2 7986   2.530   5.926   4.154
 2363SOL     OW 7987   3.752   2.067   4.454
 2363SOL    HW1 7988   3.659   2.098   4.478
 2363SOL    HW2 7989   3.798   2.139   4.403
 2364SOL     OW 7990   0.731   2.707   2.114
 2364SOL    HW1 7991   0.787   2.723   2.033
 2364SOL    HW2 7992   0.725   2.609   2.132
 2365SOL     OW 7993   6.680   2.575   6.728
 2365SOL    HW1 7994   6.764   2.545   6.774
 2365SOL    HW2 7995   6.624   2.627   6.792
 2366SOL     OW 7996   2.061   5.656   6.853
 2366SOL    HW1 7997   2.114   5.721   6.798
 2366SOL    HW2 7998   1.992   5.706   6.905
 2367SOL     OW 7999   2.168   3.710   1.281
 2367SOL    HW1 8000   2.236   3.652   1.236
 2367SOL    HW2 8001   2.077   3.684   1.249
 2368SOL     OW 8002   5.469   6.605   4.458
 2368SOL    HW1 8003   5.449   6.530   4.394
 2368SOL    HW2 8004   5.498   6.567   4.546
 2369SOL     OW 8005   1.682   0.642   4.462
 2369SOL    HW1 8006   1.688   0.651   4.561
 2369SOL    HW2 8007   1.649   0.728   4.423
 2370SOL     OW 8008   5.578   3.145   0.076
 2370SOL    HW1 8009   5.533   3.227   0.040
 2370SOL    HW2 8010   5.609   3.088   0.000
 2371SOL     OW 8011   1.551   6.851   1.652
 2371SOL    HW1 8012   1.498   6.889   1.577
 2371SOL    HW2 8013   1.629   6.911   1.673
 2372SOL     OW 8014   6.757   2.887   2.035
 2372SOL    HW1 8015   6.705   2.871   2.119
 2372SOL    HW2 8016   6.825   2.959   2.052
 2373SOL     OW 8017   0.514   3.123   5.628
 2373SOL    HW1 8018   0.611   3.098   5.619
 2373SOL    HW2 8019   0.504   3.195   5.697
 2374SOL     OW 8020   6.251   1.692   4.220
 2374SOL    HW1 8021   6.161   1.734   4.228
 2374SOL    HW2 8022   6.300   1.734   4.143
 2375SOL     OW 8023   3.467   6.193   4.871
 2375SOL    HW1 8024   3.523   6.149   4.800
 2375SOL    HW2 8025   3.525   6.220   4.948
 2376SOL     OW 8026   6.406   3.242   4.133
 2376SOL    HW1 8027   6.462   3.325   4.128
 2376SOL    HW2 8028   6.444   3.172   4.074
 2377SOL     OW 8029   3.817   4.090   4.041
 2377SOL    HW1 8030   3.797   4.188   4.030
 2377SOL    HW2 8031   3.807   4.065   4.137
 2378SOL     OW 8032   4.909   1.455   0.476
 2378SOL    HW1 8033   4.987   1.513   0.457
 2378SOL    HW2 8034   4.825   1.510   0.476
 2379SOL     OW 8035   0.266   1.122   0.469
 2379SOL    HW1 8036   0.366   1.132   0.468
 2379SOL    HW2 8037   0.230   1.141   0.378
 2380SOL     OW 8038   0.127   2.144   6.458
 2380SOL    HW1 8039   0.163   2.227   6.416
 2380SOL    HW2 8040   0.099   2.163   6.552
 2381SOL     OW 8041   1.817   5.409   4.329
 2381SOL    HW1 8042   1.878   5.481   4.364
 2381SOL    HW2 8043   1.789   5.351   4.405
 2382SOL     OW 8044   2.144   3.600   4.626
 2382SOL    HW1 8045   2.124   3.510   4.589
 2382SOL    HW2 8046   2.116   3.603   4.722
 2383SOL     OW 8047   5.072   6.591   0.922
 2383SOL    HW1 8048   5.135   6.584   1.000
 2383SOL    HW2 8049   5.107   6.657   0.857
 2384SOL     OW 8050   5.997   0.836   2.778
 2384SOL    HW1 8051   5.939   0.820   2.698
 2384SOL    HW2 8052   5.940   0.844   2.859
 2385SOL     OW 8053   1.110   0.569   0.178
 2385SOL    HW1 8054   1.155   0.506   0.115
 2385SOL    HW2 8055   1.024   0.529   0.209
 2386SOL     OW 8056   5.727   6.278   4.697
 2386SOL    HW1 8057   5.670   6.360   4.699
 2386SOL    HW2 8058   5.669   6.196   4.698
 2387SOL     OW 8059   1.460   1.721   4.174
 2387SOL    HW1 8060   1.486   1.817   4.160
 2387SOL    HW2 8061   1.477   1.696   4.270
 2388SOL     OW 8062   0.375   1.994   3.938
 2388SOL    HW1 8063   0.353   1.939   3.858
 2388SOL    HW2 8064   0.429   2.074   3.910
 2389SOL     OW 8065   4.560   4.434   3.227
 2389SOL    HW1 8066   4.599   4.346   3.257
 2389SOL    HW2 8067   4.627   4.506   3.243
 2390SOL     OW 8068   3.962   3.064   3.449
 2390SOL    HW1 8069   3.927   3.007   3.375
 2390SOL    HW2 8070   3.890   3.129   3.478
 2391SOL     OW 8071   5.417   3.873   5.798
 2391SOL    HW1 8072   5.420   3.782   5.755
 2391SOL    HW2 8073   5.353   3.931   5.748
 2392SOL     OW 8074   3.685   6.302   5.314
 2392SOL    HW1 8075   3.748   6.225   5.321
 2392SOL    HW2 8076   3.591   6.269   5.306
 2393SOL     OW 8077   5.571   3.849   6.025
 2393SOL    HW1 8078   5.544   3.876   5.933
 2393SOL    HW2 8079   5.521   3.904   6.092
 2394SOL     OW 8080   0.996   4.297   4.814
 2394SOL    HW1 8081   1.067   4.302   4.743
 2394SOL    HW2 8082   0.923   4.361   4.793
 2395SOL     OW 8083   5.272   0.930   5.784
 2395SOL    HW1 8084   5.310   0.846   5.824
 2395SOL    HW2 8085   5.180   0.945   5.819
 2396SOL     OW 8086   3.801   5.064   0.806
 2396SOL    HW1 8087   3.795   5.124   0.727
 2396SOL    HW2 8088   3.752   5.106   0.883
 2397SOL     OW 8089   0.205   3.773   5.646
 2397SOL    HW1 8090   0.131   3.751   5.710
 2397SOL    HW2 8091   0.213   3.873   5.638
 2398SOL     OW 8092   4.318   4.499   6.763
 2398SOL    HW1 8093   4.410   4.482   6.797
 2398SOL    HW2 8094   4.321   4.513   6.664
 2399SOL     OW 8095   4.552   0.506   1.336
 2399SOL    HW1 8096   4.464   0.543   1.307
 2399SOL    HW2 8097   4.596   0.459   1.260
 2400SOL     OW 8098   2.661   4.321   1.120
 2400SOL    HW1 8099   2.621   4.347   1.209
 2400SOL    HW2 8100   2.760   4.318   1.128
 2401SOL     OW 8101   5.210   6.713   6.764
 2401SOL    HW1 8102   5.287   6.676   6.710
 2401SOL    HW2 8103   5.127   6.710   6.708
 2402SOL     OW 8104   0.360   0.509   3.877
 2402SOL    HW1 8105   0.392   0.597   3.842
 2402SOL    HW2 8106   0.371   0.439   3.806
 2403SOL     OW 8107   1.757   2.131   6.481
 2403SOL    HW1 8108   1.679   2.107   6.424
 2403SOL    HW2 8109   1.745   2.091   6.572
 2404SOL     OW 8110   2.490   0.708   0.830
 2404SOL    HW1 8111   2.532   0.642   0.768
 2404SOL    HW2 8112   2.435   0.773   0.778
 2405SOL     OW 8113   3.316   3.638   2.209
 2405SOL    HW1 8114   3.280   3.707   2.146
 2405SOL    HW2 8115   3.340   3.681   2.296
 2406SOL     OW 8116   3.163   0.369   1.670
 2406SOL    HW1 8117   3.117   0.372   1.760
 2406SOL    HW2 8118   3.099   0.334   1.602
 2407SOL     OW 8119   5.725   1.842   3.032
 2407SOL    HW1 8120   5.745   1.938   3.013
 2407SOL    HW2 8121   5.735   1.825   3.130
 2408SOL     OW 8122   4.398   4.640   3.346
 2408SOL    HW1 8123   4.456   4.566   3.310
 2408SOL    HW2 8124   4.401   4.638   3.446
 2409SOL     OW 8125   2.552   4.891   1.688
 2409SOL    HW1 8126   2.631   4.831   1.683
 2409SOL    HW2 8127   2.574   4.980   1.649
 2410SOL     OW 8128   4.181   3.028   5.323
 2410SOL    HW1 8129   4.138   3.013   5.412
 2410SOL    HW2 8130   4.280   3.018   5.332
 2411SOL     OW 8131   4.969   5.974   4.624
 2411SOL    HW1 8132   5.058   5.937   4.649
 2411SOL    HW2 8133   4.938   6.037   4.695
 2412SOL     OW 8134   5.929   4.240   1.175
 2412SOL    HW1 8135   5.864   4.218   1.248
 2412SOL    HW2 8136   5.983   4.159   1.153
 2413SOL     OW 8137   6.541   1.222   0.960
 2413SOL    HW1 8138   6.591   1.223   1.046
 2413SOL    HW2 8139   6.599   1.258   0.887
 2414SOL     OW 8140   4.735   4.613   3.308
 2414SOL    HW1 8141   4.775   4.614   3.399
 2414SOL    HW2 8142   4.760   4.697   3.260
 2415SOL     OW 8143   6.273   1.651   3.114
 2415SOL    HW1 8144   6.303   1.708   3.039
 2415SOL    HW2 8145   6.262   1.556   3.083
 2416SOL     OW 8146   4.873   2.541   4.564
 2416SOL    HW1 8147   4.856   2.442   4.564
 2416SOL    HW2 8148   4.792   2.589   4.598
 2417SOL     OW 8149   3.665   3.644   4.949
 2417SOL    HW1 8150   3.686   3.562   5.002
 2417SOL    HW2 8151   3.736   3.713   4.965
 2418SOL     OW 8152   3.466   3.311   4.737
 2418SOL    HW1 8153   3.501   3.397   4.700
 2418SOL    HW2 8154   3.498   3.300   4.831
 2419SOL     OW 8155   6.671   6.767   4.372
 2419SOL    HW1 8156   6.757   6.774   4.422
 2419SOL    HW2 8157   6.664   6.842   4.306
 2420SOL     OW 8158   3.373   0.507   3.220
 2420SOL    HW1 8159   3.407   0.537   3.309
 2420SOL    HW2 8160   3.420   0.558   3.148
 2421SOL     OW 8161   2.302   2.278   4.906
 2421SOL    HW1 8162   2.377   2.339   4.933
 2421SOL    HW2 8163   2.327   2.230   4.821
 2422SOL     OW 8164   5.331   1.764   0.653
 2422SOL    HW1 8165   5.418   1.784   0.609
 2422SOL    HW2 8166   5.345   1.745   0.750
 2423SOL     OW 8167   1.490   5.922   2.575
 2423SOL    HW1 8168   1.522   5.959   2.662
 2423SOL    HW2 8169   1.391   5.939   2.566
 2424SOL     OW 8170   6.672   6.647   6.675
 2424SOL    HW1 8171   6.621   6.590   6.611
 2424SOL    HW2 8172   6.611   6.682   6.746
 2425SOL     OW 8173   5.764   0.408   3.924
 2425SOL    HW1 8174   5.776   0.345   4.001
 2425SOL    HW2 8175   5.758   0.355   3.839
 2426SOL     OW 8176   1.125   5.444   5.478
 2426SOL    HW1 8177   1.034   5.444   5.437
 2426SOL    HW2 8178   1.159   5.537   5.484
 2427SOL     OW 8179   5.124   5.993   5.481
 2427SOL    HW1 8180   5.114   6.019   5.577
 2427SOL    HW2 8181   5.038   5.954   5.448
 2428SOL     OW 8182   0.529   0.769   2.408
 2428SOL    HW1 8183   0.599   0.840   2.418
 2428SOL    HW2 8184   0.480   0.782   2.322
 2429SOL     OW 8185   5.882   5.533   1.957
 2429SOL    HW1 8186   5.914   5.439   1.962
 2429SOL    HW2 8187   5.948   5.593   2.003
 2430SOL     OW 8188   6.425   1.323   1.998
 2430SOL    HW1 8189   6.493   1.379   2.044
 2430SOL    HW2 8190   6.406   1.242   2.053
 2431SOL     OW 8191   4.076   0.301   2.167
 2431SOL    HW1 8192   4.111   0.214   2.131
 2431SOL    HW2 8193   4.079   0.298   2.267
 2432SOL     OW 8194   4.316   6.951   2.456
 2432SOL    HW1 8195   4.372   0.013   2.441
 2432SOL    HW2 8196   4.375   6.877   2.489
 2433SOL     OW 8197   4.452   1.872   0.287
 2433SOL    HW1 8198   4.404   1.875   0.374
 2433SOL    HW2 8199   4.542   1.914   0.297
 2434SOL     OW 8200   4.253   1.635   6.097
 2434SOL    HW1 8201   4.263   1.656   6.000
 2434SOL    HW2 8202   4.336   1.590   6.130
 2435SOL     OW 8203   5.154   5.731   5.384
 2435SOL    HW1 8204   5.135   5.757   5.290
 2435SOL    HW2 8205   5.214   5.799   5.427
 2436SOL     OW 8206   1.702   5.689   6.117
 2436SOL    HW1 8207   1.614   5.736   6.125
 2436SOL    HW2 8208   1.732   5.660   6.208
 2437SOL     OW 8209   6.141   6.975   6.634
 2437SOL    HW1 8210   6.057   6.967   6.689
 2437SOL    HW2 8211   6.120   6.958   6.538
 2438SOL     OW 8212   3.014   2.195   0.478
 2438SOL    HW1 8213   3.006   2.246   0.563
 2438SOL    HW2 8214   2.990   2.254   0.401
 2439SOL     OW 8215   0.763   3.972   6.354
 2439SOL    HW1 8216   0.689   3.972   6.286
 2439SOL    HW2 8217   0.744   4.041   6.424
 2440SOL     OW 8218   4.762   5.586   5.860
 2440SOL    HW1 8219   4.775   5.659   5.793
 2440SOL    HW2 8220   4.665   5.574   5.880
 2441SOL     OW 8221   6.911   2.751   0.603
 2441SOL    HW1 8222   6.833   2.804   0.569
 2441SOL    HW2 8223   6.892   2.721   0.696
 2442SOL     OW 8224   1.049   3.876   5.844
 2442SOL    HW1 8225   1.095   3.965   5.846
 2442SOL    HW2 8226   0.968   3.882   5.786
 2443SOL     OW 8227   3.037   4.093   6.198
 2443SOL    HW1 8228   3.087   4.018   6.155
 2443SOL    HW2 8229   3.074   4.180   6.169
 2444SOL     OW 8230   2.925   4.672   6.241
 2444SOL    HW1 8231   2.943   4.574   6.242
 2444SOL    HW2 8232   2.844   4.691   6.186
 2445SOL     OW 8233   0.424   0.689   0.964
 2445SOL    HW1 8234   0.509   0.711   1.013
 2445SOL    HW2 8235   0.416   0.590   0.953
 2446SOL     OW 8236   6.304   4.052   4.450
 2446SOL    HW1 8237   6.214   4.058   4.406
 2446SOL    HW2 8238   6.320   4.135   4.504
 2447SOL     OW 8239   1.716   2.189   0.044
 2447SOL    HW1 8240   1.816   2.181   0.051
 2447SOL    HW2 8241   1.676   2.183   0.136
 2448SOL     OW 8242   0.182   0.399   4.568
 2448SOL    HW1 8243   0.187   0.369   4.473
 2448SOL    HW2 8244   0.259   0.361   4.619
 2449SOL     OW 8245   0.426   3.598   6.993
 2449SOL    HW1 8246   0.356   3.605   0.044
 2449SOL    HW2 8247   0.382   3.596   6.903
 2450SOL     OW 8248   2.597   4.679   2.760
 2450SOL    HW1 8249   2.531   4.738   2.714
 2450SOL    HW2 8250   2.690   4.703   2.733
 2451SOL     OW 8251   2.076   6.868   4.195
 2451SOL    HW1 8252   2.071   6.795   4.127
 2451SOL    HW2 8253   2.170   6.900   4.203
 2452SOL     OW 8254   1.419   3.748   2.708
 2452SOL    HW1 8255   1.402   3.774   2.803
 2452SOL    HW2 8256   1.482   3.670   2.705
 2453SOL     OW 8257   6.379   4.391   1.518
 2453SOL    HW1 8258   6.322   4.359   1.442
 2453SOL    HW2 8259   6.341   4.358   1.604
 2454SOL     OW 8260   3.365   0.703   2.195
 2454SOL    HW1 8261   3.435   0.764   2.158
 2454SOL    HW2 8262   3.295   0.686   2.126
 2455SOL     OW 8263   5.382   5.250   1.180
 2455SOL    HW1 8264   5.306   5.279   1.121
 2455SOL    HW2 8265   5.372   5.292   1.270
 2456SOL     OW 8266   5.188   6.629   1.738
 2456SOL    HW1 8267   5.217   6.700   1.674
 2456SOL    HW2 8268   5.194   6.540   1.694
 2457SOL     OW 8269   5.817   6.925   0.551
 2457SOL    HW1 8270   5.912   6.948   0.569
 2457SOL    HW2 8271   5.794   6.838   0.593
 2458SOL     OW 8272   2.155   6.049   3.106
 2458SOL    HW1 8273   2.184   6.144   3.113
 2458SOL    HW2 8274   2.236   5.990   3.100
 2459SOL     OW 8275   2.310   0.248   0.814
 2459SOL    HW1 8276   2.303   0.268   0.912
 2459SOL    HW2 8277   2.401   0.214   0.793
 2460SOL     OW 8278   3.011   6.136   2.226
 2460SOL    HW1 8279   2.973   6.116   2.136
 2460SOL    HW2 8280   3.074   6.063   2.252
 2461SOL     OW 8281   5.443   0.558   2.060
 2461SOL    HW1 8282   5.437   0.478   2.119
 2461SOL    HW2 8283   5.491   0.632   2.108
 2462SOL     OW 8284   2.437   5.241   6.678
 2462SOL    HW1 8285   2.471   5.171   6.615
 2462SOL    HW2 8286   2.501   5.250   6.755
 2463SOL     OW 8287   6.459   1.994   3.233
 2463SOL    HW1 8288   6.503   1.984   3.322
 2463SOL    HW2 8289   6.498   1.927   3.169
 2464SOL     OW 8290   1.218   3.265   1.266
 2464SOL    HW1 8291   1.191   3.249   1.361
 2464SOL    HW2 8292   1.293   3.331   1.264
 2465SOL     OW 8293   0.295   6.121   2.014
 2465SOL    HW1 8294   0.313   6.026   1.991
 2465SOL    HW2 8295   0.199   6.142   1.995
 2466SOL     OW 8296   4.011   1.634   2.665
 2466SOL    HW1 8297   4.100   1.671   2.692
 2466SOL    HW2 8298   3.952   1.627   2.746
 2467SOL     OW 8299   6.866   0.867   5.888
 2467SOL    HW1 8300   6.777   0.895   5.923
 2467SOL    HW2 8301   6.854   0.790   5.824
 2468SOL     OW 8302   6.773   6.005   1.308
 2468SOL    HW1 8303   6.841   6.077   1.322
 2468SOL    HW2 8304   6.814   5.916   1.328
 2469SOL     OW 8305   2.585   3.231   5.542
 2469SOL    HW1 8306   2.655   3.186   5.596
 2469SOL    HW2 8307   2.588   3.198   5.448
 2470SOL     OW 8308   4.302   3.689   6.756
 2470SOL    HW1 8309   4.242   3.611   6.775
 2470SOL    HW2 8310   4.338   3.681   6.663
 2471SOL     OW 8311   0.603   6.786   3.126
 2471SOL    HW1 8312   0.667   6.859   3.150
 2471SOL    HW2 8313   0.510   6.815   3.147
 2472SOL     OW 8314   5.810   2.520   4.383
 2472SOL    HW1 8315   5.825   2.531   4.481
 2472SOL    HW2 8316   5.888   2.559   4.333
 2473SOL     OW 8317   0.973   5.851   4.907
 2473SOL    HW1 8318   0.939   5.924   4.847
 2473SOL    HW2 8319   0.933   5.764   4.881
 2474SOL     OW 8320   6.454   4.668   5.071
 2474SOL    HW1 8321   6.485   4.736   5.137
 2474SOL    HW2 8322   6.359   4.688   5.044
 2475SOL     OW 8323   3.799   2.777   0.472
 2475SOL    HW1 8324   3.863   2.712   0.432
 2475SOL    HW2 8325   3.805   2.774   0.572
 2476SOL     OW 8326   0.870   2.109   3.452
 2476SOL    HW1 8327   0.836   2.167   3.526
 2476SOL    HW2 8328   0.833   2.017   3.463
 2477SOL     OW 8329   5.130   4.840   1.469
 2477SOL    HW1 8330   5.122   4.915   1.404
 2477SOL    HW2 8331   5.189   4.768   1.431
 2478SOL     OW 8332   5.826   6.952   2.642
 2478SOL    HW1 8333   5.891   6.977   2.570
 2478SOL    HW2 8334   5.742   6.916   2.600
 2479SOL     OW 8335   0.802   2.629   0.482
 2479SOL    HW1 8336   0.854   2.711   0.458
 2479SOL    HW2 8337   0.856   2.548   0.460
 2480SOL     OW 8338   0.989   3.593   1.171
 2480SOL    HW1 8339   0.899   3.564   1.138
 2480SOL    HW2 8340   0.999   3.567   1.267
 2481SOL     OW 8341   4.193   5.052   2.371
 2481SOL    HW1 8342   4.264   5.084   2.309
 2481SOL    HW2 8343   4.103   5.076   2.334
 2482SOL     OW 8344   5.066   2.737   4.720
 2482SOL    HW1 8345   5.021   2.695   4.642
 2482SOL    HW2 8346   5.015   2.819   4.748
 2483SOL     OW 8347   1.048   1.873   6.933
 2483SOL    HW1 8348   0.963   1.834   6.970
 2483SOL    HW2 8349   1.036   1.971   6.919
 2484SOL     OW 8350   3.082   1.641   0.028
 2484SOL    HW1 8351   3.043   1.694   0.104
 2484SOL    HW2 8352   3.106   1.550   0.061
 2485SOL     OW 8353   0.171   5.332   2.180
 2485SOL    HW1 8354   0.227   5.408   2.211
 2485SOL    HW2 8355   0.080   5.339   2.220
 2486SOL     OW 8356   1.440   5.374   3.138
 2486SOL    HW1 8357   1.359   5.422   3.173
 2486SOL    HW2 8358   1.509   5.441   3.110
 2487SOL     OW 8359   3.722   0.192   0.934
 2487SOL    HW1 8360   3.822   0.202   0.930
 2487SOL    HW2 8361   3.681   0.281   0.955
 2488SOL     OW 8362   3.267   5.402   1.090
 2488SOL    HW1 8363   3.354   5.394   1.139
 2488SOL    HW2 8364   3.240   5.498   1.086
 2489SOL     OW 8365   1.385   5.719   4.642
 2489SOL    HW1 8366   1.345   5.665   4.568
 2489SOL    HW2 8367   1.438   5.660   4.702
 2490SOL     OW 8368   5.737   3.537   1.461
 2490SOL    HW1 8369   5.828   3.500   1.444
 2490SOL    HW2 8370   5.737   3.587   1.548
 2491SOL     OW 8371   2.968   5.413   2.535
 2491SOL    HW1 8372   2.928   5.326   2.563
 2491SOL    HW2 8373   2.918   5.488   2.579
 2492SOL     OW 8374   5.009   3.221   6.751
 2492SOL    HW1 8375   5.094   3.219   6.804
 2492SOL    HW2 8376   5.008   3.303   6.693
 2493SOL     OW 8377   6.051   1.779   3.199
 2493SOL    HW1 8378   6.122   1.720   3.161
 2493SOL    HW2 8379   6.089   1.869   3.217
 2494SOL     OW 8380   4.821   2.837   2.579
 2494SOL    HW1 8381   4.776   2.817   2.666
 2494SOL    HW2 8382   4.788   2.773   2.509
 2495SOL     OW 8383   5.481   1.089   5.014
 2495SOL    HW1 8384   5.574   1.054   5.013
 2495SOL    HW2 8385   5.418   1.017   5.043
 2496SOL     OW 8386   1.334   6.597   0.170
 2496SOL    HW1 8387   1.271   6.519   0.173
 2496SOL    HW2 8388   1.303   6.661   0.099
 2497SOL     OW 8389   6.444   1.630   6.763
 2497SOL    HW1 8390   6.443   1.545   6.711
 2497SOL    HW2 8391   6.492   1.615   6.850
 2498SOL     OW 8392   1.873   3.095   4.921
 2498SOL    HW1 8393   1.938   3.145   4.978
 2498SOL    HW2 8394   1.896   3.109   4.825
 2499SOL     OW 8395   5.930   0.512   4.830
 2499SOL    HW1 8396   5.831   0.519   4.844
 2499SOL    HW2 8397   5.977   0.565   4.901
 2500SOL     OW 8398   4.795   3.197   0.113
 2500SOL    HW1 8399   4.750   3.257   0.047
 2500SOL    HW2 8400   4.799   3.104   0.076
 2501SOL     OW 8401   6.941   4.230   0.400
 2501SOL    HW1 8402   6.883   4.184   0.467
 2501SOL    HW2 8403   0.010   4.184   0.395
 2502SOL     OW 8404   2.410   6.549   3.104
 2502SOL    HW1 8405   2.319   6.587   3.087
 2502SOL    HW2 8406   2.476   6.593   3.043
 2503SOL     OW 8407   4.208   5.097   5.367
 2503SOL    HW1 8408   4.274   5.171   5.381
 2503SOL    HW2 8409   4.163   5.076   5.454
 2504SOL     OW 8410   1.766   4.634   3.976
 2504SOL    HW1 8411   1.787   4.580   4.058
 2504SOL    HW2 8412   1.695   4.700   3.997
 2505SOL     OW 8413   4.558   5.533   4.415
 2505SOL    HW1 8414   4.464   5.503   4.433
 2505SOL    HW2 8415   4.564   5.572   4.323
 2506SOL     OW 8416   6.971   2.419   6.515
 2506SOL    HW1 8417   6.974   2.398   6.418
 2506SOL    HW2 8418   6.938   2.513   6.528
 2507SOL     OW 8419   6.536   6.167   0.104
 2507SOL    HW1 8420   6.530   6.100   0.030
 2507SOL    HW2 8421   6.474   6.141   0.178
 2508SOL     OW 8422   2.419   2.484   2.601
 2508SOL    HW1 8423   2.414   2.554   2.529
 2508SOL    HW2 8424   2.452   2.399   2.562
 2509SOL     OW 8425   4.830   2.894   3.745
 2509SOL    HW1 8426   4.807   2.950   3.824
 2509SOL    HW2 8427   4.770   2.813   3.743
 2510SOL     OW 8428   3.702   5.627   0.290
 2510SOL    HW1 8429   3.769   5.583   0.351
 2510SOL    HW2 8430   3.674   5.562   0.219
 2511SOL     OW 8431   1.193   0.811   4.777
 2511SOL    HW1 8432   1.251   0.829   4.698
 2511SOL    HW2 8433   1.156   0.718   4.771
 2512SOL     OW 8434   5.197   3.645   5.278
 2512SOL    HW1 8435   5.202   3.557   5.325
 2512SOL    HW2 8436   5.181   3.717   5.345
 2513SOL     OW 8437   0.671   3.239   0.629
 2513SOL    HW1 8438   0.573   3.238   0.614
 2513SOL    HW2 8439   0.699   3.154   0.674
 2514SOL     OW 8440   1.242   0.543   3.602
 2514SOL    HW1 8441   1.339   0.524   3.588
 2514SOL    HW2 8442   1.232   0.614   3.672
 2515SOL     OW 8443   0.636   5.735   0.461
 2515SOL    HW1 8444   0.576   5.708   0.386
 2515SOL    HW2 8445   0.728   5.699   0.445
 2516SOL     OW 8446   5.473   6.416   3.788
 2516SOL    HW1 8447   5.400   6.348   3.791
 2516SOL    HW2 8448   5.456   6.481   3.714
 2517SOL     OW 8449   2.210   4.759   0.112
 2517SOL    HW1 8450   2.167   4.740   0.023
 2517SOL    HW2 8451   2.258   4.678   0.143
 2518SOL     OW 8452   2.353   2.527   6.887
 2518SOL    HW1 8453   2.384   2.565   6.800
 2518SOL    HW2 8454   2.256   2.502   6.879
 2519SOL     OW 8455   4.806   4.826   4.725
 2519SOL    HW1 8456   4.762   4.818   4.814
 2519SOL    HW2 8457   4.897   4.867   4.737
 2520SOL     OW 8458   2.292   4.098   2.023
 2520SOL    HW1 8459   2.316   4.190   2.054
 2520SOL    HW2 8460   2.367   4.035   2.045
 2521SOL     OW 8461   5.196   6.540   5.390
 2521SOL    HW1 8462   5.144   6.525   5.306
 2521SOL    HW2 8463   5.261   6.465   5.403
 2522SOL     OW 8464   1.202   3.336   4.599
 2522SOL    HW1 8465   1.202   3.258   4.662
 2522SOL    HW2 8466   1.155   3.311   4.514
 2523SOL     OW 8467   0.919   3.497   6.840
 2523SOL    HW1 8468   0.986   3.532   6.905
 2523SOL    HW2 8469   0.827   3.524   6.870
 2524SOL     OW 8470   1.177   6.516   4.304
 2524SOL    HW1 8471   1.238   6.595   4.296
 2524SOL    HW2 8472   1.204   6.446   4.238
 2525SOL     OW 8473   1.004   3.564   3.945
 2525SOL    HW1 8474   0.933   3.584   4.013
 2525SOL    HW2 8475   1.094   3.581   3.984
 2526SOL     OW 8476   6.496   1.452   4.583
 2526SOL    HW1 8477   6.423   1.477   4.519
 2526SOL    HW2 8478   6.488   1.508   4.665
 2527SOL     OW 8479   5.689   6.578   3.568
 2527SOL    HW1 8480   5.750   6.633   3.511
 2527SOL    HW2 8481   5.654   6.501   3.515
 2528SOL     OW 8482   6.561   5.421   0.294
 2528SOL    HW1 8483   6.481   5.365   0.272
 2528SOL    HW2 8484   6.550   5.459   0.386
 2529SOL     OW 8485   4.980   3.910   4.640
 2529SOL    HW1 8486   4.960   3.891   4.736
 2529SOL    HW2 8487   5.060   3.969   4.634
 2530SOL     OW 8488   0.430   0.755   3.737
 2530SOL    HW1 8489   0.401   0.845   3.770
 2530SOL    HW2 8490   0.479   0.765   3.651
 2531SOL     OW 8491   3.698   1.862   6.367
 2531SOL    HW1 8492   3.725   1.915   6.447
 2531SOL    HW2 8493   3.670   1.770   6.396
 2532SOL     OW 8494   1.378   4.751   6.609
 2532SOL    HW1 8495   1.287   4.711   6.617
 2532SOL    HW2 8496   1.426   4.743   6.697
 2533SOL     OW 8497   5.402   6.750   6.057
 2533SOL    HW1 8498   5.469   6.810   6.100
 2533SOL    HW2 8499   5.374   6.789   5.969
 2534SOL     OW 8500   1.057   1.328   3.612
 2534SOL    HW1 8501   1.005   1.262   3.667
 2534SOL    HW2 8502   1.091   1.283   3.529
 2535SOL     OW 8503   2.008   1.541   3.288
 2535SOL    HW1 8504   1.914   1.558   3.316
 2535SOL    HW2 8505   2.019   1.445   3.264
 2536SOL     OW 8506   5.967   0.795   4.068
 2536SOL    HW1 8507   6.036   0.767   4.002
 2536SOL    HW2 8508   5.889   0.835   4.020
 2537SOL     OW 8509   4.843   5.620   1.169
 2537SOL    HW1 8510   4.855   5.526   1.137
 2537SOL    HW2 8511   4.752   5.652   1.145
 2538SOL     OW 8512   2.307   4.783   4.860
 2538SOL    HW1 8513   2.389   4.809   4.810
 2538SOL    HW2 8514   2.318   4.803   4.957
 2539SOL     OW 8515   3.426   0.078   5.254
 2539SOL    HW1 8516   3.488   0.098   5.179
 2539SOL    HW2 8517   3.354   0.148   5.258
 2540SOL     OW 8518   5.455   2.033   2.420
 2540SOL    HW1 8519   5.552   2.023   2.445
 2540SOL    HW2 8520   5.433   2.129   2.410
 2541SOL     OW 8521   0.770   6.375   5.910
 2541SOL    HW1 8522   0.783   6.371   5.811
 2541SOL    HW2 8523   0.696   6.438   5.932
 2542SOL     OW 8524   3.401   1.852   4.280
 2542SOL    HW1 8525   3.328   1.835   4.346
 2542SOL    HW2 8526   3.413   1.950   4.267
 2543SOL     OW 8527   0.426   1.988   3.389
 2543SOL    HW1 8528   0.387   1.899   3.412
 2543SOL    HW2 8529   0.377   2.025   3.309
 2544SOL     OW 8530   6.582   5.062   1.497
 2544SOL    HW1 8531   6.657   5.128   1.489
 2544SOL    HW2 8532   6.507   5.089   1.437
 2545SOL     OW 8533   0.469   1.668   1.560
 2545SOL    HW1 8534   0.524   1.702   1.637
 2545SOL    HW2 8535   0.452   1.571   1.571
 2546SOL     OW 8536   0.250   4.002   2.441
 2546SOL    HW1 8537   0.260   4.050   2.354
 2546SOL    HW2 8538   0.160   4.023   2.481
 2547SOL     OW 8539   5.945   3.564   1.159
 2547SOL    HW1 8540   6.000   3.647   1.168
 2547SOL    HW2 8541   5.931   3.524   1.250
 2548SOL     OW 8542   6.832   6.985   5.121
 2548SOL    HW1 8543   6.846   6.940   5.033
 2548SOL    HW2 8544   6.921   7.002   5.164
 2549SOL     OW 8545   2.523   2.445   0.765
 2549SOL    HW1 8546   2.525   2.389   0.848
 2549SOL    HW2 8547   2.617   2.458   0.732
 2550SOL     OW 8548   4.264   0.216   6.217
 2550SOL    HW1 8549   4.281   0.134   6.272
 2550SOL    HW2 8550   4.324   0.216   6.137
 2551SOL     OW 8551   3.190   5.673   0.245
 2551SOL    HW1 8552   3.278   5.720   0.257
 2551SOL    HW2 8553   3.153   5.696   0.155
 2552SOL     OW 8554   2.441   6.106   1.052
 2552SOL    HW1 8555   2.420   6.170   1.126
 2552SOL    HW2 8556   2.372   6.033   1.052
 2553SOL     OW 8557   4.512   1.287   7.010
 2553SOL    HW1 8558   4.519   1.319   6.915
 2553SOL    HW2 8559   4.416   1.273   0.013
 2554SOL     OW 8560   1.250   5.806   1.462
 2554SOL    HW1 8561   1.201   5.830   1.546
 2554SOL    HW2 8562   1.224   5.870   1.389
 2555SOL     OW 8563   5.421   5.874   5.112
 2555SOL    HW1 8564   5.475   5.952   5.144
 2555SOL    HW2 8565   5.458   5.789   5.150
 2556SOL     OW 8566   3.865   0.093   1.292
 2556SOL    HW1 8567   3.856   0.124   1.197
 2556SOL    HW2 8568   3.853   7.014   1.295
 2557SOL     OW 8569   3.418   0.241   6.979
 2557SOL    HW1 8570   3.324   0.228   6.948
 2557SOL    HW2 8571   3.471   0.284   6.907
 2558SOL     OW 8572   5.981   3.792   6.333
 2558SOL    HW1 8573   5.894   3.758   6.298
 2558SOL    HW2 8574   6.047   3.799   6.258
 2559SOL     OW 8575   1.045   4.715   4.279
 2559SOL    HW1 8576   1.072   4.694   4.373
 2559SOL    HW2 8577   1.002   4.806   4.276
 2560SOL     OW 8578   5.008   1.828   3.314
 2560SOL    HW1 8579   5.041   1.877   3.394
 2560SOL    HW2 8580   5.084   1.777   3.272
 2561SOL     OW 8581   3.758   0.862   4.405
 2561SOL    HW1 8582   3.814   0.805   4.345
 2561SOL    HW2 8583   3.703   0.803   4.465
 2562SOL     OW 8584   3.329   6.918   3.342
 2562SOL    HW1 8585   3.277   7.002   3.326
 2562SOL    HW2 8586   3.272   6.852   3.392
 2563SOL     OW 8587   3.825   1.326   0.159
 2563SOL    HW1 8588   3.778   1.301   0.244
 2563SOL    HW2 8589   3.758   1.339   0.086
 2564SOL     OW 8590   1.411   1.373   0.634
 2564SOL    HW1 8591   1.417   1.372   0.734
 2564SOL    HW2 8592   1.404   1.279   0.600
 2565SOL     OW 8593   1.236   2.353   6.940
 2565SOL    HW1 8594   1.177   2.327   6.863
 2565SOL    HW2 8595   1.332   2.345   6.911
 2566SOL     OW 8596   2.091   0.888   1.078
 2566SOL    HW1 8597   2.184   0.919   1.093
 2566SOL    HW2 8598   2.036   0.903   1.160
 2567SOL     OW 8599   1.685   0.238   0.312
 2567SOL    HW1 8600   1.586   0.239   0.329
 2567SOL    HW2 8601   1.732   0.190   0.386
 2568SOL     OW 8602   2.713   6.340   1.197
 2568SOL    HW1 8603   2.708   6.437   1.222
 2568SOL    HW2 8604   2.767   6.330   1.114
 2569SOL     OW 8605   0.780   0.457   1.362
 2569SOL    HW1 8606   0.754   0.380   1.421
 2569SOL    HW2 8607   0.841   0.518   1.412
 2570SOL     OW 8608   5.591   6.895   6.182
 2570SOL    HW1 8609   5.662   6.958   6.153
 2570SOL    HW2 8610   5.633   6.812   6.220
 2571SOL     OW 8611   3.253   3.173   4.797
 2571SOL    HW1 8612   3.336   3.215   4.759
 2571SOL    HW2 8613   3.229   3.092   4.742
 2572SOL     OW 8614   1.855   6.589   2.059
 2572SOL    HW1 8615   1.869   6.593   1.960
 2572SOL    HW2 8616   1.844   6.494   2.088
 2573SOL     OW 8617   0.004   2.306   4.515
 2573SOL    HW1 8618   0.082   2.364   4.492
 2573SOL    HW2 8619   0.014   2.218   4.470
 2574SOL     OW 8620   1.004   3.834   1.714
 2574SOL    HW1 8621   1.004   3.908   1.646
 2574SOL    HW2 8622   0.944   3.760   1.683
 2575SOL     OW 8623   6.493   3.825   0.544
 2575SOL    HW1 8624   6.556   3.834   0.466
 2575SOL    HW2 8625   6.401   3.850   0.516
 2576SOL     OW 8626   1.847   6.859   3.327
 2576SOL    HW1 8627   1.767   6.914   3.350
 2576SOL    HW2 8628   1.826   6.798   3.251
 2577SOL     OW 8629   2.318   6.077   2.618
 2577SOL    HW1 8630   2.266   6.099   2.535
 2577SOL    HW2 8631   2.296   5.984   2.648
 2578SOL     OW 8632   5.050   2.639   4.355
 2578SOL    HW1 8633   5.018   2.588   4.434
 2578SOL    HW2 8634   5.150   2.644   4.356
 2579SOL     OW 8635   6.890   2.566   6.912
 2579SOL    HW1 8636   6.978   2.597   6.875
 2579SOL    HW2 8637   6.863   2.625   6.987
 2580SOL     OW 8638   1.662   2.637   6.823
 2580SOL    HW1 8639   1.570   2.651   6.786
 2580SOL    HW2 8640   1.710   2.725   6.826
 2581SOL     OW 8641   6.276   6.724   3.136
 2581SOL    HW1 8642   6.219   6.644   3.152
 2581SOL    HW2 8643   6.371   6.695   3.121
 2582SOL     OW 8644   0.623   5.508   2.308
 2582SOL    HW1 8645   0.643   5.516   2.210
 2582SOL    HW2 8646   0.706   5.523   2.361
 2583SOL     OW 8647   1.557   6.936   0.221
 2583SOL    HW1 8648   1.468   6.959   0.181
 2583SOL    HW2 8649   1.544   6.869   0.294
 2584SOL     OW 8650   4.073   6.408   1.523
 2584SOL    HW1 8651   4.031   6.400   1.614
 2584SOL    HW2 8652   4.104   6.502   1.509
 2585SOL     OW 8653   3.652   0.456   0.999
 2585SOL    HW1 8654   3.667   0.481   1.095
 2585SOL    HW2 8655   3.639   0.539   0.945
 2586SOL     OW 8656   6.666   2.086   3.967
 2586SOL    HW1 8657   6.684   2.133   3.881
 2586SOL    HW2 8658   6.599   2.013   3.952
 2587SOL     OW 8659   5.820   6.326   3.498
 2587SOL    HW1 8660   5.786   6.305   3.590
 2587SOL    HW2 8661   5.912   6.288   3.487
 2588SOL     OW 8662   5.669   0.773   1.297
 2588SOL    HW1 8663   5.703   0.703   1.359
 2588SOL    HW2 8664   5.744   0.831   1.266
 2589SOL     OW 8665   6.475   6.129   6.223
 2589SOL    HW1 8666   6.380   6.151   6.202
 2589SOL    HW2 8667   6.488   6.130   6.322
 2590SOL     OW 8668   4.443   0.266   2.874
 2590SOL    HW1 8669   4.510   0.221   2.934
 2590SOL    HW2 8670   4.408   0.348   2.919
 2591SOL     OW 8671   5.451   6.647   1.410
 2591SOL    HW1 8672   5.469   6.574   1.475
 2591SOL    HW2 8673   5.524   6.650   1.341
 2592SOL     OW 8674   3.824   5.376   1.866
 2592SOL    HW1 8675   3.754   5.378   1.795
 2592SOL    HW2 8676   3.795   5.434   1.943
 2593SOL     OW 8677   3.062   6.514   2.534
 2593SOL    HW1 8678   3.064   6.416   2.555
 2593SOL    HW2 8679   2.976   6.537   2.489
 2594SOL     OW 8680   0.416   6.507   6.354
 2594SOL    HW1 8681   0.356   6.463   6.420
 2594SOL    HW2 8682   0.496   6.449   6.337
 2595SOL     OW 8683   6.070   3.501   4.502
 2595SOL    HW1 8684   6.131   3.557   4.446
 2595SOL    HW2 8685   5.979   3.501   4.461
 2596SOL     OW 8686   3.797   2.051   2.202
 2596SOL    HW1 8687   3.781   1.953   2.186
 2596SOL    HW2 8688   3.750   2.104   2.132
 2597SOL     OW 8689   2.225   3.641   0.458
 2597SOL    HW1 8690   2.321   3.624   0.435
 2597SOL    HW2 8691   2.179   3.684   0.380
 2598SOL     OW 8692   6.485   3.403   3.465
 2598SOL    HW1 8693   6.547   3.347   3.409
 2598SOL    HW2 8694   6.522   3.409   3.558
 2599SOL     OW 8695   3.434   5.531   0.077
 2599SOL    HW1 8696   3.501   5.458   0.091
 2599SOL    HW2 8697   3.344   5.500   0.105
 2600SOL     OW 8698   5.800   3.372   3.164
 2600SOL    HW1 8699   5.787   3.326   3.252
 2600SOL    HW2 8700   5.898   3.381   3.145
 2601SOL     OW 8701   3.757   3.494   6.289
 2601SOL    HW1 8702   3.759   3.518   6.386
 2601SOL    HW2 8703   3.688   3.550   6.243
 2602SOL     OW 8704   6.429   5.209   3.648
 2602SOL    HW1 8705   6.346   5.238   3.601
 2602SOL    HW2 8706   6.406   5.138   3.715
 2603SOL     OW 8707   2.732   1.990   1.192
 2603SOL    HW1 8708   2.666   1.952   1.257
 2603SOL    HW2 8709   2.758   2.082   1.221
 2604SOL     OW 8710   5.593   0.138   1.131
 2604SOL    HW1 8711   5.677   0.111   1.083
 2604SOL    HW2 8712   5.557   0.060   1.182
 2605SOL     OW 8713   4.368   5.029   4.918
 2605SOL    HW1 8714   4.364   4.946   4.974
 2605SOL    HW2 8715   4.275   5.057   4.893
 2606SOL     OW 8716   0.055   4.286   0.737
 2606SOL    HW1 8717   0.052   4.187   0.751
 2606SOL    HW2 8718   0.137   4.309   0.684
 2607SOL     OW 8719   0.726   0.526   3.649
 2607SOL    HW1 8720   0.806   0.586   3.652
 2607SOL    HW2 8721   0.656   0.566   3.589
 2608SOL     OW 8722   5.066   0.491   1.321
 2608SOL    HW1 8723   4.994   0.545   1.365
 2608SOL    HW2 8724   5.142   0.479   1.384
 2609SOL     OW 8725   0.850   2.090   2.390
 2609SOL    HW1 8726   0.886   2.026   2.323
 2609SOL    HW2 8727   0.755   2.112   2.368
 2610SOL     OW 8728   6.023   6.203   4.869
 2610SOL    HW1 8729   5.960   6.218   4.945
 2610SOL    HW2 8730   5.992   6.124   4.815
 2611SOL     OW 8731   4.818   6.534   1.527
 2611SOL    HW1 8732   4.767   6.488   1.454
 2611SOL    HW2 8733   4.769   6.616   1.556
 2612SOL     OW 8734   5.526   6.396   3.045
 2612SOL    HW1 8735   5.444   6.452   3.058
 2612SOL    HW2 8736   5.501   6.300   3.033
 2613SOL     OW 8737   3.866   0.323   1.989
 2613SOL    HW1 8738   3.791   0.359   2.045
 2613SOL    HW2 8739   3.950   0.322   2.042
 2614SOL     OW 8740   6.956   6.603   6.124
 2614SOL    HW1 8741   6.931   6.599   6.027
 2614SOL    HW2 8742   6.884   6.649   6.175
 2615SOL     OW 8743   4.821   5.438   2.635
 2615SOL    HW1 8744   4.729   5.436   2.595
 2615SOL    HW2 8745   4.887   5.400   2.570
 2616SOL     OW 8746   3.991   3.144   2.863
 2616SOL    HW1 8747   4.054   3.193   2.924
 2616SOL    HW2 8748   3.897   3.158   2.893
 2617SOL     OW 8749   3.661   6.403   1.424
 2617SOL    HW1 8750   3.736   6.394   1.489
 2617SOL    HW2 8751   3.616   6.314   1.413
 2618SOL     OW 8752   0.864   0.286   0.785
 2618SOL    HW1 8753   0.787   0.243   0.833
 2618SOL    HW2 8754   0.923   0.215   0.745
 2619SOL     OW 8755   4.341   1.940   2.033
 2619SOL    HW1 8756   4.273   2.012   2.047
 2619SOL    HW2 8757   4.331   1.870   2.103
 2620SOL     OW 8758   1.159   4.947   3.770
 2620SOL    HW1 8759   1.110   5.020   3.723
 2620SOL    HW2 8760   1.249   4.935   3.729
 2621SOL     OW 8761   0.638   5.491   3.562
 2621SOL    HW1 8762   0.683   5.564   3.510
 2621SOL    HW2 8763   0.665   5.498   3.658
 2622SOL     OW 8764   2.407   2.789   6.967
 2622SOL    HW1 8765   2.408   2.807   0.045
 2622SOL    HW2 8766   2.371   2.697   6.950
 2623SOL     OW 8767   3.336   0.922   5.934
 2623SOL    HW1 8768   3.337   0.935   6.033
 2623SOL    HW2 8769   3.392   0.993   5.891
 2624SOL     OW 8770   5.882   2.420   3.448
 2624SOL    HW1 8771   5.917   2.451   3.360
 2624SOL    HW2 8772   5.887   2.494   3.515
 2625SOL     OW 8773   2.789   2.543   6.061
 2625SOL    HW1 8774   2.881   2.507   6.075
 2625SOL    HW2 8775   2.783   2.586   5.971
 2626SOL     OW 8776   1.951   6.369   3.113
 2626SOL    HW1 8777   1.893   6.304   3.162
 2626SOL    HW2 8778   2.041   6.372   3.157
 2627SOL     OW 8779   6.652   0.088   4.233
 2627SOL    HW1 8780   6.610   0.104   4.323
 2627SOL    HW2 8781   6.748   0.065   4.246
 2628SOL     OW 8782   3.975   6.252   6.866
 2628SOL    HW1 8783   3.928   6.336   6.892
 2628SOL    HW2 8784   3.930   6.173   6.907
 2629SOL     OW 8785   3.785   4.344   1.395
 2629SOL    HW1 8786   3.823   4.252   1.385
 2629SOL    HW2 8787   3.730   4.348   1.479
 2630SOL     OW 8788   3.330   2.106   2.580
 2630SOL    HW1 8789   3.242   2.138   2.543
 2630SOL    HW2 8790   3.386   2.072   2.505
 2631SOL     OW 8791   4.447   6.528   3.862
 2631SOL    HW1 8792   4.363   6.535   3.916
 2631SOL    HW2 8793   4.480   6.433   3.864
 2632SOL     OW 8794   3.496   2.275   0.325
 2632SOL    HW1 8795   3.579   2.233   0.288
 2632SOL    HW2 8796   3.454   2.213   0.391
 2633SOL     OW 8797   6.031   2.399   6.634
 2633SOL    HW1 8798   6.106   2.460   6.657
 2633SOL    HW2 8799   5.944   2.440   6.664
 2634SOL     OW 8800   2.221   4.254   1.570
 2634SOL    HW1 8801   2.181   4.280   1.482
 2634SOL    HW2 8802   2.235   4.155   1.572
 2635SOL     OW 8803   5.323   4.553   5.075
 2635SOL    HW1 8804   5.386   4.627   5.052
 2635SOL    HW2 8805   5.274   4.524   4.993
 2636SOL     OW 8806   4.661   0.279   5.550
 2636SOL    HW1 8807   4.658   0.350   5.620
 2636SOL    HW2 8808   4.754   0.270   5.514
 2637SOL     OW 8809   5.459   6.104   3.035
 2637SOL    HW1 8810   5.524   6.050   3.088
 2637SOL    HW2 8811   5.371   6.108   3.082
 2638SOL     OW 8812   5.754   5.764   0.901
 2638SOL    HW1 8813   5.749   5.740   0.804
 2638SOL    HW2 8814   5.762   5.680   0.955
 2639SOL     OW 8815   6.124   6.164   1.121
 2639SOL    HW1 8816   6.184   6.219   1.179
 2639SOL    HW2 8817   6.148   6.067   1.131
 2640SOL     OW 8818   6.820   6.448   5.361
 2640SOL    HW1 8819   6.782   6.537   5.334
 2640SOL    HW2 8820   6.899   6.427   5.303
 2641SOL     OW 8821   4.965   4.032   6.722
 2641SOL    HW1 8822   5.044   3.977   6.748
 2641SOL    HW2 8823   4.889   4.013   6.785
 2642SOL     OW 8824   5.104   0.452   3.732
 2642SOL    HW1 8825   5.062   0.369   3.770
 2642SOL    HW2 8826   5.052   0.481   3.652
 2643SOL     OW 8827   7.003   0.113   2.840
 2643SOL    HW1 8828   6.936   0.040   2.851
 2643SOL    HW2 8829   6.967   0.198   2.878
 2644SOL     OW 8830   0.296   4.735   6.037
 2644SOL    HW1 8831   0.370   4.750   5.971
 2644SOL    HW2 8832   0.227   4.807   6.026
 2645SOL     OW 8833   5.384   6.189   6.140
 2645SOL    HW1 8834   5.459   6.163   6.202
 2645SOL    HW2 8835   5.363   6.112   6.080
 2646SOL     OW 8836   0.053   0.189   6.143
 2646SOL    HW1 8837   0.118   0.179   6.218
 2646SOL    HW2 8838   0.030   0.285   6.131
 2647SOL     OW 8839   4.294   1.853   1.312
 2647SOL    HW1 8840   4.323   1.944   1.341
 2647SOL    HW2 8841   4.217   1.862   1.248
 2648SOL     OW 8842   5.745   0.171   2.175
 2648SOL    HW1 8843   5.664   0.187   2.119
 2648SOL    HW2 8844   5.745   0.077   2.209
 2649SOL     OW 8845   3.285   1.763   6.155
 2649SOL    HW1 8846   3.266   1.714   6.070
 2649SOL    HW2 8847   3.217   1.833   6.169
 2650SOL     OW 8848   0.220   5.699   3.111
 2650SOL    HW1 8849   0.157   5.623   3.122
 2650SOL    HW2 8850   0.254   5.727   3.201
 2651SOL     OW 8851   0.021   1.484   1.814
 2651SOL    HW1 8852   0.068   1.495   1.726
 2651SOL    HW2 8853   0.046   1.558   1.875
 2652SOL     OW 8854   3.152   3.008   3.499
 2652SOL    HW1 8855   3.105   3.096   3.500
 2652SOL    HW2 8856   3.127   2.958   3.416
 2653SOL     OW 8857   5.976   6.572   6.156
 2653SOL    HW1 8858   6.023   6.626   6.086
 2653SOL    HW2 8859   6.022   6.585   6.244
 2654SOL     OW 8860   4.953   2.512   5.864
 2654SOL    HW1 8861   4.858   2.506   5.835
 2654SOL    HW2 8862   4.965   2.461   5.950
 2655SOL     OW 8863   4.777   6.352   4.626
 2655SOL    HW1 8864   4.858   6.367   4.569
 2655SOL    HW2 8865   4.793   6.389   4.718
 2656SOL     OW 8866   5.438   3.383   3.583
 2656SOL    HW1 8867   5.458   3.441   3.504
 2656SOL    HW2 8868   5.474   3.426   3.666
 2657SOL     OW 8869   1.967   4.267   6.812
 2657SOL    HW1 8870   1.952   4.307   6.902
 2657SOL    HW2 8871   1.997   4.172   6.823
 2658SOL     OW 8872   6.215   4.434   5.781
 2658SOL    HW1 8873   6.255   4.376   5.710
 2658SOL    HW2 8874   6.215   4.529   5.750
 2659SOL     OW 8875   6.918   2.623   4.460
 2659SOL    HW1 8876   6.931   2.684   4.538
 2659SOL    HW2 8877   6.999   2.627   4.402
 2660SOL     OW 8878   6.290   2.155   2.624
 2660SOL    HW1 8879   6.232   2.165   2.705
 2660SOL    HW2 8880   6.245   2.199   2.546
 2661SOL     OW 8881   3.753   5.929   1.206
 2661SOL    HW1 8882   3.814   5.974   1.141
 2661SOL    HW2 8883   3.807   5.885   1.278
 2662SOL     OW 8884   3.948   6.876   4.544
 2662SOL    HW1 8885   4.041   6.909   4.530
 2662SOL    HW2 8886   3.951   6.787   4.591
 2663SOL     OW 8887   2.046   4.584   2.306
 2663SOL    HW1 8888   2.112   4.517   2.339
 2663SOL    HW2 8889   1.965   4.536   2.273
 2664SOL     OW 8890   3.999   3.858   2.814
 2664SOL    HW1 8891   3.950   3.900   2.890
 2664SOL    HW2 8892   4.042   3.773   2.845
 2665SOL     OW 8893   3.486   1.274   5.234
 2665SOL    HW1 8894   3.500   1.175   5.226
 2665SOL    HW2 8895   3.459   1.296   5.328
 2666SOL     OW 8896   5.308   4.211   0.898
 2666SOL    HW1 8897   5.339   4.300   0.865
 2666SOL    HW2 8898   5.267   4.222   0.989
 2667SOL     OW 8899   2.038   5.948   4.824
 2667SOL    HW1 8900   2.104   5.985   4.757
 2667SOL    HW2 8901   1.946   5.951   4.785
 2668SOL     OW 8902   6.759   3.262   5.387
 2668SOL    HW1 8903   6.802   3.172   5.385
 2668SOL    HW2 8904   6.662   3.252   5.412
 2669SOL     OW 8905   4.140   5.177   5.628
 2669SOL    HW1 8906   4.120   5.256   5.571
 2669SOL    HW2 8907   4.207   5.202   5.698
 2670SOL     OW 8908   0.892   1.208   6.892
 2670SOL    HW1 8909   0.827   1.284   6.896
 2670SOL    HW2 8910   0.949   1.208   6.974
 2671SOL     OW 8911   2.486   3.485   6.628
 2671SOL    HW1 8912   2.441   3.524   6.548
 2671SOL    HW2 8913   2.568   3.436   6.600
 2672SOL     OW 8914   2.128   5.383   0.221
 2672SOL    HW1 8915   2.149   5.288   0.198
 2672SOL    HW2 8916   2.183   5.444   0.165
 2673SOL     OW 8917   3.965   2.070   3.228
 2673SOL    HW1 8918   3.985   2.121   3.144
 2673SOL    HW2 8919   3.891   2.005   3.210
 2674SOL     OW 8920   0.001   5.341   4.612
 2674SOL    HW1 8921   0.091   5.348   4.569
 2674SOL    HW2 8922   6.950   5.331   4.542
 2675SOL     OW 8923   0.393   4.515   5.593
 2675SOL    HW1 8924   0.356   4.587   5.534
 2675SOL    HW2 8925   0.388   4.427   5.545
 2676SOL     OW 8926   4.864   1.424   1.638
 2676SOL    HW1 8927   4.783   1.368   1.621
 2676SOL    HW2 8928   4.881   1.430   1.737
 2677SOL     OW 8929   2.000   4.488   1.391
 2677SOL    HW1 8930   2.037   4.416   1.333
 2677SOL    HW2 8931   1.921   4.452   1.442
 2678SOL     OW 8932   1.058   5.161   6.135
 2678SOL    HW1 8933   1.053   5.259   6.152
 2678SOL    HW2 8934   1.055   5.112   6.222
 2679SOL     OW 8935   3.303   5.189   0.655
 2679SOL    HW1 8936   3.326   5.264   0.592
 2679SOL    HW2 8937   3.376   5.121   0.655
 2680SOL     OW 8938   2.102   1.432   1.207
 2680SOL    HW1 8939   2.192   1.467   1.180
 2680SOL    HW2 8940   2.034   1.458   1.139
 2681SOL     OW 8941   1.535   2.993   3.969
 2681SOL    HW1 8942   1.492   3.025   3.884
 2681SOL    HW2 8943   1.618   3.046   3.987
 2682SOL     OW 8944   5.165   2.981   2.463
 2682SOL    HW1 8945   5.220   3.058   2.494
 2682SOL    HW2 8946   5.183   2.964   2.366
 2683SOL     OW 8947   0.851   5.746   1.250
 2683SOL    HW1 8948   0.878   5.823   1.309
 2683SOL    HW2 8949   0.895   5.756   1.161
 2684SOL     OW 8950   2.819   6.646   2.815
 2684SOL    HW1 8951   2.901   6.703   2.806
 2684SOL    HW2 8952   2.842   6.561   2.862
 2685SOL     OW 8953   4.895   5.870   4.941
 2685SOL    HW1 8954   4.840   5.879   5.023
 2685SOL    HW2 8955   4.934   5.959   4.916
 2686SOL     OW 8956   2.221   2.928   3.937
 2686SOL    HW1 8957   2.267   2.871   4.006
 2686SOL    HW2 8958   2.163   2.870   3.880
 2687SOL     OW 8959   3.961   5.574   2.448
 2687SOL    HW1 8960   3.869   5.557   2.413
 2687SOL    HW2 8961   4.023   5.592   2.371
 2688SOL     OW 8962   4.780   4.650   6.318
 2688SOL    HW1 8963   4.722   4.713   6.265
 2688SOL    HW2 8964   4.833   4.702   6.385
 2689SOL     OW 8965   0.837   2.283   3.671
 2689SOL    HW1 8966   0.750   2.316   3.634
 2689SOL    HW2 8967   0.821   2.244   3.762
 2690SOL     OW 8968   4.069   3.300   3.831
 2690SOL    HW1 8969   4.120   3.364   3.889
 2690SOL    HW2 8970   4.043   3.220   3.885
 2691SOL     OW 8971   1.513   5.673   2.416
 2691SOL    HW1 8972   1.520   5.751   2.479
 2691SOL    HW2 8973   1.476   5.703   2.329
 2692SOL     OW 8974   0.022   6.025   3.199
 2692SOL    HW1 8975   6.994   5.991   3.280
 2692SOL    HW2 8976   0.021   5.954   3.128
 2693SOL     OW 8977   2.175   3.542   3.780
 2693SOL    HW1 8978   2.201   3.494   3.864
 2693SOL    HW2 8979   2.202   3.638   3.786
 2694SOL     OW 8980   2.568   6.686   2.942
 2694SOL    HW1 8981   2.559   6.761   3.007
 2694SOL    HW2 8982   2.653   6.696   2.891
 2695SOL     OW 8983   4.724   2.061   2.340
 2695SOL    HW1 8984   4.676   2.148   2.328
 2695SOL    HW2 8985   4.790   2.070   2.415
 2696SOL     OW 8986   3.983   3.815   5.483
 2696SOL    HW1 8987   3.975   3.887   5.552
 2696SOL    HW2 8988   4.062   3.833   5.425
 2697SOL     OW 8989   3.365   1.613   3.922
 2697SOL    HW1 8990   3.441   1.667   3.958
 2697SOL    HW2 8991   3.303   1.673   3.870
 2698SOL     OW 8992   0.796   4.221   0.547
 2698SOL    HW1 8993   0.767   4.145   0.488
 2698SOL    HW2 8994   0.716   4.270   0.581
 2699SOL     OW 8995   3.813   5.863   1.618
 2699SOL    HW1 8996   3.730   5.888   1.669
 2699SOL    HW2 8997   3.845   5.773   1.648
 2700SOL     OW 8998   1.759   3.426   2.795
 2700SOL    HW1 8999   1.739   3.395   2.888
 2700SOL    HW2 9000   1.793   3.520   2.798
 2701SOL     OW 9001   3.716   0.192   6.275
 2701SOL    HW1 9002   3.804   0.187   6.227
 2701SOL    HW2 9003   3.654   0.124   6.237
 2702SOL     OW 9004   6.964   1.275   3.285
 2702SOL    HW1 9005   6.997   1.291   3.378
 2702SOL    HW2 9006   6.944   1.178   3.273
 2703SOL     OW 9007   1.920   1.681   2.508
 2703SOL    HW1 9008   1.966   1.769   2.493
 2703SOL    HW2 9009   1.860   1.688   2.588
 2704SOL     OW 9010   2.819   5.266   1.594
 2704SOL    HW1 9011   2.778   5.242   1.505
 2704SOL    HW2 9012   2.914   5.234   1.596
 2705SOL     OW 9013   6.227   5.865   3.854
 2705SOL    HW1 9014   6.209   5.867   3.952
 2705SOL    HW2 9015   6.221   5.770   3.821
 2706SOL     OW 9016   6.603   1.747   2.277
 2706SOL    HW1 9017   6.663   1.755   2.357
 2706SOL    HW2 9018   6.508   1.747   2.307
 2707SOL     OW 9019   1.734   1.971   6.698
 2707SOL    HW1 9020   1.699   1.880   6.673
 2707SOL    HW2 9021   1.666   2.019   6.753
 2708SOL     OW 9022   1.897   2.793   1.872
 2708SOL    HW1 9023   1.847   2.709   1.894
 2708SOL    HW2 9024   1.928   2.836   1.957
 2709SOL     OW 9025   5.350   5.916   1.238
 2709SOL    HW1 9026   5.304   5.964   1.164
 2709SOL    HW2 9027   5.447   5.906   1.216
 2710SOL     OW 9028   0.251   3.725   2.643
 2710SOL    HW1 9029   0.223   3.724   2.547
 2710SOL    HW2 9030   0.206   3.650   2.691
 2711SOL     OW 9031   1.095   0.503   1.832
 2711SOL    HW1 9032   1.061   0.468   1.744
 2711SOL    HW2 9033   1.192   0.481   1.842
 2712SOL     OW 9034   2.393   4.523   0.776
 2712SOL    HW1 9035   2.415   4.613   0.814
 2712SOL    HW2 9036   2.417   4.521   0.679
 2713SOL     OW 9037   2.362   3.250   5.312
 2713SOL    HW1 9038   2.396   3.173   5.259
 2713SOL    HW2 9039   2.426   3.272   5.385
 2714SOL     OW 9040   5.154   0.645   5.822
 2714SOL    HW1 9041   5.064   0.684   5.840
 2714SOL    HW2 9042   5.193   0.611   5.908
 2715SOL     OW 9043   5.885   1.343   6.674
 2715SOL    HW1 9044   5.902   1.288   6.593
 2715SOL    HW2 9045   5.966   1.341   6.733
 2716SOL     OW 9046   6.969   5.614   2.348
 2716SOL    HW1 9047   6.875   5.636   2.372
 2716SOL    HW2 9048   7.010   5.690   2.297
 2717SOL     OW 9049   0.817   6.942   3.082
 2717SOL    HW1 9050   0.886   6.870   3.075
 2717SOL    HW2 9051   0.771   6.952   2.993
 2718SOL     OW 9052   2.088   4.448   4.034
 2718SOL    HW1 9053   2.188   4.443   4.035
 2718SOL    HW2 9054   2.052   4.376   3.975
 2719SOL     OW 9055   4.320   5.449   2.227
 2719SOL    HW1 9056   4.384   5.513   2.186
 2719SOL    HW2 9057   4.351   5.355   2.211
 2720SOL     OW 9058   1.848   6.639   4.149
 2720SOL    HW1 9059   1.939   6.651   4.110
 2720SOL    HW2 9060   1.856   6.608   4.244
 2721SOL     OW 9061   3.140   6.935   4.237
 2721SOL    HW1 9062   3.207   6.871   4.199
 2721SOL    HW2 9063   3.114   6.906   4.329
 2722SOL     OW 9064   0.614   6.198   3.299
 2722SOL    HW1 9065   0.616   6.107   3.258
 2722SOL    HW2 9066   0.702   6.244   3.282
 2723SOL     OW 9067   2.042   1.095   5.787
 2723SOL    HW1 9068   2.050   0.995   5.781
 2723SOL    HW2 9069   2.132   1.137   5.776
 2724SOL     OW 9070   4.186   5.875   6.752
 2724SOL    HW1 9071   4.181   5.897   6.655
 2724SOL    HW2 9072   4.227   5.784   6.763
 2725SOL     OW 9073   4.151   4.789   4.106
 2725SOL    HW1 9074   4.091   4.821   4.180
 2725SOL    HW2 9075   4.097   4.771   4.024
 2726SOL     OW 9076   4.999   5.067   1.874
 2726SOL    HW1 9077   4.992   5.165   1.857
 2726SOL    HW2 9078   4.933   5.040   1.943
 2727SOL     OW 9079   0.947   4.895   2.609
 2727SOL    HW1 9080   0.858   4.897   2.562
 2727SOL    HW2 9081   1.018   4.926   2.547
 2728SOL     OW 9082   2.477   6.567   5.479
 2728SOL    HW1 9083   2.545   6.640   5.474
 2728SOL    HW2 9084   2.515   6.483   5.440
 2729SOL     OW 9085   5.734   4.833   3.117
 2729SOL    HW1 9086   5.827   4.843   3.081
 2729SOL    HW2 9087   5.679   4.912   3.088
 2730SOL     OW 9088   1.837   0.200   0.898
 2730SOL    HW1 9089   1.784   0.283   0.915
 2730SOL    HW2 9090   1.775   0.123   0.884
 2731SOL     OW 9091   2.961   3.783   1.771
 2731SOL    HW1 9092   3.004   3.869   1.795
 2731SOL    HW2 9093   2.990   3.711   1.834
 2732SOL     OW 9094   5.383   2.445   2.623
 2732SOL    HW1 9095   5.448   2.520   2.630
 2732SOL    HW2 9096   5.395   2.383   2.701
 2733SOL     OW 9097   0.959   6.343   5.692
 2733SOL    HW1 9098   1.011   6.384   5.767
 2733SOL    HW2 9099   0.999   6.372   5.605
 2734SOL     OW 9100   1.832   6.572   3.823
 2734SOL    HW1 9101   1.907   6.608   3.767
 2734SOL    HW2 9102   1.859   6.577   3.919
 2735SOL     OW 9103   1.331   5.011   2.215
 2735SOL    HW1 9104   1.419   5.017   2.263
 2735SOL    HW2 9105   1.318   4.917   2.181
 2736SOL     OW 9106   4.302   0.292   4.937
 2736SOL    HW1 9107   4.393   0.329   4.924
 2736SOL    HW2 9108   4.248   0.353   4.995
 2737SOL     OW 9109   4.536   3.884   6.191
 2737SOL    HW1 9110   4.632   3.869   6.211
 2737SOL    HW2 9111   4.494   3.937   6.265
 2738SOL     OW 9112   5.682   5.133   4.792
 2738SOL    HW1 9113   5.626   5.064   4.748
 2738SOL    HW2 9114   5.755   5.088   4.844
 2739SOL     OW 9115   5.113   3.355   1.561
 2739SOL    HW1 9116   5.133   3.262   1.592
 2739SOL    HW2 9117   5.018   3.361   1.531
 2740SOL     OW 9118   5.938   2.616   3.231
 2740SOL    HW1 9119   5.975   2.616   3.138
 2740SOL    HW2 9120   5.838   2.627   3.227
 2741SOL     OW 9121   0.776   2.570   5.462
 2741SOL    HW1 9122   0.853   2.633   5.463
 2741SOL    HW2 9123   0.781   2.512   5.381
 2742SOL     OW 9124   1.933   6.308   6.624
 2742SOL    HW1 9125   1.978   6.306   6.535
 2742SOL    HW2 9126   1.836   6.285   6.613
 2743SOL     OW 9127   5.294   4.692   1.323
 2743SOL    HW1 9128   5.344   4.605   1.325
 2743SOL    HW2 9129   5.356   4.767   1.348
 2744SOL     OW 9130   3.864   2.059   5.735
 2744SOL    HW1 9131   3.938   2.096   5.679
 2744SOL    HW2 9132   3.860   2.109   5.822
 2745SOL     OW 9133   2.422   6.275   1.264
 2745SOL    HW1 9134   2.394   6.221   1.343
 2745SOL    HW2 9135   2.506   6.325   1.286
 2746SOL     OW 9136   1.990   1.863   6.369
 2746SOL    HW1 9137   1.987   1.770   6.407
 2746SOL    HW2 9138   1.897   1.894   6.351
 2747SOL     OW 9139   5.382   6.701   3.974
 2747SOL    HW1 9140   5.469   6.698   4.024
 2747SOL    HW2 9141   5.400   6.700   3.875
 2748SOL     OW 9142   3.562   1.484   2.843
 2748SOL    HW1 9143   3.572   1.454   2.748
 2748SOL    HW2 9144   3.501   1.563   2.847
 2749SOL     OW 9145   4.610   4.996   4.300
 2749SOL    HW1 9146   4.696   5.034   4.266
 2749SOL    HW2 9147   4.536   5.062   4.285
 2750SOL     OW 9148   0.506   5.985   2.585
 2750SOL    HW1 9149   0.539   6.006   2.493
 2750SOL    HW2 9150   0.547   6.049   2.651
 2751SOL     OW 9151   1.922   6.744   6.739
 2751SOL    HW1 9152   1.832   6.709   6.762
 2751SOL    HW2 9153   1.941   6.826   6.793
 2752SOL     OW 9154   5.661   6.137   5.532
 2752SOL    HW1 9155   5.565   6.123   5.558
 2752SOL    HW2 9156   5.691   6.062   5.473
 2753SOL     OW 9157   4.255   5.908   6.454
 2753SOL    HW1 9158   4.268   5.866   6.364
 2753SOL    HW2 9159   4.240   6.006   6.443
 2754SOL     OW 9160   0.347   1.023   4.548
 2754SOL    HW1 9161   0.309   1.109   4.514
 2754SOL    HW2 9162   0.328   0.950   4.482
 2755SOL     OW 9163   3.033   6.395   2.121
 2755SOL    HW1 9164   3.002   6.307   2.086
 2755SOL    HW2 9165   3.060   6.387   2.216
 2756SOL     OW 9166   6.964   3.099   5.652
 2756SOL    HW1 9167   6.949   3.023   5.588
 2756SOL    HW2 9168   6.884   3.107   5.712
 2757SOL     OW 9169   4.231   2.707   6.645
 2757SOL    HW1 9170   4.271   2.683   6.734
 2757SOL    HW2 9171   4.288   2.667   6.572
 2758SOL     OW 9172   6.089   5.620   2.839
 2758SOL    HW1 9173   5.999   5.661   2.854
 2758SOL    HW2 9174   6.126   5.651   2.751
 2759SOL     OW 9175   3.349   4.067   6.436
 2759SOL    HW1 9176   3.351   4.146   6.498
 2759SOL    HW2 9177   3.370   4.097   6.343
 2760SOL     OW 9178   5.189   6.028   3.629
 2760SOL    HW1 9179   5.257   5.958   3.605
 2760SOL    HW2 9180   5.100   6.001   3.591
 2761SOL     OW 9181   1.901   3.280   2.617
 2761SOL    HW1 9182   1.837   3.338   2.668
 2761SOL    HW2 9183   1.993   3.318   2.622
 2762SOL     OW 9184   1.831   1.941   0.698
 2762SOL    HW1 9185   1.757   1.929   0.633
 2762SOL    HW2 9186   1.794   1.958   0.789
 2763SOL     OW 9187   4.846   1.530   5.218
 2763SOL    HW1 9188   4.944   1.537   5.237
 2763SOL    HW2 9189   4.806   1.622   5.216
 2764SOL     OW 9190   1.058   4.240   2.053
 2764SOL    HW1 9191   1.050   4.152   2.101
 2764SOL    HW2 9192   1.064   4.224   1.955
 2765SOL     OW 9193   6.713   6.303   6.813
 2765SOL    HW1 9194   6.807   6.273   6.826
 2765SOL    HW2 9195   6.696   6.385   6.868
 2766SOL     OW 9196   5.754   0.860   6.513
 2766SOL    HW1 9197   5.775   0.833   6.607
 2766SOL    HW2 9198   5.670   0.816   6.483
 2767SOL     OW 9199   0.022   5.143   6.336
 2767SOL    HW1 9200   6.974   5.078   6.369
 2767SOL    HW2 9201   0.112   5.098   6.332
 2768SOL     OW 9202   4.652   6.916   1.058
 2768SOL    HW1 9203   4.712   6.989   1.090
 2768SOL    HW2 9204   4.691   6.828   1.083
 2769SOL     OW 9205   1.813   4.515   5.446
 2769SOL    HW1 9206   1.809   4.436   5.385
 2769SOL    HW2 9207   1.906   4.528   5.479
 2770SOL     OW 9208   2.741   6.639   0.755
 2770SOL    HW1 9209   2.648   6.607   0.770
 2770SOL    HW2 9210   2.741   6.719   0.695
 2771SOL     OW 9211   4.560   0.117   4.653
 2771SOL    HW1 9212   4.641   0.116   4.593
 2771SOL    HW2 9213   4.538   0.212   4.676
 2772SOL     OW 9214   3.759   0.571   3.164
 2772SOL    HW1 9215   3.741   0.474   3.150
 2772SOL    HW2 9216   3.857   0.587   3.162
 2773SOL     OW 9217   5.970   2.642   3.933
 2773SOL    HW1 9218   5.997   2.732   3.967
 2773SOL    HW2 9219   6.052   2.592   3.904
 2774SOL     OW 9220   5.165   1.604   3.480
 2774SOL    HW1 9221   5.100   1.560   3.418
 2774SOL    HW2 9222   5.141   1.584   3.574
 2775SOL     OW 9223   0.963   4.344   4.303
 2775SOL    HW1 9224   0.947   4.370   4.208
 2775SOL    HW2 9225   0.895   4.388   4.362
 2776SOL     OW 9226   5.007   4.096   5.910
 2776SOL    HW1 9227   4.918   4.074   5.871
 2776SOL    HW2 9228   5.022   4.044   5.993
 2777SOL     OW 9229   3.110   1.951   6.361
 2777SOL    HW1 9230   3.076   1.945   6.454
 2777SOL    HW2 9231   3.138   2.046   6.342
 2778SOL     OW 9232   2.975   6.006   6.631
 2778SOL    HW1 9233   2.927   6.037   6.549
 2778SOL    HW2 9234   2.959   6.070   6.705
 2779SOL     OW 9235   5.987   6.641   1.771
 2779SOL    HW1 9236   6.018   6.685   1.855
 2779SOL    HW2 9237   6.066   6.617   1.715
 2780SOL     OW 9238   0.615   1.727   5.482
 2780SOL    HW1 9239   0.560   1.717   5.566
 2780SOL    HW2 9240   0.629   1.824   5.464
 2781SOL     OW 9241   6.322   0.651   3.011
 2781SOL    HW1 9242   6.318   0.737   3.061
 2781SOL    HW2 9243   6.232   0.608   3.011
 2782SOL     OW 9244   4.311   1.096   0.291
 2782SOL    HW1 9245   4.381   1.029   0.265
 2782SOL    HW2 9246   4.290   1.154   0.213
 2783SOL     OW 9247   5.689   3.745   1.627
 2783SOL    HW1 9248   5.602   3.701   1.648
 2783SOL    HW2 9249   5.679   3.803   1.546
 2784SOL     OW 9250   1.134   1.394   0.867
 2784SOL    HW1 9251   1.220   1.408   0.916
 2784SOL    HW2 9252   1.137   1.306   0.820
 2785SOL     OW 9253   5.407   2.682   1.624
 2785SOL    HW1 9254   5.414   2.590   1.586
 2785SOL    HW2 9255   5.359   2.679   1.712
 2786SOL     OW 9256   0.057   6.597   0.220
 2786SOL    HW1 9257   0.006   6.682   0.210
 2786SOL    HW2 9258   0.005   6.533   0.277
 2787SOL     OW 9259   6.247   4.878   6.541
 2787SOL    HW1 9260   6.272   4.920   6.454
 2787SOL    HW2 9261   6.280   4.783   6.544
 2788SOL     OW 9262   2.979   6.216   5.649
 2788SOL    HW1 9263   2.982   6.117   5.638
 2788SOL    HW2 9264   2.887   6.245   5.674
 2789SOL     OW 9265   0.891   2.732   4.976
 2789SOL    HW1 9266   0.986   2.763   4.983
 2789SOL    HW2 9267   0.880   2.680   4.892
 2790SOL     OW 9268   1.576   5.986   1.505
 2790SOL    HW1 9269   1.648   6.035   1.456
 2790SOL    HW2 9270   1.614   5.908   1.553
 2791SOL     OW 9271   0.014   4.104   3.166
 2791SOL    HW1 9272   0.029   4.103   3.067
 2791SOL    HW2 9273   0.096   4.139   3.211
 2792SOL     OW 9274   3.190   1.564   5.299
 2792SOL    HW1 9275   3.113   1.588   5.358
 2792SOL    HW2 9276   3.270   1.544   5.355
 2793SOL     OW 9277   3.257   4.438   1.033
 2793SOL    HW1 9278   3.266   4.498   0.953
 2793SOL    HW2 9279   3.179   4.467   1.088
 2794SOL     OW 9280   0.577   2.341   6.098
 2794SOL    HW1 9281   0.544   2.405   6.168
 2794SOL    HW2 9282   0.610   2.257   6.142
 2795SOL     OW 9283   0.860   4.782   1.627
 2795SOL    HW1 9284   0.798   4.716   1.670
 2795SOL    HW2 9285   0.886   4.750   1.536
 2796SOL     OW 9286   1.552   6.157   5.830
 2796SOL    HW1 9287   1.607   6.240   5.821
 2796SOL    HW2 9288   1.569   6.098   5.751
 2797SOL     OW 9289   5.773   6.913   3.697
 2797SOL    HW1 9290   5.822   6.979   3.755
 2797SOL    HW2 9291   5.786   6.821   3.733
 2798SOL     OW 9292   5.962   0.173   1.440
 2798SOL    HW1 9293   5.862   0.175   1.447
 2798SOL    HW2 9294   6.000   0.257   1.477
 2799SOL     OW 9295   3.491   5.972   5.235
 2799SOL    HW1 9296   3.460   6.052   5.286
 2799SOL    HW2 9297   3.552   5.918   5.293
 2800SOL     OW 9298   6.242   0.472   6.650
 2800SOL    HW1 9299   6.251   0.448   6.747
 2800SOL    HW2 9300   6.320   0.435   6.599
 2801SOL     OW 9301   0.581   5.070   5.711
 2801SOL    HW1 9302   0.665   5.018   5.726
 2801SOL    HW2 9303   0.579   5.105   5.617
 2802SOL     OW 9304   6.835   4.968   5.608
 2802SOL    HW1 9305   6.840   5.056   5.657
 2802SOL    HW2 9306   6.923   4.949   5.566
 2803SOL     OW 9307   3.343   2.527   6.906
 2803SOL    HW1 9308   3.405   2.502   6.980
 2803SOL    HW2 9309   3.256   2.478   6.917
 2804SOL     OW 9310   0.218   2.665   3.680
 2804SOL    HW1 9311   0.153   2.635   3.749
 2804SOL    HW2 9312   0.309   2.672   3.721
 2805SOL     OW 9313   4.437   3.259   1.069
 2805SOL    HW1 9314   4.437   3.186   1.137
 2805SOL    HW2 9315   4.460   3.221   0.979
 2806SOL     OW 9316   0.097   4.158   6.087
 2806SOL    HW1 9317   0.140   4.144   5.997
 2806SOL    HW2 9318   0.095   4.256   6.107
 2807SOL     OW 9319   3.155   0.354   3.535
 2807SOL    HW1 9320   3.094   0.285   3.574
 2807SOL    HW2 9321   3.198   0.407   3.609
 2808SOL     OW 9322   6.568   4.743   6.778
 2808SOL    HW1 9323   6.515   4.669   6.820
 2808SOL    HW2 9324   6.613   4.796   6.849
 2809SOL     OW 9325   6.474   5.070   1.919
 2809SOL    HW1 9326   6.392   5.121   1.893
 2809SOL    HW2 9327   6.492   5.083   2.017
 2810SOL     OW 9328   2.345   5.670   2.991
 2810SOL    HW1 9329   2.298   5.712   3.068
 2810SOL    HW2 9330   2.321   5.574   2.985
 2811SOL     OW 9331   0.845   0.657   1.839
 2811SOL    HW1 9332   0.937   0.623   1.856
 2811SOL    HW2 9333   0.829   0.661   1.740
 2812SOL     OW 9334   0.738   2.904   1.344
 2812SOL    HW1 9335   0.778   2.813   1.357
 2812SOL    HW2 9336   0.691   2.907   1.256
 2813SOL     OW 9337   0.629   2.275   1.660
 2813SOL    HW1 9338   0.583   2.360   1.683
 2813SOL    HW2 9339   0.642   2.270   1.561
 2814SOL     OW 9340   2.184   4.225   0.158
 2814SOL    HW1 9341   2.173   4.271   0.070
 2814SOL    HW2 9342   2.213   4.131   0.143
 2815SOL     OW 9343   0.322   5.710   5.455
 2815SOL    HW1 9344   0.272   5.630   5.421
 2815SOL    HW2 9345   0.324   5.780   5.384
 2816SOL     OW 9346   0.716   5.877   6.050
 2816SOL    HW1 9347   0.803   5.923   6.068
 2816SOL    HW2 9348   0.719   5.834   5.960
 2817SOL     OW 9349   4.588   0.908   2.010
 2817SOL    HW1 9350   4.633   0.874   1.927
 2817SOL    HW2 9351   4.489   0.911   1.996
 2818SOL     OW 9352   1.099   0.220   0.928
 2818SOL    HW1 9353   1.019   0.257   0.881
 2818SOL    HW2 9354   1.118   0.128   0.895
 2819SOL     OW 9355   0.647   0.609   7.006
 2819SOL    HW1 9356   0.590   0.529   6.991
 2819SOL    HW2 9357   0.720   0.612   6.937
 2820SOL     OW 9358   0.943   2.724   1.491
 2820SOL    HW1 9359   0.891   2.793   1.543
 2820SOL    HW2 9360   1.013   2.685   1.550
 2821SOL     OW 9361   2.996   3.779   6.424
 2821SOL    HW1 9362   3.060   3.838   6.473
 2821SOL    HW2 9363   3.022   3.684   6.437
 2822SOL     OW 9364   4.595   2.763   1.141
 2822SOL    HW1 9365   4.527   2.695   1.168
 2822SOL    HW2 9366   4.602   2.765   1.041
 2823SOL     OW 9367   5.758   1.892   1.198
 2823SOL    HW1 9368   5.702   1.976   1.204
 2823SOL    HW2 9369   5.727   1.827   1.268
 2824SOL     OW 9370   0.825   4.052   5.192
 2824SOL    HW1 9371   0.740   4.015   5.156
 2824SOL    HW2 9372   0.902   3.997   5.161
 2825SOL     OW 9373   5.317   1.666   6.415
 2825SOL    HW1 9374   5.217   1.666   6.412
 2825SOL    HW2 9375   5.348   1.596   6.479
 2826SOL     OW 9376   2.284   3.282   0.035
 2826SOL    HW1 9377   2.307   3.191   0.068
 2826SOL    HW2 9378   2.234   3.332   0.106
 2827SOL     OW 9379   6.654   0.949   6.092
 2827SOL    HW1 9380   6.687   0.865   6.136
 2827SOL    HW2 9381   6.609   1.007   6.160
 2828SOL     OW 9382   1.284   3.709   0.820
 2828SOL    HW1 9383   1.334   3.783   0.865
 2828SOL    HW2 9384   1.210   3.748   0.764
 2829SOL     OW 9385   3.681   4.137   3.553
 2829SOL    HW1 9386   3.634   4.217   3.589
 2829SOL    HW2 9387   3.717   4.082   3.629
 2830SOL     OW 9388   3.021   4.907   5.434
 2830SOL    HW1 9389   2.975   4.930   5.519
 2830SOL    HW2 9390   2.998   4.975   5.364
 2831SOL     OW 9391   6.153   1.596   2.150
 2831SOL    HW1 9392   6.198   1.644   2.075
 2831SOL    HW2 9393   6.069   1.552   2.116
 2832SOL     OW 9394   0.738   3.465   1.340
 2832SOL    HW1 9395   0.640   3.473   1.355
 2832SOL    HW2 9396   0.773   3.384   1.386
 2833SOL     OW 9397   1.554   2.111   2.110
 2833SOL    HW1 9398   1.506   2.055   2.043
 2833SOL    HW2 9399   1.586   2.053   2.185
 2834SOL     OW 9400   3.368   6.266   5.683
 2834SOL    HW1 9401   3.336   6.176   5.711
 2834SOL    HW2 9402   3.342   6.334   5.751
 2835SOL     OW 9403   0.150   0.003   0.220
 2835SOL    HW1 9404   0.161   0.028   0.316
 2835SOL    HW2 9405   0.099   6.937   0.213
 2836SOL     OW 9406   3.508   6.397   2.922
 2836SOL    HW1 9407   3.538   6.374   2.829
 2836SOL    HW2 9408   3.586   6.393   2.984
 2837SOL     OW 9409   5.109   4.144   2.560
 2837SOL    HW1 9410   5.198   4.182   2.583
 2837SOL    HW2 9411   5.038   4.214   2.573
 2838SOL     OW 9412   5.503   4.333   5.843
 2838SOL    HW1 9413   5.554   4.419   5.848
 2838SOL    HW2 9414   5.407   4.349   5.868
 2839SOL     OW 9415   6.050   2.815   5.064
 2839SOL    HW1 9416   5.986   2.811   5.141
 2839SOL    HW2 9417   6.136   2.856   5.094
 2840SOL     OW 9418   0.070   6.392   3.929
 2840SOL    HW1 9419   0.049   6.461   3.860
 2840SOL    HW2 9420   0.013   6.408   4.010
 2841SOL     OW 9421   6.222   3.013   2.159
 2841SOL    HW1 9422   6.304   3.067   2.176
 2841SOL    HW2 9423   6.144   3.054   2.206
 2842SOL     OW 9424   1.310   6.855   3.032
 2842SOL    HW1 9425   1.292   6.948   3.064
 2842SOL    HW2 9426   1.367   6.859   2.950
 2843SOL     OW 9427   2.316   2.694   3.307
 2843SOL    HW1 9428   2.259   2.644   3.372
 2843SOL    HW2 9429   2.268   2.702   3.220
 2844SOL     OW 9430   4.965   4.306   1.044
 2844SOL    HW1 9431   4.965   4.352   0.955
 2844SOL    HW2 9432   5.055   4.268   1.062
 2845SOL     OW 9433   3.143   2.082   2.903
 2845SOL    HW1 9434   3.084   2.058   2.979
 2845SOL    HW2 9435   3.230   2.117   2.938
 2846SOL     OW 9436   5.657   0.658   0.163
 2846SOL    HW1 9437   5.605   0.590   0.112
 2846SOL    HW2 9438   5.595   0.720   0.211
 2847SOL     OW 9439   4.511   4.764   2.594
 2847SOL    HW1 9440   4.522   4.666   2.575
 2847SOL    HW2 9441   4.423   4.795   2.559
 2848SOL     OW 9442   0.759   4.035   5.458
 2848SOL    HW1 9443   0.787   4.027   5.362
 2848SOL    HW2 9444   0.790   4.123   5.495
 2849SOL     OW 9445   4.916   0.675   2.760
 2849SOL    HW1 9446   4.874   0.706   2.845
 2849SOL    HW2 9447   4.912   0.749   2.692
 2850SOL     OW 9448   1.907   6.958   2.709
 2850SOL    HW1 9449   1.901   6.950   2.809
 2850SOL    HW2 9450   1.901   6.868   2.667
 2851SOL     OW 9451   3.738   3.632   0.731
 2851SOL    HW1 9452   3.754   3.603   0.825
 2851SOL    HW2 9453   3.691   3.559   0.681
 2852SOL     OW 9454   6.324   4.021   5.676
 2852SOL    HW1 9455   6.411   3.972   5.689
 2852SOL    HW2 9456   6.266   4.008   5.755
 2853SOL     OW 9457   0.412   3.826   6.749
 2853SOL    HW1 9458   0.497   3.820   6.697
 2853SOL    HW2 9459   0.335   3.803   6.690
 2854SOL     OW 9460   3.489   1.279   6.097
 2854SOL    HW1 9461   3.415   1.296   6.032
 2854SOL    HW2 9462   3.525   1.366   6.130
 2855SOL     OW 9463   2.265   1.377   5.160
 2855SOL    HW1 9464   2.234   1.451   5.219
 2855SOL    HW2 9465   2.194   1.307   5.154
 2856SOL     OW 9466   0.487   5.210   3.326
 2856SOL    HW1 9467   0.395   5.174   3.342
 2856SOL    HW2 9468   0.491   5.305   3.356
 2857SOL     OW 9469   0.197   3.673   0.365
 2857SOL    HW1 9470   0.281   3.624   0.339
 2857SOL    HW2 9471   0.119   3.612   0.353
 2858SOL     OW 9472   4.603   5.091   2.867
 2858SOL    HW1 9473   4.527   5.030   2.888
 2858SOL    HW2 9474   4.598   5.120   2.772
 2859SOL     OW 9475   4.954   4.457   1.471
 2859SOL    HW1 9476   4.958   4.358   1.487
 2859SOL    HW2 9477   4.893   4.475   1.394
 2860SOL     OW 9478   0.686   6.457   2.307
 2860SOL    HW1 9479   0.713   6.546   2.271
 2860SOL    HW2 9480   0.635   6.406   2.238
 2861SOL     OW 9481   4.842   4.953   6.925
 2861SOL    HW1 9482   4.770   5.017   6.897
 2861SOL    HW2 9483   4.866   4.969   0.001
 2862SOL     OW 9484   3.889   3.171   0.615
 2862SOL    HW1 9485   3.958   3.224   0.565
 2862SOL    HW2 9486   3.830   3.124   0.550
 2863SOL     OW 9487   5.566   6.945   5.483
 2863SOL    HW1 9488   5.610   6.897   5.408
 2863SOL    HW2 9489   5.513   0.002   5.448
 2864SOL     OW 9490   3.826   3.717   0.209
 2864SOL    HW1 9491   3.783   3.801   0.175
 2864SOL    HW2 9492   3.918   3.738   0.243
 2865SOL     OW 9493   4.885   5.774   4.464
 2865SOL    HW1 9494   4.953   5.703   4.446
 2865SOL    HW2 9495   4.922   5.841   4.528
 2866SOL     OW 9496   4.339   4.895   0.130
 2866SOL    HW1 9497   4.362   4.894   0.033
 2866SOL    HW2 9498   4.422   4.895   0.185
 2867SOL     OW 9499   5.494   6.099   1.803
 2867SOL    HW1 9500   5.429   6.127   1.873
 2867SOL    HW2 9501   5.484   6.156   1.722
 2868SOL     OW 9502   1.147   1.782   6.079
 2868SOL    HW1 9503   1.144   1.686   6.108
 2868SOL    HW2 9504   1.233   1.823   6.109
 2869SOL     OW 9505   5.608   5.728   4.641
 2869SOL    HW1 9506   5.564   5.736   4.552
 2869SOL    HW2 9507   5.643   5.635   4.653
 2870SOL     OW 9508   6.517   1.870   1.657
 2870SOL    HW1 9509   6.477   1.866   1.748
 2870SOL    HW2 9510   6.608   1.910   1.662
 2871SOL     OW 9511   5.362   1.682   1.303
 2871SOL    HW1 9512   5.402   1.621   1.371
 2871SOL    HW2 9513   5.361   1.776   1.338
 2872SOL     OW 9514   2.521   2.417   2.083
 2872SOL    HW1 9515   2.582   2.458   2.015
 2872SOL    HW2 9516   2.544   2.320   2.093
 2873SOL     OW 9517   0.798   6.313   1.449
 2873SOL    HW1 9518   0.884   6.353   1.481
 2873SOL    HW2 9519   0.787   6.331   1.351
 2874SOL     OW 9520   2.462   0.659   2.876
 2874SOL    HW1 9521   2.366   0.632   2.864
 2874SOL    HW2 9522   2.474   0.753   2.846
 2875SOL     OW 9523   3.297   6.624   2.961
 2875SOL    HW1 9524   3.378   6.589   2.915
 2875SOL    HW2 9525   3.224   6.556   2.959
 2876SOL     OW 9526   1.099   6.112   2.101
 2876SOL    HW1 9527   1.134   6.044   2.165
 2876SOL    HW2 9528   1.168   6.184   2.089
 2877SOL     OW 9529   0.935   1.774   5.910
 2877SOL    HW1 9530   0.868   1.724   5.966
 2877SOL    HW2 9531   1.016   1.793   5.966
 2878SOL     OW 9532   4.059   3.267   4.440
 2878SOL    HW1 9533   4.063   3.277   4.341
 2878SOL    HW2 9534   4.152   3.259   4.476
 2879SOL     OW 9535   4.399   4.199   0.397
 2879SOL    HW1 9536   4.460   4.122   0.413
 2879SOL    HW2 9537   4.312   4.183   0.444
 2880SOL     OW 9538   1.776   1.493   4.532
 2880SOL    HW1 9539   1.676   1.490   4.543
 2880SOL    HW2 9540   1.810   1.400   4.520
 2881SOL     OW 9541   4.465   6.562   6.562
 2881SOL    HW1 9542   4.472   6.655   6.598
 2881SOL    HW2 9543   4.552   6.537   6.518
 2882SOL     OW 9544   4.911   6.588   0.524
 2882SOL    HW1 9545   4.857   6.652   0.579
 2882SOL    HW2 9546   4.962   6.639   0.454
 2883SOL     OW 9547   6.131   6.106   3.713
 2883SOL    HW1 9548   6.159   6.012   3.736
 2883SOL    HW2 9549   6.054   6.133   3.772
 2884SOL     OW 9550   6.836   5.153   2.953
 2884SOL    HW1 9551   6.905   5.222   2.971
 2884SOL    HW2 9552   6.745   5.195   2.953
 2885SOL     OW 9553   1.046   2.807   3.160
 2885SOL    HW1 9554   0.994   2.726   3.186
 2885SOL    HW2 9555   1.142   2.783   3.147
 2886SOL     OW 9556   2.369   4.502   5.964
 2886SOL    HW1 9557   2.272   4.516   5.942
 2886SOL    HW2 9558   2.400   4.417   5.923
 2887SOL     OW 9559   1.000   5.633   3.510
 2887SOL    HW1 9560   1.053   5.635   3.595
 2887SOL    HW2 9561   1.017   5.547   3.462
 2888SOL     OW 9562   6.411   0.015   0.438
 2888SOL    HW1 9563   6.423   6.979   0.356
 2888SOL    HW2 9564   6.452   6.988   0.517
 2889SOL     OW 9565   3.843   6.457   3.296
 2889SOL    HW1 9566   3.790   6.453   3.211
 2889SOL    HW2 9567   3.930   6.502   3.278
 2890SOL     OW 9568   3.029   0.457   1.317
 2890SOL    HW1 9569   2.952   0.406   1.276
 2890SOL    HW2 9570   3.113   0.403   1.309
 2891SOL     OW 9571   0.347   2.279   4.379
 2891SOL    HW1 9572   0.427   2.276   4.440
 2891SOL    HW2 9573   0.284   2.350   4.410
 2892SOL     OW 9574   6.796   4.037   2.466
 2892SOL    HW1 9575   6.770   4.118   2.519
 2892SOL    HW2 9576   6.868   4.062   2.402
 2893SOL     OW 9577   6.860   5.202   4.301
 2893SOL    HW1 9578   6.888   5.285   4.253
 2893SOL    HW2 9579   6.796   5.226   4.374
 2894SOL     OW 9580   1.364   5.094   2.738
 2894SOL    HW1 9581   1.384   5.144   2.653
 2894SOL    HW2 9582   1.442   5.036   2.761
 2895SOL     OW 9583   4.116   6.990   5.874
 2895SOL    HW1 9584   4.039   0.011   5.924
 2895SOL    HW2 9585   4.086   6.904   5.833
 2896SOL     OW 9586   5.756   6.094   4.990
 2896SOL    HW1 9587   5.742   6.024   4.920
 2896SOL    HW2 9588   5.671   6.108   5.041
 2897SOL     OW 9589   3.797   4.858   3.218
 2897SOL    HW1 9590   3.836   4.796   3.150
 2897SOL    HW2 9591   3.854   4.856   3.301
 2898SOL     OW 9592   5.790   3.816   2.760
 2898SOL    HW1 9593   5.828   3.756   2.690
 2898SOL    HW2 9594   5.815   3.910   2.740
 2899SOL     OW 9595   6.854   3.485   1.133
 2899SOL    HW1 9596   6.798   3.402   1.140
 2899SOL    HW2 9597   6.943   3.468   1.175
 2900SOL     OW 9598   2.647   3.680   6.419
 2900SOL    HW1 9599   2.552   3.695   6.391
 2900SOL    HW2 9600   2.655   3.689   6.518
 2901SOL     OW 9601   1.386   4.153   3.842
 2901SOL    HW1 9602   1.354   4.225   3.904
 2901SOL    HW2 9603   1.486   4.150   3.843
 2902SOL     OW 9604   0.557   6.205   3.646
 2902SOL    HW1 9605   0.619   6.281   3.629
 2902SOL    HW2 9606   0.556   6.184   3.744
 2903SOL     OW 9607   4.776   5.504   0.753
 2903SOL    HW1 9608   4.869   5.500   0.790
 2903SOL    HW2 9609   4.780   5.523   0.655
 2904SOL     OW 9610   2.336   4.262   5.187
 2904SOL    HW1 9611   2.368   4.169   5.169
 2904SOL    HW2 9612   2.370   4.323   5.116
 2905SOL     OW 9613   0.352   4.957   1.887
 2905SOL    HW1 9614   0.331   4.862   1.912
 2905SOL    HW2 9615   0.328   5.018   1.963
 2906SOL     OW 9616   5.773   6.132   2.675
 2906SOL    HW1 9617   5.721   6.216   2.689
 2906SOL    HW2 9618   5.859   6.137   2.725
 2907SOL     OW 9619   0.456   1.000   3.527
 2907SOL    HW1 9620   0.535   1.036   3.577
 2907SOL    HW2 9621   0.421   1.069   3.464
 2908SOL     OW 9622   4.583   6.976   2.231
 2908SOL    HW1 9623   4.513   0.014   2.272
 2908SOL    HW2 9624   4.623   6.917   2.302
 2909SOL     OW 9625   0.987   5.905   2.400
 2909SOL    HW1 9626   0.945   5.987   2.440
 2909SOL    HW2 9627   0.946   5.824   2.441
 2910SOL     OW 9628   6.972   1.111   3.884
 2910SOL    HW1 9629   6.925   1.122   3.796
 2910SOL    HW2 9630   0.007   1.028   3.883
 2911SOL     OW 9631   6.564   4.197   4.420
 2911SOL    HW1 9632   6.618   4.157   4.347
 2911SOL    HW2 9633   6.624   4.235   4.490
 2912SOL     OW 9634   0.038   6.727   1.538
 2912SOL    HW1 9635   0.078   6.789   1.606
 2912SOL    HW2 9636   0.054   6.764   1.447
 2913SOL     OW 9637   2.393   6.039   1.443
 2913SOL    HW1 9638   2.382   6.066   1.538
 2913SOL    HW2 9639   2.310   5.994   1.411
 2914SOL     OW 9640   5.362   5.166   0.232
 2914SOL    HW1 9641   5.409   5.128   0.152
 2914SOL    HW2 9642   5.270   5.195   0.206
 2915SOL     OW 9643   2.568   0.919   2.775
 2915SOL    HW1 9644   2.646   0.980   2.788
 2915SOL    HW2 9645   2.517   0.946   2.694
 2916SOL     OW 9646   1.215   5.790   0.136
 2916SOL    HW1 9647   1.241   5.744   0.220
 2916SOL    HW2 9648   1.167   5.875   0.157
 2917SOL     OW 9649   2.952   6.210   4.156
 2917SOL    HW1 9650   2.969   6.181   4.250
 2917SOL    HW2 9651   2.900   6.295   4.156
 2918SOL     OW 9652   5.839   3.277   1.776
 2918SOL    HW1 9653   5.885   3.340   1.838
 2918SOL    HW2 9654   5.740   3.281   1.793
 2919SOL     OW 9655   1.395   5.698   4.137
 2919SOL    HW1 9656   1.455   5.618   4.142
 2919SOL    HW2 9657   1.411   5.747   4.052
 2920SOL     OW 9658   1.252   2.102   2.474
 2920SOL    HW1 9659   1.233   2.047   2.555
 2920SOL    HW2 9660   1.217   2.056   2.392
 2921SOL     OW 9661   0.829   0.551   4.985
 2921SOL    HW1 9662   0.835   0.571   4.888
 2921SOL    HW2 9663   0.896   0.606   5.035
 2922SOL     OW 9664   3.491   0.513   3.515
 2922SOL    HW1 9665   3.541   0.597   3.536
 2922SOL    HW2 9666   3.555   0.445   3.479
 2923SOL     OW 9667   5.896   5.711   4.751
 2923SOL    HW1 9668   5.827   5.730   4.821
 2923SOL    HW2 9669   5.880   5.620   4.713
 2924SOL     OW 9670   6.040   2.603   5.431
 2924SOL    HW1 9671   5.997   2.624   5.519
 2924SOL    HW2 9672   5.980   2.634   5.357
 2925SOL     OW 9673   4.711   0.315   5.973
 2925SOL    HW1 9674   4.644   0.358   5.913
 2925SOL    HW2 9675   4.803   0.344   5.948
 2926SOL     OW 9676   0.050   2.067   4.403
 2926SOL    HW1 9677   0.086   1.983   4.445
 2926SOL    HW2 9678   0.073   2.067   4.306
 2927SOL     OW 9679   0.959   2.366   1.956
 2927SOL    HW1 9680   0.969   2.408   1.866
 2927SOL    HW2 9681   1.032   2.399   2.016
 2928SOL     OW 9682   0.082   2.806   0.145
 2928SOL    HW1 9683   7.015   2.779   0.103
 2928SOL    HW2 9684   0.083   2.778   0.241
 2929SOL     OW 9685   2.572   2.632   5.395
 2929SOL    HW1 9686   2.579   2.726   5.428
 2929SOL    HW2 9687   2.562   2.631   5.296
 2930SOL     OW 9688   6.608   4.822   5.215
 2930SOL    HW1 9689   6.691   4.865   5.181
 2930SOL    HW2 9690   6.607   4.824   5.315
 2931SOL     OW 9691   4.903   4.170   5.618
 2931SOL    HW1 9692   4.847   4.196   5.697
 2931SOL    HW2 9693   4.905   4.071   5.609
 2932SOL     OW 9694   6.432   5.576   0.508
 2932SOL    HW1 9695   6.456   5.654   0.566
 2932SOL    HW2 9696   6.337   5.549   0.525
 2933SOL     OW 9697   1.716   0.040   1.245
 2933SOL    HW1 9698   1.675   6.997   1.311
 2933SOL    HW2 9699   1.775   7.009   1.182
 2934SOL     OW 9700   4.233   4.808   0.599
 2934SOL    HW1 9701   4.150   4.846   0.640
 2934SOL    HW2 9702   4.219   4.795   0.501
 2935SOL     OW 9703   0.068   2.495   6.056
 2935SOL    HW1 9704   0.032   2.440   6.131
 2935SOL    HW2 9705   0.160   2.527   6.078
 2936SOL     OW 9706   4.614   6.414   0.787
 2936SOL    HW1 9707   4.521   6.389   0.813
 2936SOL    HW2 9708   4.611   6.476   0.708
 2937SOL     OW 9709   4.678   5.109   2.283
 2937SOL    HW1 9710   4.634   5.085   2.369
 2937SOL    HW2 9711   4.777   5.109   2.294
 2938SOL     OW 9712   6.246   5.852   0.021
 2938SOL    HW1 9713   6.250   5.752   0.022
 2938SOL    HW2 9714   6.225   5.884   6.949
 2939SOL     OW 9715   0.146   5.768   0.977
 2939SOL    HW1 9716   0.096   5.713   0.911
 2939SOL    HW2 9717   0.082   5.824   1.029
 2940SOL     OW 9718   4.741   6.247   3.720
 2940SOL    HW1 9719   4.657   6.220   3.673
 2940SOL    HW2 9720   4.748   6.347   3.721
 2941SOL     OW 9721   1.568   3.733   3.738
 2941SOL    HW1 9722   1.489   3.678   3.713
 2941SOL    HW2 9723   1.546   3.787   3.819
 2942SOL     OW 9724   3.689   1.959   1.326
 2942SOL    HW1 9725   3.621   1.890   1.348
 2942SOL    HW2 9726   3.669   1.999   1.237
 2943SOL     OW 9727   5.801   3.963   3.469
 2943SOL    HW1 9728   5.832   4.018   3.391
 2943SOL    HW2 9729   5.837   4.003   3.554
 2944SOL     OW 9730   1.761   5.847   3.066
 2944SOL    HW1 9731   1.750   5.912   3.141
 2944SOL    HW2 9732   1.825   5.883   2.999
 2945SOL     OW 9733   5.209   4.372   1.794
 2945SOL    HW1 9734   5.152   4.438   1.745
 2945SOL    HW2 9735   5.275   4.421   1.852
 2946SOL     OW 9736   3.143   3.635   5.709
 2946SOL    HW1 9737   3.049   3.645   5.677
 2946SOL    HW2 9738   3.190   3.565   5.656
 2947SOL     OW 9739   5.771   7.002   0.251
 2947SOL    HW1 9740   5.776   0.081   0.238
 2947SOL    HW2 9741   5.781   6.980   0.348
 2948SOL     OW 9742   6.376   4.047   2.290
 2948SOL    HW1 9743   6.367   4.126   2.351
 2948SOL    HW2 9744   6.324   4.064   2.206
 2949SOL     OW 9745   1.473   6.845   0.899
 2949SOL    HW1 9746   1.452   6.789   0.819
 2949SOL    HW2 9747   1.449   6.795   0.982
 2950SOL     OW 9748   5.576   4.739   2.823
 2950SOL    HW1 9749   5.524   4.752   2.907
 2950SOL    HW2 9750   5.615   4.647   2.821
 2951SOL     OW 9751   6.182   1.727   1.894
 2951SOL    HW1 9752   6.241   1.647   1.880
 2951SOL    HW2 9753   6.239   1.807   1.915
 2952SOL     OW 9754   5.616   1.563   4.139
 2952SOL    HW1 9755   5.592   1.492   4.204
 2952SOL    HW2 9756   5.544   1.572   4.070
 2953SOL     OW 9757   1.064   5.920   4.513
 2953SOL    HW1 9758   1.123   5.908   4.434
 2953SOL    HW2 9759   0.974   5.881   4.494
 2954SOL     OW 9760   6.771   4.651   6.031
 2954SOL    HW1 9761   6.815   4.662   6.120
 2954SOL    HW2 9762   6.797   4.564   5.991
 2955SOL     OW 9763   2.235   4.928   6.798
 2955SOL    HW1 9764   2.197   4.847   6.842
 2955SOL    HW2 9765   2.328   4.908   6.767
 2956SOL     OW 9766   6.189   4.157   3.627
 2956SOL    HW1 9767   6.169   4.151   3.529
 2956SOL    HW2 9768   6.182   4.252   3.657
 2957SOL     OW 9769   2.995   5.217   1.127
 2957SOL    HW1 9770   3.064   5.289   1.128
 2957SOL    HW2 9771   2.989   5.177   1.036
 2958SOL     OW 9772   2.869   5.187   2.629
 2958SOL    HW1 9773   2.826   5.250   2.695
 2958SOL    HW2 9774   2.799   5.152   2.567
 2959SOL     OW 9775   0.216   2.854   3.203
 2959SOL    HW1 9776   0.254   2.901   3.283
 2959SOL    HW2 9777   0.117   2.844   3.213
 2960SOL     OW 9778   4.554   0.617   0.401
 2960SOL    HW1 9779   4.478   0.589   0.459
 2960SOL    HW2 9780   4.637   0.628   0.456
 2961SOL     OW 9781   5.591   4.060   2.520
 2961SOL    HW1 9782   5.504   4.084   2.564
 2961SOL    HW2 9783   5.599   4.108   2.433
 2962SOL     OW 9784   0.090   6.785   2.484
 2962SOL    HW1 9785   0.006   6.757   2.531
 2962SOL    HW2 9786   0.085   6.758   2.388
 2963SOL     OW 9787   1.937   1.245   4.782
 2963SOL    HW1 9788   1.980   1.158   4.805
 2963SOL    HW2 9789   1.982   1.284   4.702
 2964SOL     OW 9790   1.294   2.052   0.218
 2964SOL    HW1 9791   1.202   2.091   0.216
 2964SOL    HW2 9792   1.340   2.079   0.302
 2965SOL     OW 9793   1.338   0.060   4.565
 2965SOL    HW1 9794   1.372   6.987   4.575
 2965SOL    HW2 9795   1.258   0.060   4.505
 2966SOL     OW 9796   3.709   5.665   3.196
 2966SOL    HW1 9797   3.676   5.572   3.213
 2966SOL    HW2 9798   3.643   5.715   3.139
 2967SOL     OW 9799   5.877   0.218   5.456
 2967SOL    HW1 9800   5.863   0.236   5.553
 2967SOL    HW2 9801   5.947   0.148   5.444
 2968SOL     OW 9802   1.814   2.345   1.109
 2968SOL    HW1 9803   1.886   2.412   1.090
 2968SOL    HW2 9804   1.727   2.392   1.117
 2969SOL     OW 9805   5.201   3.194   4.481
 2969SOL    HW1 9806   5.188   3.137   4.562
 2969SOL    HW2 9807   5.163   3.285   4.498
 2970SOL     OW 9808   2.594   2.488   4.266
 2970SOL    HW1 9809   2.655   2.555   4.222
 2970SOL    HW2 9810   2.514   2.535   4.301
 2971SOL     OW 9811   5.404   2.816   6.417
 2971SOL    HW1 9812   5.436   2.854   6.330
 2971SOL    HW2 9813   5.310   2.846   6.434
 2972SOL     OW 9814   5.692   4.884   0.035
 2972SOL    HW1 9815   5.605   4.920   0.002
 2972SOL    HW2 9816   5.675   4.805   0.094
 2973SOL     OW 9817   4.691   1.005   2.237
 2973SOL    HW1 9818   4.659   0.954   2.157
 2973SOL    HW2 9819   4.713   1.099   2.210
 2974SOL     OW 9820   4.683   5.968   3.228
 2974SOL    HW1 9821   4.750   5.923   3.170
 2974SOL    HW2 9822   4.599   5.913   3.230
 2975SOL     OW 9823   4.808   4.130   4.271
 2975SOL    HW1 9824   4.892   4.086   4.239
 2975SOL    HW2 9825   4.797   4.114   4.369
 2976SOL     OW 9826   4.055   2.164   2.074
 2976SOL    HW1 9827   3.979   2.181   2.137
 2976SOL    HW2 9828   4.028   2.189   1.981
 2977SOL     OW 9829   1.405   0.848   1.328
 2977SOL    HW1 9830   1.314   0.811   1.312
 2977SOL    HW2 9831   1.468   0.815   1.258
 2978SOL     OW 9832   4.780   5.188   6.542
 2978SOL    HW1 9833   4.828   5.265   6.500
 2978SOL    HW2 9834   4.728   5.221   6.621
 2979SOL     OW 9835   3.426   0.752   4.225
 2979SOL    HW1 9836   3.456   0.713   4.138
 2979SOL    HW2 9837   3.504   0.755   4.288
 2980SOL     OW 9838   3.662   3.677   5.889
 2980SOL    HW1 9839   3.590   3.677   5.958
 2980SOL    HW2 9840   3.625   3.642   5.803
 2981SOL     OW 9841   1.489   0.792   0.686
 2981SOL    HW1 9842   1.471   0.698   0.657
 2981SOL    HW2 9843   1.583   0.817   0.661
 2982SOL     OW 9844   0.495   0.486   1.674
 2982SOL    HW1 9845   0.405   0.488   1.631
 2982SOL    HW2 9846   0.489   0.433   1.759
 2983SOL     OW 9847   5.727   3.017   6.127
 2983SOL    HW1 9848   5.723   2.984   6.033
 2983SOL    HW2 9849   5.639   3.003   6.171
 2984SOL     OW 9850   0.339   4.803   0.734
 2984SOL    HW1 9851   0.396   4.734   0.691
 2984SOL    HW2 9852   0.393   4.885   0.753
 2985SOL     OW 9853   0.048   6.277   4.838
 2985SOL    HW1 9854   0.146   6.257   4.841
 2985SOL    HW2 9855   0.015   6.293   4.931
 2986SOL     OW 9856   3.715   3.950   2.743
 2986SOL    HW1 9857   3.775   3.963   2.821
 2986SOL    HW2 9858   3.768   3.922   2.664
 2987SOL     OW 9859   1.941   0.598   4.350
 2987SOL    HW1 9860   1.878   0.620   4.424
 2987SOL    HW2 9861   1.889   0.572   4.268
 2988SOL     OW 9862   0.755   2.099   6.946
 2988SOL    HW1 9863   0.751   2.039   6.866
 2988SOL    HW2 9864   0.762   2.043   0.009
 2989SOL     OW 9865   5.172   3.413   4.150
 2989SOL    HW1 9866   5.116   3.341   4.190
 2989SOL    HW2 9867   5.170   3.494   4.209
 2990SOL     OW 9868   5.121   1.492   4.175
 2990SOL    HW1 9869   5.092   1.478   4.269
 2990SOL    HW2 9870   5.107   1.588   4.149
 2991SOL     OW 9871   6.677   4.034   1.161
 2991SOL    HW1 9872   6.661   4.093   1.082
 2991SOL    HW2 9873   6.594   3.981   1.181
 2992SOL     OW 9874   0.111   3.480   5.237
 2992SOL    HW1 9875   0.143   3.388   5.214
 2992SOL    HW2 9876   0.144   3.505   5.328
 2993SOL     OW 9877   1.210   4.486   0.215
 2993SOL    HW1 9878   1.170   4.397   0.195
 2993SOL    HW2 9879   1.138   4.556   0.219
 2994SOL     OW 9880   4.078   6.765   6.764
 2994SOL    HW1 9881   4.133   6.765   6.847
 2994SOL    HW2 9882   4.028   6.678   6.758
 2995SOL     OW 9883   5.472   0.598   1.178
 2995SOL    HW1 9884   5.540   0.648   1.230
 2995SOL    HW2 9885   5.384   0.646   1.181
 2996SOL     OW 9886   0.210   1.638   4.855
 2996SOL    HW1 9887   0.135   1.584   4.815
 2996SOL    HW2 9888   0.250   1.696   4.785
 2997SOL     OW 9889   5.265   0.224   3.642
 2997SOL    HW1 9890   5.218   0.311   3.659
 2997SOL    HW2 9891   5.207   0.164   3.588
 2998SOL     OW 9892   2.281   1.654   2.584
 2998SOL    HW1 9893   2.257   1.745   2.618
 2998SOL    HW2 9894   2.376   1.633   2.608
 2999SOL     OW 9895   2.564   4.484   0.574
 2999SOL    HW1 9896   2.610   4.421   0.638
 2999SOL    HW2 9897   2.536   4.433   0.493
 3000SOL     OW 9898   2.957   3.996   5.109
 3000SOL    HW1 9899   2.865   3.998   5.146
 3000SOL    HW2 9900   2.972   3.910   5.060
 3001SOL     OW 9901   5.913   0.270   6.101
 3001SOL    HW1 9902   5.831   0.320   6.075
 3001SOL    HW2 9903   5.991   0.303   6.047
 3002SOL     OW 9904   2.415   1.796   1.857
 3002SOL    HW1 9905   2.496   1.852   1.838
 3002SOL    HW2 9906   2.395   1.799   1.955
 3003SOL     OW 9907   0.863   6.523   6.978
 3003SOL    HW1 9908   0.890   6.587   6.906
 3003SOL    HW2 9909   0.763   6.518   6.982
 3004SOL     OW 9910   2.617   6.136   3.645
 3004SOL    HW1 9911   2.630   6.094   3.734
 3004SOL    HW2 9912   2.704   6.174   3.613
 3005SOL     OW 9913   1.007   2.685   5.430
 3005SOL    HW1 9914   1.059   2.639   5.358
 3005SOL    HW2 9915   1.038   2.779   5.439
 3006SOL     OW 9916   5.426   1.617   5.803
 3006SOL    HW1 9917   5.345   1.675   5.809
 3006SOL    HW2 9918   5.494   1.646   5.870
 3007SOL     OW 9919   5.259   4.943   0.018
 3007SOL    HW1 9920   5.343   4.998   0.018
 3007SOL    HW2 9921   5.209   4.958   0.104
 3008SOL     OW 9922   4.824   2.769   6.196
 3008SOL    HW1 9923   4.822   2.692   6.132
 3008SOL    HW2 9924   4.748   2.760   6.261
 3009SOL     OW 9925   0.185   3.754   2.366
 3009SOL    HW1 9926   0.260   3.719   2.310
 3009SOL    HW2 9927   0.209   3.845   2.402
 3010SOL     OW 9928   4.378   6.192   6.357
 3010SOL    HW1 9929   4.415   6.119   6.300
 3010SOL    HW2 9930   4.371   6.276   6.303
 3011SOL     OW 9931   6.876   6.948   0.883
 3011SOL    HW1 9932   6.957   7.005   0.870
 3011SOL    HW2 9933   6.801   7.005   0.917
 3012SOL     OW 9934   2.565   2.727   6.110
 3012SOL    HW1 9935   2.607   2.807   6.154
 3012SOL    HW2 9936   2.625   2.648   6.119
 3013SOL     OW 9937   0.806   5.060   5.057
 3013SOL    HW1 9938   0.869   5.130   5.091
 3013SOL    HW2 9939   0.848   5.012   4.980
 3014SOL     OW 9940   4.952   0.379   5.336
 3014SOL    HW1 9941   4.904   0.462   5.367
 3014SOL    HW2 9942   4.984   0.392   5.242
 3015SOL     OW 9943   1.353   1.124   0.039
 3015SOL    HW1 9944   1.366   1.147   0.135
 3015SOL    HW2 9945   1.323   1.205   7.009
 3016SOL     OW 9946   1.850   6.890   4.340
 3016SOL    HW1 9947   1.857   6.960   4.411
 3016SOL    HW2 9948   1.933   6.891   4.283
 3017SOL     OW 9949   0.014   5.351   0.726
 3017SOL    HW1 9950   0.013   5.278   0.794
 3017SOL    HW2 9951   0.091   5.338   0.664
 3018SOL     OW 9952   3.366   0.155   0.491
 3018SOL    HW1 9953   3.356   0.134   0.393
 3018SOL    HW2 9954   3.460   0.136   0.519
 3019SOL     OW 9955   1.861   0.534   5.151
 3019SOL    HW1 9956   1.924   0.492   5.216
 3019SOL    HW2 9957   1.868   0.486   5.063
 3020SOL     OW 9958   5.463   3.372   0.003
 3020SOL    HW1 9959   5.555   3.405   7.000
 3020SOL    HW2 9960   5.398   3.447   7.016
 3021SOL     OW 9961   4.135   6.332   4.526
 3021SOL    HW1 9962   4.152   6.427   4.552
 3021SOL    HW2 9963   4.087   6.329   4.438
 3022SOL     OW 9964   4.372   5.516   4.036
 3022SOL    HW1 9965   4.381   5.615   4.022
 3022SOL    HW2 9966   4.338   5.474   3.953
 3023SOL     OW 9967   4.980   6.404   2.678
 3023SOL    HW1 9968   5.011   6.497   2.656
 3023SOL    HW2 9969   4.935   6.404   2.767
 3024SOL     OW 9970   6.945   6.004   6.609
 3024SOL    HW1 9971   7.005   6.012   6.529
 3024SOL    HW2 9972   6.864   6.061   6.596
 3025SOL     OW 9973   3.741   6.049   0.897
 3025SOL    HW1 9974   3.764   6.016   0.806
 3025SOL    HW2 9975   3.652   6.014   0.925
 3026SOL     OW 9976   6.384   1.158   0.625
 3026SOL    HW1 9977   6.414   1.251   0.603
 3026SOL    HW2 9978   6.436   1.092   0.571
 3027SOL     OW 9979   4.734   1.564   1.260
 3027SOL    HW1 9980   4.792   1.589   1.338
 3027SOL    HW2 9981   4.772   1.484   1.214
 3028SOL     OW 9982   3.287   4.149   5.609
 3028SOL    HW1 9983   3.325   4.059   5.627
 3028SOL    HW2 9984   3.347   4.199   5.546
 3029SOL     OW 9985   0.625   2.533   4.386
 3029SOL    HW1 9986   0.604   2.518   4.483
 3029SOL    HW2 9987   0.697   2.602   4.378
 3030SOL     OW 9988   2.518   3.496   0.685
 3030SOL    HW1 9989   2.469   3.570   0.731
 3030SOL    HW2 9990   2.455   3.445   0.627
 3031SOL     OW 9991   0.655   6.465   1.622
 3031SOL    HW1 9992   0.700   6.551   1.645
 3031SOL    HW2 9993   0.706   6.419   1.549
 3032SOL     OW 9994   1.984   0.708   2.163
 3032SOL    HW1 9995   2.026   0.618   2.147
 3032SOL    HW2 9996   1.919   0.727   2.089
 3033SOL     OW 9997   6.786   2.128   4.453
 3033SOL    HW1 9998   6.762   2.221   4.480
 3033SOL    HW2 9999   6.880   2.109   4.482
 3034SOL     OW10000   6.549   4.976   3.081
 3034SOL    HW110001   6.610   4.999   3.157
 3034SOL    HW210002   6.528   4.879   3.083
 3035SOL     OW10003   0.933   2.666   6.697
 3035SOL    HW110004   0.949   2.764   6.706
 3035SOL    HW210005   0.915   2.627   6.788
 3036SOL     OW10006   3.244   2.191   6.345
 3036SOL    HW110007   3.309   2.192   6.422
 3036SOL    HW210008   3.295   2.199   6.259
 3037SOL     OW10009   0.272   5.208   0.260
 3037SOL    HW110010   0.203   5.138   0.247
 3037SOL    HW210011   0.350   5.190   0.200
 3038SOL     OW10012   5.749   4.589   6.724
 3038SOL    HW110013   5.837   4.592   6.676
 3038SOL    HW210014   5.680   4.637   6.670
 3039SOL     OW10015   6.617   3.877   6.788
 3039SOL    HW110016   6.656   3.968   6.773
 3039SOL    HW210017   6.662   3.834   6.866
 3040SOL     OW10018   5.250   3.769   6.023
 3040SOL    HW110019   5.274   3.711   6.101
 3040SOL    HW210020   5.333   3.794   5.973
 3041SOL     OW10021   2.066   4.202   4.959
 3041SOL    HW110022   2.148   4.175   5.010
 3041SOL    HW210023   2.091   4.224   4.865
 3042SOL     OW10024   6.999   5.357   3.047
 3042SOL    HW110025   7.007   5.387   3.142
 3042SOL    HW210026   6.968   5.434   2.991
 3043SOL     OW10027   3.022   4.906   0.572
 3043SOL    HW110028   3.006   4.901   0.474
 3043SOL    HW210029   3.120   4.893   0.591
 3044SOL     OW10030   3.556   3.418   5.292
 3044SOL    HW110031   3.653   3.432   5.277
 3044SOL    HW210032   3.514   3.505   5.320
 3045SOL     OW10033   4.931   1.475   1.898
 3045SOL    HW110034   5.016   1.521   1.871
 3045SOL    HW210035   4.898   1.513   1.984
 3046SOL     OW10036   5.607   5.890   1.090
 3046SOL    HW110037   5.644   5.828   1.021
 3046SOL    HW210038   5.656   5.877   1.177
 3047SOL     OW10039   6.132   0.953   5.829
 3047SOL    HW110040   6.125   0.871   5.771
 3047SOL    HW210041   6.044   1.000   5.830
 3048SOL     OW10042   3.837   4.263   0.691
 3048SOL    HW110043   3.904   4.236   0.761
 3048SOL    HW210044   3.797   4.180   0.650
 3049SOL     OW10045   1.171   0.683   3.926
 3049SOL    HW110046   1.216   0.755   3.874
 3049SOL    HW210047   1.239   0.619   3.959
 3050SOL     OW10048   2.769   2.184   1.619
 3050SOL    HW110049   2.681   2.204   1.578
 3050SOL    HW210050   2.841   2.194   1.551
 3051SOL     OW10051   2.220   5.578   5.481
 3051SOL    HW110052   2.157   5.596   5.407
 3051SOL    HW210053   2.224   5.479   5.499
 3052SOL     OW10054   6.783   6.253   2.627
 3052SOL    HW110055   6.793   6.348   2.657
 3052SOL    HW210056   6.869   6.222   2.586
 3053SOL     OW10057   1.643   4.498   0.133
 3053SOL    HW110058   1.592   4.518   0.217
 3053SOL    HW210059   1.579   4.478   0.059
 3054SOL     OW10060   5.845   1.147   2.724
 3054SOL    HW110061   5.919   1.086   2.697
 3054SOL    HW210062   5.880   1.220   2.783
 3055SOL     OW10063   5.933   5.684   6.317
 3055SOL    HW110064   5.896   5.644   6.233
 3055SOL    HW210065   6.032   5.667   6.320
 3056SOL     OW10066   4.614   1.386   5.844
 3056SOL    HW110067   4.543   1.374   5.774
 3056SOL    HW210068   4.596   1.322   5.919
 3057SOL     OW10069   5.930   5.097   2.812
 3057SOL    HW110070   5.880   5.162   2.869
 3057SOL    HW210071   5.865   5.039   2.763
 3058SOL     OW10072   0.831   4.819   6.669
 3058SOL    HW110073   0.793   4.738   6.625
 3058SOL    HW210074   0.861   4.796   6.761
 3059SOL     OW10075   2.436   2.251   4.161
 3059SOL    HW110076   2.412   2.168   4.210
 3059SOL    HW210077   2.511   2.298   4.208
 3060SOL     OW10078   5.175   5.149   5.139
 3060SOL    HW110079   5.109   5.083   5.175
 3060SOL    HW210080   5.185   5.135   5.040
 3061SOL     OW10081   4.919   5.276   5.228
 3061SOL    HW110082   5.016   5.250   5.218
 3061SOL    HW210083   4.903   5.363   5.184
 3062SOL     OW10084   4.872   4.606   1.875
 3062SOL    HW110085   4.951   4.596   1.814
 3062SOL    HW210086   4.823   4.519   1.881
 3063SOL     OW10087   0.249   4.252   1.636
 3063SOL    HW110088   0.293   4.220   1.552
 3063SOL    HW210089   0.166   4.302   1.613
 3064SOL     OW10090   5.000   1.903   6.789
 3064SOL    HW110091   5.076   1.905   6.854
 3064SOL    HW210092   4.930   1.839   6.822
 3065SOL     OW10093   6.999   1.329   6.373
 3065SOL    HW110094   6.937   1.305   6.447
 3065SOL    HW210095   7.009   1.428   6.368
 3066SOL     OW10096   5.033   6.052   5.735
 3066SOL    HW110097   4.975   6.066   5.816
 3066SOL    HW210098   5.034   6.136   5.680
 3067SOL     OW10099   1.572   2.094   5.971
 3067SOL    HW110100   1.500   2.037   6.010
 3067SOL    HW210101   1.552   2.111   5.874
 3068SOL     OW10102   1.057   0.723   0.794
 3068SOL    HW110103   1.033   0.820   0.790
 3068SOL    HW210104   0.974   0.668   0.778
 3069SOL     OW10105   4.965   0.143   2.653
 3069SOL    HW110106   4.961   0.044   2.666
 3069SOL    HW210107   4.921   0.167   2.566
 3070SOL     OW10108   2.372   0.694   1.088
 3070SOL    HW110109   2.384   0.707   0.989
 3070SOL    HW210110   2.381   0.783   1.134
 3071SOL     OW10111   0.108   3.962   4.392
 3071SOL    HW110112   0.087   3.864   4.391
 3071SOL    HW210113   0.082   4.000   4.481
 3072SOL     OW10114   2.118   6.861   6.094
 3072SOL    HW110115   2.020   6.876   6.099
 3072SOL    HW210116   2.136   6.763   6.084
 3073SOL     OW10117   6.093   5.190   1.015
 3073SOL    HW110118   6.005   5.236   1.015
 3073SOL    HW210119   6.129   5.186   0.921
 3074SOL     OW10120   1.865   3.241   1.221
 3074SOL    HW110121   1.835   3.149   1.193
 3074SOL    HW210122   1.962   3.252   1.201
 3075SOL     OW10123   2.971   5.493   2.269
 3075SOL    HW110124   2.982   5.462   2.364
 3075SOL    HW210125   3.013   5.583   2.259
 3076SOL     OW10126   0.455   0.344   4.833
 3076SOL    HW110127   0.524   0.411   4.807
 3076SOL    HW210128   0.479   0.304   4.922
 3077SOL     OW10129   6.303   3.754   2.286
 3077SOL    HW110130   6.214   3.710   2.302
 3077SOL    HW210131   6.295   3.852   2.300
 3078SOL     OW10132   6.845   2.684   1.831
 3078SOL    HW110133   6.842   2.750   1.906
 3078SOL    HW210134   6.754   2.675   1.791
 3079SOL     OW10135   1.963   3.281   5.493
 3079SOL    HW110136   1.922   3.192   5.512
 3079SOL    HW210137   2.016   3.310   5.573
 3080SOL     OW10138   4.420   5.210   0.792
 3080SOL    HW110139   4.326   5.241   0.802
 3080SOL    HW210140   4.439   5.139   0.861
 3081SOL     OW10141   1.709   4.240   0.295
 3081SOL    HW110142   1.628   4.200   0.337
 3081SOL    HW210143   1.695   4.338   0.282
 3082SOL     OW10144   4.457   5.453   4.810
 3082SOL    HW110145   4.535   5.489   4.861
 3082SOL    HW210146   4.471   5.356   4.790
 3083SOL     OW10147   3.065   5.749   2.204
 3083SOL    HW110148   3.117   5.817   2.255
 3083SOL    HW210149   3.082   5.760   2.106
 3084SOL     OW10150   0.621   3.456   3.924
 3084SOL    HW110151   0.678   3.395   3.869
 3084SOL    HW210152   0.637   3.437   4.021
 3085SOL     OW10153   5.216   4.140   0.438
 3085SOL    HW110154   5.287   4.093   0.490
 3085SOL    HW210155   5.242   4.143   0.341
 3086SOL     OW10156   6.104   0.449   6.406
 3086SOL    HW110157   6.121   0.357   6.370
 3086SOL    HW210158   6.107   0.446   6.506
 3087SOL     OW10159   3.131   0.372   2.188
 3087SOL    HW110160   3.106   0.278   2.209
 3087SOL    HW210161   3.230   0.378   2.175
 3088SOL     OW10162   1.671   2.718   5.703
 3088SOL    HW110163   1.581   2.678   5.689
 3088SOL    HW210164   1.716   2.732   5.614
 3089SOL     OW10165   4.353   6.751   4.837
 3089SOL    HW110166   4.428   6.711   4.784
 3089SOL    HW210167   4.365   6.850   4.841
 3090SOL     OW10168   1.721   1.749   2.681
 3090SOL    HW110169   1.790   1.794   2.739
 3090SOL    HW210170   1.633   1.794   2.695
 3091SOL     OW10171   0.896   2.498   1.095
 3091SOL    HW110172   0.850   2.508   1.183
 3091SOL    HW210173   0.957   2.419   1.098
 3092SOL     OW10174   6.606   0.821   2.539
 3092SOL    HW110175   6.600   0.915   2.505
 3092SOL    HW210176   6.528   0.803   2.599
 3093SOL     OW10177   5.294   4.712   6.832
 3093SOL    HW110178   5.377   4.668   6.866
 3093SOL    HW210179   5.262   4.780   6.898
 3094SOL     OW10180   2.850   1.478   6.092
 3094SOL    HW110181   2.767   1.534   6.092
 3094SOL    HW210182   2.887   1.473   6.184
 3095SOL     OW10183   1.887   3.506   5.058
 3095SOL    HW110184   1.922   3.414   5.039
 3095SOL    HW210185   1.940   3.573   5.007
 3096SOL     OW10186   0.216   3.673   4.143
 3096SOL    HW110187   0.250   3.588   4.183
 3096SOL    HW210188   0.193   3.737   4.216
 3097SOL     OW10189   5.480   2.360   6.025
 3097SOL    HW110190   5.544   2.286   6.003
 3097SOL    HW210191   5.461   2.359   6.123
 3098SOL     OW10192   2.057   2.908   2.083
 3098SOL    HW110193   2.142   2.860   2.063
 3098SOL    HW210194   2.016   2.871   2.167
 3099SOL     OW10195   0.112   5.970   4.099
 3099SOL    HW110196   0.140   6.034   4.171
 3099SOL    HW210197   0.124   5.876   4.131
 3100SOL     OW10198   6.674   5.662   2.170
 3100SOL    HW110199   6.685   5.757   2.143
 3100SOL    HW210200   6.684   5.654   2.270
 3101SOL     OW10201   3.958   6.143   5.599
 3101SOL    HW110202   3.927   6.080   5.669
 3101SOL    HW210203   3.914   6.121   5.512
 3102SOL     OW10204   0.291   4.711   1.005
 3102SOL    HW110205   0.341   4.786   0.962
 3102SOL    HW210206   0.199   4.706   0.968
 3103SOL     OW10207   3.449   0.315   1.508
 3103SOL    HW110208   3.449   0.234   1.566
 3103SOL    HW210209   3.468   0.396   1.563
 3104SOL     OW10210   4.605   0.455   6.260
 3104SOL    HW110211   4.574   0.483   6.169
 3104SOL    HW210212   4.627   0.357   6.258
 3105SOL     OW10213   5.971   3.654   0.133
 3105SOL    HW110214   5.962   3.754   0.141
 3105SOL    HW210215   5.883   3.611   0.152
 3106SOL     OW10216   6.029   6.922   5.232
 3106SOL    HW110217   6.066   7.012   5.212
 3106SOL    HW210218   6.099   6.865   5.274
 3107SOL     OW10219   3.946   1.567   6.107
 3107SOL    HW110220   4.039   1.605   6.112
 3107SOL    HW210221   3.883   1.638   6.076
 3108SOL     OW10222   1.979   4.071   3.486
 3108SOL    HW110223   1.899   4.121   3.518
 3108SOL    HW210224   1.950   3.991   3.434
 3109SOL     OW10225   6.473   5.987   3.929
 3109SOL    HW110226   6.534   5.925   3.879
 3109SOL    HW210227   6.399   6.016   3.868
 3110SOL     OW10228   0.985   4.536   3.668
 3110SOL    HW110229   0.935   4.454   3.695
 3110SOL    HW210230   0.965   4.557   3.572
 3111SOL     OW10231   5.525   4.472   4.193
 3111SOL    HW110232   5.431   4.471   4.227
 3111SOL    HW210233   5.532   4.534   4.115
 3112SOL     OW10234   3.621   1.781   6.807
 3112SOL    HW110235   3.629   1.714   6.881
 3112SOL    HW210236   3.576   1.864   6.842
 3113SOL     OW10237   2.320   5.649   3.724
 3113SOL    HW110238   2.379   5.657   3.644
 3113SOL    HW210239   2.346   5.568   3.776
 3114SOL     OW10240   4.102   0.920   6.763
 3114SOL    HW110241   4.088   0.964   6.852
 3114SOL    HW210242   4.190   0.872   6.763
 3115SOL     OW10243   4.679   4.840   5.533
 3115SOL    HW110244   4.653   4.937   5.534
 3115SOL    HW210245   4.778   4.831   5.542
 3116SOL     OW10246   0.667   1.624   1.355
 3116SOL    HW110247   0.647   1.634   1.257
 3116SOL    HW210248   0.589   1.656   1.408
 3117SOL     OW10249   5.035   1.474   5.747
 3117SOL    HW110250   5.057   1.535   5.671
 3117SOL    HW210251   5.074   1.384   5.729
 3118SOL     OW10252   1.514   0.871   3.346
 3118SOL    HW110253   1.418   0.877   3.317
 3118SOL    HW210254   1.557   0.791   3.305
 3119SOL     OW10255   4.498   4.691   5.689
 3119SOL    HW110256   4.567   4.722   5.624
 3119SOL    HW210257   4.501   4.749   5.771
 3120SOL     OW10258   1.921   6.570   4.699
 3120SOL    HW110259   2.000   6.581   4.759
 3120SOL    HW210260   1.891   6.474   4.701
 3121SOL     OW10261   4.577   1.568   4.578
 3121SOL    HW110262   4.630   1.527   4.504
 3121SOL    HW210263   4.489   1.598   4.542
 3122SOL     OW10264   3.564   5.393   4.468
 3122SOL    HW110265   3.524   5.366   4.556
 3122SOL    HW210266   3.629   5.323   4.438
 3123SOL     OW10267   2.384   1.581   3.661
 3123SOL    HW110268   2.293   1.587   3.619
 3123SOL    HW210269   2.446   1.643   3.614
 3124SOL     OW10270   5.456   6.980   3.554
 3124SOL    HW110271   5.479   0.002   3.642
 3124SOL    HW210272   5.519   7.013   3.484
 3125SOL     OW10273   1.741   2.029   5.591
 3125SOL    HW110274   1.731   2.112   5.647
 3125SOL    HW210275   1.667   1.966   5.612
 3126SOL     OW10276   5.883   5.192   4.622
 3126SOL    HW110277   5.981   5.180   4.638
 3126SOL    HW210278   5.832   5.162   4.703
 3127SOL     OW10279   0.038   1.340   5.014
 3127SOL    HW110280   0.113   1.286   4.976
 3127SOL    HW210281   0.014   1.413   4.950
 3128SOL     OW10282   4.224   0.515   0.279
 3128SOL    HW110283   4.137   0.467   0.285
 3128SOL    HW210284   4.227   0.588   0.348
 3129SOL     OW10285   4.754   3.327   0.481
 3129SOL    HW110286   4.826   3.317   0.412
 3129SOL    HW210287   4.700   3.243   0.484
 3130SOL     OW10288   1.166   4.577   1.891
 3130SOL    HW110289   1.212   4.539   1.971
 3130SOL    HW210290   1.069   4.553   1.894
 3131SOL     OW10291   6.960   4.297   2.683
 3131SOL    HW110292   0.027   4.249   2.685
 3131SOL    HW210293   6.925   4.308   2.776
 3132SOL     OW10294   4.059   4.794   6.619
 3132SOL    HW110295   4.022   4.748   6.699
 3132SOL    HW210296   4.009   4.879   6.603
 3133SOL     OW10297   3.863   0.643   4.080
 3133SOL    HW110298   3.941   0.597   4.039
 3133SOL    HW210299   3.884   0.666   4.175
 3134SOL     OW10300   4.230   5.080   2.917
 3134SOL    HW110301   4.235   5.085   2.818
 3134SOL    HW210302   4.294   5.010   2.951
 3135SOL     OW10303   4.840   6.694   6.271
 3135SOL    HW110304   4.813   6.766   6.334
 3135SOL    HW210305   4.938   6.674   6.283
 3136SOL     OW10306   6.357   1.862   2.921
 3136SOL    HW110307   6.396   1.876   2.829
 3136SOL    HW210308   6.427   1.823   2.981
 3137SOL     OW10309   6.308   6.880   6.871
 3137SOL    HW110310   6.255   6.914   6.794
 3137SOL    HW210311   6.289   6.936   6.952
 3138SOL     OW10312   5.619   5.623   4.138
 3138SOL    HW110313   5.608   5.654   4.232
 3138SOL    HW210314   5.711   5.586   4.126
 3139SOL     OW10315   2.425   5.199   1.069
 3139SOL    HW110316   2.388   5.108   1.052
 3139SOL    HW210317   2.383   5.237   1.151
 3140SOL     OW10318   6.922   6.964   6.167
 3140SOL    HW110319   6.980   6.883   6.174
 3140SOL    HW210320   6.979   0.026   6.171
 3141SOL     OW10321   6.636   2.417   6.236
 3141SOL    HW110322   6.634   2.510   6.200
 3141SOL    HW210323   6.545   2.377   6.230
 3142SOL     OW10324   5.130   1.144   2.923
 3142SOL    HW110325   5.049   1.199   2.906
 3142SOL    HW210326   5.126   1.059   2.869
 3143SOL     OW10327   6.426   1.455   0.543
 3143SOL    HW110328   6.383   1.494   0.461
 3143SOL    HW210329   6.491   1.521   0.580
 3144SOL     OW10330   4.190   3.707   6.256
 3144SOL    HW110331   4.241   3.638   6.308
 3144SOL    HW210332   4.092   3.688   6.263
 3145SOL     OW10333   0.641   6.057   1.316
 3145SOL    HW110334   0.612   5.963   1.296
 3145SOL    HW210335   0.608   6.083   1.407
 3146SOL     OW10336   0.766   0.105   5.060
 3146SOL    HW110337   0.860   0.077   5.043
 3146SOL    HW210338   0.759   0.205   5.052
 3147SOL     OW10339   4.212   4.868   6.836
 3147SOL    HW110340   4.207   4.844   6.739
 3147SOL    HW210341   4.167   4.797   6.891
 3148SOL     OW10342   6.777   5.307   2.562
 3148SOL    HW110343   6.787   5.212   2.590
 3148SOL    HW210344   6.681   5.334   2.565
 3149SOL     OW10345   3.144   0.922   0.320
 3149SOL    HW110346   3.202   0.898   0.398
 3149SOL    HW210347   3.201   0.955   0.245
 3150SOL     OW10348   6.608   5.920   4.584
 3150SOL    HW110349   6.591   5.988   4.513
 3150SOL    HW210350   6.605   5.964   4.674
 3151SOL     OW10351   6.063   1.589   5.824
 3151SOL    HW110352   6.080   1.604   5.922
 3151SOL    HW210353   6.112   1.508   5.793
 3152SOL     OW10354   1.006   2.843   6.062
 3152SOL    HW110355   1.025   2.930   6.107
 3152SOL    HW210356   0.981   2.859   5.966
 3153SOL     OW10357   6.343   4.815   0.916
 3153SOL    HW110358   6.265   4.859   0.961
 3153SOL    HW210359   6.350   4.849   0.822
 3154SOL     OW10360   4.755   1.516   0.887
 3154SOL    HW110361   4.660   1.510   0.854
 3154SOL    HW210362   4.802   1.590   0.838
 3155SOL     OW10363   0.181   5.002   1.062
 3155SOL    HW110364   0.131   5.080   1.025
 3155SOL    HW210365   0.135   4.917   1.038
 3156SOL     OW10366   3.649   4.213   1.900
 3156SOL    HW110367   3.667   4.309   1.922
 3156SOL    HW210368   3.717   4.155   1.945
 3157SOL     OW10369   0.483   2.024   4.946
 3157SOL    HW110370   0.577   2.026   4.912
 3157SOL    HW210371   0.470   1.945   5.006
 3158SOL     OW10372   2.494   1.143   5.616
 3158SOL    HW110373   2.532   1.220   5.668
 3158SOL    HW210374   2.402   1.124   5.648
 3159SOL     OW10375   6.362   6.812   0.266
 3159SOL    HW110376   6.430   6.755   0.219
 3159SOL    HW210377   6.337   6.768   0.353
 3160SOL     OW10378   2.387   0.134   6.121
 3160SOL    HW110379   2.288   0.150   6.129
 3160SOL    HW210380   2.416   0.072   6.194
 3161SOL     OW10381   2.035   2.888   3.105
 3161SOL    HW110382   2.089   2.808   3.077
 3161SOL    HW210383   1.938   2.863   3.105
 3162SOL     OW10384   2.050   5.854   0.868
 3162SOL    HW110385   2.128   5.827   0.925
 3162SOL    HW210386   2.045   5.794   0.788
 3163SOL     OW10387   4.685   3.546   0.684
 3163SOL    HW110388   4.722   3.611   0.618
 3163SOL    HW210389   4.708   3.453   0.656
 3164SOL     OW10390   2.642   5.975   3.181
 3164SOL    HW110391   2.577   5.991   3.255
 3164SOL    HW210392   2.735   5.976   3.218
 3165SOL     OW10393   1.023   6.094   0.672
 3165SOL    HW110394   1.015   6.032   0.751
 3165SOL    HW210395   0.939   6.148   0.664
 3166SOL     OW10396   4.001   1.159   5.657
 3166SOL    HW110397   4.012   1.132   5.752
 3166SOL    HW210398   4.090   1.184   5.619
 3167SOL     OW10399   5.283   3.414   0.698
 3167SOL    HW110400   5.262   3.509   0.676
 3167SOL    HW210401   5.374   3.408   0.739
 3168SOL     OW10402   4.380   1.615   0.575
 3168SOL    HW110403   4.289   1.579   0.593
 3168SOL    HW210404   4.409   1.588   0.483
 3169SOL     OW10405   2.075   4.363   2.049
 3169SOL    HW110406   2.139   4.350   2.125
 3169SOL    HW210407   2.097   4.298   1.976
 3170SOL     OW10408   3.566   5.379   3.281
 3170SOL    HW110409   3.486   5.321   3.299
 3170SOL    HW210410   3.648   5.322   3.276
 3171SOL     OW10411   5.346   2.788   3.281
 3171SOL    HW110412   5.256   2.806   3.320
 3171SOL    HW210413   5.350   2.822   3.187
 3172SOL     OW10414   0.392   4.495   0.871
 3172SOL    HW110415   0.448   4.572   0.841
 3172SOL    HW210416   0.309   4.529   0.914
 3173SOL     OW10417   3.627   2.117   0.562
 3173SOL    HW110418   3.684   2.080   0.636
 3173SOL    HW210419   3.587   2.042   0.510
 3174SOL     OW10420   2.742   3.531   5.974
 3174SOL    HW110421   2.796   3.447   5.968
 3174SOL    HW210422   2.764   3.578   6.059
 3175SOL     OW10423   6.966   0.378   4.176
 3175SOL    HW110424   6.901   0.388   4.101
 3175SOL    HW210425   6.978   0.466   4.223
 3176SOL     OW10426   1.388   4.723   5.145
 3176SOL    HW110427   1.421   4.812   5.178
 3176SOL    HW210428   1.375   4.662   5.223
 3177SOL     OW10429   5.722   3.646   3.378
 3177SOL    HW110430   5.798   3.602   3.425
 3177SOL    HW210431   5.747   3.663   3.283
 3178SOL     OW10432   0.022   0.943   1.168
 3178SOL    HW110433   6.965   0.895   1.126
 3178SOL    HW210434   0.100   0.882   1.176
 3179SOL     OW10435   0.890   2.147   1.721
 3179SOL    HW110436   0.937   2.110   1.801
 3179SOL    HW210437   0.794   2.166   1.744
 3180SOL     OW10438   6.746   5.472   0.025
 3180SOL    HW110439   6.698   5.483   0.112
 3180SOL    HW210440   6.806   5.393   0.030
 3181SOL     OW10441   0.630   1.185   4.857
 3181SOL    HW110442   0.616   1.172   4.759
 3181SOL    HW210443   0.573   1.122   4.908
 3182SOL     OW10444   2.791   6.987   0.362
 3182SOL    HW110445   2.754   6.962   0.451
 3182SOL    HW210446   2.717   0.001   0.304
 3183SOL     OW10447   4.467   4.577   1.862
 3183SOL    HW110448   4.477   4.489   1.908
 3183SOL    HW210449   4.544   4.636   1.887
 3184SOL     OW10450   0.459   2.244   4.752
 3184SOL    HW110451   0.409   2.158   4.759
 3184SOL    HW210452   0.394   2.319   4.741
 3185SOL     OW10453   0.041   5.549   6.272
 3185SOL    HW110454   0.128   5.574   6.229
 3185SOL    HW210455   7.005   5.630   6.284
 3186SOL     OW10456   0.337   1.748   6.255
 3186SOL    HW110457   0.247   1.703   6.256
 3186SOL    HW210458   0.397   1.700   6.191
 3187SOL     OW10459   3.900   6.008   2.610
 3187SOL    HW110460   3.855   5.936   2.664
 3187SOL    HW210461   3.992   5.978   2.586
 3188SOL     OW10462   2.081   4.526   5.439
 3188SOL    HW110463   2.069   4.456   5.368
 3188SOL    HW210464   2.133   4.488   5.515
 3189SOL     OW10465   3.004   1.285   6.572
 3189SOL    HW110466   3.088   1.287   6.517
 3189SOL    HW210467   3.018   1.336   6.657
 3190SOL     OW10468   6.956   5.613   4.339
 3190SOL    HW110469   6.926   5.707   4.359
 3190SOL    HW210470   6.989   5.570   4.423
 3191SOL     OW10471   4.488   5.614   2.088
 3191SOL    HW110472   4.422   5.653   2.024
 3191SOL    HW210473   4.545   5.687   2.127
 3192SOL     OW10474   6.112   2.242   2.391
 3192SOL    HW110475   6.027   2.228   2.442
 3192SOL    HW210476   6.101   2.322   2.331
 3193SOL     OW10477   3.840   0.183   5.345
 3193SOL    HW110478   3.754   0.229   5.321
 3193SOL    HW210479   3.908   0.200   5.275
 3194SOL     OW10480   1.177   1.302   5.691
 3194SOL    HW110481   1.223   1.291   5.779
 3194SOL    HW210482   1.244   1.325   5.620
 3195SOL     OW10483   0.201   1.716   1.737
 3195SOL    HW110484   0.261   1.668   1.801
 3195SOL    HW210485   0.235   1.809   1.724
 3196SOL     OW10486   6.158   6.906   4.716
 3196SOL    HW110487   6.184   6.890   4.811
 3196SOL    HW210488   6.059   6.900   4.707
 3197SOL     OW10489   2.089   0.510   6.264
 3197SOL    HW110490   2.138   0.597   6.263
 3197SOL    HW210491   2.035   0.504   6.348
 3198SOL     OW10492   6.392   2.594   3.723
 3198SOL    HW110493   6.432   2.622   3.636
 3198SOL    HW210494   6.367   2.675   3.776
 3199SOL     OW10495   5.455   4.267   3.410
 3199SOL    HW110496   5.482   4.260   3.314
 3199SOL    HW210497   5.529   4.231   3.468
 3200SOL     OW10498   5.529   3.245   4.124
 3200SOL    HW110499   5.595   3.255   4.049
 3200SOL    HW210500   5.499   3.150   4.130
 3201SOL     OW10501   6.041   4.185   2.622
 3201SOL    HW110502   6.039   4.157   2.526
 3201SOL    HW210503   5.953   4.162   2.664
 3202SOL     OW10504   1.272   5.190   0.540
 3202SOL    HW110505   1.309   5.098   0.555
 3202SOL    HW210506   1.203   5.186   0.468
 3203SOL     OW10507   4.422   6.034   1.282
 3203SOL    HW110508   4.468   6.064   1.365
 3203SOL    HW210509   4.343   5.978   1.306
 3204SOL     OW10510   2.341   1.163   3.436
 3204SOL    HW110511   2.295   1.138   3.522
 3204SOL    HW210512   2.407   1.236   3.453
 3205SOL     OW10513   5.424   2.839   5.384
 3205SOL    HW110514   5.377   2.905   5.443
 3205SOL    HW210515   5.465   2.767   5.440
 3206SOL     OW10516   2.934   2.757   1.564
 3206SOL    HW110517   2.984   2.820   1.623
 3206SOL    HW210518   2.838   2.783   1.562
 3207SOL     OW10519   1.021   6.739   5.101
 3207SOL    HW110520   0.955   6.669   5.129
 3207SOL    HW210521   1.013   6.756   5.003
 3208SOL     OW10522   6.117   6.084   5.735
 3208SOL    HW110523   6.141   5.993   5.700
 3208SOL    HW210524   6.164   6.154   5.681
 3209SOL     OW10525   4.894   5.567   6.113
 3209SOL    HW110526   4.967   5.508   6.147
 3209SOL    HW210527   4.897   5.571   6.014
 3210SOL     OW10528   6.848   4.664   1.524
 3210SOL    HW110529   6.835   4.763   1.530
 3210SOL    HW210530   6.880   4.630   1.612
 3211SOL     OW10531   1.349   6.268   6.963
 3211SOL    HW110532   1.340   6.194   6.898
 3211SOL    HW210533   1.441   6.267   7.002
 3212SOL     OW10534   2.662   6.880   2.715
 3212SOL    HW110535   2.699   6.937   2.788
 3212SOL    HW210536   2.693   6.785   2.727
 3213SOL     OW10537   1.413   0.833   5.948
 3213SOL    HW110538   1.449   0.830   5.855
 3213SOL    HW210539   1.332   0.892   5.951
 3214SOL     OW10540   3.484   1.215   2.951
 3214SOL    HW110541   3.560   1.202   3.015
 3214SOL    HW210542   3.508   1.285   2.884
 3215SOL     OW10543   1.456   2.789   0.689
 3215SOL    HW110544   1.456   2.814   0.786
 3215SOL    HW210545   1.546   2.751   0.665
 3216SOL     OW10546   5.700   4.002   0.689
 3216SOL    HW110547   5.760   3.922   0.694
 3216SOL    HW210548   5.648   4.010   0.773
 3217SOL     OW10549   0.687   4.935   2.952
 3217SOL    HW110550   0.641   5.001   3.012
 3217SOL    HW210551   0.783   4.928   2.978
 3218SOL     OW10552   6.778   1.750   3.211
 3218SOL    HW110553   6.791   1.706   3.122
 3218SOL    HW210554   6.835   1.705   3.279
 3219SOL     OW10555   5.629   0.376   5.604
 3219SOL    HW110556   5.640   0.323   5.519
 3219SOL    HW210557   5.621   0.473   5.581
 3220SOL     OW10558   6.943   4.500   6.846
 3220SOL    HW110559   6.919   4.510   6.942
 3220SOL    HW210560   6.963   4.589   6.806
 3221SOL     OW10561   4.441   0.123   1.830
 3221SOL    HW110562   4.525   0.171   1.804
 3221SOL    HW210563   4.376   0.126   1.755
 3222SOL     OW10564   2.703   1.359   2.453
 3222SOL    HW110565   2.744   1.428   2.393
 3222SOL    HW210566   2.603   1.362   2.444
 3223SOL     OW10567   1.402   6.783   1.307
 3223SOL    HW110568   1.502   6.776   1.311
 3223SOL    HW210569   1.374   6.875   1.334
 3224SOL     OW10570   4.229   2.241   4.618
 3224SOL    HW110571   4.265   2.332   4.598
 3224SOL    HW210572   4.194   2.239   4.712
 3225SOL     OW10573   4.300   7.010   4.059
 3225SOL    HW110574   4.225   0.041   4.102
 3225SOL    HW210575   4.357   0.053   4.006
 3226SOL     OW10576   0.273   0.261   1.829
 3226SOL    HW110577   0.199   0.289   1.768
 3226SOL    HW210578   0.246   0.176   1.876
 3227SOL     OW10579   4.602   2.758   5.552
 3227SOL    HW110580   4.565   2.812   5.628
 3227SOL    HW210581   4.545   2.677   5.538
 3228SOL     OW10582   1.028   4.356   0.646
 3228SOL    HW110583   0.934   4.324   0.635
 3228SOL    HW210584   1.085   4.283   0.682
 3229SOL     OW10585   1.964   1.803   6.838
 3229SOL    HW110586   1.967   1.838   6.932
 3229SOL    HW210587   1.893   1.851   6.787
 3230SOL     OW10588   2.492   5.834   5.759
 3230SOL    HW110589   2.399   5.818   5.792
 3230SOL    HW210590   2.500   5.803   5.665
 3231SOL     OW10591   2.550   1.489   2.146
 3231SOL    HW110592   2.505   1.402   2.123
 3231SOL    HW210593   2.601   1.522   2.066
 3232SOL     OW10594   4.246   6.165   4.025
 3232SOL    HW110595   4.205   6.240   4.077
 3232SOL    HW210596   4.269   6.089   4.086
 3233SOL     OW10597   0.867   2.347   6.996
 3233SOL    HW110598   0.832   2.255   6.978
 3233SOL    HW210599   0.797   2.402   0.022
 3234SOL     OW10600   2.849   2.701   1.033
 3234SOL    HW110601   2.844   2.728   0.937
 3234SOL    HW210602   2.904   2.768   1.083
 3235SOL     OW10603   6.591   6.378   2.265
 3235SOL    HW110604   6.538   6.440   2.322
 3235SOL    HW210605   6.541   6.360   2.180
 3236SOL     OW10606   2.974   4.405   0.381
 3236SOL    HW110607   2.955   4.308   0.393
 3236SOL    HW210608   3.005   4.444   0.468
 3237SOL     OW10609   5.913   1.488   5.437
 3237SOL    HW110610   5.998   1.477   5.386
 3237SOL    HW210611   5.919   1.440   5.524
 3238SOL     OW10612   6.256   5.569   1.108
 3238SOL    HW110613   6.337   5.511   1.101
 3238SOL    HW210614   6.259   5.640   1.038
 3239SOL     OW10615   7.011   0.303   3.829
 3239SOL    HW110616   0.043   0.353   3.897
 3239SOL    HW210617   6.939   0.361   3.792
 3240SOL     OW10618   0.581   1.017   6.299
 3240SOL    HW110619   0.618   0.997   6.389
 3240SOL    HW210620   0.589   0.936   6.241
 3241SOL     OW10621   5.561   1.651   6.675
 3241SOL    HW110622   5.646   1.638   6.624
 3241SOL    HW210623   5.503   1.570   6.664
 3242SOL     OW10624   4.778   4.284   5.406
 3242SOL    HW110625   4.812   4.203   5.453
 3242SOL    HW210626   4.836   4.363   5.428
 3243SOL     OW10627   4.845   4.955   5.769
 3243SOL    HW110628   4.839   4.921   5.863
 3243SOL    HW210629   4.927   4.919   5.725
 3244SOL     OW10630   6.015   6.112   6.730
 3244SOL    HW110631   5.981   6.180   6.796
 3244SOL    HW210632   5.937   6.075   6.679
 3245SOL     OW10633   4.093   1.666   4.073
 3245SOL    HW110634   4.149   1.729   4.018
 3245SOL    HW210635   4.000   1.702   4.080
 3246SOL     OW10636   0.691   0.609   2.063
 3246SOL    HW110637   0.705   0.510   2.075
 3246SOL    HW210638   0.741   0.640   1.983
 3247SOL     OW10639   0.840   4.074   2.783
 3247SOL    HW110640   0.870   4.069   2.878
 3247SOL    HW210641   0.747   4.110   2.780
 3248SOL     OW10642   5.538   2.208   3.690
 3248SOL    HW110643   5.601   2.163   3.627
 3248SOL    HW210644   5.535   2.306   3.670
 3249SOL     OW10645   3.310   3.750   3.621
 3249SOL    HW110646   3.255   3.806   3.559
 3249SOL    HW210647   3.270   3.755   3.713
 3250SOL     OW10648   5.393   6.215   2.319
 3250SOL    HW110649   5.331   6.224   2.397
 3250SOL    HW210650   5.470   6.277   2.331
 3251SOL     OW10651   2.635   1.255   4.173
 3251SOL    HW110652   2.731   1.253   4.200
 3251SOL    HW210653   2.582   1.304   4.243
 3252SOL     OW10654   2.280   1.434   4.111
 3252SOL    HW110655   2.185   1.435   4.141
 3252SOL    HW210656   2.338   1.402   4.186
 3253SOL     OW10657   6.415   3.093   1.180
 3253SOL    HW110658   6.374   3.148   1.108
 3253SOL    HW210659   6.514   3.090   1.167
 3254SOL     OW10660   5.834   0.990   0.341
 3254SOL    HW110661   5.818   0.895   0.316
 3254SOL    HW210662   5.787   1.050   0.276
 3255SOL     OW10663   5.947   4.854   1.324
 3255SOL    HW110664   6.008   4.821   1.252
 3255SOL    HW210665   5.868   4.899   1.283
 3256SOL     OW10666   4.489   2.314   1.036
 3256SOL    HW110667   4.550   2.265   1.098
 3256SOL    HW210668   4.536   2.333   0.950
 3257SOL     OW10669   2.032   1.927   2.519
 3257SOL    HW110670   2.095   1.914   2.596
 3257SOL    HW210671   1.991   2.018   2.525
 3258SOL     OW10672   2.727   5.802   3.700
 3258SOL    HW110673   2.744   5.737   3.774
 3258SOL    HW210674   2.711   5.893   3.738
 3259SOL     OW10675   5.070   4.011   4.251
 3259SOL    HW110676   5.121   3.977   4.330
 3259SOL    HW210677   5.118   3.985   4.167
 3260SOL     OW10678   2.127   4.184   1.836
 3260SOL    HW110679   2.195   4.141   1.896
 3260SOL    HW210680   2.157   4.175   1.741
 3261SOL     OW10681   4.217   0.692   3.254
 3261SOL    HW110682   4.163   0.626   3.306
 3261SOL    HW210683   4.198   0.784   3.287
 3262SOL     OW10684   3.633   2.016   2.546
 3262SOL    HW110685   3.618   2.049   2.639
 3262SOL    HW210686   3.695   1.937   2.549
 3263SOL     OW10687   1.685   1.503   2.792
 3263SOL    HW110688   1.747   1.452   2.733
 3263SOL    HW210689   1.693   1.601   2.772
 3264SOL     OW10690   2.554   5.283   0.193
 3264SOL    HW110691   2.551   5.313   0.097
 3264SOL    HW210692   2.611   5.347   0.245
 3265SOL     OW10693   5.857   5.194   5.602
 3265SOL    HW110694   5.819   5.286   5.594
 3265SOL    HW210695   5.798   5.130   5.554
 3266SOL     OW10696   2.976   4.967   0.281
 3266SOL    HW110697   3.020   4.926   0.201
 3266SOL    HW210698   2.885   4.999   0.256
 3267SOL     OW10699   4.258   0.181   0.571
 3267SOL    HW110700   4.312   0.247   0.622
 3267SOL    HW210701   4.310   0.150   0.492
 3268SOL     OW10702   6.675   4.371   1.730
 3268SOL    HW110703   6.689   4.364   1.829
 3268SOL    HW210704   6.650   4.465   1.706
 3269SOL     OW10705   1.064   5.023   2.355
 3269SOL    HW110706   1.059   4.930   2.317
 3269SOL    HW210707   1.147   5.068   2.322
 3270SOL     OW10708   1.113   2.534   5.194
 3270SOL    HW110709   1.062   2.563   5.114
 3270SOL    HW210710   1.147   2.441   5.180
 3271SOL     OW10711   0.144   3.441   2.720
 3271SOL    HW110712   0.233   3.478   2.748
 3271SOL    HW210713   0.074   3.469   2.786
 3272SOL     OW10714   4.476   6.258   0.165
 3272SOL    HW110715   4.553   6.316   0.193
 3272SOL    HW210716   4.457   6.273   0.068
 3273SOL     OW10717   4.774   3.473   6.363
 3273SOL    HW110718   4.711   3.399   6.342
 3273SOL    HW210719   4.804   3.517   6.278
 3274SOL     OW10720   5.876   0.898   0.000
 3274SOL    HW110721   5.965   0.885   0.044
 3274SOL    HW210722   5.827   0.972   0.045
 3275SOL     OW10723   4.856   0.319   1.206
 3275SOL    HW110724   4.845   0.256   1.283
 3275SOL    HW210725   4.907   0.400   1.237
 3276SOL     OW10726   4.720   0.006   0.166
 3276SOL    HW110727   4.699   0.067   0.090
 3276SOL    HW210728   4.719   0.058   0.252
 3277SOL     OW10729   3.397   1.585   2.003
 3277SOL    HW110730   3.413   1.663   1.942
 3277SOL    HW210731   3.306   1.593   2.044
 3278SOL     OW10732   6.922   0.346   6.613
 3278SOL    HW110733   6.949   0.257   6.651
 3278SOL    HW210734   6.986   0.372   6.541
 3279SOL     OW10735   4.349   6.351   0.908
 3279SOL    HW110736   4.355   6.398   0.997
 3279SOL    HW210737   4.255   6.357   0.874
 3280SOL     OW10738   5.409   3.505   4.500
 3280SOL    HW110739   5.315   3.506   4.535
 3280SOL    HW210740   5.426   3.419   4.454
 3281SOL     OW10741   6.652   4.356   2.009
 3281SOL    HW110742   6.667   4.258   2.021
 3281SOL    HW210743   6.733   4.406   2.039
 3282SOL     OW10744   0.466   3.781   5.318
 3282SOL    HW110745   0.434   3.869   5.352
 3282SOL    HW210746   0.494   3.790   5.223
 3283SOL     OW10747   4.064   0.890   1.281
 3283SOL    HW110748   4.021   0.979   1.274
 3283SOL    HW210749   4.129   0.878   1.205
 3284SOL     OW10750   1.794   5.941   4.688
 3284SOL    HW110751   1.705   5.911   4.653
 3284SOL    HW210752   1.860   5.941   4.613
 3285SOL     OW10753   6.045   0.742   4.504
 3285SOL    HW110754   6.024   0.800   4.425
 3285SOL    HW210755   6.142   0.717   4.502
 3286SOL     OW10756   3.141   1.810   1.791
 3286SOL    HW110757   3.241   1.802   1.793
 3286SOL    HW210758   3.115   1.873   1.718
 3287SOL     OW10759   1.759   0.352   6.129
 3287SOL    HW110760   1.764   0.390   6.221
 3287SOL    HW210761   1.674   0.299   6.120
 3288SOL     OW10762   1.687   6.397   0.891
 3288SOL    HW110763   1.723   6.489   0.878
 3288SOL    HW210764   1.596   6.402   0.931
 3289SOL     OW10765   3.601   1.633   6.564
 3289SOL    HW110766   3.691   1.591   6.576
 3289SOL    HW210767   3.592   1.710   6.627
 3290SOL     OW10768   6.714   5.019   0.722
 3290SOL    HW110769   6.691   5.116   0.720
 3290SOL    HW210770   6.769   4.996   0.641
 3291SOL     OW10771   4.449   0.125   5.494
 3291SOL    HW110772   4.392   0.101   5.573
 3291SOL    HW210773   4.533   0.168   5.525
 3292SOL     OW10774   0.511   1.410   1.007
 3292SOL    HW110775   0.459   1.400   0.922
 3292SOL    HW210776   0.488   1.335   1.069
 3293SOL     OW10777   6.441   5.275   2.929
 3293SOL    HW110778   6.472   5.352   2.985
 3293SOL    HW210779   6.342   5.279   2.918
 3294SOL     OW10780   5.182   2.381   5.633
 3294SOL    HW110781   5.111   2.311   5.638
 3294SOL    HW210782   5.157   2.458   5.693
 3295SOL     OW10783   2.057   2.925   1.155
 3295SOL    HW110784   1.961   2.921   1.128
 3295SOL    HW210785   2.070   3.002   1.218
 3296SOL     OW10786   0.749   0.374   5.734
 3296SOL    HW110787   0.661   0.370   5.686
 3296SOL    HW210788   0.766   0.287   5.779
 3297SOL     OW10789   3.220   1.841   5.217
 3297SOL    HW110790   3.200   1.743   5.207
 3297SOL    HW210791   3.163   1.892   5.153
 3298SOL     OW10792   6.003   4.248   4.571
 3298SOL    HW110793   6.003   4.184   4.495
 3298SOL    HW210794   6.096   4.281   4.588
 3299SOL     OW10795   3.411   4.955   3.716
 3299SOL    HW110796   3.401   4.919   3.809
 3299SOL    HW210797   3.394   5.054   3.717
 3300SOL     OW10798   2.033   6.881   5.417
 3300SOL    HW110799   2.005   6.976   5.405
 3300SOL    HW210800   2.099   6.875   5.491
 3301SOL     OW10801   1.859   3.011   2.552
 3301SOL    HW110802   1.856   2.970   2.643
 3301SOL    HW210803   1.869   3.110   2.560
 3302SOL     OW10804   2.329   4.900   5.582
 3302SOL    HW110805   2.271   4.936   5.655
 3302SOL    HW210806   2.275   4.840   5.523
 3303SOL     OW10807   3.352   2.954   0.831
 3303SOL    HW110808   3.403   2.945   0.746
 3303SOL    HW210809   3.405   3.009   0.896
 3304SOL     OW10810   2.561   4.732   5.606
 3304SOL    HW110811   2.577   4.664   5.534
 3304SOL    HW210812   2.485   4.791   5.580
 3305SOL     OW10813   3.704   0.520   1.252
 3305SOL    HW110814   3.775   0.456   1.283
 3305SOL    HW210815   3.698   0.597   1.316
 3306SOL     OW10816   1.870   0.220   0.101
 3306SOL    HW110817   1.804   0.217   0.175
 3306SOL    HW210818   1.902   0.314   0.089
 3307SOL     OW10819   0.915   6.927   4.612
 3307SOL    HW110820   0.818   6.949   4.613
 3307SOL    HW210821   0.930   6.839   4.568
 3308SOL     OW10822   3.525   4.480   0.981
 3308SOL    HW110823   3.480   4.550   0.925
 3308SOL    HW210824   3.620   4.469   0.951
 3309SOL     OW10825   5.178   3.902   4.037
 3309SOL    HW110826   5.091   3.854   4.025
 3309SOL    HW210827   5.205   3.944   3.951
 3310SOL     OW10828   0.368   5.136   4.799
 3310SOL    HW110829   0.310   5.117   4.719
 3310SOL    HW210830   0.365   5.058   4.861
 3311SOL     OW10831   2.868   4.088   0.694
 3311SOL    HW110832   2.866   4.080   0.794
 3311SOL    HW210833   2.792   4.037   0.654
 3312SOL     OW10834   4.972   2.686   6.510
 3312SOL    HW110835   5.033   2.734   6.447
 3312SOL    HW210836   4.890   2.740   6.524
 3313SOL     OW10837   0.842   0.572   3.155
 3313SOL    HW110838   0.759   0.524   3.126
 3313SOL    HW210839   0.818   0.662   3.191
 3314SOL     OW10840   2.163   6.651   3.042
 3314SOL    HW110841   2.104   6.622   2.966
 3314SOL    HW210842   2.141   6.745   3.068
 3315SOL     OW10843   0.252   5.229   5.103
 3315SOL    HW110844   0.218   5.200   5.192
 3315SOL    HW210845   0.331   5.288   5.115
 3316SOL     OW10846   2.602   1.150   6.429
 3316SOL    HW110847   2.618   1.167   6.526
 3316SOL    HW210848   2.513   1.187   6.403
 3317SOL     OW10849   4.960   2.336   1.970
 3317SOL    HW110850   4.885   2.401   1.981
 3317SOL    HW210851   4.933   2.248   2.010
 3318SOL     OW10852   2.937   2.639   0.365
 3318SOL    HW110853   2.891   2.670   0.282
 3318SOL    HW210854   2.992   2.715   0.402
 3319SOL     OW10855   6.663   6.734   2.753
 3319SOL    HW110856   6.756   6.707   2.779
 3319SOL    HW210857   6.628   6.800   2.820
 3320SOL     OW10858   6.340   0.274   0.801
 3320SOL    HW110859   6.271   0.201   0.799
 3320SOL    HW210860   6.316   0.343   0.733
 3321SOL     OW10861   5.624   1.830   0.247
 3321SOL    HW110862   5.565   1.880   0.311
 3321SOL    HW210863   5.715   1.820   0.286
 3322SOL     OW10864   6.527   3.126   0.767
 3322SOL    HW110865   6.445   3.156   0.816
 3322SOL    HW210866   6.540   3.183   0.686
 3323SOL     OW10867   2.351   1.838   2.126
 3323SOL    HW110868   2.352   1.752   2.177
 3323SOL    HW210869   2.262   1.882   2.137
 3324SOL     OW10870   5.140   4.995   5.607
 3324SOL    HW110871   5.237   5.001   5.630
 3324SOL    HW210872   5.115   5.072   5.548
 3325SOL     OW10873   1.669   3.235   6.578
 3325SOL    HW110874   1.623   3.297   6.515
 3325SOL    HW210875   1.752   3.278   6.614
 3326SOL     OW10876   5.459   1.245   2.834
 3326SOL    HW110877   5.360   1.238   2.820
 3326SOL    HW210878   5.492   1.161   2.878
 3327SOL     OW10879   1.102   6.146   1.354
 3327SOL    HW110880   1.085   6.150   1.255
 3327SOL    HW210881   1.197   6.119   1.369
 3328SOL     OW10882   3.697   2.018   0.808
 3328SOL    HW110883   3.729   2.068   0.888
 3328SOL    HW210884   3.691   1.920   0.830
 3329SOL     OW10885   6.095   5.489   5.795
 3329SOL    HW110886   6.115   5.426   5.871
 3329SOL    HW210887   6.178   5.540   5.771
 3330SOL     OW10888   6.592   2.800   2.238
 3330SOL    HW110889   6.544   2.857   2.305
 3330SOL    HW210890   6.531   2.780   2.161
 3331SOL     OW10891   1.178   1.902   1.355
 3331SOL    HW110892   1.252   1.948   1.402
 3331SOL    HW210893   1.189   1.913   1.256
 3332SOL     OW10894   5.676   4.378   0.244
 3332SOL    HW110895   5.682   4.468   0.201
 3332SOL    HW210896   5.765   4.353   0.281
 3333SOL     OW10897   4.245   4.863   6.143
 3333SOL    HW110898   4.193   4.778   6.137
 3333SOL    HW210899   4.187   4.939   6.113
 3334SOL     OW10900   3.435   3.495   1.454
 3334SOL    HW110901   3.494   3.467   1.379
 3334SOL    HW210902   3.410   3.591   1.444
 3335SOL     OW10903   5.085   4.530   5.893
 3335SOL    HW110904   4.996   4.534   5.938
 3335SOL    HW210905   5.124   4.622   5.887
 3336SOL     OW10906   3.452   5.415   5.902
 3336SOL    HW110907   3.505   5.484   5.950
 3336SOL    HW210908   3.363   5.404   5.947
 3337SOL     OW10909   3.544   2.516   1.432
 3337SOL    HW110910   3.636   2.486   1.408
 3337SOL    HW210911   3.529   2.504   1.530
 3338SOL     OW10912   0.078   3.871   1.399
 3338SOL    HW110913   7.003   3.877   1.369
 3338SOL    HW210914   0.134   3.935   1.345
 3339SOL     OW10915   6.572   5.891   6.949
 3339SOL    HW110916   6.486   5.874   6.996
 3339SOL    HW210917   6.628   5.808   6.952
 3340SOL     OW10918   3.263   6.777   2.094
 3340SOL    HW110919   3.260   6.682   2.064
 3340SOL    HW210920   3.184   6.827   2.058
 3341SOL     OW10921   0.672   0.222   2.694
 3341SOL    HW110922   0.652   0.301   2.752
 3341SOL    HW210923   0.740   0.249   2.625
 3342SOL     OW10924   1.790   0.060   4.569
 3342SOL    HW110925   1.829   7.008   4.628
 3342SOL    HW210926   1.823   0.149   4.600
 3343SOL     OW10927   4.866   2.953   1.010
 3343SOL    HW110928   4.842   2.951   1.107
 3343SOL    HW210929   4.893   3.045   0.984
 3344SOL     OW10930   5.696   3.597   5.493
 3344SOL    HW110931   5.734   3.585   5.401
 3344SOL    HW210932   5.696   3.694   5.517
 3345SOL     OW10933   2.714   3.789   5.928
 3345SOL    HW110934   2.768   3.821   5.850
 3345SOL    HW210935   2.722   3.689   5.936
 3346SOL     OW10936   0.272   0.570   2.111
 3346SOL    HW110937   0.177   0.592   2.130
 3346SOL    HW210938   0.328   0.653   2.118
 3347SOL     OW10939   6.018   3.942   4.633
 3347SOL    HW110940   5.944   3.919   4.570
 3347SOL    HW210941   6.015   4.040   4.653
 3348SOL     OW10942   3.724   3.400   3.999
 3348SOL    HW110943   3.636   3.446   4.007
 3348SOL    HW210944   3.748   3.390   3.903
 3349SOL     OW10945   6.788   3.783   4.247
 3349SOL    HW110946   6.810   3.692   4.210
 3349SOL    HW210947   6.775   3.776   4.346
 3350SOL     OW10948   1.739   1.078   0.279
 3350SOL    HW110949   1.778   0.990   0.250
 3350SOL    HW210950   1.724   1.135   0.198
 3351SOL     OW10951   5.704   1.325   0.937
 3351SOL    HW110952   5.611   1.323   0.975
 3351SOL    HW210953   5.709   1.264   0.858
 3352SOL     OW10954   0.804   4.009   1.290
 3352SOL    HW110955   0.839   4.098   1.319
 3352SOL    HW210956   0.869   3.966   1.227
 3353SOL     OW10957   1.483   6.830   6.241
 3353SOL    HW110958   1.385   6.808   6.249
 3353SOL    HW210959   1.536   6.771   6.301
 3354SOL     OW10960   6.774   2.307   3.738
 3354SOL    HW110961   6.738   2.396   3.763
 3354SOL    HW210962   6.873   2.313   3.724
 3355SOL     OW10963   0.318   1.434   1.612
 3355SOL    HW110964   0.348   1.340   1.630
 3355SOL    HW210965   0.318   1.486   1.698
 3356SOL     OW10966   3.037   3.554   6.821
 3356SOL    HW110967   3.025   3.458   6.797
 3356SOL    HW210968   2.950   3.602   6.812
 3357SOL     OW10969   3.050   5.163   1.629
 3357SOL    HW110970   3.105   5.210   1.560
 3357SOL    HW210971   3.100   5.160   1.715
 3358SOL     OW10972   4.810   6.318   2.468
 3358SOL    HW110973   4.871   6.359   2.536
 3358SOL    HW210974   4.865   6.283   2.392
 3359SOL     OW10975   1.101   0.294   2.675
 3359SOL    HW110976   1.031   0.313   2.606
 3359SOL    HW210977   1.189   0.330   2.643
 3360SOL     OW10978   0.554   0.841   0.452
 3360SOL    HW110979   0.562   0.870   0.547
 3360SOL    HW210980   0.519   0.917   0.397
 3361SOL     OW10981   6.187   5.879   3.305
 3361SOL    HW110982   6.174   5.902   3.209
 3361SOL    HW210983   6.100   5.852   3.345
 3362SOL     OW10984   2.699   1.460   4.850
 3362SOL    HW110985   2.605   1.431   4.867
 3362SOL    HW210986   2.707   1.496   4.757
 3363SOL     OW10987   0.312   1.811   6.952
 3363SOL    HW110988   0.397   1.836   6.998
 3363SOL    HW210989   0.235   1.828   7.013
 3364SOL     OW10990   1.396   5.524   5.962
 3364SOL    HW110991   1.367   5.592   6.030
 3364SOL    HW210992   1.440   5.447   6.009
 3365SOL     OW10993   0.410   2.727   4.697
 3365SOL    HW110994   0.385   2.694   4.788
 3365SOL    HW210995   0.331   2.773   4.655
 3366SOL     OW10996   4.978   0.253   5.573
 3366SOL    HW110997   4.973   0.319   5.498
 3366SOL    HW210998   5.069   0.256   5.614
 3367SOL     OW10999   1.488   2.428   2.648
 3367SOL    HW111000   1.417   2.491   2.616
 3367SOL    HW211001   1.465   2.393   2.738
 3368SOL     OW11002   6.453   5.469   6.419
 3368SOL    HW111003   6.473   5.534   6.491
 3368SOL    HW211004   6.538   5.438   6.376
 3369SOL     OW11005   3.645   0.288   0.136
 3369SOL    HW111006   3.559   0.281   0.086
 3369SOL    HW211007   3.720   0.301   0.071
 3370SOL     OW11008   6.519   6.550   5.014
 3370SOL    HW111009   6.518   6.451   5.029
 3370SOL    HW211010   6.604   6.576   4.966
 3371SOL     OW11011   1.284   4.772   1.763
 3371SOL    HW111012   1.217   4.823   1.708
 3371SOL    HW211013   1.242   4.689   1.799
 3372SOL     OW11014   0.987   1.041   2.597
 3372SOL    HW111015   1.003   1.110   2.527
 3372SOL    HW211016   1.007   0.950   2.561
 3373SOL     OW11017   5.952   1.684   4.866
 3373SOL    HW111018   6.018   1.759   4.856
 3373SOL    HW211019   5.933   1.643   4.777
 3374SOL     OW11020   3.170   6.375   5.501
 3374SOL    HW111021   3.240   6.347   5.567
 3374SOL    HW211022   3.085   6.326   5.520
 3375SOL     OW11023   4.597   4.351   5.038
 3375SOL    HW111024   4.511   4.386   5.002
 3375SOL    HW211025   4.613   4.387   5.130
 3376SOL     OW11026   3.330   2.957   2.370
 3376SOL    HW111027   3.249   2.914   2.408
 3376SOL    HW211028   3.303   3.033   2.310
 3377SOL     OW11029   0.701   6.461   4.839
 3377SOL    HW111030   0.729   6.402   4.915
 3377SOL    HW211031   0.782   6.492   4.789
 3378SOL     OW11032   6.467   1.232   1.595
 3378SOL    HW111033   6.377   1.263   1.626
 3378SOL    HW211034   6.501   1.294   1.525
 3379SOL     OW11035   0.481   4.827   5.849
 3379SOL    HW111036   0.513   4.768   5.775
 3379SOL    HW211037   0.515   4.920   5.835
 3380SOL     OW11038   0.357   4.638   6.788
 3380SOL    HW111039   0.397   4.600   6.705
 3380SOL    HW211040   0.258   4.645   6.778
 3381SOL     OW11041   3.324   2.717   0.593
 3381SOL    HW111042   3.408   2.759   0.626
 3381SOL    HW211043   3.339   2.680   0.501
 3382SOL     OW11044   6.827   1.815   0.604
 3382SOL    HW111045   6.779   1.727   0.599
 3382SOL    HW211046   6.918   1.806   0.565
 3383SOL     OW11047   5.977   4.521   2.915
 3383SOL    HW111048   6.070   4.534   2.949
 3383SOL    HW211049   5.958   4.587   2.843
 3384SOL     OW11050   3.192   2.977   4.618
 3384SOL    HW111051   3.149   3.036   4.549
 3384SOL    HW211052   3.280   2.944   4.584
 3385SOL     OW11053   6.454   3.697   3.422
 3385SOL    HW111054   6.504   3.613   3.398
 3385SOL    HW211055   6.432   3.695   3.520
 3386SOL     OW11056   6.164   4.687   4.284
 3386SOL    HW111057   6.200   4.697   4.376
 3386SOL    HW211058   6.112   4.601   4.277
 3387SOL     OW11059   2.371   2.519   2.897
 3387SOL    HW111060   2.372   2.484   2.804
 3387SOL    HW211061   2.460   2.502   2.940
 3388SOL     OW11062   5.620   2.118   1.288
 3388SOL    HW111063   5.530   2.129   1.246
 3388SOL    HW211064   5.627   2.178   1.368
 3389SOL     OW11065   4.714   4.225   3.819
 3389SOL    HW111066   4.743   4.144   3.870
 3389SOL    HW211067   4.731   4.211   3.722
 3390SOL     OW11068   4.984   2.884   5.985
 3390SOL    HW111069   5.010   2.819   5.914
 3390SOL    HW211070   4.884   2.885   5.993
 3391SOL     OW11071   3.733   1.832   4.780
 3391SOL    HW111072   3.831   1.818   4.768
 3391SOL    HW211073   3.690   1.846   4.691
 3392SOL     OW11074   2.249   0.733   3.993
 3392SOL    HW111075   2.261   0.830   3.973
 3392SOL    HW211076   2.153   0.714   4.012
 3393SOL     OW11077   6.577   6.636   0.165
 3393SOL    HW111078   6.565   6.561   0.100
 3393SOL    HW211079   6.647   6.698   0.131
 3394SOL     OW11080   5.965   2.186   0.843
 3394SOL    HW111081   5.887   2.209   0.901
 3394SOL    HW211082   5.937   2.120   0.774
 3395SOL     OW11083   0.631   3.343   4.198
 3395SOL    HW111084   0.627   3.265   4.260
 3395SOL    HW211085   0.727   3.362   4.174
 3396SOL     OW11086   0.227   3.498   3.216
 3396SOL    HW111087   0.269   3.549   3.291
 3396SOL    HW211088   0.133   3.475   3.239
 3397SOL     OW11089   3.785   6.984   5.917
 3397SOL    HW111090   3.710   0.028   5.931
 3397SOL    HW211091   3.765   6.898   5.965
 3398SOL     OW11092   0.936   0.274   4.270
 3398SOL    HW111093   0.910   0.192   4.219
 3398SOL    HW211094   0.964   0.346   4.206
 3399SOL     OW11095   4.666   5.286   4.301
 3399SOL    HW111096   4.649   5.330   4.389
 3399SOL    HW211097   4.739   5.219   4.311
 3400SOL     OW11098   4.842   2.122   6.594
 3400SOL    HW111099   4.771   2.056   6.620
 3400SOL    HW211100   4.892   2.150   6.676
 3401SOL     OW11101   6.797   3.629   0.453
 3401SOL    HW111102   6.701   3.605   0.439
 3401SOL    HW211103   6.812   3.723   0.424
 3402SOL     OW11104   5.460   5.692   1.452
 3402SOL    HW111105   5.496   5.626   1.385
 3402SOL    HW211106   5.390   5.748   1.408
 3403SOL     OW11107   3.616   0.199   4.726
 3403SOL    HW111108   3.673   0.141   4.667
 3403SOL    HW211109   3.528   0.216   4.682
 3404SOL     OW11110   4.182   1.470   0.900
 3404SOL    HW111111   4.084   1.455   0.898
 3404SOL    HW211112   4.221   1.455   0.809
 3405SOL     OW11113   6.110   4.002   6.500
 3405SOL    HW111114   6.044   3.944   6.452
 3405SOL    HW211115   6.132   4.082   6.444
 3406SOL     OW11116   2.528   4.568   2.011
 3406SOL    HW111117   2.481   4.512   1.943
 3406SOL    HW211118   2.625   4.577   1.987
 3407SOL     OW11119   1.281   5.653   1.895
 3407SOL    HW111120   1.319   5.578   1.841
 3407SOL    HW211121   1.207   5.620   1.953
 3408SOL     OW11122   4.910   3.938   3.032
 3408SOL    HW111123   4.886   3.845   3.059
 3408SOL    HW211124   4.882   4.002   3.104
 3409SOL     OW11125   3.941   0.218   5.851
 3409SOL    HW111126   3.978   0.202   5.760
 3409SOL    HW211127   3.849   0.179   5.858
 3410SOL     OW11128   6.256   5.540   0.080
 3410SOL    HW111129   6.158   5.558   0.090
 3410SOL    HW211130   6.269   5.448   0.042
 3411SOL     OW11131   4.927   2.033   2.093
 3411SOL    HW111132   5.019   1.999   2.072
 3411SOL    HW211133   4.902   2.003   2.185
 3412SOL     OW11134   3.975   3.669   6.821
 3412SOL    HW111135   4.011   3.627   6.738
 3412SOL    HW211136   4.051   3.710   6.873
 3413SOL     OW11137   3.801   1.452   2.993
 3413SOL    HW111138   3.846   1.536   2.961
 3413SOL    HW211139   3.713   1.442   2.946
 3414SOL     OW11140   2.972   1.773   4.819
 3414SOL    HW111141   2.944   1.869   4.810
 3414SOL    HW211142   2.930   1.733   4.900
 3415SOL     OW11143   0.913   4.965   4.242
 3415SOL    HW111144   0.894   4.922   4.154
 3415SOL    HW211145   0.984   5.034   4.231
 3416SOL     OW11146   0.329   4.450   5.863
 3416SOL    HW111147   0.391   4.480   5.936
 3416SOL    HW211148   0.351   4.498   5.779
 3417SOL     OW11149   0.074   6.455   2.582
 3417SOL    HW111150   0.036   6.443   2.673
 3417SOL    HW211151   0.021   6.523   2.531
 3418SOL     OW11152   2.853   1.143   4.934
 3418SOL    HW111153   2.840   1.211   5.007
 3418SOL    HW211154   2.827   1.052   4.968
 3419SOL     OW11155   4.487   4.750   6.859
 3419SOL    HW111156   4.408   4.734   6.800
 3419SOL    HW211157   4.553   4.675   6.846
 3420SOL     OW11158   4.899   1.750   4.136
 3420SOL    HW111159   4.804   1.728   4.116
 3420SOL    HW211160   4.906   1.846   4.165
 3421SOL     OW11161   6.787   6.908   5.409
 3421SOL    HW111162   6.789   6.944   5.316
 3421SOL    HW211163   6.714   6.952   5.460
 3422SOL     OW11164   3.307   6.894   1.139
 3422SOL    HW111165   3.322   6.928   1.232
 3422SOL    HW211166   3.283   6.971   1.079
 3423SOL     OW11167   2.454   0.592   0.395
 3423SOL    HW111168   2.535   0.649   0.388
 3423SOL    HW211169   2.374   0.650   0.410
 3424SOL     OW11170   3.939   1.140   2.374
 3424SOL    HW111171   3.857   1.195   2.360
 3424SOL    HW211172   3.918   1.044   2.355
 3425SOL     OW11173   4.670   4.221   2.218
 3425SOL    HW111174   4.616   4.268   2.148
 3425SOL    HW211175   4.616   4.148   2.260
 3426SOL     OW11176   3.347   3.339   0.377
 3426SOL    HW111177   3.378   3.384   0.292
 3426SOL    HW211178   3.422   3.340   0.443
 3427SOL     OW11179   6.720   0.314   0.113
 3427SOL    HW111180   6.769   0.391   0.154
 3427SOL    HW211181   6.695   0.248   0.184
 3428SOL     OW11182   3.736   5.151   2.084
 3428SOL    HW111183   3.676   5.227   2.059
 3428SOL    HW211184   3.680   5.072   2.108
 3429SOL     OW11185   0.964   2.588   6.959
 3429SOL    HW111186   0.964   2.625   0.032
 3429SOL    HW211187   0.953   2.489   6.962
 3430SOL     OW11188   1.214   6.771   7.003
 3430SOL    HW111189   1.120   6.779   0.016
 3430SOL    HW211190   1.221   6.816   6.913
 3431SOL     OW11191   1.407   6.056   1.319
 3431SOL    HW111192   1.453   6.021   1.401
 3431SOL    HW211193   1.416   6.156   1.317
 3432SOL     OW11194   2.730   2.292   5.223
 3432SOL    HW111195   2.654   2.269   5.284
 3432SOL    HW211196   2.797   2.346   5.274
 3433SOL     OW11197   3.549   1.039   6.230
 3433SOL    HW111198   3.521   1.119   6.179
 3433SOL    HW211199   3.593   1.067   6.315
 3434SOL     OW11200   4.160   2.662   1.072
 3434SOL    HW111201   4.108   2.725   1.014
 3434SOL    HW211202   4.120   2.571   1.067
 3435SOL     OW11203   0.211   2.638   1.577
 3435SOL    HW111204   0.281   2.612   1.644
 3435SOL    HW211205   0.130   2.673   1.624
 3436SOL     OW11206   4.170   6.609   4.581
 3436SOL    HW111207   4.090   6.638   4.633
 3436SOL    HW211208   4.249   6.599   4.642
 3437SOL     OW11209   4.384   0.581   5.432
 3437SOL    HW111210   4.309   0.632   5.391
 3437SOL    HW211211   4.397   0.496   5.381
 3438SOL     OW11212   1.975   2.597   6.839
 3438SOL    HW111213   1.912   2.520   6.830
 3438SOL    HW211214   1.949   2.652   6.918
 3439SOL     OW11215   2.566   6.693   5.069
 3439SOL    HW111216   2.593   6.779   5.025
 3439SOL    HW211217   2.554   6.709   5.167
 3440SOL     OW11218   4.390   3.879   0.902
 3440SOL    HW111219   4.369   3.960   0.846
 3440SOL    HW211220   4.403   3.907   0.997
 3441SOL     OW11221   3.987   6.916   3.741
 3441SOL    HW111222   3.964   6.827   3.700
 3441SOL    HW211223   4.013   6.902   3.836
 3442SOL     OW11224   1.995   5.398   3.721
 3442SOL    HW111225   1.976   5.342   3.801
 3442SOL    HW211226   1.960   5.352   3.639
 3443SOL     OW11227   5.802   1.775   3.297
 3443SOL    HW111228   5.892   1.788   3.254
 3443SOL    HW211229   5.810   1.790   3.396
 3444SOL     OW11230   5.037   5.775   6.622
 3444SOL    HW111231   4.948   5.731   6.613
 3444SOL    HW211232   5.104   5.707   6.652
 3445SOL     OW11233   6.690   4.027   4.205
 3445SOL    HW111234   6.699   3.928   4.215
 3445SOL    HW211235   6.776   4.071   4.233
 3446SOL     OW11236   3.909   0.967   2.956
 3446SOL    HW111237   3.841   1.025   3.000
 3446SOL    HW211238   3.864   0.888   2.915
 3447SOL     OW11239   6.026   5.677   0.146
 3447SOL    HW111240   6.094   5.746   0.170
 3447SOL    HW211241   5.948   5.684   0.208
 3448SOL     OW11242   3.425   0.470   0.766
 3448SOL    HW111243   3.509   0.523   0.754
 3448SOL    HW211244   3.425   0.428   0.857
 3449SOL     OW11245   6.106   0.009   1.649
 3449SOL    HW111246   6.060   0.021   1.561
 3449SOL    HW211247   6.193   6.982   1.635
 3450SOL     OW11248   0.921   1.780   1.298
 3450SOL    HW111249   0.899   1.705   1.360
 3450SOL    HW211250   1.011   1.818   1.322
 3451SOL     OW11251   0.750   5.721   3.486
 3451SOL    HW111252   0.734   5.815   3.517
 3451SOL    HW211253   0.847   5.700   3.490
 3452SOL     OW11254   6.971   1.016   6.537
 3452SOL    HW111255   6.880   1.057   6.540
 3452SOL    HW211256   6.973   0.934   6.594
 3453SOL     OW11257   5.394   5.786   4.854
 3453SOL    HW111258   5.401   5.820   4.948
 3453SOL    HW211259   5.485   5.785   4.812
 3454SOL     OW11260   1.571   1.606   0.086
 3454SOL    HW111261   1.671   1.602   0.090
 3454SOL    HW211262   1.542   1.701   0.070
 3455SOL     OW11263   1.498   3.299   4.454
 3455SOL    HW111264   1.522   3.396   4.457
 3455SOL    HW211265   1.514   3.258   4.544
 3456SOL     OW11266   5.877   6.328   2.177
 3456SOL    HW111267   5.913   6.289   2.261
 3456SOL    HW211268   5.953   6.367   2.124
 3457SOL     OW11269   2.792   5.417   4.167
 3457SOL    HW111270   2.713   5.358   4.148
 3457SOL    HW211271   2.855   5.415   4.090
 3458SOL     OW11272   6.092   6.838   0.225
 3458SOL    HW111273   6.021   6.892   0.178
 3458SOL    HW211274   6.181   6.858   0.184
 3459SOL     OW11275   0.271   3.568   2.965
 3459SOL    HW111276   0.334   3.510   2.914
 3459SOL    HW211277   0.263   3.534   3.059
 3460SOL     OW11278   2.951   3.121   0.090
 3460SOL    HW111279   2.974   3.217   0.100
 3460SOL    HW211280   2.921   3.084   0.178
 3461SOL     OW11281   3.865   5.363   4.010
 3461SOL    HW111282   3.934   5.341   4.079
 3461SOL    HW211283   3.777   5.381   4.054
 3462SOL     OW11284   6.128   2.778   2.822
 3462SOL    HW111285   6.180   2.838   2.762
 3462SOL    HW211286   6.038   2.818   2.840
 3463SOL     OW11287   0.957   3.100   2.257
 3463SOL    HW111288   0.938   3.010   2.217
 3463SOL    HW211289   0.873   3.155   2.256
 3464SOL     OW11290   5.782   2.508   6.647
 3464SOL    HW111291   5.693   2.484   6.687
 3464SOL    HW211292   5.775   2.509   6.548
 3465SOL     OW11293   2.176   3.528   1.515
 3465SOL    HW111294   2.199   3.589   1.592
 3465SOL    HW211295   2.194   3.575   1.429
 3466SOL     OW11296   5.461   4.113   5.570
 3466SOL    HW111297   5.488   4.180   5.640
 3466SOL    HW211298   5.393   4.051   5.609
 3467SOL     OW11299   3.718   1.729   0.850
 3467SOL    HW111300   3.649   1.667   0.812
 3467SOL    HW211301   3.748   1.695   0.939
 3468SOL     OW11302   4.661   1.612   1.901
 3468SOL    HW111303   4.753   1.614   1.862
 3468SOL    HW211304   4.617   1.701   1.885
 3469SOL     OW11305   4.582   0.036   5.950
 3469SOL    HW111306   4.595   7.016   5.860
 3469SOL    HW211307   4.628   0.125   5.954
 3470SOL     OW11308   0.172   2.955   0.915
 3470SOL    HW111309   0.097   2.995   0.863
 3470SOL    HW211310   0.137   2.912   0.998
 3471SOL     OW11311   4.662   4.280   3.480
 3471SOL    HW111312   4.564   4.264   3.473
 3471SOL    HW211313   4.679   4.376   3.499
 3472SOL     OW11314   4.599   2.085   2.615
 3472SOL    HW111315   4.589   2.037   2.528
 3472SOL    HW211316   4.588   2.019   2.690
 3473SOL     OW11317   6.987   3.558   3.861
 3473SOL    HW111318   0.041   3.625   3.850
 3473SOL    HW211319   6.900   3.601   3.839
 3474SOL     OW11320   0.405   4.070   3.926
 3474SOL    HW111321   0.340   4.019   3.870
 3474SOL    HW211322   0.432   4.154   3.878
 3475SOL     OW11323   0.256   5.103   4.026
 3475SOL    HW111324   0.171   5.100   3.973
 3475SOL    HW211325   0.298   5.194   4.016
 3476SOL     OW11326   1.915   1.403   3.884
 3476SOL    HW111327   1.858   1.377   3.805
 3476SOL    HW211328   1.857   1.436   3.958
 3477SOL     OW11329   0.407   3.366   0.856
 3477SOL    HW111330   0.397   3.287   0.796
 3477SOL    HW211331   0.496   3.409   0.841
 3478SOL     OW11332   2.266   6.786   0.338
 3478SOL    HW111333   2.256   6.884   0.355
 3478SOL    HW211334   2.312   6.743   0.416
 3479SOL     OW11335   0.482   2.726   3.799
 3479SOL    HW111336   0.580   2.706   3.804
 3479SOL    HW211337   0.469   2.824   3.784
 3480SOL     OW11338   0.784   6.113   6.702
 3480SOL    HW111339   0.720   6.155   6.766
 3480SOL    HW211340   0.796   6.173   6.622
 3481SOL     OW11341   5.435   0.876   0.214
 3481SOL    HW111342   5.481   0.886   0.125
 3481SOL    HW211343   5.337   0.888   0.202
 3482SOL     OW11344   6.332   2.323   3.670
 3482SOL    HW111345   6.274   2.279   3.738
 3482SOL    HW211346   6.335   2.422   3.687
 3483SOL     OW11347   5.285   2.482   3.275
 3483SOL    HW111348   5.290   2.571   3.321
 3483SOL    HW211349   5.312   2.410   3.338
 3484SOL     OW11350   2.075   3.943   6.725
 3484SOL    HW111351   2.144   4.015   6.726
 3484SOL    HW211352   2.088   3.883   6.804
 3485SOL     OW11353   6.950   2.218   5.702
 3485SOL    HW111354   6.871   2.158   5.710
 3485SOL    HW211355   0.007   2.180   5.753
 3486SOL     OW11356   1.894   0.012   4.000
 3486SOL    HW111357   1.962   0.001   3.927
 3486SOL    HW211358   1.937   7.013   4.089
 3487SOL     OW11359   6.625   1.643   6.978
 3487SOL    HW111360   6.715   1.600   6.987
 3487SOL    HW211361   6.596   1.678   0.047
 3488SOL     OW11362   5.553   0.230   5.036
 3488SOL    HW111363   5.495   0.294   5.086
 3488SOL    HW211364   5.617   0.187   5.099
 3489SOL     OW11365   3.087   6.808   1.277
 3489SOL    HW111366   3.164   6.832   1.218
 3489SOL    HW211367   3.066   6.711   1.267
 3490SOL     OW11368   3.612   5.015   1.222
 3490SOL    HW111369   3.572   4.932   1.184
 3490SOL    HW211370   3.676   4.991   1.296
 3491SOL     OW11371   4.989   4.148   6.450
 3491SOL    HW111372   4.960   4.103   6.535
 3491SOL    HW211373   5.075   4.195   6.466
 3492SOL     OW11374   7.011   3.888   1.889
 3492SOL    HW111375   0.075   3.929   1.852
 3492SOL    HW211376   6.935   3.910   1.829
 3493SOL     OW11377   6.240   3.866   4.097
 3493SOL    HW111378   6.199   3.885   4.008
 3493SOL    HW211379   6.295   3.944   4.127
 3494SOL     OW11380   3.199   1.635   2.389
 3494SOL    HW111381   3.228   1.721   2.348
 3494SOL    HW211382   3.247   1.559   2.346
 3495SOL     OW11383   0.830   3.849   2.172
 3495SOL    HW111384   0.797   3.934   2.215
 3495SOL    HW211385   0.794   3.842   2.080
 3496SOL     OW11386   5.666   4.579   1.062
 3496SOL    HW111387   5.721   4.589   1.144
 3496SOL    HW211388   5.610   4.496   1.069
 3497SOL     OW11389   3.414   1.093   3.940
 3497SOL    HW111390   3.337   1.085   4.004
 3497SOL    HW211391   3.378   1.107   3.848
 3498SOL     OW11392   2.735   2.056   2.437
 3498SOL    HW111393   2.668   2.001   2.386
 3498SOL    HW211394   2.772   2.127   2.377
 3499SOL     OW11395   5.980   5.994   5.382
 3499SOL    HW111396   5.935   5.955   5.463
 3499SOL    HW211397   5.970   6.093   5.382
 3500SOL     OW11398   1.973   2.364   4.361
 3500SOL    HW111399   2.032   2.301   4.412
 3500SOL    HW211400   1.878   2.349   4.387
 3501SOL     OW11401   2.446   6.601   6.688
 3501SOL    HW111402   2.528   6.656   6.704
 3501SOL    HW211403   2.367   6.646   6.731
 3502SOL     OW11404   5.955   3.389   1.993
 3502SOL    HW111405   6.023   3.462   1.989
 3502SOL    HW211406   5.895   3.404   2.072
 3503SOL     OW11407   6.943   5.806   6.243
 3503SOL    HW111408   0.016   5.829   6.272
 3503SOL    HW211409   6.916   5.865   6.166
 3504SOL     OW11410   2.147   0.916   2.221
 3504SOL    HW111411   2.157   0.884   2.315
 3504SOL    HW211412   2.105   0.844   2.166
 3505SOL     OW11413   5.547   5.790   5.458
 3505SOL    HW111414   5.519   5.735   5.380
 3505SOL    HW211415   5.644   5.773   5.477
 3506SOL     OW11416   6.059   4.595   4.670
 3506SOL    HW111417   6.046   4.557   4.762
 3506SOL    HW211418   6.008   4.540   4.604
 3507SOL     OW11419   2.186   6.414   0.847
 3507SOL    HW111420   2.132   6.475   0.790
 3507SOL    HW211421   2.173   6.320   0.816
 3508SOL     OW11422   3.229   2.674   6.291
 3508SOL    HW111423   3.322   2.662   6.324
 3508SOL    HW211424   3.172   2.599   6.324
 3509SOL     OW11425   5.600   6.823   0.161
 3509SOL    HW111426   5.632   6.741   0.114
 3509SOL    HW211427   5.678   6.875   0.195
 3510SOL     OW11428   1.824   0.717   0.973
 3510SOL    HW111429   1.784   0.729   0.882
 3510SOL    HW211430   1.922   0.737   0.970
 3511SOL     OW11431   1.965   5.023   1.647
 3511SOL    HW111432   1.982   4.928   1.671
 3511SOL    HW211433   1.867   5.041   1.651
 3512SOL     OW11434   0.980   3.704   0.738
 3512SOL    HW111435   0.951   3.739   0.826
 3512SOL    HW211436   0.933   3.618   0.719
 3513SOL     OW11437   6.046   2.269   1.337
 3513SOL    HW111438   6.094   2.270   1.424
 3513SOL    HW211439   6.026   2.175   1.311
 3514SOL     OW11440   5.570   0.893   2.541
 3514SOL    HW111441   5.640   0.824   2.556
 3514SOL    HW211442   5.608   0.984   2.559
 3515SOL     OW11443   5.110   6.242   3.991
 3515SOL    HW111444   5.022   6.231   4.036
 3515SOL    HW211445   5.172   6.293   4.051
 3516SOL     OW11446   5.144   6.523   1.180
 3516SOL    HW111447   5.179   6.512   1.273
 3516SOL    HW211448   5.090   6.443   1.154
 3517SOL     OW11449   0.198   1.058   1.377
 3517SOL    HW111450   0.134   1.069   1.301
 3517SOL    HW211451   0.291   1.076   1.345
 3518SOL     OW11452   5.193   2.217   4.806
 3518SOL    HW111453   5.227   2.172   4.889
 3518SOL    HW211454   5.199   2.316   4.816
 3519SOL     OW11455   2.285   1.115   6.592
 3519SOL    HW111456   2.188   1.119   6.616
 3519SOL    HW211457   2.316   1.206   6.563
 3520SOL     OW11458   3.595   6.511   0.148
 3520SOL    HW111459   3.680   6.482   0.191
 3520SOL    HW211460   3.602   6.502   0.049
 3521SOL     OW11461   3.570   2.572   6.617
 3521SOL    HW111462   3.493   2.554   6.679
 3521SOL    HW211463   3.534   2.605   6.529
 3522SOL     OW11464   6.312   4.585   6.840
 3522SOL    HW111465   6.286   4.668   6.890
 3522SOL    HW211466   6.317   4.607   6.742
 3523SOL     OW11467   0.973   4.188   5.729
 3523SOL    HW111468   0.951   4.285   5.713
 3523SOL    HW211469   1.027   4.153   5.653
 3524SOL     OW11470   5.166   1.898   2.493
 3524SOL    HW111471   5.247   1.956   2.502
 3524SOL    HW211472   5.084   1.955   2.489
 3525SOL     OW11473   6.041   3.472   4.101
 3525SOL    HW111474   6.012   3.555   4.148
 3525SOL    HW211475   6.097   3.416   4.162
 3526SOL     OW11476   2.202   6.328   3.198
 3526SOL    HW111477   2.249   6.380   3.127
 3526SOL    HW211478   2.244   6.347   3.286
 3527SOL     OW11479   6.332   3.112   6.175
 3527SOL    HW111480   6.288   3.116   6.086
 3527SOL    HW211481   6.271   3.065   6.240
 3528SOL     OW11482   2.275   6.296   4.781
 3528SOL    HW111483   2.250   6.287   4.684
 3528SOL    HW211484   2.368   6.265   4.794
 3529SOL     OW11485   4.314   6.710   6.950
 3529SOL    HW111486   4.379   6.753   6.887
 3529SOL    HW211487   4.316   6.758   0.018
 3530SOL     OW11488   6.912   4.975   1.391
 3530SOL    HW111489   6.883   4.992   1.485
 3530SOL    HW211490   7.011   4.968   1.387
 3531SOL     OW11491   5.876   2.491   1.621
 3531SOL    HW111492   5.920   2.401   1.620
 3531SOL    HW211493   5.818   2.498   1.702
 3532SOL     OW11494   2.495   1.195   1.729
 3532SOL    HW111495   2.512   1.098   1.709
 3532SOL    HW211496   2.578   1.235   1.768
 3533SOL     OW11497   0.765   1.754   2.569
 3533SOL    HW111498   0.810   1.677   2.523
 3533SOL    HW211499   0.826   1.834   2.567
 3534SOL     OW11500   0.539   2.027   1.768
 3534SOL    HW111501   0.587   1.962   1.708
 3534SOL    HW211502   0.549   2.119   1.731
 3535SOL     OW11503   2.734   5.529   5.523
 3535SOL    HW111504   2.737   5.436   5.486
 3535SOL    HW211505   2.654   5.577   5.488
 3536SOL     OW11506   3.244   2.182   3.325
 3536SOL    HW111507   3.243   2.087   3.294
 3536SOL    HW211508   3.331   2.224   3.301
 3537SOL     OW11509   1.560   5.496   1.984
 3537SOL    HW111510   1.486   5.494   1.917
 3537SOL    HW211511   1.550   5.419   2.047
 3538SOL     OW11512   3.114   5.546   5.891
 3538SOL    HW111513   3.051   5.609   5.936
 3538SOL    HW211514   3.067   5.498   5.817
 3539SOL     OW11515   3.649   3.590   4.406
 3539SOL    HW111516   3.712   3.541   4.345
 3539SOL    HW211517   3.682   3.581   4.500
 3540SOL     OW11518   2.390   2.243   4.621
 3540SOL    HW111519   2.461   2.309   4.599
 3540SOL    HW211520   2.413   2.154   4.582
 3541SOL     OW11521   2.895   2.793   5.391
 3541SOL    HW111522   2.847   2.878   5.412
 3541SOL    HW211523   2.840   2.715   5.422
 3542SOL     OW11524   1.629   5.147   2.962
 3542SOL    HW111525   1.534   5.119   2.976
 3542SOL    HW211526   1.661   5.201   3.040
 3543SOL     OW11527   6.049   2.835   3.688
 3543SOL    HW111528   6.112   2.889   3.632
 3543SOL    HW211529   5.961   2.883   3.694
 3544SOL     OW11530   2.249   4.330   6.945
 3544SOL    HW111531   2.211   4.348   6.854
 3544SOL    HW211532   2.337   4.284   6.936
 3545SOL     OW11533   4.229   6.407   6.192
 3545SOL    HW111534   4.180   6.341   6.248
 3545SOL    HW211535   4.167   6.444   6.122
 3546SOL     OW11536   0.758   5.470   3.256
 3546SOL    HW111537   0.806   5.396   3.303
 3546SOL    HW211538   0.811   5.555   3.265
 3547SOL     OW11539   4.528   5.006   3.746
 3547SOL    HW111540   4.547   5.038   3.839
 3547SOL    HW211541   4.600   5.039   3.684
 3548SOL     OW11542   5.074   1.966   5.609
 3548SOL    HW111543   5.032   1.935   5.524
 3548SOL    HW211544   5.044   1.907   5.685
 3549SOL     OW11545   6.722   4.841   4.026
 3549SOL    HW111546   6.739   4.745   4.049
 3549SOL    HW211547   6.737   4.898   4.107
 3550SOL     OW11548   5.187   2.253   2.913
 3550SOL    HW111549   5.124   2.251   2.836
 3550SOL    HW211550   5.142   2.217   2.994
 3551SOL     OW11551   3.718   6.327   3.087
 3551SOL    HW111552   3.762   6.397   3.031
 3551SOL    HW211553   3.787   6.262   3.120
 3552SOL     OW11554   4.927   6.030   2.235
 3552SOL    HW111555   5.004   5.979   2.273
 3552SOL    HW211556   4.850   6.027   2.299
 3553SOL     OW11557   5.827   3.053   2.133
 3553SOL    HW111558   5.862   3.036   2.041
 3553SOL    HW211559   5.812   2.966   2.180
 3554SOL     OW11560   4.054   3.513   0.303
 3554SOL    HW111561   4.057   3.571   0.385
 3554SOL    HW211562   4.133   3.535   0.245
 3555SOL     OW11563   0.606   3.309   2.925
 3555SOL    HW111564   0.515   3.321   2.884
 3555SOL    HW211565   0.662   3.389   2.905
 3556SOL     OW11566   3.647   0.318   5.217
 3556SOL    HW111567   3.636   0.330   5.118
 3556SOL    HW211568   3.569   0.360   5.264
 3557SOL     OW11569   0.802   0.344   4.503
 3557SOL    HW111570   0.710   0.305   4.498
 3557SOL    HW211571   0.839   0.355   4.410
 3558SOL     OW11572   0.011   5.503   1.297
 3558SOL    HW111573   0.008   5.407   1.272
 3558SOL    HW211574   0.094   5.545   1.261
 3559SOL     OW11575   0.537   0.087   4.760
 3559SOL    HW111576   0.526   0.184   4.779
 3559SOL    HW211577   0.447   0.046   4.743
 3560SOL     OW11578   1.316   5.980   1.040
 3560SOL    HW111579   1.364   6.011   1.123
 3560SOL    HW211580   1.286   5.885   1.052
 3561SOL     OW11581   5.149   4.833   5.899
 3561SOL    HW111582   5.123   4.913   5.846
 3561SOL    HW211583   5.249   4.827   5.903
 3562SOL     OW11584   4.945   0.775   4.239
 3562SOL    HW111585   5.022   0.751   4.181
 3562SOL    HW211586   4.978   0.815   4.325
 3563SOL     OW11587   5.646   1.158   1.629
 3563SOL    HW111588   5.608   1.188   1.717
 3563SOL    HW211589   5.688   1.237   1.583
 3564SOL     OW11590   1.288   4.593   4.121
 3564SOL    HW111591   1.240   4.626   4.203
 3564SOL    HW211592   1.311   4.670   4.062
 3565SOL     OW11593   3.249   6.118   5.035
 3565SOL    HW111594   3.242   6.032   5.086
 3565SOL    HW211595   3.337   6.121   4.988
 3566SOL     OW11596   0.023   3.703   5.844
 3566SOL    HW111597   0.095   3.635   5.858
 3566SOL    HW211598   6.982   3.704   5.923
 3567SOL     OW11599   1.292   2.441   0.456
 3567SOL    HW111600   1.300   2.539   0.470
 3567SOL    HW211601   1.296   2.421   0.358
 3568SOL     OW11602   5.424   4.985   2.449
 3568SOL    HW111603   5.483   4.960   2.372
 3568SOL    HW211604   5.387   4.903   2.492
 3569SOL     OW11605   2.899   3.185   5.101
 3569SOL    HW111606   2.938   3.275   5.123
 3569SOL    HW211607   2.897   3.172   5.002
 3570SOL     OW11608   5.900   1.114   5.407
 3570SOL    HW111609   5.993   1.136   5.439
 3570SOL    HW211610   5.838   1.110   5.484
 3571SOL     OW11611   1.760   0.908   4.885
 3571SOL    HW111612   1.695   0.979   4.859
 3571SOL    HW211613   1.735   0.872   4.975
 3572SOL     OW11614   5.223   4.032   2.981
 3572SOL    HW111615   5.125   4.013   2.991
 3572SOL    HW211616   5.262   4.053   3.071
 3573SOL     OW11617   6.579   4.803   2.144
 3573SOL    HW111618   6.557   4.792   2.241
 3573SOL    HW211619   6.526   4.737   2.090
 3574SOL     OW11620   2.343   3.182   6.701
 3574SOL    HW111621   2.307   3.128   6.625
 3574SOL    HW211622   2.267   3.212   6.759
 3575SOL     OW11623   5.145   5.288   1.022
 3575SOL    HW111624   5.059   5.336   1.040
 3575SOL    HW211625   5.133   5.227   0.943
 3576SOL     OW11626   0.366   2.470   0.294
 3576SOL    HW111627   0.341   2.410   0.370
 3576SOL    HW211628   0.297   2.462   0.221
 3577SOL     OW11629   2.369   3.073   5.667
 3577SOL    HW111630   2.310   3.057   5.588
 3577SOL    HW211631   2.440   3.140   5.644
 3578SOL     OW11632   3.069   2.976   0.808
 3578SOL    HW111633   3.024   2.894   0.771
 3578SOL    HW211634   3.165   2.955   0.829
 3579SOL     OW11635   0.689   3.443   2.414
 3579SOL    HW111636   0.759   3.502   2.374
 3579SOL    HW211637   0.632   3.496   2.477
 3580SOL     OW11638   0.305   3.246   1.404
 3580SOL    HW111639   0.282   3.257   1.307
 3580SOL    HW211640   0.364   3.167   1.415
 3581SOL     OW11641   0.837   0.119   3.307
 3581SOL    HW111642   0.811   0.066   3.227
 3581SOL    HW211643   0.796   0.079   3.389
 3582SOL     OW11644   3.297   4.375   6.058
 3582SOL    HW111645   3.206   4.365   6.020
 3582SOL    HW211646   3.302   4.458   6.113
 3583SOL     OW11647   0.547   4.397   1.074
 3583SOL    HW111648   0.490   4.448   1.009
 3583SOL    HW211649   0.497   4.387   1.160
 3584SOL     OW11650   6.072   4.461   5.455
 3584SOL    HW111651   6.096   4.406   5.535
 3584SOL    HW211652   6.150   4.519   5.429
 3585SOL     OW11653   2.624   1.894   4.655
 3585SOL    HW111654   2.670   1.810   4.629
 3585SOL    HW211655   2.530   1.893   4.621
 3586SOL     OW11656   6.414   3.157   3.854
 3586SOL    HW111657   6.457   3.129   3.768
 3586SOL    HW211658   6.317   3.132   3.852
 3587SOL     OW11659   3.805   6.029   6.664
 3587SOL    HW111660   3.738   6.035   6.738
 3587SOL    HW211661   3.784   6.098   6.595
 3588SOL     OW11662   6.469   4.225   3.981
 3588SOL    HW111663   6.417   4.196   4.061
 3588SOL    HW211664   6.447   4.167   3.903
 3589SOL     OW11665   0.339   6.922   5.777
 3589SOL    HW111666   0.250   6.948   5.739
 3589SOL    HW211667   0.326   6.853   5.849
 3590SOL     OW11668   0.302   4.352   0.645
 3590SOL    HW111669   0.312   4.420   0.572
 3590SOL    HW211670   0.353   4.383   0.726
 3591SOL     OW11671   5.330   3.100   6.664
 3591SOL    HW111672   5.334   3.200   6.670
 3591SOL    HW211673   5.266   3.066   6.733
 3592SOL     OW11674   1.308   0.364   1.991
 3592SOL    HW111675   1.276   0.278   1.950
 3592SOL    HW211676   1.370   0.344   2.066
 3593SOL     OW11677   6.954   4.429   5.254
 3593SOL    HW111678   0.011   4.370   5.276
 3593SOL    HW211679   6.882   4.419   5.323
 3594SOL     OW11680   4.189   5.682   5.174
 3594SOL    HW111681   4.210   5.734   5.257
 3594SOL    HW211682   4.151   5.744   5.105
 3595SOL     OW11683   5.880   5.834   6.912
 3595SOL    HW111684   5.966   5.796   6.945
 3595SOL    HW211685   5.832   5.764   6.858
 3596SOL     OW11686   4.487   1.983   3.307
 3596SOL    HW111687   4.461   1.940   3.221
 3596SOL    HW211688   4.430   1.947   3.381
 3597SOL     OW11689   1.934   3.103   5.218
 3597SOL    HW111690   2.018   3.143   5.254
 3597SOL    HW211691   1.948   3.006   5.200
 3598SOL     OW11692   1.593   6.000   5.600
 3598SOL    HW111693   1.685   5.988   5.563
 3598SOL    HW211694   1.526   5.990   5.526
 3599SOL     OW11695   4.522   1.805   6.443
 3599SOL    HW111696   4.542   1.888   6.495
 3599SOL    HW211697   4.538   1.822   6.346
 3600SOL     OW11698   2.046   3.484   0.588
 3600SOL    HW111699   2.110   3.541   0.536
 3600SOL    HW211700   2.097   3.423   0.648
 3601SOL     OW11701   5.308   1.395   5.104
 3601SOL    HW111702   5.216   1.385   5.068
 3601SOL    HW211703   5.374   1.397   5.029
 3602SOL     OW11704   2.006   2.881   1.642
 3602SOL    HW111705   2.017   2.804   1.579
 3602SOL    HW211706   1.976   2.847   1.731
 3603SOL     OW11707   3.132   0.644   6.266
 3603SOL    HW111708   3.210   0.587   6.294
 3603SOL    HW211709   3.098   0.613   6.177
 3604SOL     OW11710   6.939   0.436   3.396
 3604SOL    HW111711   6.988   0.368   3.340
 3604SOL    HW211712   6.952   0.414   3.492
 3605SOL     OW11713   1.034   5.386   3.406
 3605SOL    HW111714   1.121   5.341   3.428
 3605SOL    HW211715   0.965   5.316   3.387
 3606SOL     OW11716   1.580   6.421   1.888
 3606SOL    HW111717   1.533   6.341   1.852
 3606SOL    HW211718   1.652   6.392   1.952
 3607SOL     OW11719   5.150   2.525   2.509
 3607SOL    HW111720   5.121   2.601   2.568
 3607SOL    HW211721   5.234   2.485   2.545
 3608SOL     OW11722   4.356   2.056   3.912
 3608SOL    HW111723   4.339   2.137   3.857
 3608SOL    HW211724   4.269   2.009   3.931
 3609SOL     OW11725   2.401   6.358   4.359
 3609SOL    HW111726   2.442   6.449   4.373
 3609SOL    HW211727   2.420   6.329   4.265
 3610SOL     OW11728   2.000   0.125   5.404
 3610SOL    HW111729   1.921   0.184   5.386
 3610SOL    HW211730   2.059   0.168   5.472
 3611SOL     OW11731   4.807   4.731   4.458
 3611SOL    HW111732   4.877   4.659   4.461
 3611SOL    HW211733   4.789   4.763   4.551
 3612SOL     OW11734   6.296   1.115   6.519
 3612SOL    HW111735   6.327   1.033   6.566
 3612SOL    HW211736   6.231   1.090   6.448
 3613SOL     OW11737   3.596   5.343   1.224
 3613SOL    HW111738   3.688   5.349   1.185
 3613SOL    HW211739   3.581   5.420   1.285
 3614SOL     OW11740   3.498   3.846   6.911
 3614SOL    HW111741   3.490   3.891   7.000
 3614SOL    HW211742   3.591   3.857   6.877
 3615SOL     OW11743   5.710   2.898   5.864
 3615SOL    HW111744   5.702   2.840   5.783
 3615SOL    HW211745   5.666   2.986   5.847
 3616SOL     OW11746   2.284   1.942   6.647
 3616SOL    HW111747   2.311   2.020   6.704
 3616SOL    HW211748   2.185   1.943   6.634
 3617SOL     OW11749   4.265   6.732   5.609
 3617SOL    HW111750   4.180   6.744   5.559
 3617SOL    HW211751   4.246   6.695   5.700
 3618SOL     OW11752   1.765   3.898   4.755
 3618SOL    HW111753   1.776   3.805   4.789
 3618SOL    HW211754   1.806   3.962   4.820
 3619SOL     OW11755   6.043   2.808   0.767
 3619SOL    HW111756   6.036   2.735   0.836
 3619SOL    HW211757   6.052   2.767   0.676
 3620SOL     OW11758   6.111   6.244   4.415
 3620SOL    HW111759   6.055   6.304   4.357
 3620SOL    HW211760   6.184   6.298   4.457
 3621SOL     OW11761   3.604   3.230   4.176
 3621SOL    HW111762   3.667   3.277   4.115
 3621SOL    HW211763   3.622   3.258   4.271
 3622SOL     OW11764   0.677   0.136   0.961
 3622SOL    HW111765   0.635   0.050   0.989
 3622SOL    HW211766   0.685   0.197   1.040
 3623SOL     OW11767   1.077   5.739   6.119
 3623SOL    HW111768   1.176   5.749   6.113
 3623SOL    HW211769   1.033   5.793   6.048
 3624SOL     OW11770   3.107   0.676   1.460
 3624SOL    HW111771   3.189   0.698   1.407
 3624SOL    HW211772   3.057   0.602   1.415
 3625SOL     OW11773   6.384   2.740   6.587
 3625SOL    HW111774   6.411   2.836   6.594
 3625SOL    HW211775   6.440   2.694   6.517
 3626SOL     OW11776   0.419   3.538   4.667
 3626SOL    HW111777   0.329   3.495   4.671
 3626SOL    HW211778   0.409   3.636   4.686
 3627SOL     OW11779   4.792   2.897   1.270
 3627SOL    HW111780   4.767   2.919   1.364
 3627SOL    HW211781   4.717   2.846   1.227
 3628SOL     OW11782   1.217   1.547   1.724
 3628SOL    HW111783   1.281   1.488   1.772
 3628SOL    HW211784   1.159   1.491   1.665
 3629SOL     OW11785   0.556   1.408   3.998
 3629SOL    HW111786   0.570   1.498   3.956
 3629SOL    HW211787   0.637   1.382   4.049
 3630SOL     OW11788   6.982   2.849   3.333
 3630SOL    HW111789   6.999   2.837   3.430
 3630SOL    HW211790   6.894   2.807   3.309
 3631SOL     OW11791   1.945   6.531   2.902
 3631SOL    HW111792   1.888   6.476   2.842
 3631SOL    HW211793   1.964   6.481   2.987
 3632SOL     OW11794   4.080   3.868   0.310
 3632SOL    HW111795   4.169   3.833   0.341
 3632SOL    HW211796   4.042   3.929   0.380
 3633SOL     OW11797   3.763   2.364   6.038
 3633SOL    HW111798   3.696   2.377   5.964
 3633SOL    HW211799   3.849   2.330   5.999
 3634SOL     OW11800   2.720   5.873   6.126
 3634SOL    HW111801   2.729   5.885   6.225
 3634SOL    HW211802   2.656   5.798   6.107
 3635SOL     OW11803   2.558   0.946   1.671
 3635SOL    HW111804   2.603   0.986   1.591
 3635SOL    HW211805   2.627   0.912   1.735
 3636SOL     OW11806   0.451   5.527   6.970
 3636SOL    HW111807   0.539   5.552   6.930
 3636SOL    HW211808   0.440   5.427   6.968
 3637SOL     OW11809   0.308   2.887   6.739
 3637SOL    HW111810   0.349   2.798   6.760
 3637SOL    HW211811   0.255   2.918   6.818
 3638SOL     OW11812   5.819   4.416   2.550
 3638SOL    HW111813   5.914   4.427   2.523
 3638SOL    HW211814   5.802   4.321   2.575
 3639SOL     OW11815   4.110   3.733   4.844
 3639SOL    HW111816   4.140   3.825   4.819
 3639SOL    HW211817   4.058   3.694   4.769
 3640SOL     OW11818   5.455   2.802   0.592
 3640SOL    HW111819   5.543   2.791   0.637
 3640SOL    HW211820   5.466   2.854   0.507
 3641SOL     OW11821   6.509   3.881   1.497
 3641SOL    HW111822   6.470   3.846   1.582
 3641SOL    HW211823   6.607   3.863   1.495
 3642SOL     OW11824   5.865   2.066   6.636
 3642SOL    HW111825   5.775   2.074   6.677
 3642SOL    HW211826   5.933   2.108   6.696
 3643SOL     OW11827   4.583   6.014   6.187
 3643SOL    HW111828   4.635   6.093   6.221
 3643SOL    HW211829   4.552   6.032   6.094
 3644SOL     OW11830   3.093   0.986   1.955
 3644SOL    HW111831   2.994   0.984   1.943
 3644SOL    HW211832   3.116   1.043   2.034
 3645SOL     OW11833   1.573   3.816   4.574
 3645SOL    HW111834   1.507   3.887   4.600
 3645SOL    HW211835   1.658   3.829   4.625
 3646SOL     OW11836   2.709   4.662   4.710
 3646SOL    HW111837   2.765   4.686   4.789
 3646SOL    HW211838   2.701   4.563   4.703
 3647SOL     OW11839   1.821   6.636   0.098
 3647SOL    HW111840   1.826   6.693   0.180
 3647SOL    HW211841   1.910   6.595   0.080
 3648SOL     OW11842   5.121   5.571   3.418
 3648SOL    HW111843   5.090   5.622   3.498
 3648SOL    HW211844   5.111   5.629   3.336
 3649SOL     OW11845   5.270   3.636   0.394
 3649SOL    HW111846   5.234   3.703   0.330
 3649SOL    HW211847   5.199   3.569   0.416
 3650SOL     OW11848   5.041   4.485   0.819
 3650SOL    HW111849   5.111   4.462   0.751
 3650SOL    HW211850   5.084   4.513   0.904
 3651SOL     OW11851   1.295   2.456   6.128
 3651SOL    HW111852   1.392   2.435   6.114
 3651SOL    HW211853   1.288   2.532   6.193
 3652SOL     OW11854   5.098   1.212   2.214
 3652SOL    HW111855   5.056   1.205   2.123
 3652SOL    HW211856   5.177   1.273   2.209
 3653SOL     OW11857   0.901   1.194   2.194
 3653SOL    HW111858   0.995   1.214   2.221
 3653SOL    HW211859   0.902   1.135   2.113
 3654SOL     OW11860   5.223   0.276   0.833
 3654SOL    HW111861   5.131   0.274   0.871
 3654SOL    HW211862   5.285   0.223   0.890
 3655SOL     OW11863   1.732   1.437   4.086
 3655SOL    HW111864   1.640   1.476   4.080
 3655SOL    HW211865   1.793   1.502   4.131
 3656SOL     OW11866   0.460   5.605   1.836
 3656SOL    HW111867   0.402   5.528   1.809
 3656SOL    HW211868   0.403   5.676   1.878
 3657SOL     OW11869   4.717   6.274   5.050
 3657SOL    HW111870   4.657   6.308   5.123
 3657SOL    HW211871   4.726   6.345   4.980
 3658SOL     OW11872   0.944   5.712   6.381
 3658SOL    HW111873   1.006   5.749   6.313
 3658SOL    HW211874   0.986   5.719   6.472
 3659SOL     OW11875   6.585   1.805   6.212
 3659SOL    HW111876   6.656   1.845   6.154
 3659SOL    HW211877   6.508   1.776   6.155
 3660SOL     OW11878   5.391   5.547   5.900
 3660SOL    HW111879   5.441   5.614   5.845
 3660SOL    HW211880   5.294   5.567   5.897
 3661SOL     OW11881   6.707   1.803   5.267
 3661SOL    HW111882   6.773   1.874   5.290
 3661SOL    HW211883   6.754   1.717   5.248
 3662SOL     OW11884   3.677   1.085   5.888
 3662SOL    HW111885   3.664   1.066   5.986
 3662SOL    HW211886   3.729   1.011   5.846
 3663SOL     OW11887   2.542   2.989   6.818
 3663SOL    HW111888   2.474   3.056   6.787
 3663SOL    HW211889   2.495   2.911   6.860
 3664SOL     OW11890   4.071   1.688   2.244
 3664SOL    HW111891   4.056   1.615   2.309
 3664SOL    HW211892   4.049   1.776   2.286
 3665SOL     OW11893   0.291   6.066   5.803
 3665SOL    HW111894   0.316   5.974   5.772
 3665SOL    HW211895   0.374   6.116   5.828
 3666SOL     OW11896   2.104   2.112   4.445
 3666SOL    HW111897   2.085   2.104   4.348
 3666SOL    HW211898   2.035   2.062   4.497
 3667SOL     OW11899   2.064   1.141   2.501
 3667SOL    HW111900   2.045   1.213   2.434
 3667SOL    HW211901   2.122   1.178   2.574
 3668SOL     OW11902   0.752   0.261   1.846
 3668SOL    HW111903   0.816   0.293   1.916
 3668SOL    HW211904   0.682   0.331   1.832
 3669SOL     OW11905   0.027   1.756   4.078
 3669SOL    HW111906   0.076   1.669   4.078
 3669SOL    HW211907   6.992   1.763   4.161
 3670SOL     OW11908   3.233   5.276   1.461
 3670SOL    HW111909   3.325   5.236   1.458
 3670SOL    HW211910   3.232   5.362   1.411
 3671SOL     OW11911   0.067   0.216   3.298
 3671SOL    HW111912   0.138   0.240   3.231
 3671SOL    HW211913   0.006   0.147   3.258
 3672SOL     OW11914   4.426   1.296   2.997
 3672SOL    HW111915   4.392   1.237   3.070
 3672SOL    HW211916   4.456   1.383   3.036
 3673SOL     OW11917   5.055   6.044   0.625
 3673SOL    HW111918   5.089   6.138   0.619
 3673SOL    HW211919   5.017   6.029   0.716
 3674SOL     OW11920   1.419   5.615   5.457
 3674SOL    HW111921   1.443   5.518   5.451
 3674SOL    HW211922   1.473   5.658   5.529
 3675SOL     OW11923   6.935   1.649   4.303
 3675SOL    HW111924   7.010   1.686   4.357
 3675SOL    HW211925   6.868   1.605   4.364
 3676SOL     OW11926   4.927   1.938   3.075
 3676SOL    HW111927   4.929   1.878   2.995
 3676SOL    HW211928   4.962   1.889   3.155
 3677SOL     OW11929   2.118   0.384   4.084
 3677SOL    HW111930   2.058   0.455   4.044
 3677SOL    HW211931   2.128   0.309   4.019
 3678SOL     OW11932   1.517   0.386   3.842
 3678SOL    HW111933   1.436   0.369   3.898
 3678SOL    HW211934   1.596   0.402   3.902
 3679SOL     OW11935   4.880   0.857   2.560
 3679SOL    HW111936   4.952   0.920   2.530
 3679SOL    HW211937   4.794   0.908   2.571
 3680SOL     OW11938   4.192   1.181   3.928
 3680SOL    HW111939   4.184   1.188   3.828
 3680SOL    HW211940   4.103   1.203   3.970
 3681SOL     OW11941   1.314   0.225   5.101
 3681SOL    HW111942   1.229   0.211   5.151
 3681SOL    HW211943   1.314   0.170   5.018
 3682SOL     OW11944   5.762   2.232   1.012
 3682SOL    HW111945   5.698   2.309   1.009
 3682SOL    HW211946   5.784   2.210   1.107
 3683SOL     OW11947   0.117   0.818   5.513
 3683SOL    HW111948   0.159   0.880   5.580
 3683SOL    HW211949   0.097   0.868   5.429
 3684SOL     OW11950   1.686   6.889   5.522
 3684SOL    HW111951   1.622   6.819   5.551
 3684SOL    HW211952   1.732   6.928   5.602
 3685SOL     OW11953   2.064   5.667   5.787
 3685SOL    HW111954   2.124   5.622   5.721
 3685SOL    HW211955   2.101   5.758   5.808
 3686SOL     OW11956   6.912   4.068   3.602
 3686SOL    HW111957   6.854   4.118   3.537
 3686SOL    HW211958   6.952   3.989   3.556
 3687SOL     OW11959   4.683   5.950   3.519
 3687SOL    HW111960   4.694   5.968   3.421
 3687SOL    HW211961   4.665   5.853   3.534
 3688SOL     OW11962   5.704   3.263   0.327
 3688SOL    HW111963   5.651   3.343   0.351
 3688SOL    HW211964   5.661   3.215   0.251
 3689SOL     OW11965   1.654   0.446   5.541
 3689SOL    HW111966   1.704   0.513   5.595
 3689SOL    HW211967   1.598   0.494   5.473
 3690SOL     OW11968   5.201   4.880   1.111
 3690SOL    HW111969   5.141   4.801   1.123
 3690SOL    HW211970   5.296   4.850   1.106
 3691SOL     OW11971   2.257   2.191   0.143
 3691SOL    HW111972   2.286   2.096   0.134
 3691SOL    HW211973   2.198   2.215   0.067
 3692SOL     OW11974   0.686   3.416   6.276
 3692SOL    HW111975   0.680   3.347   6.204
 3692SOL    HW211976   0.723   3.501   6.237
 3693SOL     OW11977   0.959   1.823   3.033
 3693SOL    HW111978   0.929   1.730   3.013
 3693SOL    HW211979   0.880   1.880   3.056
 3694SOL     OW11980   6.937   0.317   2.007
 3694SOL    HW111981   6.930   0.253   1.930
 3694SOL    HW211982   6.988   0.274   2.082
 3695SOL     OW11983   6.649   2.900   3.007
 3695SOL    HW111984   6.648   2.847   2.922
 3695SOL    HW211985   6.560   2.890   3.053
 3696SOL     OW11986   5.006   0.906   4.895
 3696SOL    HW111987   4.948   0.963   4.952
 3696SOL    HW211988   4.959   0.884   4.810
 3697SOL     OW11989   6.409   6.594   3.353
 3697SOL    HW111990   6.430   6.555   3.443
 3697SOL    HW211991   6.467   6.551   3.284
 3698SOL     OW11992   2.209   0.582   2.860
 3698SOL    HW111993   2.206   0.555   2.764
 3698SOL    HW211994   2.127   0.550   2.907
 3699SOL     OW11995   2.414   2.207   3.843
 3699SOL    HW111996   2.482   2.274   3.813
 3699SOL    HW211997   2.425   2.190   3.941
 3700SOL     OW11998   1.109   4.925   5.231
 3700SOL    HW111999   1.138   4.950   5.139
 3700SOL    HW212000   1.077   4.830   5.232
 3701SOL     OW12001   1.410   0.109   3.106
 3701SOL    HW112002   1.457   0.139   3.189
 3701SOL    HW212003   1.313   0.130   3.113
 3702SOL     OW12004   5.081   4.284   3.704
 3702SOL    HW112005   5.055   4.321   3.793
 3702SOL    HW212006   5.121   4.357   3.648
 3703SOL     OW12007   1.337   1.897   5.480
 3703SOL    HW112008   1.244   1.925   5.458
 3703SOL    HW212009   1.395   1.978   5.489
 3704SOL     OW12010   6.662   2.163   1.201
 3704SOL    HW112011   6.664   2.085   1.264
 3704SOL    HW212012   6.570   2.203   1.202
 3705SOL     OW12013   4.876   5.070   3.801
 3705SOL    HW112014   4.801   5.133   3.817
 3705SOL    HW212015   4.962   5.112   3.829
 3706SOL     OW12016   1.116   3.529   0.397
 3706SOL    HW112017   1.114   3.482   0.309
 3706SOL    HW212018   1.121   3.628   0.382
 3707SOL     OW12019   2.047   4.834   3.866
 3707SOL    HW112020   2.106   4.755   3.849
 3707SOL    HW212021   1.979   4.841   3.793
 3708SOL     OW12022   4.021   6.854   1.024
 3708SOL    HW112023   3.933   6.898   1.007
 3708SOL    HW212024   4.095   6.914   0.995
 3709SOL     OW12025   2.058   0.841   2.897
 3709SOL    HW112026   2.032   0.846   2.800
 3709SOL    HW212027   2.112   0.758   2.913
 3710SOL     OW12028   0.192   5.444   5.439
 3710SOL    HW112029   0.154   5.358   5.404
 3710SOL    HW212030   0.139   5.474   5.518
 3711SOL     OW12031   1.761   6.198   4.386
 3711SOL    HW112032   1.704   6.245   4.318
 3711SOL    HW212033   1.726   6.218   4.478
 3712SOL     OW12034   1.893   5.399   5.300
 3712SOL    HW112035   1.945   5.476   5.264
 3712SOL    HW212036   1.801   5.430   5.325
 3713SOL     OW12037   6.687   6.689   5.296
 3713SOL    HW112038   6.671   6.713   5.200
 3713SOL    HW212039   6.724   6.769   5.344
 3714SOL     OW12040   1.180   4.826   0.366
 3714SOL    HW112041   1.257   4.809   0.305
 3714SOL    HW212042   1.211   4.825   0.461
 3715SOL     OW12043   6.685   5.871   3.305
 3715SOL    HW112044   6.709   5.958   3.347
 3715SOL    HW212045   6.765   5.832   3.260
 3716SOL     OW12046   5.441   5.748   3.980
 3716SOL    HW112047   5.506   5.706   4.043
 3716SOL    HW212048   5.353   5.700   3.986
 3717SOL     OW12049   4.051   1.308   1.296
 3717SOL    HW112050   4.068   1.398   1.337
 3717SOL    HW212051   4.015   1.246   1.366
 3718SOL     OW12052   0.165   6.795   6.226
 3718SOL    HW112053   0.126   6.813   6.316
 3718SOL    HW212054   0.104   6.735   6.174
 3719SOL     OW12055   4.405   3.644   6.499
 3719SOL    HW112056   4.505   3.650   6.505
 3719SOL    HW212057   4.374   3.688   6.414
 3720SOL     OW12058   6.930   2.995   1.489
 3720SOL    HW112059   6.973   2.931   1.552
 3720SOL    HW212060   6.998   3.061   1.457
 3721SOL     OW12061   6.686   4.450   6.759
 3721SOL    HW112062   6.696   4.454   6.660
 3721SOL    HW212063   6.773   4.474   6.803
 3722SOL     OW12064   4.069   6.989   2.645
 3722SOL    HW112065   4.041   0.029   2.720
 3722SOL    HW212066   4.169   6.988   2.639
 3723SOL     OW12067   4.610   5.264   6.737
 3723SOL    HW112068   4.523   5.217   6.722
 3723SOL    HW212069   4.624   5.277   6.836
 3724SOL     OW12070   1.430   4.857   4.876
 3724SOL    HW112071   1.454   4.953   4.861
 3724SOL    HW212072   1.454   4.832   4.970
 3725SOL     OW12073   0.484   6.969   6.617
 3725SOL    HW112074   0.454   6.914   6.539
 3725SOL    HW212075   0.568   7.018   6.592
 3726SOL     OW12076   5.607   3.519   3.770
 3726SOL    HW112077   5.545   3.496   3.845
 3726SOL    HW212078   5.673   3.445   3.757
 3727SOL     OW12079   0.059   3.050   4.345
 3727SOL    HW112080   6.987   3.028   4.379
 3727SOL    HW212081   0.074   3.004   4.258
 3728SOL     OW12082   3.458   3.475   0.161
 3728SOL    HW112083   3.401   3.468   0.079
 3728SOL    HW212084   3.453   3.568   0.198
 3729SOL     OW12085   0.943   0.043   5.471
 3729SOL    HW112086   0.986   0.024   5.560
 3729SOL    HW212087   0.993   7.014   5.400
 3730SOL     OW12088   4.255   5.816   6.199
 3730SOL    HW112089   4.308   5.783   6.121
 3730SOL    HW212090   4.198   5.742   6.235
 3731SOL     OW12091   0.381   2.192   5.972
 3731SOL    HW112092   0.454   2.244   6.016
 3731SOL    HW212093   0.301   2.188   6.033
 3732SOL     OW12094   2.639   2.042   6.720
 3732SOL    HW112095   2.596   2.071   6.806
 3732SOL    HW212096   2.572   2.043   6.647
 3733SOL     OW12097   1.658   2.349   3.415
 3733SOL    HW112098   1.665   2.277   3.483
 3733SOL    HW212099   1.745   2.357   3.366
 3734SOL     OW12100   4.178   0.267   1.494
 3734SOL    HW112101   4.097   0.299   1.544
 3734SOL    HW212102   4.257   0.320   1.522
 3735SOL     OW12103   4.464   0.172   2.421
 3735SOL    HW112104   4.527   0.240   2.385
 3735SOL    HW212105   4.420   0.207   2.503
 3736SOL     OW12106   6.647   1.201   1.784
 3736SOL    HW112107   6.603   1.169   1.868
 3736SOL    HW212108   6.580   1.208   1.711
 3737SOL     OW12109   0.613   2.343   3.496
 3737SOL    HW112110   0.534   2.405   3.495
 3737SOL    HW212111   0.581   2.249   3.501
 3738SOL     OW12112   6.530   6.155   0.620
 3738SOL    HW112113   6.461   6.220   0.590
 3738SOL    HW212114   6.541   6.162   0.719
 3739SOL     OW12115   2.800   4.909   0.919
 3739SOL    HW112116   2.762   4.903   0.826
 3739SOL    HW212117   2.773   4.996   0.960
 3740SOL     OW12118   5.525   5.106   7.015
 3740SOL    HW112119   5.528   5.163   6.934
 3740SOL    HW212120   5.603   5.128   0.055
 3741SOL     OW12121   5.286   2.593   0.653
 3741SOL    HW112122   5.332   2.679   0.628
 3741SOL    HW212123   5.265   2.542   0.570
 3742SOL     OW12124   3.783   5.877   0.219
 3742SOL    HW112125   3.762   5.784   0.249
 3742SOL    HW212126   3.730   5.942   0.274
 3743SOL     OW12127   4.135   3.624   1.217
 3743SOL    HW112128   4.130   3.664   1.308
 3743SOL    HW212129   4.231   3.618   1.189
 3744SOL     OW12130   0.395   6.552   2.230
 3744SOL    HW112131   0.418   6.520   2.139
 3744SOL    HW212132   0.434   6.644   2.244
 3745SOL     OW12133   4.889   3.652   2.605
 3745SOL    HW112134   4.840   3.605   2.532
 3745SOL    HW212135   4.874   3.751   2.596
 3746SOL     OW12136   6.800   0.467   3.778
 3746SOL    HW112137   6.738   0.458   3.856
 3746SOL    HW212138   6.822   0.563   3.764
 3747SOL     OW12139   4.439   6.586   6.178
 3747SOL    HW112140   4.404   6.680   6.172
 3747SOL    HW212141   4.366   6.526   6.211
 3748SOL     OW12142   5.590   1.280   2.603
 3748SOL    HW112143   5.683   1.243   2.610
 3748SOL    HW212144   5.550   1.288   2.695
 3749SOL     OW12145   0.370   5.400   3.064
 3749SOL    HW112146   0.302   5.433   2.998
 3749SOL    HW212147   0.431   5.475   3.090
 3750SOL     OW12148   5.792   4.138   0.080
 3750SOL    HW112149   5.794   4.143   7.000
 3750SOL    HW212150   5.697   4.139   0.111
 3751SOL     OW12151   1.781   3.258   1.470
 3751SOL    HW112152   1.791   3.277   1.372
 3751SOL    HW212153   1.863   3.211   1.503
 3752SOL     OW12154   0.621   0.583   6.227
 3752SOL    HW112155   0.636   0.556   6.322
 3752SOL    HW212156   0.710   0.593   6.181
 3753SOL     OW12157   6.942   6.156   4.622
 3753SOL    HW112158   6.977   6.063   4.635
 3753SOL    HW212159   6.976   6.215   4.694
 3754SOL     OW12160   5.624   6.200   1.327
 3754SOL    HW112161   5.623   6.115   1.380
 3754SOL    HW212162   5.709   6.205   1.273
 3755SOL     OW12163   5.234   4.033   3.816
 3755SOL    HW112164   5.240   4.133   3.814
 3755SOL    HW212165   5.214   3.999   3.724
 3756SOL     OW12166   1.848   2.097   6.012
 3756SOL    HW112167   1.753   2.078   5.988
 3756SOL    HW212168   1.851   2.167   6.084
 3757SOL     OW12169   3.205   5.820   6.605
 3757SOL    HW112170   3.253   5.798   6.520
 3757SOL    HW212171   3.138   5.893   6.588
 3758SOL     OW12172   2.091   1.090   4.147
 3758SOL    HW112173   2.083   1.153   4.225
 3758SOL    HW212174   2.097   1.144   4.062
 3759SOL     OW12175   5.215   4.297   5.922
 3759SOL    HW112176   5.139   4.232   5.918
 3759SOL    HW212177   5.180   4.390   5.917
 3760SOL     OW12178   1.711   2.575   4.438
 3760SOL    HW112179   1.716   2.648   4.507
 3760SOL    HW212180   1.708   2.615   4.347
 3761SOL     OW12181   0.488   6.346   4.718
 3761SOL    HW112182   0.564   6.393   4.763
 3761SOL    HW212183   0.524   6.290   4.643
 3762SOL     OW12184   0.826   4.222   0.037
 3762SOL    HW112185   0.785   4.293   0.094
 3762SOL    HW212186   0.774   4.137   0.046
 3763SOL     OW12187   6.170   3.007   6.382
 3763SOL    HW112188   6.198   3.085   6.438
 3763SOL    HW212189   6.071   3.000   6.381
 3764SOL     OW12190   2.780   0.365   3.962
 3764SOL    HW112191   2.772   0.321   3.873
 3764SOL    HW212192   2.724   0.448   3.963
 3765SOL     OW12193   5.051   0.720   3.328
 3765SOL    HW112194   4.992   0.659   3.381
 3765SOL    HW212195   5.007   0.810   3.320
 3766SOL     OW12196   0.144   1.095   4.115
 3766SOL    HW112197   0.061   1.151   4.125
 3766SOL    HW212198   0.205   1.137   4.049
 3767SOL     OW12199   1.336   5.056   6.640
 3767SOL    HW112200   1.395   5.090   6.567
 3767SOL    HW212201   1.359   4.960   6.660
 3768SOL     OW12202   4.741   6.697   6.799
 3768SOL    HW112203   4.762   6.678   6.895
 3768SOL    HW212204   4.763   6.618   6.743
 3769SOL     OW12205   5.189   6.168   5.139
 3769SOL    HW112206   5.102   6.121   5.149
 3769SOL    HW212207   5.233   6.179   5.229
 3770SOL     OW12208   2.086   1.276   6.383
 3770SOL    HW112209   2.022   1.202   6.367
 3770SOL    HW212210   2.064   1.321   6.470
 3771SOL     OW12211   5.073   2.426   0.172
 3771SOL    HW112212   5.075   2.443   0.074
 3771SOL    HW212213   5.146   2.362   0.196
 3772SOL     OW12214   6.031   0.805   1.494
 3772SOL    HW112215   6.095   0.836   1.565
 3772SOL    HW212216   5.942   0.849   1.507
 3773SOL     OW12217   5.787   2.875   5.593
 3773SOL    HW112218   5.809   2.972   5.601
 3773SOL    HW212219   5.870   2.820   5.605
 3774SOL     OW12220   0.574   0.884   6.980
 3774SOL    HW112221   0.568   0.851   0.054
 3774SOL    HW212222   0.575   0.807   6.917
 3775SOL     OW12223   5.209   3.631   3.469
 3775SOL    HW112224   5.157   3.684   3.402
 3775SOL    HW212225   5.301   3.613   3.433
 3776SOL     OW12226   2.031   2.662   1.481
 3776SOL    HW112227   2.052   2.565   1.473
 3776SOL    HW212228   2.088   2.714   1.418
 3777SOL     OW12229   2.971   5.350   4.565
 3777SOL    HW112230   3.002   5.418   4.499
 3777SOL    HW212231   2.925   5.275   4.517
 3778SOL     OW12232   2.837   5.532   1.936
 3778SOL    HW112233   2.839   5.628   1.965
 3778SOL    HW212234   2.789   5.477   2.004
 3779SOL     OW12235   2.420   4.628   6.875
 3779SOL    HW112236   2.519   4.643   6.883
 3779SOL    HW212237   2.400   4.589   6.785
 3780SOL     OW12238   3.119   5.968   5.477
 3780SOL    HW112239   3.138   5.930   5.568
 3780SOL    HW212240   3.157   5.908   5.407
 3781SOL     OW12241   3.309   6.719   4.277
 3781SOL    HW112242   3.249   6.658   4.329
 3781SOL    HW212243   3.365   6.664   4.214
 3782SOL     OW12244   2.168   1.623   4.313
 3782SOL    HW112245   2.260   1.653   4.291
 3782SOL    HW212246   2.155   1.625   4.412
 3783SOL     OW12247   5.392   6.512   5.114
 3783SOL    HW112248   5.319   6.532   5.048
 3783SOL    HW212249   5.400   6.589   5.178
 3784SOL     OW12250   5.567   1.049   3.257
 3784SOL    HW112251   5.549   1.147   3.249
 3784SOL    HW212252   5.521   1.013   3.338
 3785SOL     OW12253   2.524   2.117   0.846
 3785SOL    HW112254   2.571   2.170   0.917
 3785SOL    HW212255   2.582   2.110   0.765
 3786SOL     OW12256   2.850   5.139   3.253
 3786SOL    HW112257   2.919   5.099   3.192
 3786SOL    HW212258   2.784   5.069   3.279
 3787SOL     OW12259   4.892   1.172   4.201
 3787SOL    HW112260   4.863   1.197   4.293
 3787SOL    HW212261   4.873   1.248   4.138
 3788SOL     OW12262   6.395   3.163   2.908
 3788SOL    HW112263   6.385   3.102   2.829
 3788SOL    HW212264   6.434   3.250   2.879
 3789SOL     OW12265   1.566   4.828   4.012
 3789SOL    HW112266   1.588   4.912   3.961
 3789SOL    HW212267   1.477   4.794   3.981
 3790SOL     OW12268   2.057   3.331   4.567
 3790SOL    HW112269   1.977   3.368   4.615
 3790SOL    HW212270   2.064   3.233   4.585
 3791SOL     OW12271   5.681   6.924   1.440
 3791SOL    HW112272   5.661   7.001   1.500
 3791SOL    HW212273   5.615   6.923   1.365
 3792SOL     OW12274   6.221   6.433   5.009
 3792SOL    HW112275   6.279   6.483   5.073
 3792SOL    HW212276   6.252   6.338   5.003
 3793SOL     OW12277   1.888   1.570   2.239
 3793SOL    HW112278   1.796   1.547   2.205
 3793SOL    HW212279   1.882   1.597   2.335
 3794SOL     OW12280   4.318   6.360   1.818
 3794SOL    HW112281   4.406   6.407   1.827
 3794SOL    HW212282   4.244   6.428   1.817
 3795SOL     OW12283   4.720   0.924   6.775
 3795SOL    HW112284   4.639   0.918   6.833
 3795SOL    HW212285   4.711   0.863   6.697
 3796SOL     OW12286   1.254   2.030   1.754
 3796SOL    HW112287   1.256   1.942   1.706
 3796SOL    HW212288   1.187   2.027   1.828
 3797SOL     OW12289   0.895   5.203   2.234
 3797SOL    HW112290   0.800   5.171   2.242
 3797SOL    HW212291   0.952   5.150   2.297
 3798SOL     OW12292   2.411   4.859   2.630
 3798SOL    HW112293   2.405   4.866   2.531
 3798SOL    HW212294   2.480   4.923   2.664
 3799SOL     OW12295   1.910   1.569   5.223
 3799SOL    HW112296   1.824   1.619   5.229
 3799SOL    HW212297   1.921   1.532   5.131
 3800SOL     OW12298   5.390   2.443   4.688
 3800SOL    HW112299   5.329   2.459   4.765
 3800SOL    HW212300   5.454   2.370   4.711
 3801SOL     OW12301   6.848   5.971   6.042
 3801SOL    HW112302   6.774   5.905   6.032
 3801SOL    HW212303   6.918   5.955   5.972
 3802SOL     OW12304   1.067   1.900   4.877
 3802SOL    HW112305   1.112   1.845   4.947
 3802SOL    HW212306   1.124   1.904   4.795
 3803SOL     OW12307   4.137   0.003   1.372
 3803SOL    HW112308   4.175   0.095   1.386
 3803SOL    HW212309   4.042   0.010   1.342
 3804SOL     OW12310   4.489   2.202   4.426
 3804SOL    HW112311   4.461   2.281   4.480
 3804SOL    HW212312   4.426   2.126   4.443
 3805SOL     OW12313   3.007   4.266   1.728
 3805SOL    HW112314   2.982   4.349   1.777
 3805SOL    HW212315   2.924   4.214   1.706
 3806SOL     OW12316   2.870   2.802   0.725
 3806SOL    HW112317   2.844   2.899   0.725
 3806SOL    HW212318   2.933   2.785   0.649
 3807SOL     OW12319   0.755   6.599   4.083
 3807SOL    HW112320   0.854   6.593   4.096
 3807SOL    HW212321   0.724   6.522   4.027
 3808SOL     OW12322   3.569   6.832   1.680
 3808SOL    HW112323   3.646   6.893   1.701
 3808SOL    HW212324   3.534   6.792   1.765
 3809SOL     OW12325   5.960   1.769   0.025
 3809SOL    HW112326   6.051   1.806   0.009
 3809SOL    HW212327   5.964   1.670   0.036
 3810SOL     OW12328   3.172   3.154   5.400
 3810SOL    HW112329   3.136   3.066   5.371
 3810SOL    HW212330   3.246   3.182   5.339
 3811SOL     OW12331   0.547   4.901   4.538
 3811SOL    HW112332   0.584   4.880   4.629
 3811SOL    HW212333   0.451   4.928   4.547
 3812SOL     OW12334   6.330   1.683   5.635
 3812SOL    HW112335   6.364   1.632   5.714
 3812SOL    HW212336   6.391   1.759   5.614
 3813SOL     OW12337   3.099   5.537   0.470
 3813SOL    HW112338   3.135   5.564   0.381
 3813SOL    HW212339   2.999   5.535   0.467
 3814SOL     OW12340   6.651   6.269   1.930
 3814SOL    HW112341   6.554   6.260   1.953
 3814SOL    HW212342   6.669   6.224   1.843
 3815SOL     OW12343   5.279   2.021   1.659
 3815SOL    HW112344   5.292   2.109   1.613
 3815SOL    HW212345   5.335   2.019   1.741
 3816SOL     OW12346   0.029   6.547   2.068
 3816SOL    HW112347   7.006   6.484   2.133
 3816SOL    HW212348   0.068   6.496   1.992
 3817SOL     OW12349   4.775   1.980   4.239
 3817SOL    HW112350   4.748   2.063   4.191
 3817SOL    HW212351   4.702   1.951   4.301
 3818SOL     OW12352   4.685   5.979   2.373
 3818SOL    HW112353   4.613   6.032   2.329
 3818SOL    HW212354   4.648   5.891   2.404
 3819SOL     OW12355   5.399   4.960   0.813
 3819SOL    HW112356   5.308   5.001   0.812
 3819SOL    HW212357   5.394   4.867   0.776
 3820SOL     OW12358   4.639   5.903   3.972
 3820SOL    HW112359   4.685   5.957   3.903
 3820SOL    HW212360   4.706   5.868   4.037
 3821SOL     OW12361   1.543   3.392   1.965
 3821SOL    HW112362   1.587   3.304   1.946
 3821SOL    HW212363   1.454   3.395   1.920
 3822SOL     OW12364   2.738   5.217   1.252
 3822SOL    HW112365   2.709   5.139   1.196
 3822SOL    HW212366   2.816   5.262   1.208
 3823SOL     OW12367   3.759   2.769   5.947
 3823SOL    HW112368   3.788   2.734   5.858
 3823SOL    HW212369   3.659   2.769   5.952
 3824SOL     OW12370   6.290   1.863   6.208
 3824SOL    HW112371   6.315   1.797   6.279
 3824SOL    HW212372   6.217   1.922   6.242
 3825SOL     OW12373   0.638   6.909   5.742
 3825SOL    HW112374   0.560   6.960   5.776
 3825SOL    HW212375   0.671   6.952   5.658
 3826SOL     OW12376   6.769   3.623   1.352
 3826SOL    HW112377   6.681   3.583   1.378
 3826SOL    HW212378   6.804   3.578   1.270
 3827SOL     OW12379   3.388   3.693   0.826
 3827SOL    HW112380   3.291   3.666   0.832
 3827SOL    HW212381   3.425   3.704   0.918
 3828SOL     OW12382   4.290   2.546   1.782
 3828SOL    HW112383   4.195   2.565   1.759
 3828SOL    HW212384   4.350   2.601   1.724
 3829SOL     OW12385   2.502   5.130   3.628
 3829SOL    HW112386   2.537   5.223   3.629
 3829SOL    HW212387   2.536   5.081   3.708
 3830SOL     OW12388   2.542   0.415   5.123
 3830SOL    HW112389   2.635   0.426   5.089
 3830SOL    HW212390   2.544   0.406   5.223
 3831SOL     OW12391   4.223   1.767   2.774
 3831SOL    HW112392   4.284   1.845   2.790
 3831SOL    HW212393   4.272   1.682   2.790
 3832SOL     OW12394   6.648   0.751   1.584
 3832SOL    HW112395   6.729   0.783   1.536
 3832SOL    HW212396   6.570   0.810   1.562
 3833SOL     OW12397   1.020   5.042   1.145
 3833SOL    HW112398   0.927   5.071   1.166
 3833SOL    HW212399   1.030   4.944   1.163
 3834SOL     OW12400   2.913   1.706   0.637
 3834SOL    HW112401   2.940   1.802   0.625
 3834SOL    HW212402   2.828   1.702   0.690
 3835SOL     OW12403   4.022   5.620   6.208
 3835SOL    HW112404   4.080   5.575   6.275
 3835SOL    HW212405   3.932   5.577   6.206
 3836SOL     OW12406   1.519   3.968   6.215
 3836SOL    HW112407   1.581   3.990   6.139
 3836SOL    HW212408   1.471   4.051   6.244
 3837SOL     OW12409   4.331   3.742   0.382
 3837SOL    HW112410   4.404   3.724   0.316
 3837SOL    HW212411   4.300   3.655   0.421
 3838SOL     OW12412   6.003   2.282   4.268
 3838SOL    HW112413   6.005   2.351   4.340
 3838SOL    HW212414   5.917   2.230   4.274
 3839SOL     OW12415   5.208   6.486   5.715
 3839SOL    HW112416   5.244   6.541   5.639
 3839SOL    HW212417   5.149   6.414   5.678
 3840SOL     OW12418   1.835   1.042   3.817
 3840SOL    HW112419   1.904   1.082   3.755
 3840SOL    HW212420   1.758   1.105   3.825
 3841SOL     OW12421   0.934   4.326   5.157
 3841SOL    HW112422   0.888   4.238   5.153
 3841SOL    HW212423   0.980   4.344   5.070
 3842SOL     OW12424   1.106   5.139   0.340
 3842SOL    HW112425   1.061   5.050   0.346
 3842SOL    HW212426   1.039   5.208   0.313
 3843SOL     OW12427   6.202   3.243   0.592
 3843SOL    HW112428   6.196   3.334   0.632
 3843SOL    HW212429   6.119   3.191   0.612
 3844SOL     OW12430   2.122   4.749   5.896
 3844SOL    HW112431   2.047   4.701   5.850
 3844SOL    HW212432   2.151   4.827   5.839
 3845SOL     OW12433   3.349   3.931   3.306
 3845SOL    HW112434   3.403   3.919   3.222
 3845SOL    HW212435   3.363   4.023   3.342
 3846SOL     OW12436   0.198   4.388   4.315
 3846SOL    HW112437   0.291   4.416   4.289
 3846SOL    HW212438   0.141   4.469   4.325
 3847SOL     OW12439   7.017   0.460   6.124
 3847SOL    HW112440   0.014   0.557   6.142
 3847SOL    HW212441   6.924   0.437   6.152
 3848SOL     OW12442   2.663   4.907   1.281
 3848SOL    HW112443   2.572   4.879   1.314
 3848SOL    HW212444   2.724   4.920   1.358
 3849SOL     OW12445   1.001   2.190   5.661
 3849SOL    HW112446   0.923   2.252   5.650
 3849SOL    HW212447   0.984   2.128   5.737
 3850SOL     OW12448   3.380   4.096   1.836
 3850SOL    HW112449   3.438   4.131   1.910
 3850SOL    HW212450   3.385   4.158   1.758
 3851SOL     OW12451   2.123   3.146   3.139
 3851SOL    HW112452   2.154   3.189   3.054
 3851SOL    HW212453   2.079   3.059   3.119
 3852SOL     OW12454   4.241   0.619   4.608
 3852SOL    HW112455   4.241   0.688   4.536
 3852SOL    HW212456   4.172   0.550   4.589
 3853SOL     OW12457   1.151   3.634   2.296
 3853SOL    HW112458   1.221   3.669   2.358
 3853SOL    HW212459   1.183   3.640   2.202
 3854SOL     OW12460   0.745   3.684   4.573
 3854SOL    HW112461   0.664   3.741   4.560
 3854SOL    HW212462   0.719   3.587   4.567
 3855SOL     OW12463   6.129   3.454   5.635
 3855SOL    HW112464   6.101   3.548   5.651
 3855SOL    HW212465   6.194   3.425   5.706
 3856SOL     OW12466   0.165   6.236   6.004
 3856SOL    HW112467   0.216   6.190   5.931
 3856SOL    HW212468   0.206   6.326   6.022
 3857SOL     OW12469   1.232   6.477   4.656
 3857SOL    HW112470   1.179   6.407   4.703
 3857SOL    HW212471   1.179   6.514   4.579
 3858SOL     OW12472   2.245   5.797   6.710
 3858SOL    HW112473   2.253   5.821   6.613
 3858SOL    HW212474   2.297   5.863   6.765
 3859SOL     OW12475   0.123   3.423   2.449
 3859SOL    HW112476   0.217   3.433   2.417
 3859SOL    HW212477   0.118   3.446   2.546
 3860SOL     OW12478   2.430   6.657   5.755
 3860SOL    HW112479   2.509   6.599   5.773
 3860SOL    HW212480   2.426   6.679   5.657
 3861SOL     OW12481   4.819   4.434   1.228
 3861SOL    HW112482   4.898   4.399   1.179
 3861SOL    HW212483   4.745   4.367   1.225
 3862SOL     OW12484   1.015   5.849   5.871
 3862SOL    HW112485   1.083   5.824   5.802
 3862SOL    HW212486   1.006   5.948   5.876
 3863SOL     OW12487   3.229   3.953   1.347
 3863SOL    HW112488   3.258   4.048   1.358
 3863SOL    HW212489   3.132   3.951   1.320
 3864SOL     OW12490   2.774   1.937   6.987
 3864SOL    HW112491   2.788   2.018   0.025
 3864SOL    HW212492   2.723   1.868   0.018
 3865SOL     OW12493   4.932   0.641   2.391
 3865SOL    HW112494   5.021   0.605   2.367
 3865SOL    HW212495   4.941   0.706   2.466
 3866SOL     OW12496   3.725   6.987   0.043
 3866SOL    HW112497   3.636   0.011   0.049
 3866SOL    HW212498   3.721   6.911   6.998
 3867SOL     OW12499   2.111   3.418   3.357
 3867SOL    HW112500   2.128   3.341   3.419
 3867SOL    HW212501   2.105   3.503   3.410
 3868SOL     OW12502   2.193   6.460   2.679
 3868SOL    HW112503   2.132   6.484   2.755
 3868SOL    HW212504   2.236   6.372   2.697
 3869SOL     OW12505   0.649   3.384   3.208
 3869SOL    HW112506   0.744   3.417   3.213
 3869SOL    HW212507   0.631   3.352   3.115
 3870SOL     OW12508   2.606   4.720   0.450
 3870SOL    HW112509   2.666   4.777   0.506
 3870SOL    HW212510   2.591   4.632   0.496
 3871SOL     OW12511   2.397   0.175   3.367
 3871SOL    HW112512   2.321   0.232   3.399
 3871SOL    HW212513   2.393   0.166   3.268
 3872SOL     OW12514   4.105   4.334   0.524
 3872SOL    HW112515   4.201   4.350   0.548
 3872SOL    HW212516   4.084   4.237   0.532
 3873SOL     OW12517   5.732   4.643   1.961
 3873SOL    HW112518   5.811   4.629   1.900
 3873SOL    HW212519   5.763   4.687   2.045
 3874SOL     OW12520   4.541   0.695   6.917
 3874SOL    HW112521   4.631   0.705   6.959
 3874SOL    HW212522   4.472   0.687   6.988
 3875SOL     OW12523   1.488   5.127   0.939
 3875SOL    HW112524   1.488   5.215   0.891
 3875SOL    HW212525   1.404   5.118   0.992
 3876SOL     OW12526   5.014   3.615   3.695
 3876SOL    HW112527   5.069   3.621   3.611
 3876SOL    HW212528   4.964   3.700   3.708
 3877SOL     OW12529   6.168   0.683   2.547
 3877SOL    HW112530   6.090   0.711   2.602
 3877SOL    HW212531   6.174   0.740   2.465
 3878SOL     OW12532   3.555   6.477   5.961
 3878SOL    HW112533   3.472   6.455   6.011
 3878SOL    HW212534   3.532   6.510   5.869
 3879SOL     OW12535   3.920   6.126   2.172
 3879SOL    HW112536   3.875   6.164   2.091
 3879SOL    HW212537   3.887   6.173   2.254
 3880SOL     OW12538   5.094   3.211   3.886
 3880SOL    HW112539   5.126   3.302   3.860
 3880SOL    HW212540   5.123   3.191   3.979
 3881SOL     OW12541   1.334   3.526   0.658
 3881SOL    HW112542   1.311   3.604   0.716
 3881SOL    HW212543   1.268   3.452   0.674
 3882SOL     OW12544   0.239   0.368   5.692
 3882SOL    HW112545   0.149   0.327   5.675
 3882SOL    HW212546   0.233   0.467   5.675
 3883SOL     OW12547   3.590   0.668   5.725
 3883SOL    HW112548   3.653   0.599   5.691
 3883SOL    HW212549   3.516   0.681   5.659
 3884SOL     OW12550   1.877   5.288   6.189
 3884SOL    HW112551   1.946   5.289   6.116
 3884SOL    HW212552   1.786   5.300   6.148
 3885SOL     OW12553   6.560   1.154   4.484
 3885SOL    HW112554   6.601   1.207   4.557
 3885SOL    HW212555   6.465   1.182   4.471
 3886SOL     OW12556   6.685   6.495   5.589
 3886SOL    HW112557   6.640   6.583   5.573
 3886SOL    HW212558   6.739   6.470   5.509
 3887SOL     OW12559   4.299   2.304   5.793
 3887SOL    HW112560   4.231   2.362   5.749
 3887SOL    HW212561   4.255   2.244   5.859
 3888SOL     OW12562   6.792   1.839   0.896
 3888SOL    HW112563   6.793   1.841   0.796
 3888SOL    HW212564   6.885   1.845   0.930
 3889SOL     OW12565   0.944   6.462   6.112
 3889SOL    HW112566   1.008   6.395   6.150
 3889SOL    HW212567   0.897   6.422   6.034
 3890SOL     OW12568   5.277   4.028   3.285
 3890SOL    HW112569   5.248   4.117   3.319
 3890SOL    HW212570   5.199   3.966   3.285
 3891SOL     OW12571   5.476   4.572   5.477
 3891SOL    HW112572   5.556   4.523   5.513
 3891SOL    HW212573   5.430   4.514   5.409
 3892SOL     OW12574   5.053   6.746   2.917
 3892SOL    HW112575   4.997   6.763   2.836
 3892SOL    HW212576   5.018   6.667   2.966
 3893SOL     OW12577   3.225   5.808   3.645
 3893SOL    HW112578   3.130   5.839   3.643
 3893SOL    HW212579   3.253   5.790   3.739
 3894SOL     OW12580   5.221   3.884   6.791
 3894SOL    HW112581   5.228   3.984   6.790
 3894SOL    HW212582   5.227   3.852   6.886
 3895SOL     OW12583   2.751   2.283   5.548
 3895SOL    HW112584   2.833   2.237   5.511
 3895SOL    HW212585   2.770   2.316   5.640
 3896SOL     OW12586   6.507   2.788   5.810
 3896SOL    HW112587   6.515   2.866   5.872
 3896SOL    HW212588   6.438   2.725   5.845
 3897SOL     OW12589   3.642   6.548   2.054
 3897SOL    HW112590   3.724   6.557   1.998
 3897SOL    HW212591   3.615   6.452   2.059
 3898SOL     OW12592   3.885   3.951   4.675
 3898SOL    HW112593   3.932   3.871   4.637
 3898SOL    HW212594   3.786   3.939   4.666
 3899SOL     OW12595   4.789   1.778   5.134
 3899SOL    HW112596   4.870   1.836   5.119
 3899SOL    HW212597   4.722   1.828   5.190
 3900SOL     OW12598   6.487   2.714   3.492
 3900SOL    HW112599   6.393   2.714   3.459
 3900SOL    HW212600   6.510   2.806   3.525
 3901SOL     OW12601   2.188   6.029   5.231
 3901SOL    HW112602   2.120   6.097   5.259
 3901SOL    HW212603   2.266   6.033   5.294
 3902SOL     OW12604   4.128   5.054   1.516
 3902SOL    HW112605   4.214   5.009   1.536
 3902SOL    HW212606   4.091   5.019   1.429
 3903SOL     OW12607   4.366   2.547   6.010
 3903SOL    HW112608   4.279   2.506   6.038
 3903SOL    HW212609   4.415   2.483   5.951
 3904SOL     OW12610   1.731   6.180   1.339
 3904SOL    HW112611   1.694   6.165   1.247
 3904SOL    HW212612   1.687   6.259   1.381
 3905SOL     OW12613   6.612   0.607   5.301
 3905SOL    HW112614   6.645   0.577   5.212
 3905SOL    HW212615   6.639   0.702   5.316
 3906SOL     OW12616   0.463   5.775   4.341
 3906SOL    HW112617   0.370   5.804   4.364
 3906SOL    HW212618   0.515   5.854   4.308
 3907SOL     OW12619   0.596   1.141   4.598
 3907SOL    HW112620   0.619   1.186   4.511
 3907SOL    HW212621   0.503   1.106   4.594
 3908SOL     OW12622   1.326   0.406   4.539
 3908SOL    HW112623   1.319   0.351   4.455
 3908SOL    HW212624   1.336   0.502   4.515
 3909SOL     OW12625   6.018   1.866   6.570
 3909SOL    HW112626   5.989   1.800   6.640
 3909SOL    HW212627   5.970   1.953   6.584
 3910SOL     OW12628   3.582   2.716   0.205
 3910SOL    HW112629   3.496   2.695   0.253
 3910SOL    HW212630   3.659   2.687   0.261
 3911SOL     OW12631   0.096   1.189   0.946
 3911SOL    HW112632   0.077   1.104   0.996
 3911SOL    HW212633   0.093   1.266   1.010
 3912SOL     OW12634   3.802   2.273   0.342
 3912SOL    HW112635   3.725   2.334   0.362
 3912SOL    HW212636   3.870   2.280   0.416
 3913SOL     OW12637   4.958   5.301   1.555
 3913SOL    HW112638   4.961   5.248   1.470
 3913SOL    HW212639   4.914   5.389   1.537
 3914SOL     OW12640   0.087   1.220   0.218
 3914SOL    HW112641   0.125   1.211   0.127
 3914SOL    HW212642   7.017   1.175   0.221
 3915SOL     OW12643   4.799   5.678   6.475
 3915SOL    HW112644   4.731   5.694   6.404
 3915SOL    HW212645   4.764   5.713   6.562
 3916SOL     OW12646   2.589   1.997   2.658
 3916SOL    HW112647   2.641   2.024   2.577
 3916SOL    HW212648   2.567   1.899   2.652
 3917SOL     OW12649   3.045   4.566   1.188
 3917SOL    HW112650   3.049   4.578   1.287
 3917SOL    HW212651   3.004   4.648   1.147
 3918SOL     OW12652   5.517   0.965   0.465
 3918SOL    HW112653   5.435   0.985   0.518
 3918SOL    HW212654   5.492   0.920   0.380
 3919SOL     OW12655   3.921   0.057   2.413
 3919SOL    HW112656   3.825   0.071   2.393
 3919SOL    HW212657   3.931   0.020   2.505
 3920SOL     OW12658   2.974   1.653   5.472
 3920SOL    HW112659   2.992   1.656   5.570
 3920SOL    HW212660   2.928   1.737   5.444
 3921SOL     OW12661   6.823   3.084   6.226
 3921SOL    HW112662   6.911   3.109   6.184
 3921SOL    HW212663   6.795   2.994   6.193
 3922SOL     OW12664   4.781   4.454   2.905
 3922SOL    HW112665   4.811   4.518   2.835
 3922SOL    HW212666   4.810   4.487   2.995
 3923SOL     OW12667   5.425   1.233   1.300
 3923SOL    HW112668   5.381   1.227   1.210
 3923SOL    HW212669   5.519   1.202   1.293
 3924SOL     OW12670   5.492   5.434   4.341
 3924SOL    HW112671   5.473   5.509   4.403
 3924SOL    HW212672   5.550   5.466   4.266
 3925SOL     OW12673   5.491   3.738   0.864
 3925SOL    HW112674   5.476   3.837   0.872
 3925SOL    HW212675   5.427   3.700   0.798
 3926SOL     OW12676   0.419   6.252   6.251
 3926SOL    HW112677   0.460   6.181   6.195
 3926SOL    HW212678   0.339   6.290   6.205
 3927SOL     OW12679   5.399   2.021   5.946
 3927SOL    HW112680   5.329   2.025   6.018
 3927SOL    HW212681   5.398   2.107   5.895
 3928SOL     OW12682   3.120   5.854   1.947
 3928SOL    HW112683   3.219   5.869   1.946
 3928SOL    HW212684   3.084   5.858   1.854
 3929SOL     OW12685   0.189   2.626   4.935
 3929SOL    HW112686   0.259   2.605   5.003
 3929SOL    HW212687   0.107   2.572   4.954
 3930SOL     OW12688   1.829   4.797   3.695
 3930SOL    HW112689   1.892   4.736   3.647
 3930SOL    HW212690   1.754   4.743   3.734
 3931SOL     OW12691   2.377   1.997   1.631
 3931SOL    HW112692   2.375   2.097   1.639
 3931SOL    HW212693   2.403   1.957   1.719
 3932SOL     OW12694   2.567   4.957   3.823
 3932SOL    HW112695   2.637   4.951   3.894
 3932SOL    HW212696   2.523   4.868   3.811
 3933SOL     OW12697   2.228   5.767   1.625
 3933SOL    HW112698   2.197   5.750   1.532
 3933SOL    HW212699   2.151   5.798   1.681
 3934SOL     OW12700   0.048   0.791   1.475
 3934SOL    HW112701   0.078   0.867   1.533
 3934SOL    HW212702   0.119   0.771   1.408
 3935SOL     OW12703   6.662   3.529   6.165
 3935SOL    HW112704   6.652   3.489   6.256
 3935SOL    HW212705   6.571   3.550   6.128
 3936SOL     OW12706   6.741   4.713   5.465
 3936SOL    HW112707   6.762   4.760   5.550
 3936SOL    HW212708   6.689   4.630   5.484
 3937SOL     OW12709   0.132   6.414   1.833
 3937SOL    HW112710   0.230   6.400   1.819
 3937SOL    HW212711   0.087   6.426   1.744
 3938SOL     OW12712   1.160   3.422   2.461
 3938SOL    HW112713   1.143   3.496   2.396
 3938SOL    HW212714   1.230   3.361   2.424
 3939SOL     OW12715   1.339   1.131   2.344
 3939SOL    HW112716   1.328   1.031   2.347
 3939SOL    HW212717   1.306   1.170   2.430
 3940SOL     OW12718   3.263   5.673   1.084
 3940SOL    HW112719   3.192   5.732   1.123
 3940SOL    HW212720   3.351   5.696   1.125
 3941SOL     OW12721   5.682   5.958   3.147
 3941SOL    HW112722   5.661   6.002   3.233
 3941SOL    HW212723   5.747   5.883   3.162
 3942SOL     OW12724   6.623   6.037   5.566
 3942SOL    HW112725   6.594   6.125   5.604
 3942SOL    HW212726   6.722   6.028   5.575
 3943SOL     OW12727   1.594   2.457   0.411
 3943SOL    HW112728   1.511   2.402   0.418
 3943SOL    HW212729   1.622   2.464   0.316
 3944SOL     OW12730   5.212   2.860   6.781
 3944SOL    HW112731   5.164   2.775   6.757
 3944SOL    HW212732   5.309   2.841   6.791
 3945SOL     OW12733   5.851   0.391   3.434
 3945SOL    HW112734   5.906   0.319   3.477
 3945SOL    HW212735   5.771   0.350   3.391
 3946SOL     OW12736   0.967   2.991   0.137
 3946SOL    HW112737   1.020   3.056   0.082
 3946SOL    HW212738   0.890   3.038   0.179
 3947SOL     OW12739   5.913   5.255   1.926
 3947SOL    HW112740   5.943   5.267   1.832
 3947SOL    HW212741   5.814   5.238   1.928
 3948SOL     OW12742   1.264   2.637   5.835
 3948SOL    HW112743   1.169   2.608   5.848
 3948SOL    HW212744   1.269   2.704   5.761
 3949SOL     OW12745   6.385   6.952   1.262
 3949SOL    HW112746   6.365   0.029   1.267
 3949SOL    HW212747   6.429   6.931   1.174
 3950SOL     OW12748   3.080   4.655   1.737
 3950SOL    HW112749   3.034   4.578   1.783
 3950SOL    HW212750   3.045   4.741   1.774
 3951SOL     OW12751   1.273   2.248   4.646
 3951SOL    HW112752   1.209   2.298   4.588
 3951SOL    HW212753   1.293   2.159   4.604
 3952SOL     OW12754   5.774   3.584   6.664
 3952SOL    HW112755   5.843   3.648   6.696
 3952SOL    HW212756   5.695   3.635   6.629
 3953SOL     OW12757   3.008   3.879   5.924
 3953SOL    HW112758   3.097   3.836   5.907
 3953SOL    HW212759   2.943   3.810   5.954
 3954SOL     OW12760   6.984   2.831   5.164
 3954SOL    HW112761   0.019   2.775   5.226
 3954SOL    HW212762   6.905   2.779   5.134
 3955SOL     OW12763   0.418   4.185   0.282
 3955SOL    HW112764   0.401   4.194   0.184
 3955SOL    HW212765   0.339   4.142   0.326
 3956SOL     OW12766   0.319   3.220   5.469
 3956SOL    HW112767   0.290   3.299   5.523
 3956SOL    HW212768   0.407   3.187   5.504
 3957SOL     OW12769   0.770   1.689   3.350
 3957SOL    HW112770   0.867   1.668   3.332
 3957SOL    HW212771   0.731   1.617   3.408
 3958SOL     OW12772   5.776   5.913   6.403
 3958SOL    HW112773   5.717   5.943   6.328
 3958SOL    HW212774   5.844   5.849   6.368
 3959SOL     OW12775   2.487   5.150   0.672
 3959SOL    HW112776   2.415   5.110   0.728
 3959SOL    HW212777   2.491   5.248   0.688
 3960SOL     OW12778   5.022   3.305   0.640
 3960SOL    HW112779   4.968   3.376   0.595
 3960SOL    HW212780   5.112   3.341   0.663
 3961SOL     OW12781   5.553   0.759   2.230
 3961SOL    HW112782   5.643   0.779   2.192
 3961SOL    HW212783   5.564   0.717   2.320
 3962SOL     OW12784   0.798   6.671   5.725
 3962SOL    HW112785   0.731   6.745   5.734
 3962SOL    HW212786   0.855   6.688   5.645
 3963SOL     OW12787   4.447   5.472   2.981
 3963SOL    HW112788   4.467   5.381   2.945
 3963SOL    HW212789   4.409   5.464   3.073
 3964SOL     OW12790   5.552   6.697   5.608
 3964SOL    HW112791   5.587   6.689   5.701
 3964SOL    HW212792   5.552   6.793   5.580
 3965SOL     OW12793   4.093   3.278   0.456
 3965SOL    HW112794   4.067   3.332   0.376
 3965SOL    HW212795   4.156   3.331   0.513
 3966SOL     OW12796   6.132   4.258   4.929
 3966SOL    HW112797   6.118   4.161   4.946
 3966SOL    HW212798   6.059   4.311   4.973
 3967SOL     OW12799   1.295   5.787   6.801
 3967SOL    HW112800   1.246   5.871   6.825
 3967SOL    HW212801   1.366   5.769   6.869
 3968SOL     OW12802   5.821   0.547   1.693
 3968SOL    HW112803   5.848   0.620   1.756
 3968SOL    HW212804   5.747   0.494   1.733
 3969SOL     OW12805   0.378   5.857   1.949
 3969SOL    HW112806   0.449   5.863   2.019
 3969SOL    HW212807   0.405   5.913   1.870
 3970SOL     OW12808   4.531   4.438   3.803
 3970SOL    HW112809   4.496   4.490   3.880
 3970SOL    HW212810   4.564   4.348   3.835
 3971SOL     OW12811   1.783   6.105   3.661
 3971SOL    HW112812   1.834   6.155   3.731
 3971SOL    HW212813   1.836   6.025   3.632
 3972SOL     OW12814   0.999   0.131   0.544
 3972SOL    HW112815   0.903   0.140   0.516
 3972SOL    HW212816   1.050   0.212   0.515
 3973SOL     OW12817   3.719   3.120   2.944
 3973SOL    HW112818   3.722   3.033   2.895
 3973SOL    HW212819   3.656   3.112   3.021
 3974SOL     OW12820   6.090   1.097   6.350
 3974SOL    HW112821   6.026   1.120   6.424
 3974SOL    HW212822   6.070   1.006   6.315
 3975SOL     OW12823   6.336   6.908   5.747
 3975SOL    HW112824   6.291   6.933   5.832
 3975SOL    HW212825   6.417   6.852   5.767
 3976SOL     OW12826   1.044   3.109   6.622
 3976SOL    HW112827   0.956   3.063   6.639
 3976SOL    HW212828   1.116   3.062   6.673
 3977SOL     OW12829   4.248   6.823   6.158
 3977SOL    HW112830   4.156   6.790   6.136
 3977SOL    HW212831   4.246   6.872   6.245
 3978SOL     OW12832   5.927   3.399   6.959
 3978SOL    HW112833   5.964   3.475   7.014
 3978SOL    HW212834   5.832   3.419   6.935
 3979SOL     OW12835   1.593   6.928   2.990
 3979SOL    HW112836   1.556   7.018   3.012
 3979SOL    HW212837   1.560   6.861   3.056
 3980SOL     OW12838   4.929   3.502   4.831
 3980SOL    HW112839   5.007   3.472   4.886
 3980SOL    HW212840   4.850   3.517   4.891
 3981SOL     OW12841   6.161   1.684   5.409
 3981SOL    HW112842   6.169   1.769   5.357
 3981SOL    HW212843   6.207   1.695   5.497
 3982SOL     OW12844   3.751   1.644   3.707
 3982SOL    HW112845   3.815   1.721   3.709
 3982SOL    HW212846   3.743   1.604   3.798
 3983SOL     OW12847   3.734   6.642   3.771
 3983SOL    HW112848   3.649   6.692   3.783
 3983SOL    HW212849   3.738   6.607   3.677
 3984SOL     OW12850   1.222   6.545   1.732
 3984SOL    HW112851   1.245   6.641   1.748
 3984SOL    HW212852   1.305   6.489   1.738
 3985SOL     OW12853   1.615   3.716   1.892
 3985SOL    HW112854   1.624   3.622   1.927
 3985SOL    HW212855   1.663   3.779   1.953
 3986SOL     OW12856   1.198   2.970   2.319
 3986SOL    HW112857   1.220   2.892   2.260
 3986SOL    HW212858   1.116   3.015   2.286
 3987SOL     OW12859   2.769   4.830   6.421
 3987SOL    HW112860   2.844   4.791   6.367
 3987SOL    HW212861   2.773   4.930   6.416
 3988SOL     OW12862   4.302   2.248   0.130
 3988SOL    HW112863   4.308   2.176   0.061
 3988SOL    HW212864   4.207   2.259   0.159
 3989SOL     OW12865   4.256   1.311   6.439
 3989SOL    HW112866   4.338   1.254   6.448
 3989SOL    HW212867   4.189   1.283   6.508
 3990SOL     OW12868   1.090   3.124   3.881
 3990SOL    HW112869   1.165   3.189   3.895
 3990SOL    HW212870   1.126   3.042   3.836
 3991SOL     OW12871   6.759   1.568   4.511
 3991SOL    HW112872   6.724   1.661   4.500
 3991SOL    HW212873   6.682   1.506   4.531
 3992SOL     OW12874   5.062   3.958   6.128
 3992SOL    HW112875   5.118   3.984   6.207
 3992SOL    HW212876   5.114   3.895   6.070
 3993SOL     OW12877   1.752   1.550   3.374
 3993SOL    HW112878   1.679   1.596   3.425
 3993SOL    HW212879   1.724   1.457   3.352
 3994SOL     OW12880   2.528   1.989   3.675
 3994SOL    HW112881   2.618   1.972   3.715
 3994SOL    HW212882   2.477   2.053   3.733
 3995SOL     OW12883   1.643   3.728   2.182
 3995SOL    HW112884   1.599   3.639   2.200
 3995SOL    HW212885   1.733   3.730   2.226
 3996SOL     OW12886   5.555   6.777   3.059
 3996SOL    HW112887   5.459   6.772   3.031
 3996SOL    HW212888   5.562   6.825   3.146
 3997SOL     OW12889   5.500   3.660   2.782
 3997SOL    HW112890   5.474   3.756   2.796
 3997SOL    HW212891   5.591   3.655   2.741
 3998SOL     OW12892   6.557   2.535   3.249
 3998SOL    HW112893   6.562   2.485   3.336
 3998SOL    HW212894   6.552   2.469   3.174
 3999SOL     OW12895   5.356   2.403   1.207
 3999SOL    HW112896   5.346   2.432   1.302
 3999SOL    HW212897   5.345   2.482   1.146
 4000SOL     OW12898   3.368   5.590   2.453
 4000SOL    HW112899   3.434   5.653   2.412
 4000SOL    HW212900   3.280   5.637   2.465
 4001SOL     OW12901   2.100   4.371   4.595
 4001SOL    HW112902   2.009   4.355   4.633
 4001SOL    HW212903   2.156   4.417   4.664
 4002SOL     OW12904   3.623   3.773   3.867
 4002SOL    HW112905   3.569   3.857   3.876
 4002SOL    HW212906   3.635   3.751   3.770
 4003SOL     OW12907   3.225   0.994   5.191
 4003SOL    HW112908   3.220   1.056   5.113
 4003SOL    HW212909   3.170   0.913   5.173
 4004SOL     OW12910   1.022   3.906   3.432
 4004SOL    HW112911   1.090   3.856   3.486
 4004SOL    HW212912   0.935   3.907   3.481
 4005SOL     OW12913   5.223   2.985   1.063
 4005SOL    HW112914   5.152   3.037   1.110
 4005SOL    HW212915   5.183   2.904   1.021
 4006SOL     OW12916   5.235   5.302   3.686
 4006SOL    HW112917   5.238   5.271   3.591
 4006SOL    HW212918   5.142   5.330   3.709
 4007SOL     OW12919   6.714   1.427   3.209
 4007SOL    HW112920   6.717   1.481   3.125
 4007SOL    HW212921   6.795   1.368   3.213
 4008SOL     OW12922   3.277   0.108   0.988
 4008SOL    HW112923   3.260   0.100   0.890
 4008SOL    HW212924   3.303   0.202   1.010
 4009SOL     OW12925   4.348   2.115   0.696
 4009SOL    HW112926   4.250   2.118   0.677
 4009SOL    HW212927   4.363   2.118   0.795
 4010SOL     OW12928   2.505   5.206   1.661
 4010SOL    HW112929   2.420   5.154   1.650
 4010SOL    HW212930   2.548   5.181   1.748
 4011SOL     OW12931   5.599   5.814   7.007
 4011SOL    HW112932   5.679   5.858   6.966
 4011SOL    HW212933   5.610   5.714   7.002
 4012SOL     OW12934   4.094   0.286   2.435
 4012SOL    HW112935   4.055   0.196   2.452
 4012SOL    HW212936   4.173   0.300   2.494
 4013SOL     OW12937   0.499   1.278   6.266
 4013SOL    HW112938   0.534   1.184   6.261
 4013SOL    HW212939   0.399   1.277   6.257
 4014SOL     OW12940   2.960   4.854   2.448
 4014SOL    HW112941   3.058   4.840   2.465
 4014SOL    HW212942   2.946   4.873   2.351
 4015SOL     OW12943   3.842   4.553   6.144
 4015SOL    HW112944   3.766   4.584   6.087
 4015SOL    HW212945   3.928   4.563   6.094
 4016SOL     OW12946   4.375   5.733   5.985
 4016SOL    HW112947   4.439   5.659   5.964
 4016SOL    HW212948   4.316   5.750   5.906
 4017SOL     OW12949   0.642   4.774   6.127
 4017SOL    HW112950   0.588   4.747   6.047
 4017SOL    HW212951   0.673   4.691   6.175
 4018SOL     OW12952   4.576   6.476   1.893
 4018SOL    HW112953   4.610   6.552   1.837
 4018SOL    HW212954   4.645   6.404   1.898
 4019SOL     OW12955   5.171   3.358   3.456
 4019SOL    HW112956   5.154   3.456   3.452
 4019SOL    HW212957   5.267   3.342   3.482
 4020SOL     OW12958   6.388   4.656   4.079
 4020SOL    HW112959   6.303   4.663   4.131
 4020SOL    HW212960   6.452   4.596   4.126
 4021SOL     OW12961   3.851   3.458   5.873
 4021SOL    HW112962   3.816   3.439   5.781
 4021SOL    HW212963   3.806   3.540   5.909
 4022SOL     OW12964   2.597   0.456   0.993
 4022SOL    HW112965   2.575   0.548   0.960
 4022SOL    HW212966   2.577   0.389   0.921
 4023SOL     OW12967   0.741   2.421   5.238
 4023SOL    HW112968   0.670   2.351   5.231
 4023SOL    HW212969   0.815   2.401   5.173
 4024SOL     OW12970   0.627   4.956   4.276
 4024SOL    HW112971   0.726   4.963   4.267
 4024SOL    HW212972   0.605   4.929   4.370
 4025SOL     OW12973   0.580   6.265   4.270
 4025SOL    HW112974   0.539   6.314   4.193
 4025SOL    HW212975   0.552   6.309   4.356
 4026SOL     OW12976   6.632   6.306   3.494
 4026SOL    HW112977   6.552   6.247   3.496
 4026SOL    HW212978   6.606   6.399   3.521
 4027SOL     OW12979   2.557   3.858   5.568
 4027SOL    HW112980   2.533   3.869   5.664
 4027SOL    HW212981   2.647   3.816   5.560
 4028SOL     OW12982   4.662   1.497   2.642
 4028SOL    HW112983   4.639   1.576   2.585
 4028SOL    HW212984   4.754   1.509   2.679
 4029SOL     OW12985   2.364   5.372   6.188
 4029SOL    HW112986   2.308   5.388   6.269
 4029SOL    HW212987   2.368   5.273   6.169
 4030SOL     OW12988   0.516   0.914   2.775
 4030SOL    HW112989   0.606   0.957   2.770
 4030SOL    HW212990   0.446   0.985   2.778
 4031SOL     OW12991   5.444   6.936   1.286
 4031SOL    HW112992   5.411   6.853   1.241
 4031SOL    HW212993   5.366   6.987   1.322
 4032SOL     OW12994   6.209   0.370   1.077
 4032SOL    HW112995   6.261   0.358   0.992
 4032SOL    HW212996   6.168   0.461   1.078
 4033SOL     OW12997   2.765   2.364   2.675
 4033SOL    HW112998   2.728   2.363   2.582
 4033SOL    HW212999   2.808   2.276   2.696
 4034SOL     OW13000   0.204   3.269   4.908
 4034SOL    HW113001   0.243   3.330   4.977
 4034SOL    HW213002   0.106   3.258   4.924
 4035SOL     OW13003   5.807   1.904   1.696
 4035SOL    HW113004   5.866   1.869   1.624
 4035SOL    HW213005   5.718   1.858   1.692
 4036SOL     OW13006   2.608   5.358   3.681
 4036SOL    HW113007   2.699   5.365   3.721
 4036SOL    HW213008   2.608   5.399   3.590
 4037SOL     OW13009   2.421   0.765   5.711
 4037SOL    HW113010   2.370   0.765   5.625
 4037SOL    HW213011   2.373   0.709   5.778
 4038SOL     OW13012   3.579   4.500   5.891
 4038SOL    HW113013   3.587   4.406   5.860
 4038SOL    HW213014   3.572   4.502   5.991
 4039SOL     OW13015   6.152   4.648   1.480
 4039SOL    HW113016   6.190   4.682   1.394
 4039SOL    HW213017   6.084   4.713   1.515
 4040SOL     OW13018   3.468   5.407   5.400
 4040SOL    HW113019   3.509   5.316   5.386
 4040SOL    HW213020   3.533   5.477   5.372
 4041SOL     OW13021   1.992   6.091   1.056
 4041SOL    HW113022   1.939   6.060   1.135
 4041SOL    HW213023   2.013   6.012   0.998
 4042SOL     OW13024   6.187   0.226   3.753
 4042SOL    HW113025   6.174   0.316   3.711
 4042SOL    HW213026   6.283   0.199   3.746
 4043SOL     OW13027   5.502   3.476   6.570
 4043SOL    HW113028   5.538   3.407   6.633
 4043SOL    HW213029   5.509   3.443   6.476
 4044SOL     OW13030   4.095   5.168   3.452
 4044SOL    HW113031   4.132   5.105   3.383
 4044SOL    HW213032   4.063   5.116   3.531
 4045SOL     OW13033   5.026   0.168   6.133
 4045SOL    HW113034   5.065   0.252   6.171
 4045SOL    HW213035   4.940   0.189   6.086
 4046SOL     OW13036   0.051   1.658   3.056
 4046SOL    HW113037   7.005   1.587   3.034
 4046SOL    HW213038   0.139   1.616   3.078
 4047SOL     OW13039   2.743   2.941   6.623
 4047SOL    HW113040   2.741   3.027   6.573
 4047SOL    HW213041   2.663   2.936   6.683
 4048SOL     OW13042   5.021   1.222   1.956
 4048SOL    HW113043   5.070   1.189   1.875
 4048SOL    HW213044   4.986   1.314   1.939
 4049SOL     OW13045   4.228   5.265   6.310
 4049SOL    HW113046   4.150   5.272   6.248
 4049SOL    HW213047   4.265   5.356   6.327
 4050SOL     OW13048   0.122   5.354   2.752
 4050SOL    HW113049   0.159   5.366   2.660
 4050SOL    HW213050   0.094   5.259   2.766
 4051SOL     OW13051   5.218   1.246   6.152
 4051SOL    HW113052   5.201   1.326   6.093
 4051SOL    HW213053   5.245   1.277   6.243
 4052SOL     OW13054   6.213   1.896   3.629
 4052SOL    HW113055   6.297   1.848   3.603
 4052SOL    HW213056   6.219   1.992   3.602
 4053SOL     OW13057   1.179   5.598   5.174
 4053SOL    HW113058   1.085   5.616   5.204
 4053SOL    HW213059   1.235   5.679   5.191
 4054SOL     OW13060   4.914   4.001   0.965
 4054SOL    HW113061   4.958   4.063   1.031
 4054SOL    HW213062   4.956   4.011   0.876
 4055SOL     OW13063   1.475   3.912   1.754
 4055SOL    HW113064   1.535   3.842   1.793
 4055SOL    HW213065   1.517   4.002   1.768
 4056SOL     OW13066   4.865   3.221   0.839
 4056SOL    HW113067   4.870   3.276   0.922
 4056SOL    HW213068   4.906   3.272   0.763
 4057SOL     OW13069   6.444   3.875   6.212
 4057SOL    HW113070   6.505   3.950   6.187
 4057SOL    HW213071   6.492   3.788   6.199
 4058SOL     OW13072   2.785   5.848   5.430
 4058SOL    HW113073   2.826   5.939   5.422
 4058SOL    HW213074   2.808   5.809   5.520
 4059SOL     OW13075   0.916   1.529   4.014
 4059SOL    HW113076   0.996   1.556   4.068
 4059SOL    HW213077   0.938   1.535   3.917
 4060SOL     OW13078   6.314   5.741   5.305
 4060SOL    HW113079   6.350   5.780   5.390
 4060SOL    HW213080   6.369   5.772   5.228
 4061SOL     OW13081   2.485   5.474   2.207
 4061SOL    HW113082   2.450   5.456   2.115
 4061SOL    HW213083   2.470   5.394   2.265
 4062SOL     OW13084   2.148   1.702   1.843
 4062SOL    HW113085   2.236   1.749   1.844
 4062SOL    HW213086   2.118   1.686   1.937
 4063SOL     OW13087   5.640   0.986   1.039
 4063SOL    HW113088   5.541   0.990   1.051
 4063SOL    HW213089   5.663   0.921   0.967
 4064SOL     OW13090   2.233   1.870   4.798
 4064SOL    HW113091   2.169   1.947   4.806
 4064SOL    HW213092   2.272   1.868   4.706
 4065SOL     OW13093   1.884   6.779   0.366
 4065SOL    HW113094   1.964   6.731   0.403
 4065SOL    HW213095   1.899   6.878   0.370
 4066SOL     OW13096   0.095   4.253   3.527
 4066SOL    HW113097   0.190   4.232   3.506
 4066SOL    HW213098   0.055   4.177   3.578
 4067SOL     OW13099   5.848   4.752   2.198
 4067SOL    HW113100   5.846   4.851   2.212
 4067SOL    HW213101   5.923   4.712   2.251
 4068SOL     OW13102   1.978   2.357   5.516
 4068SOL    HW113103   2.006   2.268   5.479
 4068SOL    HW213104   1.919   2.343   5.596
 4069SOL     OW13105   3.978   0.417   6.575
 4069SOL    HW113106   3.997   0.336   6.631
 4069SOL    HW213107   3.987   0.499   6.632
 4070SOL     OW13108   1.383   2.971   3.314
 4070SOL    HW113109   1.407   3.017   3.229
 4070SOL    HW213110   1.288   2.993   3.338
 4071SOL     OW13111   0.647   0.391   4.054
 4071SOL    HW113112   0.596   0.309   4.027
 4071SOL    HW213113   0.635   0.407   4.152
 4072SOL     OW13114   1.453   5.783   3.882
 4072SOL    HW113115   1.367   5.824   3.851
 4072SOL    HW213116   1.527   5.849   3.871
 4073SOL     OW13117   2.668   5.449   0.411
 4073SOL    HW113118   2.715   5.386   0.473
 4073SOL    HW213119   2.720   5.457   0.326
 4074SOL     OW13120   1.247   5.436   2.422
 4074SOL    HW113121   1.151   5.422   2.400
 4074SOL    HW213122   1.257   5.520   2.475
 4075SOL     OW13123   4.742   0.157   0.391
 4075SOL    HW113124   4.736   0.217   0.470
 4075SOL    HW213125   4.813   0.088   0.406
 4076SOL     OW13126   3.149   3.445   5.416
 4076SOL    HW113127   3.077   3.485   5.359
 4076SOL    HW213128   3.152   3.346   5.401
 4077SOL     OW13129   3.941   2.040   1.623
 4077SOL    HW113130   3.991   2.125   1.635
 4077SOL    HW213131   3.874   2.029   1.696
 4078SOL     OW13132   2.948   4.799   2.959
 4078SOL    HW113133   2.930   4.873   2.894
 4078SOL    HW213134   2.989   4.722   2.911
 4079SOL     OW13135   1.223   2.946   4.061
 4079SOL    HW113136   1.227   2.916   3.966
 4079SOL    HW213137   1.255   3.041   4.067
 4080SOL     OW13138   5.267   1.867   4.894
 4080SOL    HW113139   5.188   1.820   4.931
 4080SOL    HW213140   5.300   1.817   4.813
 4081SOL     OW13141   1.513   3.363   3.818
 4081SOL    HW113142   1.519   3.308   3.735
 4081SOL    HW213143   1.584   3.335   3.883
 4082SOL     OW13144   1.795   3.004   1.107
 4082SOL    HW113145   1.701   2.982   1.132
 4082SOL    HW213146   1.807   2.993   1.009
 4083SOL     OW13147   5.211   2.770   3.831
 4083SOL    HW113148   5.209   2.723   3.743
 4083SOL    HW213149   5.161   2.857   3.824
 4084SOL     OW13150   6.334   2.112   4.358
 4084SOL    HW113151   6.251   2.056   4.361
 4084SOL    HW213152   6.309   2.209   4.362
 4085SOL     OW13153   3.797   5.888   0.643
 4085SOL    HW113154   3.849   5.962   0.601
 4085SOL    HW213155   3.846   5.802   0.629
 4086SOL     OW13156   1.787   5.755   1.561
 4086SOL    HW113157   1.838   5.736   1.477
 4086SOL    HW213158   1.764   5.669   1.606
 4087SOL     OW13159   2.414   2.035   3.133
 4087SOL    HW113160   2.467   2.056   3.051
 4087SOL    HW213161   2.475   2.024   3.211
 4088SOL     OW13162   6.265   1.970   1.581
 4088SOL    HW113163   6.267   2.061   1.622
 4088SOL    HW213164   6.351   1.923   1.599
 4089SOL     OW13165   0.936   0.695   3.720
 4089SOL    HW113166   0.953   0.677   3.817
 4089SOL    HW213167   0.960   0.790   3.699
 4090SOL     OW13168   2.652   4.172   6.485
 4090SOL    HW113169   2.720   4.233   6.526
 4090SOL    HW213170   2.698   4.105   6.427
 4091SOL     OW13171   5.102   6.626   0.302
 4091SOL    HW113172   5.146   6.595   0.217
 4091SOL    HW213173   5.129   6.566   0.377
 4092SOL     OW13174   0.257   2.926   4.990
 4092SOL    HW113175   0.209   2.846   4.955
 4092SOL    HW213176   0.192   3.001   5.004
 4093SOL     OW13177   5.677   0.716   3.440
 4093SOL    HW113178   5.659   0.814   3.426
 4093SOL    HW213179   5.700   0.700   3.536
 4094SOL     OW13180   1.889   4.351   5.116
 4094SOL    HW113181   1.953   4.292   5.066
 4094SOL    HW213182   1.817   4.295   5.156
 4095SOL     OW13183   1.138   3.198   5.899
 4095SOL    HW113184   1.152   3.260   5.977
 4095SOL    HW213185   1.213   3.132   5.896
 4096SOL     OW13186   4.580   4.896   0.246
 4096SOL    HW113187   4.675   4.921   0.227
 4096SOL    HW213188   4.578   4.825   0.316
 4097SOL     OW13189   3.202   3.639   5.965
 4097SOL    HW113190   3.171   3.641   5.870
 4097SOL    HW213191   3.211   3.543   5.995
 4098SOL     OW13192   0.250   2.692   2.753
 4098SOL    HW113193   0.205   2.751   2.820
 4098SOL    HW213194   0.334   2.736   2.721
 4099SOL     OW13195   3.020   6.297   1.740
 4099SOL    HW113196   3.000   6.384   1.785
 4099SOL    HW213197   2.965   6.289   1.657
 4100SOL     OW13198   4.821   6.006   3.797
 4100SOL    HW113199   4.798   5.941   3.724
 4100SOL    HW213200   4.800   6.099   3.768
 4101SOL     OW13201   5.935   1.507   0.023
 4101SOL    HW113202   5.957   1.430   0.082
 4101SOL    HW213203   5.963   1.486   6.949
 4102SOL     OW13204   6.066   0.503   0.796
 4102SOL    HW113205   6.044   0.421   0.848
 4102SOL    HW213206   5.991   0.523   0.733
 4103SOL     OW13207   0.499   0.730   1.848
 4103SOL    HW113208   0.551   0.708   1.931
 4103SOL    HW213209   0.515   0.660   1.779
 4104SOL     OW13210   1.526   4.107   2.408
 4104SOL    HW113211   1.482   4.060   2.331
 4104SOL    HW213212   1.462   4.110   2.485
 4105SOL     OW13213   4.264   5.491   0.523
 4105SOL    HW113214   4.324   5.526   0.451
 4105SOL    HW213215   4.189   5.440   0.482
 4106SOL     OW13216   0.011   3.675   4.801
 4106SOL    HW113217   6.971   3.652   4.878
 4106SOL    HW213218   0.100   3.631   4.814
 4107SOL     OW13219   0.132   6.188   1.191
 4107SOL    HW113220   0.225   6.153   1.179
 4107SOL    HW213221   0.114   6.257   1.120
 4108SOL     OW13222   0.409   4.487   6.558
 4108SOL    HW113223   0.343   4.434   6.612
 4108SOL    HW213224   0.438   4.433   6.479
 4109SOL     OW13225   3.962   6.592   3.930
 4109SOL    HW113226   4.025   6.670   3.927
 4109SOL    HW213227   3.878   6.614   3.880
 4110SOL     OW13228   4.224   3.471   6.028
 4110SOL    HW113229   4.151   3.471   6.097
 4110SOL    HW213230   4.206   3.542   5.960
 4111SOL     OW13231   3.858   2.817   6.841
 4111SOL    HW113232   3.788   2.810   6.912
 4111SOL    HW213233   3.849   2.904   6.794
 4112SOL     OW13234   4.566   1.459   4.923
 4112SOL    HW113235   4.494   1.402   4.885
 4112SOL    HW213236   4.544   1.556   4.907
 4113SOL     OW13237   3.313   5.767   5.812
 4113SOL    HW113238   3.224   5.727   5.831
 4113SOL    HW213239   3.356   5.720   5.736
 4114SOL     OW13240   3.590   1.125   4.453
 4114SOL    HW113241   3.666   1.061   4.442
 4114SOL    HW213242   3.568   1.166   4.364
 4115SOL     OW13243   4.864   5.996   1.975
 4115SOL    HW113244   4.894   5.908   1.938
 4115SOL    HW213245   4.855   5.989   2.075
 4116SOL     OW13246   3.722   1.977   1.817
 4116SOL    HW113247   3.748   2.033   1.896
 4116SOL    HW213248   3.638   2.012   1.777
 4117SOL     OW13249   1.043   5.419   0.929
 4117SOL    HW113250   1.115   5.428   0.861
 4117SOL    HW213251   0.959   5.459   0.894
 4118SOL     OW13252   1.005   6.721   1.073
 4118SOL    HW113253   1.094   6.765   1.062
 4118SOL    HW213254   1.011   6.651   1.145
 4119SOL     OW13255   3.386   1.495   4.199
 4119SOL    HW113256   3.289   1.476   4.180
 4119SOL    HW213257   3.417   1.568   4.138
 4120SOL     OW13258   4.312   6.613   2.251
 4120SOL    HW113259   4.304   6.639   2.348
 4120SOL    HW213260   4.228   6.636   2.203
 4121SOL     OW13261   6.482   2.356   4.689
 4121SOL    HW113262   6.495   2.424   4.762
 4121SOL    HW213263   6.561   2.356   4.628
 4122SOL     OW13264   0.356   6.585   5.136
 4122SOL    HW113265   0.281   6.644   5.107
 4122SOL    HW213266   0.400   6.625   5.217
 4123SOL     OW13267   5.724   4.118   6.244
 4123SOL    HW113268   5.784   4.054   6.197
 4123SOL    HW213269   5.630   4.103   6.213
 4124SOL     OW13270   5.503   6.727   3.730
 4124SOL    HW113271   5.516   6.822   3.702
 4124SOL    HW213272   5.566   6.668   3.680
 4125SOL     OW13273   4.778   1.002   1.547
 4125SOL    HW113274   4.697   0.966   1.501
 4125SOL    HW213275   4.855   1.003   1.483
 4126SOL     OW13276   1.455   4.270   4.678
 4126SOL    HW113277   1.508   4.286   4.595
 4126SOL    HW213278   1.449   4.354   4.731
 4127SOL     OW13279   5.201   3.424   4.896
 4127SOL    HW113280   5.292   3.414   4.857
 4127SOL    HW213281   5.195   3.372   4.981
 4128SOL     OW13282   1.899   3.651   2.547
 4128SOL    HW113283   1.827   3.589   2.516
 4128SOL    HW213284   1.986   3.622   2.508
 4129SOL     OW13285   5.718   2.022   6.358
 4129SOL    HW113286   5.621   2.006   6.377
 4129SOL    HW213287   5.770   2.012   6.442
 4130SOL     OW13288   6.826   3.709   6.058
 4130SOL    HW113289   6.781   3.630   6.100
 4130SOL    HW213290   6.758   3.777   6.033
 4131SOL     OW13291   0.217   5.792   3.602
 4131SOL    HW113292   0.186   5.804   3.696
 4131SOL    HW213293   0.316   5.808   3.597
 4132SOL     OW13294   5.551   3.099   3.188
 4132SOL    HW113295   5.635   3.152   3.202
 4132SOL    HW213296   5.489   3.149   3.128
 4133SOL     OW13297   3.094   0.563   0.575
 4133SOL    HW113298   3.166   0.500   0.546
 4133SOL    HW213299   3.118   0.603   0.663
 4134SOL     OW13300   2.019   2.101   0.557
 4134SOL    HW113301   2.062   2.172   0.612
 4134SOL    HW213302   1.944   2.060   0.608
 4135SOL     OW13303   2.076   0.477   2.402
 4135SOL    HW113304   2.040   0.384   2.406
 4135SOL    HW213305   2.091   0.503   2.306
 4136SOL     OW13306   0.507   2.226   3.902
 4136SOL    HW113307   0.606   2.226   3.900
 4136SOL    HW213308   0.476   2.278   3.982
 4137SOL     OW13309   3.396   3.949   0.134
 4137SOL    HW113310   3.347   4.036   0.123
 4137SOL    HW213311   3.338   3.884   0.182
 4138SOL     OW13312   4.604   5.001   4.574
 4138SOL    HW113313   4.622   4.978   4.478
 4138SOL    HW213314   4.590   4.917   4.626
 4139SOL     OW13315   1.864   2.272   6.230
 4139SOL    HW113316   1.838   2.253   6.325
 4139SOL    HW213317   1.882   2.370   6.220
 4140SOL     OW13318   3.985   1.425   5.295
 4140SOL    HW113319   3.892   1.399   5.271
 4140SOL    HW213320   3.986   1.521   5.325
 4141SOL     OW13321   5.269   5.356   1.829
 4141SOL    HW113322   5.318   5.412   1.762
 4141SOL    HW213323   5.170   5.366   1.815
 4142SOL     OW13324   6.675   4.643   0.938
 4142SOL    HW113325   6.674   4.718   1.003
 4142SOL    HW213326   6.745   4.577   0.965
 4143SOL     OW13327   6.723   2.927   0.502
 4143SOL    HW113328   6.735   3.025   0.486
 4143SOL    HW213329   6.629   2.908   0.531
 4144SOL     OW13330   5.718   1.446   1.544
 4144SOL    HW113331   5.750   1.488   1.630
 4144SOL    HW213332   5.769   1.484   1.468
 4145SOL     OW13333   0.204   6.466   1.390
 4145SOL    HW113334   0.129   6.432   1.447
 4145SOL    HW213335   0.203   6.566   1.391
 4146SOL     OW13336   5.619   0.180   6.325
 4146SOL    HW113337   5.555   0.213   6.394
 4146SOL    HW213338   5.691   0.126   6.369
 4147SOL     OW13339   3.392   1.892   6.511
 4147SOL    HW113340   3.392   1.877   6.412
 4147SOL    HW213341   3.315   1.842   6.552
 4148SOL     OW13342   0.360   0.551   4.159
 4148SOL    HW113343   0.339   0.647   4.143
 4148SOL    HW213344   0.370   0.504   4.071
 4149SOL     OW13345   6.024   2.694   0.515
 4149SOL    HW113346   5.986   2.741   0.436
 4149SOL    HW213347   6.103   2.639   0.486
 4150SOL     OW13348   5.659   0.297   6.064
 4150SOL    HW113349   5.632   0.227   5.998
 4150SOL    HW213350   5.642   0.263   6.157
 4151SOL     OW13351   6.046   6.148   0.177
 4151SOL    HW113352   6.008   6.127   0.267
 4151SOL    HW213353   5.976   6.135   0.107
 4152SOL     OW13354   3.647   4.907   2.165
 4152SOL    HW113355   3.708   4.842   2.211
 4152SOL    HW213356   3.611   4.866   2.081
 4153SOL     OW13357   5.580   5.337   6.529
 4153SOL    HW113358   5.674   5.337   6.495
 4153SOL    HW213359   5.522   5.390   6.467
 4154SOL     OW13360   6.641   3.751   4.815
 4154SOL    HW113361   6.721   3.712   4.861
 4154SOL    HW213362   6.595   3.680   4.761
 4155SOL     OW13363   0.926   3.523   2.670
 4155SOL    HW113364   0.915   3.531   2.571
 4155SOL    HW213365   0.901   3.431   2.699
 4156SOL     OW13366   5.756   6.885   5.270
 4156SOL    HW113367   5.718   6.803   5.228
 4156SOL    HW213368   5.855   6.884   5.260
 4157SOL     OW13369   3.964   0.327   4.195
 4157SOL    HW113370   3.864   0.337   4.198
 4157SOL    HW213371   4.004   0.403   4.144
 4158SOL     OW13372   0.544   5.588   3.166
 4158SOL    HW113373   0.509   5.655   3.231
 4158SOL    HW213374   0.624   5.543   3.204
 4159SOL     OW13375   1.664   3.015   3.480
 4159SOL    HW113376   1.570   3.051   3.478
 4159SOL    HW213377   1.722   3.079   3.531
 4160SOL     OW13378   6.523   0.556   0.715
 4160SOL    HW113379   6.615   0.586   0.693
 4160SOL    HW213380   6.488   0.608   0.794
 4161SOL     OW13381   1.418   0.612   6.417
 4161SOL    HW113382   1.431   0.584   6.512
 4161SOL    HW213383   1.351   0.552   6.374
 4162SOL     OW13384   6.193   6.899   5.004
 4162SOL    HW113385   6.235   6.810   4.986
 4162SOL    HW213386   6.145   6.896   5.092
 4163SOL     OW13387   5.642   1.323   3.325
 4163SOL    HW113388   5.618   1.331   3.228
 4163SOL    HW213389   5.643   1.414   3.367
 4164SOL     OW13390   1.665   0.695   6.291
 4164SOL    HW113391   1.579   0.691   6.342
 4164SOL    HW213392   1.657   0.761   6.217
 4165SOL     OW13393   4.051   6.466   1.041
 4165SOL    HW113394   4.104   6.545   1.009
 4165SOL    HW213395   4.028   6.478   1.138
 4166SOL     OW13396   4.084   2.820   0.543
 4166SOL    HW113397   4.068   2.780   0.634
 4166SOL    HW213398   4.075   2.748   0.474
 4167SOL     OW13399   2.192   2.358   1.545
 4167SOL    HW113400   2.246   2.365   1.462
 4167SOL    HW213401   2.252   2.345   1.624
 4168SOL     OW13402   0.114   5.244   1.589
 4168SOL    HW113403   0.110   5.289   1.500
 4168SOL    HW213404   0.162   5.157   1.580
 4169SOL     OW13405   4.911   3.785   4.085
 4169SOL    HW113406   4.927   3.761   4.180
 4169SOL    HW213407   4.898   3.701   4.031
 4170SOL     OW13408   4.076   2.456   5.620
 4170SOL    HW113409   4.068   2.422   5.527
 4170SOL    HW213410   4.147   2.526   5.624
 4171SOL     OW13411   5.471   3.472   1.529
 4171SOL    HW113412   5.449   3.379   1.499
 4171SOL    HW213413   5.557   3.501   1.487
 4172SOL     OW13414   7.005   1.760   0.405
 4172SOL    HW113415   7.015   1.684   0.340
 4172SOL    HW213416   0.074   1.783   0.443
 4173SOL     OW13417   5.877   2.879   5.279
 4173SOL    HW113418   5.902   2.974   5.294
 4173SOL    HW213419   5.778   2.872   5.267
 4174SOL     OW13420   4.992   0.197   3.748
 4174SOL    HW113421   4.949   0.205   3.837
 4174SOL    HW213422   5.018   0.101   3.733
 4175SOL     OW13423   3.221   0.208   3.805
 4175SOL    HW113424   3.131   0.199   3.761
 4175SOL    HW213425   3.291   0.168   3.745
 4176SOL     OW13426   4.886   0.393   2.486
 4176SOL    HW113427   4.856   0.408   2.581
 4176SOL    HW213428   4.908   0.482   2.444
 4177SOL     OW13429   0.214   5.715   3.928
 4177SOL    HW113430   0.304   5.752   3.904
 4177SOL    HW213431   0.211   5.696   4.026
 4178SOL     OW13432   3.007   1.702   6.023
 4178SOL    HW113433   3.054   1.682   5.937
 4178SOL    HW213434   2.960   1.620   6.055
 4179SOL     OW13435   5.630   3.439   5.114
 4179SOL    HW113436   5.656   3.427   5.018
 4179SOL    HW213437   5.704   3.484   5.163
 4180SOL     OW13438   5.253   4.225   1.579
 4180SOL    HW113439   5.218   4.265   1.663
 4180SOL    HW213440   5.227   4.128   1.575
 4181SOL     OW13441   0.859   1.785   6.280
 4181SOL    HW113442   0.837   1.876   6.247
 4181SOL    HW213443   0.825   1.716   6.216
 4182SOL     OW13444   0.402   0.356   2.213
 4182SOL    HW113445   0.416   0.351   2.312
 4182SOL    HW213446   0.339   0.431   2.192
 4183SOL     OW13447   3.111   1.468   1.999
 4183SOL    HW113448   3.043   1.541   2.007
 4183SOL    HW213449   3.127   1.449   1.902
 4184SOL     OW13450   3.860   5.231   0.564
 4184SOL    HW113451   3.883   5.321   0.528
 4184SOL    HW213452   3.779   5.196   0.517
 4185SOL     OW13453   0.344   6.942   3.236
 4185SOL    HW113454   0.379   6.894   3.317
 4185SOL    HW213455   0.245   6.928   3.228
 4186SOL     OW13456   2.438   3.823   0.511
 4186SOL    HW113457   2.419   3.853   0.417
 4186SOL    HW213458   2.359   3.842   0.569
 4187SOL     OW13459   3.804   3.273   6.453
 4187SOL    HW113460   3.766   3.310   6.369
 4187SOL    HW213461   3.859   3.192   6.432
 4188SOL     OW13462   4.904   0.053   4.175
 4188SOL    HW113463   4.996   0.082   4.151
 4188SOL    HW213464   4.908   6.984   4.221
 4189SOL     OW13465   2.404   1.381   3.853
 4189SOL    HW113466   2.383   1.461   3.797
 4189SOL    HW213467   2.406   1.408   3.949
 4190SOL     OW13468   2.977   0.364   6.970
 4190SOL    HW113469   2.984   0.356   0.050
 4190SOL    HW213470   3.067   0.347   6.929
 4191SOL     OW13471   6.519   2.946   3.320
 4191SOL    HW113472   6.487   3.017   3.258
 4191SOL    HW213473   6.483   2.858   3.291
 4192SOL     OW13474   5.854   1.448   3.017
 4192SOL    HW113475   5.760   1.442   3.050
 4192SOL    HW213476   5.915   1.464   3.094
 4193SOL     OW13477   2.412   6.807   2.361
 4193SOL    HW113478   2.320   6.800   2.401
 4193SOL    HW213479   2.404   6.822   2.263
 4194SOL     OW13480   6.707   1.848   4.566
 4194SOL    HW113481   6.748   1.852   4.657
 4194SOL    HW213482   6.686   1.941   4.535
 4195SOL     OW13483   5.240   0.385   1.134
 4195SOL    HW113484   5.315   0.448   1.113
 4195SOL    HW213485   5.173   0.431   1.193
 4196SOL     OW13486   5.216   2.819   4.186
 4196SOL    HW113487   5.125   2.833   4.225
 4196SOL    HW213488   5.207   2.781   4.094
 4197SOL     OW13489   5.343   4.516   4.623
 4197SOL    HW113490   5.298   4.455   4.688
 4197SOL    HW213491   5.442   4.501   4.627
 4198SOL     OW13492   5.971   3.763   6.817
 4198SOL    HW113493   6.045   3.700   6.795
 4198SOL    HW213494   6.009   3.852   6.841
 4199SOL     OW13495   3.003   3.829   5.357
 4199SOL    HW113496   3.002   3.907   5.419
 4199SOL    HW213497   3.067   3.847   5.282
 4200SOL     OW13498   2.380   6.835   6.391
 4200SOL    HW113499   2.308   6.893   6.430
 4200SOL    HW213500   2.381   6.747   6.439
 4201SOL     OW13501   6.071   6.800   3.638
 4201SOL    HW113502   6.008   6.756   3.702
 4201SOL    HW213503   6.153   6.829   3.688
 4202SOL     OW13504   5.570   4.860   5.619
 4202SOL    HW113505   5.521   4.946   5.606
 4202SOL    HW213506   5.528   4.789   5.562
 4203SOL     OW13507   5.217   5.486   2.991
 4203SOL    HW113508   5.143   5.552   2.986
 4203SOL    HW213509   5.236   5.450   2.899
 4204SOL     OW13510   3.334   3.291   1.175
 4204SOL    HW113511   3.393   3.321   1.250
 4204SOL    HW213512   3.379   3.219   1.123
 4205SOL     OW13513   3.012   5.194   4.793
 4205SOL    HW113514   2.985   5.241   4.709
 4205SOL    HW213515   2.970   5.103   4.795
 4206SOL     OW13516   5.093   0.248   5.058
 4206SOL    HW113517   5.090   0.181   5.131
 4206SOL    HW213518   5.145   0.212   4.980
 4207SOL     OW13519   1.231   0.883   1.585
 4207SOL    HW113520   1.289   0.885   1.503
 4207SOL    HW213521   1.149   0.830   1.566
 4208SOL     OW13522   1.295   2.616   0.988
 4208SOL    HW113523   1.278   2.519   0.969
 4208SOL    HW213524   1.249   2.671   0.919
 4209SOL     OW13525   2.059   0.159   4.920
 4209SOL    HW113526   2.136   0.127   4.975
 4209SOL    HW213527   2.072   0.133   4.825
 4210SOL     OW13528   3.494   3.148   0.985
 4210SOL    HW113529   3.587   3.140   1.020
 4210SOL    HW213530   3.484   3.235   0.937
 4211SOL     OW13531   4.933   4.434   4.473
 4211SOL    HW113532   4.900   4.342   4.452
 4211SOL    HW213533   4.918   4.453   4.570
 4212SOL     OW13534   5.948   0.869   3.042
 4212SOL    HW113535   5.900   0.914   3.118
 4212SOL    HW213536   6.045   0.892   3.047
 4213SOL     OW13537   1.570   0.709   2.173
 4213SOL    HW113538   1.584   0.658   2.257
 4213SOL    HW213539   1.655   0.713   2.121
 4214SOL     OW13540   1.011   3.350   5.429
 4214SOL    HW113541   0.952   3.275   5.460
 4214SOL    HW213542   1.012   3.353   5.330
 4215SOL     OW13543   0.829   5.620   4.841
 4215SOL    HW113544   0.906   5.558   4.857
 4215SOL    HW213545   0.745   5.577   4.874
 4216SOL     OW13546   1.386   2.578   4.354
 4216SOL    HW113547   1.405   2.655   4.293
 4216SOL    HW213548   1.452   2.504   4.336
 4217SOL     OW13549   0.454   0.554   2.795
 4217SOL    HW113550   0.553   0.540   2.803
 4217SOL    HW213551   0.411   0.468   2.766
 4218SOL     OW13552   4.839   0.509   1.864
 4218SOL    HW113553   4.796   0.593   1.898
 4218SOL    HW213554   4.866   0.452   1.942
 4219SOL     OW13555   3.909   5.263   4.741
 4219SOL    HW113556   3.915   5.264   4.641
 4219SOL    HW213557   3.981   5.321   4.779
 4220SOL     OW13558   6.587   3.470   3.720
 4220SOL    HW113559   6.575   3.455   3.819
 4220SOL    HW213560   6.663   3.533   3.705
 4221SOL     OW13561   5.183   5.395   6.462
 4221SOL    HW113562   5.228   5.371   6.547
 4221SOL    HW213563   5.200   5.323   6.394
 4222SOL     OW13564   5.444   2.395   1.873
 4222SOL    HW113565   5.460   2.334   1.951
 4222SOL    HW213566   5.350   2.428   1.876
 4223SOL     OW13567   3.262   4.112   2.580
 4223SOL    HW113568   3.215   4.132   2.494
 4223SOL    HW213569   3.349   4.066   2.560
 4224SOL     OW13570   4.481   2.539   4.808
 4224SOL    HW113571   4.552   2.579   4.867
 4224SOL    HW213572   4.420   2.483   4.864
 4225SOL     OW13573   6.110   0.167   4.620
 4225SOL    HW113574   6.112   0.073   4.653
 4225SOL    HW213575   6.200   0.192   4.585
 4226SOL     OW13576   0.868   1.813   3.696
 4226SOL    HW113577   0.782   1.856   3.671
 4226SOL    HW213578   0.856   1.714   3.704
 4227SOL     OW13579   3.957   4.583   6.785
 4227SOL    HW113580   3.858   4.571   6.799
 4227SOL    HW213581   3.998   4.496   6.758
 4228SOL     OW13582   6.331   5.641   3.241
 4228SOL    HW113583   6.298   5.736   3.242
 4228SOL    HW213584   6.286   5.589   3.313
 4229SOL     OW13585   4.812   4.576   5.990
 4229SOL    HW113586   4.741   4.521   5.947
 4229SOL    HW213587   4.779   4.669   6.003
 4230SOL     OW13588   3.523   1.018   5.514
 4230SOL    HW113589   3.499   1.032   5.418
 4230SOL    HW213590   3.620   1.039   5.528
 4231SOL     OW13591   4.678   6.867   5.069
 4231SOL    HW113592   4.708   6.916   4.986
 4231SOL    HW213593   4.647   6.934   5.137
 4232SOL     OW13594   1.997   4.820   2.805
 4232SOL    HW113595   1.951   4.843   2.720
 4232SOL    HW213596   1.952   4.865   2.882
 4233SOL     OW13597   6.604   6.976   6.593
 4233SOL    HW113598   6.634   6.970   6.689
 4233SOL    HW213599   6.685   6.977   6.534
 4234SOL     OW13600   3.161   5.149   6.118
 4234SOL    HW113601   3.139   5.094   6.038
 4234SOL    HW213602   3.163   5.245   6.093
 4235SOL     OW13603   6.321   3.613   5.314
 4235SOL    HW113604   6.417   3.588   5.307
 4235SOL    HW213605   6.306   3.670   5.395
 4236SOL     OW13606   0.845   3.107   4.429
 4236SOL    HW113607   0.936   3.082   4.396
 4236SOL    HW213608   0.851   3.137   4.524
 4237SOL     OW13609   5.162   3.687   4.990
 4237SOL    HW113610   5.193   3.680   5.085
 4237SOL    HW213611   5.165   3.597   4.947
 4238SOL     OW13612   4.046   5.267   4.206
 4238SOL    HW113613   4.097   5.346   4.240
 4238SOL    HW213614   4.106   5.212   4.147
 4239SOL     OW13615   4.312   6.665   5.895
 4239SOL    HW113616   4.407   6.638   5.911
 4239SOL    HW213617   4.274   6.703   5.979
 4240SOL     OW13618   2.809   4.614   6.619
 4240SOL    HW113619   2.837   4.536   6.563
 4240SOL    HW213620   2.785   4.691   6.559
 4241SOL     OW13621   4.765   0.314   0.599
 4241SOL    HW113622   4.723   0.395   0.641
 4241SOL    HW213623   4.825   0.269   0.664
 4242SOL     OW13624   2.087   6.998   2.448
 4242SOL    HW113625   1.995   0.017   2.454
 4242SOL    HW213626   2.154   0.047   2.475
 4243SOL     OW13627   0.865   3.630   2.358
 4243SOL    HW113628   0.837   3.694   2.287
 4243SOL    HW213629   0.964   3.620   2.357
 4244SOL     OW13630   4.590   6.552   1.099
 4244SOL    HW113631   4.683   6.582   1.079
 4244SOL    HW213632   4.544   6.525   1.015
 4245SOL     OW13633   6.775   3.027   0.833
 4245SOL    HW113634   6.741   2.933   0.835
 4245SOL    HW213635   6.701   3.089   0.805
 4246SOL     OW13636   5.063   2.162   3.126
 4246SOL    HW113637   5.012   2.237   3.169
 4246SOL    HW213638   5.007   2.080   3.126
 4247SOL     OW13639   1.825   5.072   5.018
 4247SOL    HW113640   1.778   5.002   5.072
 4247SOL    HW213641   1.889   5.028   4.956
 4248SOL     OW13642   1.721   0.801   2.705
 4248SOL    HW113643   1.743   0.794   2.802
 4248SOL    HW213644   1.623   0.788   2.692
 4249SOL     OW13645   0.215   0.772   5.062
 4249SOL    HW113646   0.217   0.866   5.098
 4249SOL    HW213647   0.293   0.757   5.002
 4250SOL     OW13648   6.840   5.849   4.016
 4250SOL    HW113649   6.797   5.851   4.106
 4250SOL    HW213650   6.917   5.913   4.014
 4251SOL     OW13651   6.051   1.983   6.309
 4251SOL    HW113652   6.062   2.079   6.338
 4251SOL    HW213653   6.053   1.924   6.389
 4252SOL     OW13654   6.461   6.106   6.507
 4252SOL    HW113655   6.396   6.032   6.523
 4252SOL    HW213656   6.417   6.194   6.525
 4253SOL     OW13657   4.501   5.505   2.615
 4253SOL    HW113658   4.522   5.566   2.691
 4253SOL    HW213659   4.440   5.552   2.550
 4254SOL     OW13660   2.041   3.033   6.760
 4254SOL    HW113661   2.064   3.130   6.759
 4254SOL    HW213662   2.042   2.999   6.854
 4255SOL     OW13663   0.647   3.836   2.765
 4255SOL    HW113664   0.737   3.878   2.760
 4255SOL    HW213665   0.633   3.795   2.855
 4256SOL     OW13666   0.622   5.205   2.239
 4256SOL    HW113667   0.617   5.300   2.210
 4256SOL    HW213668   0.549   5.186   2.304
 4257SOL     OW13669   6.340   0.673   5.318
 4257SOL    HW113670   6.279   0.604   5.357
 4257SOL    HW213671   6.423   0.629   5.284
 4258SOL     OW13672   3.995   5.727   0.164
 4258SOL    HW113673   3.931   5.801   0.183
 4258SOL    HW213674   4.067   5.760   0.102
 4259SOL     OW13675   0.837   6.741   2.206
 4259SOL    HW113676   0.846   6.681   2.126
 4259SOL    HW213677   0.887   6.701   2.282
 4260SOL     OW13678   5.150   0.038   4.825
 4260SOL    HW113679   5.095   0.082   4.754
 4260SOL    HW213680   5.236   0.005   4.784
 4261SOL     OW13681   1.810   0.172   3.302
 4261SOL    HW113682   1.896   0.139   3.342
 4261SOL    HW213683   1.825   0.192   3.205
 4262SOL     OW13684   1.813   4.283   6.584
 4262SOL    HW113685   1.793   4.185   6.589
 4262SOL    HW213686   1.886   4.305   6.648
 4263SOL     OW13687   2.911   2.276   3.980
 4263SOL    HW113688   2.865   2.311   4.061
 4263SOL    HW213689   2.875   2.321   3.898
 4264SOL     OW13690   5.362   1.328   4.084
 4264SOL    HW113691   5.324   1.414   4.115
 4264SOL    HW213692   5.401   1.340   3.992
 4265SOL     OW13693   3.135   1.031   0.857
 4265SOL    HW113694   3.217   1.016   0.802
 4265SOL    HW213695   3.071   0.955   0.844
 4266SOL     OW13696   1.722   6.665   0.610
 4266SOL    HW113697   1.712   6.601   0.534
 4266SOL    HW213698   1.710   6.758   0.577
 4267SOL     OW13699   1.863   4.262   4.715
 4267SOL    HW113700   1.880   4.216   4.802
 4267SOL    HW213701   1.823   4.198   4.650
 4268SOL     OW13702   1.700   4.704   5.872
 4268SOL    HW113703   1.625   4.672   5.929
 4268SOL    HW213704   1.761   4.628   5.850
 4269SOL     OW13705   2.874   1.730   4.311
 4269SOL    HW113706   2.941   1.715   4.383
 4269SOL    HW213707   2.912   1.792   4.243
 4270SOL     OW13708   3.523   2.368   0.653
 4270SOL    HW113709   3.556   2.278   0.624
 4270SOL    HW213710   3.598   2.433   0.651
 4271SOL     OW13711   6.830   0.643   0.903
 4271SOL    HW113712   6.751   0.702   0.918
 4271SOL    HW213713   6.846   0.586   0.984
 4272SOL     OW13714   6.345   1.923   5.920
 4272SOL    HW113715   6.381   2.016   5.914
 4272SOL    HW213716   6.281   1.917   5.997
 4273SOL     OW13717   3.681   5.244   4.878
 4273SOL    HW113718   3.778   5.241   4.852
 4273SOL    HW213719   3.658   5.337   4.909
 4274SOL     OW13720   6.824   0.704   1.784
 4274SOL    HW113721   6.881   0.766   1.838
 4274SOL    HW213722   6.774   0.756   1.714
 4275SOL     OW13723   0.743   2.864   3.277
 4275SOL    HW113724   0.763   2.962   3.275
 4275SOL    HW213725   0.766   2.824   3.188
 4276SOL     OW13726   2.672   6.043   3.872
 4276SOL    HW113727   2.763   6.032   3.912
 4276SOL    HW213728   2.603   6.015   3.938
 4277SOL     OW13729   6.225   5.529   3.452
 4277SOL    HW113730   6.280   5.565   3.527
 4277SOL    HW213731   6.209   5.431   3.466
 4278SOL     OW13732   1.310   6.892   2.154
 4278SOL    HW113733   1.313   6.792   2.147
 4278SOL    HW213734   1.220   6.924   2.125
 4279SOL     OW13735   2.212   2.312   3.369
 4279SOL    HW113736   2.189   2.408   3.379
 4279SOL    HW213737   2.253   2.296   3.279
 4280SOL     OW13738   0.487   0.333   6.105
 4280SOL    HW113739   0.541   0.414   6.125
 4280SOL    HW213740   0.396   0.360   6.072
 4281SOL     OW13741   4.297   5.378   3.757
 4281SOL    HW113742   4.395   5.390   3.739
 4281SOL    HW213743   4.244   5.416   3.681
 4282SOL     OW13744   3.479   4.135   1.148
 4282SOL    HW113745   3.528   4.051   1.172
 4282SOL    HW213746   3.431   4.170   1.229
 4283SOL     OW13747   5.047   1.314   3.981
 4283SOL    HW113748   4.978   1.356   3.922
 4283SOL    HW213749   5.110   1.384   4.015
 4284SOL     OW13750   4.935   6.155   6.480
 4284SOL    HW113751   4.864   6.101   6.434
 4284SOL    HW213752   4.936   6.133   6.577
 4285SOL     OW13753   2.816   0.228   5.778
 4285SOL    HW113754   2.891   0.264   5.722
 4285SOL    HW213755   2.853   0.166   5.846
 4286SOL     OW13756   5.697   1.017   6.218
 4286SOL    HW113757   5.771   1.035   6.153
 4286SOL    HW213758   5.612   1.000   6.168
 4287SOL     OW13759   4.851   0.321   7.015
 4287SOL    HW113760   4.900   0.238   6.985
 4287SOL    HW213761   4.896   0.402   6.978
 4288SOL     OW13762   6.823   6.484   2.401
 4288SOL    HW113763   6.799   6.578   2.427
 4288SOL    HW213764   6.739   6.431   2.387
 4289SOL     OW13765   0.637   3.415   4.529
 4289SOL    HW113766   0.547   3.444   4.562
 4289SOL    HW213767   0.628   3.328   4.480
 4290SOL     OW13768   0.334   1.266   3.019
 4290SOL    HW113769   0.421   1.301   2.984
 4290SOL    HW213770   0.300   1.195   2.958
 4291SOL     OW13771   5.186   3.213   6.229
 4291SOL    HW113772   5.230   3.179   6.312
 4291SOL    HW213773   5.224   3.166   6.150
 4292SOL     OW13774   6.172   1.712   1.063
 4292SOL    HW113775   6.257   1.659   1.055
 4292SOL    HW213776   6.193   1.809   1.061
 4293SOL     OW13777   4.191   4.268   6.986
 4293SOL    HW113778   4.279   4.241   6.946
 4293SOL    HW213779   4.124   4.197   6.970
 4294SOL     OW13780   2.207   2.286   6.364
 4294SOL    HW113781   2.195   2.367   6.307
 4294SOL    HW213782   2.213   2.205   6.305
 4295SOL     OW13783   4.448   6.359   3.149
 4295SOL    HW113784   4.528   6.311   3.185
 4295SOL    HW213785   4.453   6.455   3.174
 4296SOL     OW13786   2.415   6.355   1.980
 4296SOL    HW113787   2.399   6.448   1.949
 4296SOL    HW213788   2.335   6.298   1.959
 4297SOL     OW13789   5.850   4.963   0.927
 4297SOL    HW113790   5.825   5.056   0.900
 4297SOL    HW213791   5.801   4.938   1.011
 4298SOL     OW13792   3.511   6.487   0.699
 4298SOL    HW113793   3.591   6.544   0.717
 4298SOL    HW213794   3.496   6.425   0.776
 4299SOL     OW13795   1.125   2.692   0.435
 4299SOL    HW113796   1.084   2.743   0.511
 4299SOL    HW213797   1.141   2.597   0.464
 4300SOL     OW13798   3.205   0.648   0.814
 4300SOL    HW113799   3.153   0.603   0.888
 4300SOL    HW213800   3.289   0.597   0.798
 4301SOL     OW13801   3.064   6.933   1.525
 4301SOL    HW113802   3.058   6.867   1.450
 4301SOL    HW213803   3.122   6.897   1.598
 4302SOL     OW13804   1.708   5.446   5.969
 4302SOL    HW113805   1.779   5.475   5.905
 4302SOL    HW213806   1.679   5.524   6.025
 4303SOL     OW13807   5.904   4.117   3.684
 4303SOL    HW113808   5.999   4.114   3.652
 4303SOL    HW213809   5.901   4.096   3.782
 4304SOL     OW13810   3.339   3.716   1.312
 4304SOL    HW113811   3.392   3.715   1.227
 4304SOL    HW213812   3.301   3.807   1.326
 4305SOL     OW13813   1.481   0.574   5.356
 4305SOL    HW113814   1.481   0.610   5.263
 4305SOL    HW213815   1.388   0.578   5.393
 4306SOL     OW13816   5.459   3.649   5.173
 4306SOL    HW113817   5.501   3.559   5.169
 4306SOL    HW213818   5.362   3.639   5.198
 4307SOL     OW13819   6.403   1.957   5.308
 4307SOL    HW113820   6.430   1.876   5.256
 4307SOL    HW213821   6.482   2.017   5.319
 4308SOL     OW13822   5.092   4.781   0.658
 4308SOL    HW113823   5.052   4.759   0.747
 4308SOL    HW213824   5.027   4.756   0.586
 4309SOL     OW13825   1.405   3.353   0.397
 4309SOL    HW113826   1.338   3.301   0.343
 4309SOL    HW213827   1.358   3.398   0.473
 4310SOL     OW13828   0.270   1.788   2.551
 4310SOL    HW113829   0.185   1.825   2.514
 4310SOL    HW213830   0.303   1.848   2.623
 4311SOL     OW13831   0.608   6.495   2.561
 4311SOL    HW113832   0.509   6.485   2.563
 4311SOL    HW213833   0.641   6.487   2.467
 4312SOL     OW13834   0.319   4.834   2.383
 4312SOL    HW113835   0.373   4.817   2.301
 4312SOL    HW213836   0.221   4.824   2.361
 4313SOL     OW13837   6.200   1.871   0.465
 4313SOL    HW113838   6.172   1.967   0.467
 4313SOL    HW213839   6.170   1.826   0.549
 4314SOL     OW13840   6.509   2.624   5.542
 4314SOL    HW113841   6.422   2.674   5.535
 4314SOL    HW213842   6.491   2.526   5.532
 4315SOL     OW13843   2.565   1.123   3.716
 4315SOL    HW113844   2.542   1.033   3.752
 4315SOL    HW213845   2.498   1.190   3.748
 4316SOL     OW13846   5.186   7.012   1.915
 4316SOL    HW113847   5.192   0.090   1.934
 4316SOL    HW213848   5.186   6.961   2.001
 4317SOL     OW13849   4.637   0.975   6.312
 4317SOL    HW113850   4.638   0.879   6.338
 4317SOL    HW213851   4.635   0.983   6.212
 4318SOL     OW13852   0.727   1.665   4.182
 4318SOL    HW113853   0.762   1.580   4.143
 4318SOL    HW213854   0.731   1.738   4.113
 4319SOL     OW13855   0.967   4.780   2.245
 4319SOL    HW113856   0.912   4.721   2.304
 4319SOL    HW213857   0.914   4.804   2.164
 4320SOL     OW13858   3.619   5.321   0.042
 4320SOL    HW113859   3.696   5.267   0.077
 4320SOL    HW213860   3.585   5.279   6.977
 4321SOL     OW13861   6.177   0.281   2.375
 4321SOL    HW113862   6.078   0.294   2.382
 4321SOL    HW213863   6.198   0.184   2.386
 4322SOL     OW13864   1.257   3.178   5.177
 4322SOL    HW113865   1.173   3.231   5.168
 4322SOL    HW213866   1.332   3.239   5.205
 4323SOL     OW13867   4.032   5.248   6.701
 4323SOL    HW113868   3.984   5.183   6.642
 4323SOL    HW213869   4.065   5.202   6.783
 4324SOL     OW13870   6.987   4.243   5.791
 4324SOL    HW113871   6.979   4.255   5.692
 4324SOL    HW213872   0.062   4.221   5.814
 4325SOL     OW13873   3.144   0.609   2.353
 4325SOL    HW113874   3.217   0.650   2.298
 4325SOL    HW213875   3.124   0.517   2.319
 4326SOL     OW13876   4.946   2.048   2.782
 4326SOL    HW113877   5.025   2.016   2.835
 4326SOL    HW213878   4.870   1.984   2.793
 4327SOL     OW13879   3.551   5.933   3.801
 4327SOL    HW113880   3.605   5.963   3.879
 4327SOL    HW213881   3.564   5.835   3.788
 4328SOL     OW13882   5.559   6.107   5.222
 4328SOL    HW113883   5.515   6.096   5.311
 4328SOL    HW213884   5.526   6.192   5.179
 4329SOL     OW13885   6.020   2.422   5.821
 4329SOL    HW113886   6.074   2.504   5.839
 4329SOL    HW213887   6.034   2.357   5.896
 4330SOL     OW13888   3.033   4.858   4.926
 4330SOL    HW113889   3.002   4.807   5.006
 4330SOL    HW213890   2.959   4.865   4.859
 4331SOL     OW13891   6.430   0.904   1.490
 4331SOL    HW113892   6.422   1.004   1.482
 4331SOL    HW213893   6.368   0.861   1.425
 4332SOL     OW13894   0.068   4.783   2.335
 4332SOL    HW113895   0.006   4.825   2.269
 4332SOL    HW213896   0.030   4.792   2.427
 4333SOL     OW13897   3.846   2.060   5.420
 4333SOL    HW113898   3.841   2.078   5.518
 4333SOL    HW213899   3.812   1.967   5.401
 4334SOL     OW13900   0.896   2.536   3.801
 4334SOL    HW113901   0.973   2.519   3.862
 4334SOL    HW213902   0.870   2.451   3.755
 4335SOL     OW13903   2.911   3.471   0.769
 4335SOL    HW113904   2.927   3.383   0.815
 4335SOL    HW213905   2.846   3.458   0.694
 4336SOL     OW13906   2.587   5.643   6.012
 4336SOL    HW113907   2.601   5.598   5.924
 4336SOL    HW213908   2.489   5.648   6.032
 4337SOL     OW13909   1.525   5.273   3.397
 4337SOL    HW113910   1.574   5.343   3.448
 4337SOL    HW213911   1.521   5.299   3.300
 4338SOL     OW13912   4.573   0.978   5.976
 4338SOL    HW113913   4.494   0.960   5.917
 4338SOL    HW213914   4.574   1.075   6.001
 4339SOL     OW13915   4.237   2.951   6.103
 4339SOL    HW113916   4.255   3.036   6.151
 4339SOL    HW213917   4.139   2.932   6.104
 4340SOL     OW13918   0.016   3.274   0.599
 4340SOL    HW113919   0.084   3.294   0.670
 4340SOL    HW213920   7.020   3.175   0.596
 4341SOL     OW13921   0.024   6.208   2.526
 4341SOL    HW113922   0.041   6.305   2.545
 4341SOL    HW213923   0.110   6.164   2.502
 4342SOL     OW13924   5.357   3.893   2.776
 4342SOL    HW113925   5.293   3.924   2.847
 4342SOL    HW213926   5.306   3.874   2.692
 4343SOL     OW13927   4.191   0.647   5.859
 4343SOL    HW113928   4.125   0.678   5.791
 4343SOL    HW213929   4.236   0.726   5.901
 4344SOL     OW13930   0.029   2.638   3.901
 4344SOL    HW113931   7.019   2.543   3.891
 4344SOL    HW213932   6.970   2.699   3.892
 4345SOL     OW13933   2.818   3.518   2.554
 4345SOL    HW113934   2.865   3.606   2.554
 4345SOL    HW213935   2.777   3.502   2.464
 4346SOL     OW13936   1.807   3.918   1.987
 4346SOL    HW113937   1.778   3.989   2.051
 4346SOL    HW213938   1.868   3.854   2.034
 4347SOL     OW13939   6.113   5.183   1.294
 4347SOL    HW113940   6.017   5.186   1.325
 4347SOL    HW213941   6.117   5.145   1.202
 4348SOL     OW13942   5.419   6.062   4.522
 4348SOL    HW113943   5.509   6.042   4.560
 4348SOL    HW213944   5.419   6.041   4.424
 4349SOL     OW13945   0.336   3.444   4.244
 4349SOL    HW113946   0.299   3.379   4.310
 4349SOL    HW213947   0.435   3.428   4.234
 4350SOL     OW13948   4.745   1.098   4.805
 4350SOL    HW113949   4.785   1.188   4.824
 4350SOL    HW213950   4.728   1.050   4.891
 4351SOL     OW13951   0.871   6.462   0.922
 4351SOL    HW113952   0.883   6.414   0.835
 4351SOL    HW213953   0.896   6.558   0.910
 4352SOL     OW13954   3.944   3.729   1.033
 4352SOL    HW113955   3.924   3.822   1.066
 4352SOL    HW213956   4.022   3.692   1.083
 4353SOL     OW13957   3.144   2.598   0.786
 4353SOL    HW113958   3.175   2.655   0.711
 4353SOL    HW213959   3.126   2.505   0.752
 4354SOL     OW13960   5.686   6.964   4.081
 4354SOL    HW113961   5.780   6.991   4.104
 4354SOL    HW213962   5.672   6.868   4.105
 4355SOL     OW13963   1.182   6.281   3.513
 4355SOL    HW113964   1.183   6.274   3.413
 4355SOL    HW213965   1.272   6.312   3.545
 4356SOL     OW13966   5.235   2.375   6.580
 4356SOL    HW113967   5.273   2.321   6.655
 4356SOL    HW213968   5.283   2.353   6.495
 4357SOL     OW13969   6.898   0.983   2.072
 4357SOL    HW113970   6.849   1.036   2.141
 4357SOL    HW213971   6.906   1.038   1.988
 4358SOL     OW13972   1.305   6.963   0.147
 4358SOL    HW113973   1.260   6.891   0.093
 4358SOL    HW213974   1.273   6.958   0.242
 4359SOL     OW13975   1.830   1.600   0.032
 4359SOL    HW113976   1.855   1.616   0.127
 4359SOL    HW213977   1.852   1.681   6.997
 4360SOL     OW13978   1.163   3.369   3.586
 4360SOL    HW113979   1.083   3.430   3.588
 4360SOL    HW213980   1.150   3.299   3.517
 4361SOL     OW13981   0.410   1.025   1.012
 4361SOL    HW113982   0.415   0.963   0.934
 4361SOL    HW213983   0.479   0.998   1.080
 4362SOL     OW13984   1.014   5.911   4.161
 4362SOL    HW113985   0.962   5.885   4.079
 4362SOL    HW213986   1.082   5.841   4.181
 4363SOL     OW13987   4.764   1.244   2.100
 4363SOL    HW113988   4.822   1.210   2.026
 4363SOL    HW213989   4.792   1.337   2.123
 4364SOL     OW13990   3.835   4.004   3.001
 4364SOL    HW113991   3.821   4.097   2.968
 4364SOL    HW213992   3.830   4.002   3.101
 4365SOL     OW13993   3.097   2.255   1.792
 4365SOL    HW113994   3.051   2.272   1.879
 4365SOL    HW213995   3.045   2.297   1.718
 4366SOL     OW13996   4.498   6.352   4.592
 4366SOL    HW113997   4.471   6.350   4.496
 4366SOL    HW213998   4.594   6.378   4.599
 4367SOL     OW13999   2.712   5.636   3.916
 4367SOL    HW114000   2.787   5.570   3.924
 4367SOL    HW214001   2.634   5.604   3.970
 4368SOL     OW14002   4.577   4.492   2.553
 4368SOL    HW114003   4.598   4.433   2.475
 4368SOL    HW214004   4.562   4.436   2.635
 4369SOL     OW14005   4.180   4.966   3.280
 4369SOL    HW114006   4.169   4.939   3.185
 4369SOL    HW214007   4.131   4.902   3.339
 4370SOL     OW14008   3.739   4.984   1.471
 4370SOL    HW114009   3.686   4.913   1.518
 4370SOL    HW214010   3.834   4.956   1.466
 4371SOL     OW14011   3.075   1.029   1.547
 4371SOL    HW114012   3.021   0.960   1.595
 4371SOL    HW214013   3.171   0.999   1.544
 4372SOL     OW14014   2.027   3.058   4.675
 4372SOL    HW114015   2.082   3.081   4.755
 4372SOL    HW214016   2.066   2.978   4.630
 4373SOL     OW14017   4.693   1.132   5.356
 4373SOL    HW114018   4.674   1.197   5.282
 4373SOL    HW214019   4.770   1.166   5.410
 4374SOL     OW14020   2.546   1.265   1.162
 4374SOL    HW114021   2.447   1.261   1.174
 4374SOL    HW214022   2.567   1.265   1.064
 4375SOL     OW14023   3.979   0.636   3.614
 4375SOL    HW114024   3.904   0.677   3.666
 4375SOL    HW214025   4.045   0.706   3.589
 4376SOL     OW14026   6.417   6.630   1.375
 4376SOL    HW114027   6.473   6.711   1.389
 4376SOL    HW214028   6.320   6.656   1.375
 4377SOL     OW14029   5.823   6.268   6.190
 4377SOL    HW114030   5.743   6.213   6.166
 4377SOL    HW214031   5.804   6.320   6.273
 4378SOL     OW14032   1.722   5.454   2.332
 4378SOL    HW114033   1.665   5.534   2.318
 4378SOL    HW214034   1.702   5.386   2.261
 4379SOL     OW14035   1.417   0.622   1.698
 4379SOL    HW114036   1.392   0.627   1.794
 4379SOL    HW214037   1.361   0.685   1.645
 4380SOL     OW14038   1.438   5.995   5.347
 4380SOL    HW114039   1.419   5.905   5.307
 4380SOL    HW214040   1.374   6.062   5.309
 4381SOL     OW14041   3.410   6.583   5.071
 4381SOL    HW114042   3.417   6.545   4.978
 4381SOL    HW214043   3.368   6.515   5.131
 4382SOL     OW14044   5.104   3.621   4.338
 4382SOL    HW114045   5.155   3.707   4.342
 4382SOL    HW214046   5.033   3.620   4.409
 4383SOL     OW14047   0.990   2.984   5.802
 4383SOL    HW114048   1.043   3.063   5.833
 4383SOL    HW214049   1.016   2.961   5.708
 4384SOL     OW14050   3.621   6.314   0.890
 4384SOL    HW114051   3.694   6.257   0.929
 4384SOL    HW214052   3.590   6.379   0.959
 4385SOL     OW14053   0.334   2.273   2.267
 4385SOL    HW114054   0.357   2.356   2.216
 4385SOL    HW214055   0.241   2.244   2.244
 4386SOL     OW14056   0.717   3.231   6.803
 4386SOL    HW114057   0.738   3.328   6.795
 4386SOL    HW214058   0.678   3.213   6.894
 4387SOL     OW14059   7.019   3.564   1.787
 4387SOL    HW114060   6.976   3.593   1.872
 4387SOL    HW214061   0.051   3.480   1.802
 4388SOL     OW14062   3.840   0.925   6.227
 4388SOL    HW114063   3.867   0.828   6.226
 4388SOL    HW214064   3.748   0.934   6.188
 4389SOL     OW14065   5.598   2.473   2.839
 4389SOL    HW114066   5.557   2.501   2.926
 4389SOL    HW214067   5.629   2.555   2.790
 4390SOL     OW14068   4.753   2.803   2.159
 4390SOL    HW114069   4.853   2.809   2.156
 4390SOL    HW214070   4.713   2.879   2.108
 4391SOL     OW14071   0.919   5.352   0.278
 4391SOL    HW114072   0.877   5.398   0.356
 4391SOL    HW214073   0.914   5.412   0.198
 4392SOL     OW14074   4.795   3.052   4.456
 4392SOL    HW114075   4.809   3.120   4.528
 4392SOL    HW214076   4.750   3.094   4.378
 4393SOL     OW14077   5.023   6.884   3.160
 4393SOL    HW114078   5.078   6.833   3.094
 4393SOL    HW214079   4.946   6.927   3.114
 4394SOL     OW14080   4.942   0.166   2.355
 4394SOL    HW114081   4.963   0.180   2.258
 4394SOL    HW214082   4.895   0.246   2.391
 4395SOL     OW14083   5.108   1.543   1.497
 4395SOL    HW114084   5.190   1.486   1.499
 4395SOL    HW214085   5.030   1.489   1.529
 4396SOL     OW14086   0.739   0.991   4.356
 4396SOL    HW114087   0.650   0.993   4.311
 4396SOL    HW214088   0.726   0.984   4.455
 4397SOL     OW14089   6.963   0.561   4.578
 4397SOL    HW114090   0.020   0.498   4.570
 4397SOL    HW214091   6.993   0.646   4.621
 4398SOL     OW14092   7.017   4.751   4.110
 4398SOL    HW114093   7.013   4.760   4.010
 4398SOL    HW214094   7.002   4.840   4.152
 4399SOL     OW14095   1.956   1.542   0.777
 4399SOL    HW114096   1.938   1.620   0.716
 4399SOL    HW214097   1.959   1.574   0.872
 4400SOL     OW14098   3.453   6.563   4.608
 4400SOL    HW114099   3.421   6.504   4.534
 4400SOL    HW214100   3.421   6.527   4.696
 4401SOL     OW14101   5.670   5.825   4.342
 4401SOL    HW114102   5.726   5.908   4.344
 4401SOL    HW214103   5.730   5.744   4.337
 4402SOL     OW14104   0.615   6.254   2.745
 4402SOL    HW114105   0.600   6.317   2.669
 4402SOL    HW214106   0.529   6.240   2.794
 4403SOL     OW14107   0.332   0.298   2.801
 4403SOL    HW114108   0.360   0.202   2.793
 4403SOL    HW214109   0.273   0.323   2.725
 4404SOL     OW14110   0.465   3.713   3.138
 4404SOL    HW114111   0.423   3.695   3.227
 4404SOL    HW214112   0.400   3.688   3.066
 4405SOL     OW14113   3.378   4.564   5.711
 4405SOL    HW114114   3.457   4.547   5.770
 4405SOL    HW214115   3.344   4.657   5.728
 4406SOL     OW14116   5.919   4.001   1.364
 4406SOL    HW114117   5.840   4.061   1.382
 4406SOL    HW214118   5.948   3.958   1.450
 4407SOL     OW14119   6.800   0.491   6.900
 4407SOL    HW114120   6.782   0.411   6.958
 4407SOL    HW214121   6.738   0.489   6.822
 4408SOL     OW14122   4.690   0.131   6.635
 4408SOL    HW114123   4.680   0.117   6.734
 4408SOL    HW214124   4.606   0.104   6.589
 4409SOL     OW14125   3.398   0.261   2.089
 4409SOL    HW114126   3.407   0.206   2.172
 4409SOL    HW214127   3.397   0.201   2.009
 4410SOL     OW14128   2.186   5.067   1.379
 4410SOL    HW114129   2.108   5.113   1.422
 4410SOL    HW214130   2.216   4.991   1.436
 4411SOL     OW14131   3.611   3.557   2.300
 4411SOL    HW114132   3.534   3.535   2.239
 4411SOL    HW214133   3.697   3.529   2.257
 4412SOL     OW14134   3.853   1.465   6.567
 4412SOL    HW114135   3.949   1.485   6.586
 4412SOL    HW214136   3.838   1.465   6.468
 4413SOL     OW14137   4.329   6.019   4.254
 4413SOL    HW114138   4.329   5.922   4.227
 4413SOL    HW214139   4.417   6.042   4.295
 4414SOL     OW14140   3.959   4.791   1.599
 4414SOL    HW114141   4.016   4.713   1.572
 4414SOL    HW214142   4.014   4.858   1.647
 4415SOL     OW14143   4.912   3.061   6.562
 4415SOL    HW114144   4.831   3.025   6.607
 4415SOL    HW214145   4.945   3.141   6.613
 4416SOL     OW14146   3.247   0.507   4.702
 4416SOL    HW114147   3.311   0.435   4.675
 4416SOL    HW214148   3.279   0.595   4.666
 4417SOL     OW14149   6.894   5.487   2.057
 4417SOL    HW114150   6.854   5.522   2.141
 4417SOL    HW214151   6.852   5.398   2.035
 4418SOL     OW14152   4.200   6.819   3.472
 4418SOL    HW114153   4.104   6.798   3.491
 4418SOL    HW214154   4.243   6.856   3.555
 4419SOL     OW14155   0.437   5.210   0.034
 4419SOL    HW114156   0.371   5.160   6.999
 4419SOL    HW214157   0.530   5.186   0.005
 4420SOL     OW14158   4.950   1.553   0.014
 4420SOL    HW114159   4.925   1.650   0.012
 4420SOL    HW214160   5.043   1.542   7.000
 4421SOL     OW14161   1.658   2.194   2.912
 4421SOL    HW114162   1.645   2.159   3.005
 4421SOL    HW214163   1.573   2.238   2.881
 4422SOL     OW14164   2.386   4.337   6.288
 4422SOL    HW114165   2.444   4.419   6.283
 4422SOL    HW214166   2.427   4.265   6.231
 4423SOL     OW14167   1.447   2.338   6.498
 4423SOL    HW114168   1.479   2.417   6.447
 4423SOL    HW214169   1.447   2.258   6.437
 4424SOL     OW14170   6.134   6.684   2.859
 4424SOL    HW114171   6.210   6.640   2.905
 4424SOL    HW214172   6.060   6.699   2.924
 4425SOL     OW14173   3.683   4.699   6.588
 4425SOL    HW114174   3.600   4.719   6.538
 4425SOL    HW214175   3.757   4.676   6.524
 4426SOL     OW14176   0.567   0.697   5.372
 4426SOL    HW114177   0.576   0.790   5.336
 4426SOL    HW214178   0.477   0.687   5.416
 4427SOL     OW14179   1.322   0.428   3.106
 4427SOL    HW114180   1.274   0.344   3.079
 4427SOL    HW214181   1.343   0.424   3.204
 4428SOL     OW14182   2.055   5.819   4.056
 4428SOL    HW114183   2.082   5.727   4.027
 4428SOL    HW214184   1.956   5.821   4.070
 4429SOL     OW14185   3.632   6.897   3.540
 4429SOL    HW114186   3.671   6.902   3.632
 4429SOL    HW214187   3.701   6.861   3.477
 4430SOL     OW14188   2.799   0.799   2.519
 4430SOL    HW114189   2.777   0.751   2.434
 4430SOL    HW214190   2.784   0.897   2.506
 4431SOL     OW14191   2.951   1.874   3.513
 4431SOL    HW114192   2.888   1.801   3.487
 4431SOL    HW214193   3.037   1.864   3.463
 4432SOL     OW14194   2.907   3.305   2.791
 4432SOL    HW114195   2.920   3.270   2.698
 4432SOL    HW214196   2.837   3.376   2.791
 4433SOL     OW14197   6.197   0.009   2.204
 4433SOL    HW114198   6.230   0.050   2.119
 4433SOL    HW214199   6.274   6.986   2.252
 4434SOL     OW14200   6.136   2.172   3.769
 4434SOL    HW114201   6.041   2.189   3.743
 4434SOL    HW214202   6.139   2.109   3.847
 4435SOL     OW14203   3.640   2.927   1.935
 4435SOL    HW114204   3.734   2.946   1.965
 4435SOL    HW214205   3.581   2.918   2.015
 4436SOL     OW14206   4.546   1.681   0.055
 4436SOL    HW114207   4.496   1.665   6.990
 4436SOL    HW214208   4.496   1.747   0.111
 4437SOL     OW14209   3.636   0.684   4.556
 4437SOL    HW114210   3.658   0.588   4.536
 4437SOL    HW214211   3.655   0.703   4.653
 4438SOL     OW14212   4.280   2.988   6.655
 4438SOL    HW114213   4.300   2.897   6.617
 4438SOL    HW214214   4.229   2.977   6.741
 4439SOL     OW14215   1.534   5.585   2.863
 4439SOL    HW114216   1.506   5.680   2.850
 4439SOL    HW214217   1.547   5.542   2.773
 4440SOL     OW14218   0.967   6.372   6.509
 4440SOL    HW114219   0.918   6.297   6.464
 4440SOL    HW214220   1.053   6.338   6.547
 4441SOL     OW14221   5.198   2.579   2.253
 4441SOL    HW114222   5.129   2.651   2.246
 4441SOL    HW214223   5.188   2.533   2.341
 4442SOL     OW14224   4.031   5.772   3.712
 4442SOL    HW114225   4.100   5.738   3.776
 4442SOL    HW214226   3.957   5.706   3.704
 4443SOL     OW14227   2.928   2.179   5.990
 4443SOL    HW114228   2.912   2.095   6.042
 4443SOL    HW214229   2.923   2.257   6.052
 4444SOL     OW14230   5.095   6.856   0.628
 4444SOL    HW114231   5.138   6.945   0.646
 4444SOL    HW214232   5.166   6.785   0.625
 4445SOL     OW14233   1.314   0.596   6.037
 4445SOL    HW114234   1.343   0.674   5.981
 4445SOL    HW214235   1.371   0.517   6.015
 4446SOL     OW14236   6.210   0.138   3.271
 4446SOL    HW114237   6.289   0.156   3.212
 4446SOL    HW214238   6.242   0.113   3.362
 4447SOL     OW14239   5.326   2.252   5.838
 4447SOL    HW114240   5.383   2.300   5.905
 4447SOL    HW214241   5.289   2.317   5.773
 4448SOL     OW14242   2.376   3.596   6.851
 4448SOL    HW114243   2.449   3.600   6.919
 4448SOL    HW214244   2.409   3.549   6.770
 4449SOL     OW14245   2.238   1.197   4.828
 4449SOL    HW114246   2.172   1.161   4.894
 4449SOL    HW214247   2.209   1.172   4.736
 4450SOL     OW14248   3.815   2.973   3.235
 4450SOL    HW114249   3.866   3.038   3.178
 4450SOL    HW214250   3.717   2.991   3.226
 4451SOL     OW14251   6.752   5.021   2.360
 4451SOL    HW114252   6.669   4.971   2.334
 4451SOL    HW214253   6.830   4.984   2.308
 4452SOL     OW14254   6.305   6.321   6.487
 4452SOL    HW114255   6.217   6.334   6.441
 4452SOL    HW214256   6.291   6.323   6.586
 4453SOL     OW14257   5.025   2.027   1.218
 4453SOL    HW114258   5.048   1.968   1.141
 4453SOL    HW214259   5.107   2.042   1.274
 4454SOL     OW14260   5.340   2.653   1.077
 4454SOL    HW114261   5.337   2.705   1.162
 4454SOL    HW214262   5.249   2.619   1.055
 4455SOL     OW14263   3.594   0.961   2.681
 4455SOL    HW114264   3.654   0.890   2.644
 4455SOL    HW214265   3.499   0.931   2.673
 4456SOL     OW14266   1.248   5.226   3.458
 4456SOL    HW114267   1.246   5.213   3.557
 4456SOL    HW214268   1.340   5.251   3.429
 4457SOL     OW14269   5.261   1.957   6.860
 4457SOL    HW114270   5.263   2.055   6.843
 4457SOL    HW214271   5.339   1.913   6.815
 4458SOL     OW14272   3.111   2.442   6.386
 4458SOL    HW114273   3.080   2.468   6.478
 4458SOL    HW214274   3.147   2.349   6.389
 4459SOL     OW14275   4.708   6.488   4.881
 4459SOL    HW114276   4.635   6.535   4.930
 4459SOL    HW214277   4.763   6.555   4.831
 4460SOL     OW14278   2.759   2.648   6.343
 4460SOL    HW114279   2.768   2.668   6.441
 4460SOL    HW214280   2.717   2.558   6.332
 4461SOL     OW14281   2.171   6.748   2.507
 4461SOL    HW114282   2.119   6.670   2.472
 4461SOL    HW214283   2.127   6.833   2.476
 4462SOL     OW14284   6.795   5.718   0.577
 4462SOL    HW114285   6.780   5.672   0.489
 4462SOL    HW214286   6.752   5.808   0.576
 4463SOL     OW14287   1.550   3.213   6.153
 4463SOL    HW114288   1.606   3.290   6.122
 4463SOL    HW214289   1.604   3.129   6.148
 4464SOL     OW14290   5.993   3.246   6.043
 4464SOL    HW114291   5.927   3.211   6.109
 4464SOL    HW214292   6.057   3.174   6.018
 4465SOL     OW14293   1.435   6.209   1.809
 4465SOL    HW114294   1.361   6.226   1.745
 4465SOL    HW214295   1.420   6.121   1.855
 4466SOL     OW14296   1.213   1.636   2.781
 4466SOL    HW114297   1.182   1.702   2.850
 4466SOL    HW214298   1.210   1.678   2.691
 4467SOL     OW14299   1.473   6.484   2.965
 4467SOL    HW114300   1.483   6.567   3.020
 4467SOL    HW214301   1.445   6.409   3.025
 4468SOL     OW14302   1.214   2.742   0.757
 4468SOL    HW114303   1.300   2.766   0.711
 4468SOL    HW214304   1.178   2.658   0.716
 4469SOL     OW14305   3.982   0.178   0.995
 4469SOL    HW114306   4.019   0.125   0.918
 4469SOL    HW214307   4.053   0.188   1.065
 4470SOL     OW14308   4.814   3.638   1.518
 4470SOL    HW114309   4.904   3.601   1.495
 4470SOL    HW214310   4.782   3.599   1.604
 4471SOL     OW14311   6.925   2.570   1.538
 4471SOL    HW114312   6.872   2.627   1.476
 4471SOL    HW214313   6.944   2.621   1.623
 4472SOL     OW14314   1.917   3.921   2.468
 4472SOL    HW114315   1.831   3.971   2.480
 4472SOL    HW214316   1.905   3.827   2.502
 4473SOL     OW14317   6.434   6.642   4.458
 4473SOL    HW114318   6.527   6.650   4.421
 4473SOL    HW214319   6.409   6.726   4.505
 4474SOL     OW14320   4.286   0.275   2.616
 4474SOL    HW114321   4.363   0.251   2.674
 4474SOL    HW214322   4.254   0.367   2.640
 4475SOL     OW14323   1.833   4.623   0.429
 4475SOL    HW114324   1.754   4.568   0.455
 4475SOL    HW214325   1.804   4.716   0.408
 4476SOL     OW14326   5.242   6.617   1.995
 4476SOL    HW114327   5.188   6.695   2.027
 4476SOL    HW214328   5.207   6.587   1.906
 4477SOL     OW14329   1.439   1.154   0.305
 4477SOL    HW114330   1.533   1.122   0.293
 4477SOL    HW214331   1.437   1.254   0.298
 4478SOL     OW14332   2.335   6.505   2.456
 4478SOL    HW114333   2.272   6.503   2.534
 4478SOL    HW214334   2.364   6.599   2.440
 4479SOL     OW14335   1.097   0.371   5.834
 4479SOL    HW114336   1.170   0.314   5.872
 4479SOL    HW214337   1.025   0.383   5.902
 4480SOL     OW14338   0.952   4.978   4.843
 4480SOL    HW114339   0.953   4.982   4.743
 4480SOL    HW214340   1.041   5.008   4.878
 4481SOL     OW14341   0.787   6.207   3.936
 4481SOL    HW114342   0.884   6.227   3.948
 4481SOL    HW214343   0.768   6.113   3.963
 4482SOL     OW14344   0.165   4.577   3.648
 4482SOL    HW114345   0.183   4.675   3.649
 4482SOL    HW214346   0.248   4.527   3.672
 4483SOL     OW14347   5.207   3.184   1.917
 4483SOL    HW114348   5.143   3.118   1.880
 4483SOL    HW214349   5.286   3.137   1.956
 4484SOL     OW14350   3.547   2.383   5.546
 4484SOL    HW114351   3.534   2.284   5.543
 4484SOL    HW214352   3.478   2.429   5.490
 4485SOL     OW14353   5.144   1.361   6.717
 4485SOL    HW114354   5.053   1.324   6.734
 4485SOL    HW214355   5.169   1.425   6.790
 4486SOL     OW14356   6.468   3.572   4.673
 4486SOL    HW114357   6.382   3.568   4.724
 4486SOL    HW214358   6.459   3.636   4.597
 4487SOL     OW14359   2.950   3.329   6.231
 4487SOL    HW114360   2.931   3.380   6.315
 4487SOL    HW214361   2.925   3.233   6.245
 4488SOL     OW14362   6.356   1.740   5.112
 4488SOL    HW114363   6.280   1.799   5.142
 4488SOL    HW214364   6.324   1.679   5.041
 4489SOL     OW14365   5.656   6.013   4.661
 4489SOL    HW114366   5.755   6.027   4.663
 4489SOL    HW214367   5.636   5.916   4.667
 4490SOL     OW14368   6.720   2.014   2.926
 4490SOL    HW114369   6.748   2.110   2.928
 4490SOL    HW214370   6.768   1.966   2.853
 4491SOL     OW14371   1.076   3.731   2.763
 4491SOL    HW114372   1.166   3.693   2.786
 4491SOL    HW214373   1.019   3.659   2.724
 4492SOL     OW14374   4.572   2.616   0.361
 4492SOL    HW114375   4.474   2.607   0.346
 4492SOL    HW214376   4.608   2.688   0.301
 4493SOL     OW14377   5.461   5.465   5.002
 4493SOL    HW114378   5.459   5.366   4.987
 4493SOL    HW214379   5.402   5.488   5.079
 4494SOL     OW14380   0.174   4.264   5.292
 4494SOL    HW114381   0.215   4.264   5.201
 4494SOL    HW214382   0.123   4.179   5.307
 4495SOL     OW14383   4.772   6.822   1.572
 4495SOL    HW114384   4.834   6.809   1.649
 4495SOL    HW214385   4.820   6.868   1.498
 4496SOL     OW14386   5.434   3.628   5.665
 4496SOL    HW114387   5.460   3.534   5.642
 4496SOL    HW214388   5.374   3.664   5.593
 4497SOL     OW14389   6.167   5.061   0.061
 4497SOL    HW114390   6.092   5.027   0.003
 4497SOL    HW214391   6.143   5.047   0.157
 4498SOL     OW14392   0.291   3.534   6.753
 4498SOL    HW114393   0.343   3.480   6.687
 4498SOL    HW214394   0.245   3.472   6.817
 4499SOL     OW14395   6.902   3.627   5.595
 4499SOL    HW114396   6.942   3.540   5.566
 4499SOL    HW214397   6.960   3.667   5.667
 4500SOL     OW14398   2.980   3.751   4.365
 4500SOL    HW114399   2.968   3.786   4.272
 4500SOL    HW214400   2.953   3.655   4.368
 4501SOL     OW14401   0.396   4.802   5.417
 4501SOL    HW114402   0.482   4.771   5.377
 4501SOL    HW214403   0.402   4.900   5.437
 4502SOL     OW14404   1.413   2.647   0.079
 4502SOL    HW114405   1.396   2.681   0.172
 4502SOL    HW214406   1.508   2.615   0.072
 4503SOL     OW14407   1.636   1.253   3.885
 4503SOL    HW114408   1.646   1.314   3.963
 4503SOL    HW214409   1.548   1.206   3.890
 4504SOL     OW14410   5.603   2.799   5.209
 4504SOL    HW114411   5.528   2.809   5.274
 4504SOL    HW214412   5.570   2.817   5.117
 4505SOL     OW14413   1.767   6.521   5.092
 4505SOL    HW114414   1.811   6.434   5.069
 4505SOL    HW214415   1.794   6.549   5.184
 4506SOL     OW14416   3.872   1.090   5.252
 4506SOL    HW114417   3.958   1.099   5.202
 4506SOL    HW214418   3.819   1.013   5.215
 4507SOL     OW14419   5.075   4.138   0.770
 4507SOL    HW114420   5.171   4.149   0.799
 4507SOL    HW214421   5.039   4.227   0.741
 4508SOL     OW14422   1.274   3.662   0.064
 4508SOL    HW114423   1.249   3.566   0.075
 4508SOL    HW214424   1.327   3.673   7.000
 4509SOL     OW14425   3.117   1.835   4.037
 4509SOL    HW114426   3.180   1.911   4.051
 4509SOL    HW214427   3.116   1.809   3.941
 4510SOL     OW14428   5.197   0.078   5.279
 4510SOL    HW114429   5.259   0.091   5.357
 4510SOL    HW214430   5.236   0.013   5.215
 4511SOL     OW14431   6.387   2.284   0.549
 4511SOL    HW114432   6.366   2.279   0.647
 4511SOL    HW214433   6.451   2.212   0.525
 4512SOL     OW14434   2.449   5.944   6.505
 4512SOL    HW114435   2.357   5.926   6.469
 4512SOL    HW214436   2.452   6.034   6.548
 4513SOL     OW14437   5.277   0.271   1.933
 4513SOL    HW114438   5.218   0.326   1.992
 4513SOL    HW214439   5.314   0.328   1.860
 4514SOL     OW14440   3.182   1.261   4.975
 4514SOL    HW114441   3.083   1.269   4.991
 4514SOL    HW214442   3.226   1.348   4.997
 4515SOL     OW14443   0.099   4.932   0.678
 4515SOL    HW114444   0.036   4.854   0.676
 4515SOL    HW214445   0.193   4.898   0.680
 4516SOL     OW14446   1.189   1.500   5.289
 4516SOL    HW114447   1.102   1.512   5.241
 4516SOL    HW214448   1.177   1.433   5.362
 4517SOL     OW14449   3.713   6.716   6.070
 4517SOL    HW114450   3.718   6.709   6.170
 4517SOL    HW214451   3.671   6.633   6.033
 4518SOL     OW14452   1.196   2.141   3.797
 4518SOL    HW114453   1.243   2.067   3.749
 4518SOL    HW214454   1.176   2.215   3.732
 4519SOL     OW14455   0.467   3.127   3.664
 4519SOL    HW114456   0.413   3.206   3.695
 4519SOL    HW214457   0.526   3.096   3.738
 4520SOL     OW14458   7.014   4.730   2.935
 4520SOL    HW114459   7.002   4.668   2.857
 4520SOL    HW214460   6.935   4.792   2.941
 4521SOL     OW14461   4.798   2.670   6.987
 4521SOL    HW114462   4.845   2.755   6.965
 4521SOL    HW214463   4.860   2.592   6.974
 4522SOL     OW14464   6.554   6.895   3.449
 4522SOL    HW114465   6.593   6.900   3.541
 4522SOL    HW214466   6.489   6.819   3.445
 4523SOL     OW14467   3.391   4.351   6.931
 4523SOL    HW114468   3.478   4.363   6.979
 4523SOL    HW214469   3.348   4.266   6.962
 4524SOL     OW14470   5.340   0.808   5.041
 4524SOL    HW114471   5.253   0.828   5.086
 4524SOL    HW214472   5.413   0.811   5.109
 4525SOL     OW14473   6.104   1.311   4.972
 4525SOL    HW114474   6.019   1.327   4.922
 4525SOL    HW214475   6.083   1.275   5.063
 4526SOL     OW14476   4.712   6.814   0.524
 4526SOL    HW114477   4.763   6.880   0.470
 4526SOL    HW214478   4.748   6.812   0.617
 4527SOL     OW14479   4.863   1.055   3.058
 4527SOL    HW114480   4.943   1.109   3.032
 4527SOL    HW214481   4.803   1.044   2.979
 4528SOL     OW14482   5.724   0.244   0.320
 4528SOL    HW114483   5.654   0.298   0.366
 4528SOL    HW214484   5.814   0.276   0.348
 4529SOL     OW14485   3.133   0.167   3.187
 4529SOL    HW114486   3.102   0.246   3.135
 4529SOL    HW214487   3.208   0.195   3.248
 4530SOL     OW14488   0.218   3.207   5.217
 4530SOL    HW114489   0.252   3.208   5.311
 4530SOL    HW214490   0.128   3.163   5.215
 4531SOL     OW14491   0.669   3.054   3.825
 4531SOL    HW114492   0.728   3.099   3.892
 4531SOL    HW214493   0.710   2.967   3.797
 4532SOL     OW14494   6.069   1.166   0.786
 4532SOL    HW114495   6.066   1.247   0.844
 4532SOL    HW214496   6.150   1.112   0.808
 4533SOL     OW14497   1.685   6.198   2.921
 4533SOL    HW114498   1.627   6.197   2.839
 4533SOL    HW214499   1.781   6.202   2.894
 4534SOL     OW14500   6.787   3.968   4.916
 4534SOL    HW114501   6.813   3.923   4.831
 4534SOL    HW214502   6.717   4.037   4.897
 4535SOL     OW14503   4.932   3.099   2.111
 4535SOL    HW114504   4.888   3.086   2.200
 4535SOL    HW214505   4.869   3.071   2.038
 4536SOL     OW14506   5.838   1.405   4.916
 4536SOL    HW114507   5.836   1.505   4.917
 4536SOL    HW214508   5.808   1.370   5.004
 4537SOL     OW14509   4.139   2.909   6.900
 4537SOL    HW114510   4.041   2.908   6.878
 4537SOL    HW214511   4.170   2.815   6.918
 4538SOL     OW14512   3.086   1.811   3.022
 4538SOL    HW114513   3.091   1.821   2.923
 4538SOL    HW214514   3.122   1.721   3.048
 4539SOL     OW14515   2.138   1.965   3.187
 4539SOL    HW114516   2.219   2.021   3.168
 4539SOL    HW214517   2.153   1.872   3.153
 4540SOL     OW14518   3.439   2.903   4.547
 4540SOL    HW114519   3.534   2.929   4.565
 4540SOL    HW214520   3.417   2.821   4.600
 4541SOL     OW14521   5.074   1.865   1.012
 4541SOL    HW114522   5.024   1.839   0.930
 4541SOL    HW214523   5.167   1.894   0.987
 4542SOL     OW14524   6.098   6.423   2.044
 4542SOL    HW114525   6.158   6.486   2.094
 4542SOL    HW214526   6.140   6.399   1.956
 4543SOL     OW14527   5.411   1.766   0.909
 4543SOL    HW114528   5.506   1.739   0.898
 4543SOL    HW214529   5.360   1.693   0.955
 4544SOL     OW14530   3.324   5.604   6.702
 4544SOL    HW114531   3.271   5.686   6.677
 4544SOL    HW214532   3.391   5.629   6.772
 4545SOL     OW14533   4.070   2.190   5.309
 4545SOL    HW114534   4.136   2.264   5.320
 4545SOL    HW214535   4.076   2.128   5.387
 4546SOL     OW14536   0.397   6.770   6.424
 4546SOL    HW114537   0.376   6.680   6.386
 4546SOL    HW214538   0.321   6.832   6.408
 4547SOL     OW14539   5.632   2.408   1.462
 4547SOL    HW114540   5.562   2.382   1.529
 4547SOL    HW214541   5.720   2.417   1.509
 4548SOL     OW14542   0.568   4.112   3.609
 4548SOL    HW114543   0.566   4.193   3.551
 4548SOL    HW214544   0.656   4.065   3.598
 4549SOL     OW14545   6.657   3.557   3.184
 4549SOL    HW114546   6.571   3.521   3.146
 4549SOL    HW214547   6.727   3.486   3.179
 4550SOL     OW14548   1.120   6.034   3.191
 4550SOL    HW114549   1.046   6.056   3.129
 4550SOL    HW214550   1.086   5.978   3.266
 4551SOL     OW14551   0.840   3.094   5.046
 4551SOL    HW114552   0.809   3.021   5.106
 4551SOL    HW214553   0.874   3.055   4.960
 4552SOL     OW14554   0.890   3.188   4.672
 4552SOL    HW114555   0.859   3.277   4.706
 4552SOL    HW214556   0.986   3.175   4.696
 4553SOL     OW14557   4.638   5.336   0.528
 4553SOL    HW114558   4.736   5.331   0.511
 4553SOL    HW214559   4.592   5.375   0.448
 4554SOL     OW14560   4.266   0.016   2.872
 4554SOL    HW114561   4.302   0.109   2.870
 4554SOL    HW214562   4.332   6.976   2.918
 4555SOL     OW14563   4.970   2.186   6.827
 4555SOL    HW114564   4.899   2.179   6.897
 4555SOL    HW214565   4.999   2.095   6.798
 4556SOL     OW14566   4.471   0.482   4.000
 4556SOL    HW114567   4.443   0.529   3.916
 4556SOL    HW214568   4.405   0.501   4.072
 4557SOL     OW14569   5.831   0.027   6.133
 4557SOL    HW114570   5.899   6.995   6.184
 4557SOL    HW214571   5.867   0.119   6.114
 4558SOL     OW14572   6.348   3.367   6.809
 4558SOL    HW114573   6.284   3.297   6.777
 4558SOL    HW214574   6.347   3.370   6.909
 4559SOL     OW14575   1.630   6.394   1.507
 4559SOL    HW114576   1.715   6.446   1.501
 4559SOL    HW214577   1.554   6.455   1.527
 4560SOL     OW14578   5.315   3.287   3.116
 4560SOL    HW114579   5.271   3.235   3.190
 4560SOL    HW214580   5.285   3.251   3.028
 4561SOL     OW14581   3.580   0.488   6.509
 4561SOL    HW114582   3.671   0.514   6.478
 4561SOL    HW214583   3.587   0.443   6.598
 4562SOL     OW14584   2.834   5.759   6.908
 4562SOL    HW114585   2.809   5.729   6.816
 4562SOL    HW214586   2.784   5.842   6.931
 4563SOL     OW14587   5.362   1.640   0.274
 4563SOL    HW114588   5.461   1.634   0.271
 4563SOL    HW214589   5.329   1.698   0.200
 4564SOL     OW14590   1.041   5.994   0.176
 4564SOL    HW114591   1.046   5.960   0.270
 4564SOL    HW214592   1.092   6.079   0.169
 4565SOL     OW14593   1.138   1.150   5.304
 4565SOL    HW114594   1.164   1.139   5.208
 4565SOL    HW214595   1.047   1.111   5.318
 4566SOL     OW14596   0.244   1.049   6.752
 4566SOL    HW114597   0.225   1.134   6.702
 4566SOL    HW214598   0.268   1.070   6.847
 4567SOL     OW14599   6.575   1.679   0.728
 4567SOL    HW114600   6.633   1.661   0.807
 4567SOL    HW214601   6.484   1.707   0.758
 4568SOL     OW14602   3.139   4.378   5.629
 4568SOL    HW114603   3.216   4.441   5.631
 4568SOL    HW214604   3.173   4.284   5.621
 4569SOL     OW14605   1.152   1.623   4.127
 4569SOL    HW114606   1.250   1.641   4.118
 4569SOL    HW214607   1.106   1.705   4.162
 4570SOL     OW14608   0.014   5.893   3.467
 4570SOL    HW114609   7.017   5.986   3.502
 4570SOL    HW214610   0.088   5.852   3.519
 4571SOL     OW14611   3.186   3.443   4.660
 4571SOL    HW114612   3.199   3.355   4.705
 4571SOL    HW214613   3.249   3.452   4.583
 4572SOL     OW14614   1.269   6.675   1.078
 4572SOL    HW114615   1.248   6.578   1.094
 4572SOL    HW214616   1.329   6.708   1.152
 4573SOL     OW14617   5.816   5.558   1.072
 4573SOL    HW114618   5.812   5.468   1.117
 4573SOL    HW214619   5.880   5.617   1.121
 4574SOL     OW14620   6.996   4.192   2.026
 4574SOL    HW114621   6.917   4.131   2.017
 4574SOL    HW214622   0.051   4.158   1.969
 4575SOL     OW14623   6.413   1.702   1.307
 4575SOL    HW114624   6.491   1.715   1.247
 4575SOL    HW214625   6.329   1.730   1.260
 4576SOL     OW14626   3.109   6.013   6.915
 4576SOL    HW114627   3.148   5.990   6.826
 4576SOL    HW214628   3.013   5.985   6.916
 4577SOL     OW14629   1.152   3.765   3.642
 4577SOL    HW114630   1.220   3.708   3.687
 4577SOL    HW214631   1.085   3.797   3.710
 4578SOL     OW14632   0.181   3.727   3.637
 4578SOL    HW114633   0.206   3.631   3.621
 4578SOL    HW214634   0.159   3.740   3.733
 4579SOL     OW14635   5.291   1.987   3.106
 4579SOL    HW114636   5.225   2.019   3.175
 4579SOL    HW214637   5.382   2.021   3.130
 4580SOL     OW14638   5.822   5.669   0.382
 4580SOL    HW114639   5.774   5.706   0.462
 4580SOL    HW214640   5.794   5.574   0.367
 4581SOL     OW14641   3.346   5.409   3.485
 4581SOL    HW114642   3.332   5.358   3.570
 4581SOL    HW214643   3.263   5.458   3.461
 4582SOL     OW14644   5.273   6.383   2.732
 4582SOL    HW114645   5.311   6.292   2.749
 4582SOL    HW214646   5.176   6.374   2.708
 4583SOL     OW14647   2.998   2.128   5.436
 4583SOL    HW114648   2.952   2.041   5.416
 4583SOL    HW214649   3.087   2.109   5.479
 4584SOL     OW14650   0.621   5.406   5.718
 4584SOL    HW114651   0.610   5.412   5.817
 4584SOL    HW214652   0.705   5.356   5.697
 4585SOL     OW14653   3.118   5.763   3.201
 4585SOL    HW114654   3.190   5.806   3.255
 4585SOL    HW214655   3.072   5.834   3.147
 4586SOL     OW14656   3.685   5.619   1.966
 4586SOL    HW114657   3.621   5.631   1.891
 4586SOL    HW214658   3.683   5.700   2.026
 4587SOL     OW14659   2.930   2.918   1.221
 4587SOL    HW114660   2.896   2.887   1.310
 4587SOL    HW214661   3.004   2.984   1.235
 4588SOL     OW14662   3.983   3.562   5.569
 4588SOL    HW114663   4.052   3.503   5.529
 4588SOL    HW214664   3.996   3.656   5.536
 4589SOL     OW14665   6.114   2.164   3.481
 4589SOL    HW114666   6.019   2.135   3.482
 4589SOL    HW214667   6.145   2.181   3.574
 4590SOL     OW14668   4.579   5.038   2.526
 4590SOL    HW114669   4.547   5.114   2.583
 4590SOL    HW214670   4.580   4.954   2.579
 4591SOL     OW14671   5.816   5.861   5.558
 4591SOL    HW114672   5.856   5.775   5.588
 4591SOL    HW214673   5.811   5.924   5.636
 4592SOL     OW14674   3.948   2.446   0.138
 4592SOL    HW114675   3.927   2.372   0.202
 4592SOL    HW214676   3.983   2.408   0.053
 4593SOL     OW14677   3.799   6.470   2.873
 4593SOL    HW114678   3.712   6.521   2.866
 4593SOL    HW214679   3.817   6.424   2.786
 4594SOL     OW14680   2.690   1.553   1.911
 4594SOL    HW114681   2.627   1.589   1.841
 4594SOL    HW214682   2.777   1.603   1.906
 4595SOL     OW14683   4.089   3.098   6.474
 4595SOL    HW114684   4.105   3.007   6.512
 4595SOL    HW214685   4.040   3.090   6.387
 4596SOL     OW14686   5.852   6.656   2.228
 4596SOL    HW114687   5.885   6.750   2.232
 4596SOL    HW214688   5.800   6.636   2.312
 4597SOL     OW14689   5.444   4.027   6.182
 4597SOL    HW114690   5.366   4.042   6.120
 4597SOL    HW214691   5.410   4.008   6.274
 4598SOL     OW14692   2.201   5.319   6.579
 4598SOL    HW114693   2.283   5.293   6.631
 4598SOL    HW214694   2.155   5.237   6.546
 4599SOL     OW14695   1.486   4.596   1.357
 4599SOL    HW114696   1.584   4.609   1.340
 4599SOL    HW214697   1.442   4.686   1.365
 4600SOL     OW14698   3.248   5.804   0.691
 4600SOL    HW114699   3.154   5.809   0.657
 4600SOL    HW214700   3.308   5.855   0.630
 4601SOL     OW14701   2.086   0.764   5.015
 4601SOL    HW114702   2.184   0.771   5.032
 4601SOL    HW214703   2.063   0.671   4.987
 4602SOL     OW14704   1.870   0.253   2.151
 4602SOL    HW114705   1.786   0.199   2.158
 4602SOL    HW214706   1.934   0.206   2.090
 4603SOL     OW14707   3.292   6.882   1.679
 4603SOL    HW114708   3.362   6.954   1.682
 4603SOL    HW214709   3.335   6.793   1.689
 4604SOL     OW14710   3.464   0.277   2.524
 4604SOL    HW114711   3.485   0.371   2.497
 4604SOL    HW214712   3.387   0.278   2.588
 4605SOL     OW14713   5.247   0.762   4.784
 4605SOL    HW114714   5.294   0.762   4.872
 4605SOL    HW214715   5.149   0.775   4.799
 4606SOL     OW14716   6.552   6.274   4.970
 4606SOL    HW114717   6.598   6.263   4.882
 4606SOL    HW214718   6.499   6.191   4.991
 4607SOL     OW14719   3.136   1.449   1.717
 4607SOL    HW114720   3.061   1.383   1.711
 4607SOL    HW214721   3.215   1.413   1.667
 4608SOL     OW14722   1.836   4.792   5.010
 4608SOL    HW114723   1.739   4.769   5.016
 4608SOL    HW214724   1.890   4.709   5.002
 4609SOL     OW14725   5.045   6.894   0.191
 4609SOL    HW114726   5.029   6.898   0.093
 4609SOL    HW214727   5.064   6.799   0.218
 4610SOL     OW14728   0.223   2.811   6.463
 4610SOL    HW114729   0.239   2.830   6.559
 4610SOL    HW214730   0.302   2.764   6.424
 4611SOL     OW14731   0.723   3.960   0.100
 4611SOL    HW114732   0.626   3.940   0.086
 4611SOL    HW214733   0.778   3.887   0.061
 4612SOL     OW14734   2.158   6.319   6.136
 4612SOL    HW114735   2.106   6.315   6.222
 4612SOL    HW214736   2.243   6.370   6.150
 4613SOL     OW14737   3.432   5.311   2.754
 4613SOL    HW114738   3.334   5.328   2.743
 4613SOL    HW214739   3.461   5.340   2.845
 4614SOL     OW14740   1.828   5.512   0.203
 4614SOL    HW114741   1.895   5.586   0.204
 4614SOL    HW214742   1.865   5.433   0.154
 4615SOL     OW14743   1.465   1.889   0.085
 4615SOL    HW114744   1.412   1.861   0.005
 4615SOL    HW214745   1.409   1.948   0.143
 4616SOL     OW14746   6.026   0.801   6.417
 4616SOL    HW114747   5.937   0.836   6.447
 4616SOL    HW214748   6.014   0.747   6.334
 4617SOL     OW14749   0.930   3.083   1.825
 4617SOL    HW114750   1.024   3.092   1.858
 4617SOL    HW214751   0.868   3.069   1.903
 4618SOL     OW14752   0.980   2.588   5.769
 4618SOL    HW114753   0.992   2.583   5.670
 4618SOL    HW214754   0.883   2.591   5.791
 4619SOL     OW14755   4.511   0.869   4.003
 4619SOL    HW114756   4.542   0.895   4.094
 4619SOL    HW214757   4.554   0.782   3.977
 4620SOL     OW14758   2.839   4.299   6.639
 4620SOL    HW114759   2.898   4.221   6.660
 4620SOL    HW214760   2.885   4.358   6.572
 4621SOL     OW14761   0.487   0.733   4.932
 4621SOL    HW114762   0.491   0.708   5.028
 4621SOL    HW214763   0.554   0.680   4.881
 4622SOL     OW14764   1.991   3.291   0.336
 4622SOL    HW114765   1.945   3.230   0.402
 4622SOL    HW214766   1.937   3.375   0.326
 4623SOL     OW14767   6.849   4.802   1.182
 4623SOL    HW114768   6.793   4.726   1.216
 4623SOL    HW214769   6.858   4.871   1.254
 4624SOL     OW14770   4.753   0.586   4.308
 4624SOL    HW114771   4.788   0.586   4.401
 4624SOL    HW214772   4.819   0.631   4.247
 4625SOL     OW14773   1.007   3.826   6.731
 4625SOL    HW114774   1.068   3.850   6.807
 4625SOL    HW214775   1.034   3.879   6.650
 4626SOL     OW14776   6.287   4.923   1.560
 4626SOL    HW114777   6.279   4.869   1.643
 4626SOL    HW214778   6.250   4.871   1.482
 4627SOL     OW14779   3.418   6.224   5.384
 4627SOL    HW114780   3.440   6.219   5.482
 4627SOL    HW214781   3.339   6.283   5.370
 4628SOL     OW14782   6.241   4.976   2.186
 4628SOL    HW114783   6.237   4.952   2.089
 4628SOL    HW214784   6.320   5.035   2.202
 4629SOL     OW14785   2.176   4.769   5.382
 4629SOL    HW114786   2.128   4.683   5.400
 4629SOL    HW214787   2.112   4.834   5.340
 4630SOL     OW14788   1.909   5.555   3.331
 4630SOL    HW114789   1.946   5.536   3.240
 4630SOL    HW214790   1.977   5.531   3.401
 4631SOL     OW14791   3.148   6.413   2.922
 4631SOL    HW114792   3.178   6.326   2.962
 4631SOL    HW214793   3.050   6.409   2.904
 4632SOL     OW14794   4.679   5.689   4.619
 4632SOL    HW114795   4.652   5.631   4.542
 4632SOL    HW214796   4.756   5.747   4.592
 4633SOL     OW14797   6.531   2.051   4.838
 4633SOL    HW114798   6.467   2.048   4.761
 4633SOL    HW214799   6.482   2.079   4.921
 4634SOL     OW14800   2.509   4.768   0.921
 4634SOL    HW114801   2.510   4.792   1.018
 4634SOL    HW214802   2.603   4.756   0.889
 4635SOL     OW14803   4.903   3.054   2.361
 4635SOL    HW114804   4.826   3.004   2.399
 4635SOL    HW214805   4.987   3.028   2.409
 4636SOL     OW14806   2.990   5.855   0.605
 4636SOL    HW114807   2.946   5.768   0.582
 4636SOL    HW214808   2.993   5.914   0.525
 4637SOL     OW14809   1.114   0.715   5.751
 4637SOL    HW114810   1.208   0.716   5.716
 4637SOL    HW214811   1.111   0.766   5.837
 4638SOL     OW14812   4.535   3.162   5.948
 4638SOL    HW114813   4.565   3.254   5.923
 4638SOL    HW214814   4.593   3.127   6.021
 4639SOL     OW14815   0.630   3.782   5.968
 4639SOL    HW114816   0.583   3.845   6.030
 4639SOL    HW214817   0.701   3.733   6.018
 4640SOL     OW14818   4.925   4.530   3.122
 4640SOL    HW114819   4.848   4.566   3.175
 4640SOL    HW214820   4.994   4.601   3.111
 4641SOL     OW14821   2.795   4.768   4.468
 4641SOL    HW114822   2.752   4.721   4.391
 4641SOL    HW214823   2.759   4.732   4.554
 4642SOL     OW14824   6.359   5.791   4.549
 4642SOL    HW114825   6.443   5.841   4.528
 4642SOL    HW214826   6.311   5.837   4.623
 4643SOL     OW14827   3.811   2.407   1.621
 4643SOL    HW114828   3.759   2.382   1.539
 4643SOL    HW214829   3.750   2.410   1.700
 4644SOL     OW14830   1.318   6.239   4.410
 4644SOL    HW114831   1.224   6.265   4.435
 4644SOL    HW214832   1.379   6.258   4.487
 4645SOL     OW14833   1.900   6.632   4.410
 4645SOL    HW114834   1.859   6.721   4.389
 4645SOL    HW214835   1.868   6.600   4.499
 4646SOL     OW14836   3.084   0.473   1.926
 4646SOL    HW114837   3.089   0.437   2.019
 4646SOL    HW214838   3.106   0.571   1.927
 4647SOL     OW14839   6.497   0.352   3.959
 4647SOL    HW114840   6.512   0.356   3.860
 4647SOL    HW214841   6.418   0.409   3.984
 4648SOL     OW14842   2.499   5.744   2.285
 4648SOL    HW114843   2.429   5.788   2.229
 4648SOL    HW214844   2.507   5.648   2.259
 4649SOL     OW14845   5.187   0.964   5.543
 4649SOL    HW114846   5.237   0.947   5.628
 4649SOL    HW214847   5.169   1.063   5.534
 4650SOL     OW14848   4.992   5.276   2.469
 4650SOL    HW114849   4.970   5.309   2.377
 4650SOL    HW214850   5.086   5.243   2.471
 4651SOL     OW14851   0.294   2.026   1.520
 4651SOL    HW114852   0.243   1.986   1.444
 4651SOL    HW214853   0.391   2.002   1.511
 4652SOL     OW14854   6.721   0.547   4.827
 4652SOL    HW114855   6.711   0.512   4.920
 4652SOL    HW214856   6.818   0.545   4.801
 4653SOL     OW14857   6.776   6.512   6.997
 4653SOL    HW114858   6.832   6.445   0.025
 4653SOL    HW214859   6.828   6.553   6.923
 4654SOL     OW14860   0.744   0.176   0.505
 4654SOL    HW114861   0.695   0.107   0.451
 4654SOL    HW214862   0.694   0.263   0.501
 4655SOL     OW14863   0.358   4.530   3.204
 4655SOL    HW114864   0.258   4.539   3.201
 4655SOL    HW214865   0.395   4.589   3.276
 4656SOL     OW14866   1.027   0.739   3.442
 4656SOL    HW114867   1.019   0.652   3.491
 4656SOL    HW214868   1.116   0.743   3.397
 4657SOL     OW14869   5.260   6.809   1.541
 4657SOL    HW114870   5.277   6.903   1.513
 4657SOL    HW214871   5.312   6.747   1.483
 4658SOL     OW14872   4.403   0.514   3.025
 4658SOL    HW114873   4.461   0.482   3.100
 4658SOL    HW214874   4.315   0.545   3.061
 4659SOL     OW14875   2.446   2.641   5.122
 4659SOL    HW114876   2.376   2.686   5.066
 4659SOL    HW214877   2.408   2.556   5.160
 4660SOL     OW14878   0.463   1.701   5.711
 4660SOL    HW114879   0.495   1.615   5.751
 4660SOL    HW214880   0.468   1.774   5.779
 4661SOL     OW14881   3.612   4.044   4.696
 4661SOL    HW114882   3.642   4.046   4.600
 4661SOL    HW214883   3.551   3.966   4.710
 4662SOL     OW14884   5.075   0.715   5.551
 4662SOL    HW114885   5.106   0.687   5.641
 4662SOL    HW214886   5.139   0.783   5.513
 4663SOL     OW14887   6.962   2.696   2.545
 4663SOL    HW114888   6.989   2.669   2.637
 4663SOL    HW214889   6.959   2.796   2.539
 4664SOL     OW14890   2.970   2.554   0.040
 4664SOL    HW114891   2.890   2.512   7.017
 4664SOL    HW214892   3.041   2.485   0.051
 4665SOL     OW14893   5.001   0.140   6.874
 4665SOL    HW114894   4.989   0.061   6.814
 4665SOL    HW214895   5.092   0.138   6.914
 4666SOL     OW14896   1.975   1.733   0.566
 4666SOL    HW114897   2.072   1.708   0.572
 4666SOL    HW214898   1.962   1.823   0.609
 4667SOL     OW14899   0.443   4.838   6.948
 4667SOL    HW114900   0.412   4.778   6.875
 4667SOL    HW214901   0.444   4.789   0.015
 4668SOL     OW14902   6.536   1.661   4.759
 4668SOL    HW114903   6.588   1.727   4.705
 4668SOL    HW214904   6.546   1.682   4.856
 4669SOL     OW14905   1.215   6.945   0.404
 4669SOL    HW114906   1.181   0.012   0.440
 4669SOL    HW214907   1.229   6.881   0.479
 4670SOL     OW14908   2.157   2.156   5.152
 4670SOL    HW114909   2.257   2.154   5.151
 4670SOL    HW214910   2.121   2.100   5.077
 4671SOL     OW14911   5.771   3.186   1.504
 4671SOL    HW114912   5.799   3.214   1.596
 4671SOL    HW214913   5.736   3.092   1.507
 4672SOL     OW14914   2.026   3.932   6.446
 4672SOL    HW114915   2.066   3.956   6.534
 4672SOL    HW214916   1.976   4.011   6.409
 4673SOL     OW14917   3.022   0.868   2.251
 4673SOL    HW114918   3.073   0.785   2.272
 4673SOL    HW214919   3.010   0.922   2.334
 4674SOL     OW14920   4.573   5.930   5.322
 4674SOL    HW114921   4.488   5.972   5.354
 4674SOL    HW214922   4.591   5.959   5.228
 4675SOL     OW14923   1.247   4.147   0.012
 4675SOL    HW114924   1.318   4.211   7.003
 4675SOL    HW214925   1.244   4.142   0.112
 4676SOL     OW14926   1.376   5.537   3.507
 4676SOL    HW114927   1.323   5.502   3.430
 4676SOL    HW214928   1.471   5.505   3.499
 4677SOL     OW14929   1.734   2.515   0.166
 4677SOL    HW114930   1.751   2.613   0.163
 4677SOL    HW214931   1.806   2.467   0.115
 4678SOL     OW14932   1.781   4.294   3.133
 4678SOL    HW114933   1.838   4.262   3.058
 4678SOL    HW214934   1.697   4.334   3.096
 4679SOL     OW14935   5.224   6.811   1.167
 4679SOL    HW114936   5.207   6.714   1.183
 4679SOL    HW214937   5.139   6.862   1.178
 4680SOL     OW14938   2.710   1.537   1.525
 4680SOL    HW114939   2.804   1.553   1.555
 4680SOL    HW214940   2.647   1.556   1.601
 4681SOL     OW14941   5.534   4.020   1.189
 4681SOL    HW114942   5.612   3.960   1.207
 4681SOL    HW214943   5.461   4.000   1.254
 4682SOL     OW14944   4.905   3.574   6.158
 4682SOL    HW114945   4.990   3.544   6.201
 4682SOL    HW214946   4.882   3.512   6.083
 4683SOL     OW14947   6.069   4.224   4.075
 4683SOL    HW114948   6.023   4.302   4.033
 4683SOL    HW214949   6.027   4.139   4.042
 4684SOL     OW14950   4.804   6.551   0.064
 4684SOL    HW114951   4.728   6.610   0.089
 4684SOL    HW214952   4.860   6.533   0.145
 4685SOL     OW14953   2.260   3.554   5.740
 4685SOL    HW114954   2.324   3.535   5.815
 4685SOL    HW214955   2.219   3.645   5.753
 4686SOL     OW14956   3.518   5.866   0.593
 4686SOL    HW114957   3.611   5.893   0.615
 4686SOL    HW214958   3.518   5.770   0.562
 4687SOL     OW14959   3.034   0.836   2.692
 4687SOL    HW114960   2.958   0.839   2.628
 4687SOL    HW214961   3.014   0.770   2.765
 4688SOL     OW14962   5.305   2.579   5.876
 4688SOL    HW114963   5.302   2.558   5.974
 4688SOL    HW214964   5.234   2.647   5.855
 4689SOL     OW14965   5.702   0.744   0.484
 4689SOL    HW114966   5.799   0.766   0.493
 4689SOL    HW214967   5.649   0.829   0.480
 4690SOL     OW14968   2.181   1.335   0.429
 4690SOL    HW114969   2.197   1.238   0.448
 4690SOL    HW214970   2.085   1.348   0.401
 4691SOL     OW14971   5.745   4.454   0.529
 4691SOL    HW114972   5.782   4.362   0.510
 4691SOL    HW214973   5.818   4.521   0.520
 4692SOL     OW14974   6.614   4.593   3.282
 4692SOL    HW114975   6.560   4.577   3.364
 4692SOL    HW214976   6.616   4.510   3.226
 4693SOL     OW14977   1.742   0.731   3.521
 4693SOL    HW114978   1.657   0.684   3.495
 4693SOL    HW214979   1.793   0.754   3.438
 4694SOL     OW14980   2.701   1.169   0.467
 4694SOL    HW114981   2.708   1.125   0.557
 4694SOL    HW214982   2.786   1.153   0.416
 4695SOL     OW14983   1.260   5.827   0.678
 4695SOL    HW114984   1.270   5.836   0.579
 4695SOL    HW214985   1.287   5.913   0.722
 4696SOL     OW14986   1.332   5.243   6.065
 4696SOL    HW114987   1.238   5.210   6.073
 4696SOL    HW214988   1.353   5.304   6.141
 4697SOL     OW14989   2.203   4.506   1.026
 4697SOL    HW114990   2.268   4.513   1.102
 4697SOL    HW214991   2.254   4.500   0.940
 4698SOL     OW14992   4.829   0.284   3.549
 4698SOL    HW114993   4.885   0.267   3.630
 4698SOL    HW214994   4.870   0.357   3.495
 4699SOL     OW14995   0.872   0.759   2.284
 4699SOL    HW114996   0.846   0.676   2.235
 4699SOL    HW214997   0.819   0.836   2.249
 4700SOL     OW14998   6.194   2.289   2.851
 4700SOL    HW114999   6.199   2.209   2.911
 4700SOL    HW215000   6.098   2.314   2.836
 4701SOL     OW15001   3.498   1.985   2.011
 4701SOL    HW115002   3.569   2.050   1.983
 4701SOL    HW215003   3.536   1.920   2.076
 4702SOL     OW15004   4.655   4.945   6.492
 4702SOL    HW115005   4.718   5.023   6.487
 4702SOL    HW215006   4.707   4.861   6.506
 4703SOL     OW15007   1.037   4.573   2.727
 4703SOL    HW115008   1.126   4.539   2.699
 4703SOL    HW215009   0.965   4.514   2.690
 4704SOL     OW15010   0.054   5.931   5.844
 4704SOL    HW115011   0.147   5.959   5.869
 4704SOL    HW215012   0.033   5.965   5.753
 4705SOL     OW15013   3.064   2.626   1.364
 4705SOL    HW115014   3.119   2.557   1.412
 4705SOL    HW215015   3.013   2.681   1.431
 4706SOL     OW15016   1.157   0.349   0.419
 4706SOL    HW115017   1.071   0.381   0.378
 4706SOL    HW215018   1.159   0.373   0.516
 4707SOL     OW15019   1.281   6.558   1.438
 4707SOL    HW115020   1.327   6.541   1.525
 4707SOL    HW215021   1.320   6.639   1.395
 4708SOL     OW15022   1.135   2.458   4.259
 4708SOL    HW115023   1.231   2.473   4.281
 4708SOL    HW215024   1.103   2.531   4.198
 4709SOL     OW15025   4.806   4.045   5.000
 4709SOL    HW115026   4.805   4.104   4.919
 4709SOL    HW215027   4.839   3.954   4.975
 4710SOL     OW15028   5.617   6.675   4.127
 4710SOL    HW115029   5.644   6.583   4.100
 4710SOL    HW215030   5.626   6.685   4.226
 4711SOL     OW15031   6.078   3.337   3.072
 4711SOL    HW115032   6.086   3.255   3.014
 4711SOL    HW215033   6.133   3.324   3.154
 4712SOL     OW15034   4.592   4.143   5.271
 4712SOL    HW115035   4.662   4.208   5.301
 4712SOL    HW215036   4.615   4.108   5.181
 4713SOL     OW15037   5.512   4.009   0.898
 4713SOL    HW115038   5.538   4.001   0.994
 4713SOL    HW215039   5.433   4.070   0.890
 4714SOL     OW15040   6.352   1.355   6.697
 4714SOL    HW115041   6.327   1.266   6.659
 4714SOL    HW215042   6.430   1.345   6.758
 4715SOL     OW15043   6.216   1.933   2.495
 4715SOL    HW115044   6.159   1.980   2.429
 4715SOL    HW215045   6.240   1.995   2.569
 4716SOL     OW15046   3.964   5.004   5.764
 4716SOL    HW115047   4.035   5.060   5.721
 4716SOL    HW215048   3.876   5.050   5.756
 4717SOL     OW15049   2.979   5.434   5.674
 4717SOL    HW115050   3.030   5.403   5.593
 4717SOL    HW215051   2.905   5.495   5.645
 4718SOL     OW15052   5.553   3.298   0.966
 4718SOL    HW115053   5.578   3.205   0.940
 4718SOL    HW215054   5.589   3.318   1.057
 4719SOL     OW15055   6.211   3.258   3.593
 4719SOL    HW115056   6.161   3.327   3.646
 4719SOL    HW215057   6.193   3.271   3.496
 4720SOL     OW15058   2.938   4.807   6.858
 4720SOL    HW115059   2.880   4.888   6.866
 4720SOL    HW215060   3.005   4.821   6.786
 4721SOL     OW15061   6.341   3.416   2.536
 4721SOL    HW115062   6.266   3.480   2.553
 4721SOL    HW215063   6.411   3.427   2.607
 4722SOL     OW15064   1.165   4.372   6.447
 4722SOL    HW115065   1.128   4.417   6.528
 4722SOL    HW215066   1.122   4.412   6.365
 4723SOL     OW15067   3.853   3.993   6.118
 4723SOL    HW115068   3.858   4.074   6.060
 4723SOL    HW215069   3.876   3.912   6.064
 4724SOL     OW15070   0.296   6.406   4.224
 4724SOL    HW115071   0.285   6.384   4.127
 4724SOL    HW215072   0.249   6.337   4.279
 4725SOL     OW15073   5.559   5.074   0.616
 4725SOL    HW115074   5.536   5.156   0.563
 4725SOL    HW215075   5.499   5.069   0.696
 4726SOL     OW15076   1.991   2.979   5.823
 4726SOL    HW115077   2.051   3.024   5.890
 4726SOL    HW215078   1.987   2.881   5.843
 4727SOL     OW15079   0.882   5.959   0.882
 4727SOL    HW115080   0.942   5.888   0.920
 4727SOL    HW215081   0.795   5.917   0.856
 4728SOL     OW15082   6.243   0.956   3.415
 4728SOL    HW115083   6.216   1.046   3.450
 4728SOL    HW215084   6.178   0.887   3.446
 4729SOL     OW15085   6.289   0.658   0.166
 4729SOL    HW115086   6.299   0.681   0.069
 4729SOL    HW215087   6.369   0.606   0.196
 4730SOL     OW15088   3.338   6.440   4.855
 4730SOL    HW115089   3.247   6.402   4.871
 4730SOL    HW215090   3.405   6.366   4.851
 4731SOL     OW15091   3.186   0.088   0.673
 4731SOL    HW115092   3.173   7.009   0.659
 4731SOL    HW215093   3.268   0.117   0.625
 4732SOL     OW15094   0.433   3.865   4.253
 4732SOL    HW115095   0.372   3.866   4.174
 4732SOL    HW215096   0.472   3.774   4.264
 4733SOL     OW15097   2.136   3.466   3.090
 4733SOL    HW115098   2.133   3.444   3.188
 4733SOL    HW215099   2.160   3.383   3.038
 4734SOL     OW15100   5.403   3.626   6.221
 4734SOL    HW115101   5.463   3.702   6.246
 4734SOL    HW215102   5.447   3.540   6.247
 4735SOL     OW15103   6.795   6.591   4.954
 4735SOL    HW115104   6.856   6.539   5.015
 4735SOL    HW215105   6.822   6.687   4.955
 4736SOL     OW15106   6.603   2.006   3.451
 4736SOL    HW115107   6.688   1.957   3.469
 4736SOL    HW215108   6.586   2.073   3.523
 4737SOL     OW15109   1.790   5.161   1.304
 4737SOL    HW115110   1.766   5.087   1.367
 4737SOL    HW215111   1.754   5.248   1.338
 4738SOL     OW15112   2.209   0.437   3.717
 4738SOL    HW115113   2.156   0.520   3.700
 4738SOL    HW215114   2.278   0.456   3.788
 4739SOL     OW15115   6.187   3.263   4.848
 4739SOL    HW115116   6.131   3.265   4.931
 4739SOL    HW215117   6.283   3.272   4.872
 4740SOL     OW15118   0.527   0.984   1.955
 4740SOL    HW115119   0.450   1.042   1.930
 4740SOL    HW215120   0.523   0.899   1.901
 4741SOL     OW15121   4.264   4.845   1.277
 4741SOL    HW115122   4.325   4.811   1.348
 4741SOL    HW215123   4.291   4.807   1.189
 4742SOL     OW15124   2.874   6.293   0.919
 4742SOL    HW115125   2.973   6.276   0.913
 4742SOL    HW215126   2.838   6.314   0.828
 4743SOL     OW15127   2.498   1.999   6.460
 4743SOL    HW115128   2.431   1.950   6.515
 4743SOL    HW215129   2.451   2.050   6.388
 4744SOL     OW15130   1.988   3.586   5.309
 4744SOL    HW115131   2.058   3.525   5.346
 4744SOL    HW215132   1.944   3.543   5.230
 4745SOL     OW15133   3.290   5.015   5.197
 4745SOL    HW115134   3.355   5.089   5.185
 4745SOL    HW215135   3.276   4.967   5.110
 4746SOL     OW15136   5.950   5.937   0.400
 4746SOL    HW115137   5.931   5.971   0.492
 4746SOL    HW215138   6.009   5.857   0.405
 4747SOL     OW15139   7.002   2.180   0.380
 4747SOL    HW115140   0.063   2.124   0.362
 4747SOL    HW215141   6.920   2.126   0.363
 4748SOL     OW15142   1.068   0.453   1.564
 4748SOL    HW115143   1.055   0.354   1.565
 4748SOL    HW215144   1.146   0.476   1.505
 4749SOL     OW15145   2.186   6.215   6.802
 4749SOL    HW115146   2.107   6.243   6.749
 4749SOL    HW215147   2.209   6.286   6.868
 4750SOL     OW15148   6.944   1.276   4.545
 4750SOL    HW115149   6.918   1.216   4.469
 4750SOL    HW215150   6.874   1.272   4.616
 4751SOL     OW15151   1.551   4.649   6.410
 4751SOL    HW115152   1.564   4.721   6.342
 4751SOL    HW215153   1.484   4.679   6.478
 4752SOL     OW15154   2.634   6.707   1.518
 4752SOL    HW115155   2.537   6.690   1.503
 4752SOL    HW215156   2.648   6.805   1.537
 4753SOL     OW15157   5.465   6.726   5.301
 4753SOL    HW115158   5.426   6.817   5.288
 4753SOL    HW215159   5.448   6.696   5.395
 4754SOL     OW15160   0.396   6.913   6.132
 4754SOL    HW115161   0.312   6.866   6.159
 4754SOL    HW215162   0.462   6.847   6.097
 4755SOL     OW15163   2.370   1.650   6.146
 4755SOL    HW115164   2.355   1.688   6.237
 4755SOL    HW215165   2.320   1.564   6.138
 4756SOL     OW15166   4.304   2.809   1.516
 4756SOL    HW115167   4.357   2.733   1.480
 4756SOL    HW215168   4.360   2.861   1.581
 4757SOL     OW15169   2.316   2.102   1.958
 4757SOL    HW115170   2.400   2.115   2.012
 4757SOL    HW215171   2.237   2.124   2.015
 4758SOL     OW15172   4.996   4.753   5.533
 4758SOL    HW115173   5.059   4.676   5.532
 4758SOL    HW215174   5.048   4.839   5.537
 4759SOL     OW15175   5.393   5.972   5.987
 4759SOL    HW115176   5.467   5.912   6.017
 4759SOL    HW215177   5.322   5.917   5.943
 4760SOL     OW15178   1.911   0.936   1.300
 4760SOL    HW115179   1.967   0.982   1.368
 4760SOL    HW215180   1.815   0.940   1.327
 4761SOL     OW15181   6.628   0.199   6.340
 4761SOL    HW115182   6.697   0.133   6.369
 4761SOL    HW215183   6.571   0.158   6.269
 4762SOL     OW15184   2.902   4.923   2.199
 4762SOL    HW115185   2.894   5.018   2.170
 4762SOL    HW215186   2.850   4.864   2.137
 4763SOL     OW15187   5.817   6.237   3.064
 4763SOL    HW115188   5.900   6.231   3.119
 4763SOL    HW215189   5.768   6.150   3.067
 4764SOL     OW15190   4.478   3.789   5.341
 4764SOL    HW115191   4.488   3.709   5.281
 4764SOL    HW215192   4.566   3.808   5.385
 4765SOL     OW15193   4.339   6.057   5.350
 4765SOL    HW115194   4.346   6.118   5.272
 4765SOL    HW215195   4.298   6.105   5.427
 4766SOL     OW15196   2.651   0.250   3.406
 4766SOL    HW115197   2.705   0.190   3.346
 4766SOL    HW215198   2.555   0.223   3.401
 4767SOL     OW15199   4.009   6.825   0.651
 4767SOL    HW115200   4.065   6.861   0.576
 4767SOL    HW215201   3.995   6.726   0.638
 4768SOL     OW15202   5.742   0.822   4.551
 4768SOL    HW115203   5.724   0.908   4.504
 4768SOL    HW215204   5.837   0.795   4.535
 4769SOL     OW15205   3.999   5.989   1.754
 4769SOL    HW115206   4.072   5.992   1.687
 4769SOL    HW215207   3.925   5.931   1.720
 4770SOL     OW15208   2.301   0.507   3.204
 4770SOL    HW115209   2.290   0.487   3.301
 4770SOL    HW215210   2.390   0.473   3.173
 4771SOL     OW15211   3.524   4.604   6.148
 4771SOL    HW115212   3.551   4.646   6.234
 4771SOL    HW215213   3.427   4.620   6.131
 4772SOL     OW15214   2.726   0.674   1.259
 4772SOL    HW115215   2.720   0.731   1.341
 4772SOL    HW215216   2.705   0.579   1.282
 4773SOL     OW15217   0.495   5.795   3.886
 4773SOL    HW115218   0.520   5.788   3.789
 4773SOL    HW215219   0.513   5.708   3.931
 4774SOL     OW15220   0.952   3.565   2.053
 4774SOL    HW115221   0.975   3.660   2.032
 4774SOL    HW215222   1.006   3.534   2.131
 4775SOL     OW15223   4.533   0.372   3.217
 4775SOL    HW115224   4.554   0.286   3.171
 4775SOL    HW215225   4.506   0.354   3.312
 4776SOL     OW15226   3.061   6.219   2.508
 4776SOL    HW115227   3.055   6.201   2.410
 4776SOL    HW215228   2.993   6.164   2.556
 4777SOL     OW15229   2.345   4.497   1.246
 4777SOL    HW115230   2.430   4.460   1.284
 4777SOL    HW215231   2.313   4.573   1.302
 4778SOL     OW15232   4.782   3.537   1.776
 4778SOL    HW115233   4.691   3.500   1.753
 4778SOL    HW215234   4.812   3.498   1.863
 4779SOL     OW15235   6.711   0.625   3.115
 4779SOL    HW115236   6.754   0.537   3.093
 4779SOL    HW215237   6.703   0.680   3.032
 4780SOL     OW15238   0.923   6.705   5.973
 4780SOL    HW115239   0.944   6.615   6.010
 4780SOL    HW215240   0.874   6.696   5.886
 4781SOL     OW15241   2.298   5.324   1.324
 4781SOL    HW115242   2.388   5.341   1.366
 4781SOL    HW215243   2.263   5.235   1.356
 4782SOL     OW15244   5.788   6.927   6.542
 4782SOL    HW115245   5.859   6.918   6.472
 4782SOL    HW215246   5.718   6.857   6.528
 4783SOL     OW15247   5.291   3.756   1.093
 4783SOL    HW115248   5.312   3.802   1.179
 4783SOL    HW215249   5.363   3.690   1.071
 4784SOL     OW15250   5.760   4.969   5.459
 4784SOL    HW115251   5.684   4.943   5.518
 4784SOL    HW215252   5.768   4.904   5.383
 4785SOL     OW15253   6.715   6.549   0.681
 4785SOL    HW115254   6.692   6.552   0.583
 4785SOL    HW215255   6.641   6.507   0.732
 4786SOL     OW15256   1.971   3.159   2.040
 4786SOL    HW115257   1.931   3.175   1.950
 4786SOL    HW215258   1.988   3.061   2.053
 4787SOL     OW15259   3.044   2.174   3.562
 4787SOL    HW115260   3.070   2.199   3.469
 4787SOL    HW215261   2.953   2.211   3.582
 4788SOL     OW15262   1.532   5.269   5.076
 4788SOL    HW115263   1.596   5.320   5.018
 4788SOL    HW215264   1.451   5.325   5.094
 4789SOL     OW15265   5.678   0.584   6.811
 4789SOL    HW115266   5.753   0.650   6.808
 4789SOL    HW215267   5.693   0.519   6.885
 4790SOL     OW15268   5.442   2.233   6.739
 4790SOL    HW115269   5.506   2.300   6.778
 4790SOL    HW215270   5.470   2.141   6.764
 4791SOL     OW15271   5.552   6.909   2.074
 4791SOL    HW115272   5.621   6.924   2.145
 4791SOL    HW215273   5.524   6.813   2.074
 4792SOL     OW15274   2.171   2.655   3.084
 4792SOL    HW115275   2.104   2.581   3.090
 4792SOL    HW215276   2.240   2.633   3.015
 4793SOL     OW15277   1.247   0.040   6.247
 4793SOL    HW115278   1.263   0.026   6.345
 4793SOL    HW215279   1.325   0.004   6.195
 4794SOL     OW15280   2.523   6.285   3.136
 4794SOL    HW115281   2.481   6.373   3.115
 4794SOL    HW215282   2.522   6.270   3.235
 4795SOL     OW15283   6.461   3.100   4.461
 4795SOL    HW115284   6.362   3.089   4.469
 4795SOL    HW215285   6.501   3.016   4.424
 4796SOL     OW15286   5.638   3.574   0.332
 4796SOL    HW115287   5.622   3.617   0.243
 4796SOL    HW215288   5.590   3.626   0.403
 4797SOL     OW15289   0.818   4.620   5.888
 4797SOL    HW115290   0.855   4.544   5.940
 4797SOL    HW215291   0.771   4.585   5.806
 4798SOL     OW15292   0.102   4.225   4.097
 4798SOL    HW115293   0.148   4.266   4.175
 4798SOL    HW215294   0.127   4.274   4.014
 4799SOL     OW15295   5.060   1.315   4.992
 4799SOL    HW115296   4.983   1.355   4.942
 4799SOL    HW215297   5.112   1.255   4.932
 4800SOL     OW15298   2.710   2.892   5.890
 4800SOL    HW115299   2.663   2.847   5.966
 4800SOL    HW215300   2.729   2.825   5.818
 4801SOL     OW15301   1.543   1.611   0.539
 4801SOL    HW115302   1.582   1.579   0.453
 4801SOL    HW215303   1.486   1.539   0.578
 4802SOL     OW15304   2.784   6.697   1.769
 4802SOL    HW115305   2.880   6.681   1.746
 4802SOL    HW215306   2.727   6.687   1.687
 4803SOL     OW15307   0.705   6.642   0.690
 4803SOL    HW115308   0.783   6.683   0.738
 4803SOL    HW215309   0.733   6.616   0.597
 4804SOL     OW15310   4.306   5.016   6.379
 4804SOL    HW115311   4.291   4.951   6.304
 4804SOL    HW215312   4.296   5.109   6.344
 4805SOL     OW15313   6.835   1.127   0.219
 4805SOL    HW115314   6.780   1.177   0.153
 4805SOL    HW215315   6.775   1.082   0.285
 4806SOL     OW15316   0.319   4.201   3.308
 4806SOL    HW115317   0.365   4.112   3.300
 4806SOL    HW215318   0.384   4.269   3.343
 4807SOL     OW15319   0.612   5.752   1.681
 4807SOL    HW115320   0.574   5.830   1.731
 4807SOL    HW215321   0.572   5.667   1.715
 4808SOL     OW15322   5.310   3.382   1.754
 4808SOL    HW115323   5.253   3.402   1.674
 4808SOL    HW215324   5.277   3.300   1.800
 4809SOL     OW15325   3.190   5.346   0.066
 4809SOL    HW115326   3.281   5.306   0.075
 4809SOL    HW215327   3.174   5.373   6.991
 4810SOL     OW15328   0.721   5.580   1.447
 4810SOL    HW115329   0.667   5.648   1.498
 4810SOL    HW215330   0.775   5.627   1.377
 4811SOL     OW15331   3.514   5.344   2.102
 4811SOL    HW115332   3.462   5.270   2.147
 4811SOL    HW215333   3.489   5.348   2.005
 4812SOL     OW15334   6.953   5.376   3.864
 4812SOL    HW115335   6.934   5.474   3.861
 4812SOL    HW215336   6.870   5.325   3.843
 4813SOL     OW15337   4.851   1.505   2.178
 4813SOL    HW115338   4.784   1.577   2.195
 4813SOL    HW215339   4.885   1.471   2.265
 4814SOL     OW15340   0.107   3.782   1.011
 4814SOL    HW115341   0.110   3.684   0.990
 4814SOL    HW215342   0.012   3.812   1.016
 4815SOL     OW15343   4.427   5.440   1.686
 4815SOL    HW115344   4.445   5.344   1.708
 4815SOL    HW215345   4.486   5.498   1.742
 4816SOL     OW15346   5.571   5.163   2.589
 4816SOL    HW115347   5.516   5.093   2.545
 4816SOL    HW215348   5.603   5.229   2.520
 4817SOL     OW15349   1.435   2.470   5.709
 4817SOL    HW115350   1.384   2.386   5.691
 4817SOL    HW215351   1.382   2.529   5.770
 4818SOL     OW15352   0.009   0.041   3.768
 4818SOL    HW115353   7.006   0.128   3.810
 4818SOL    HW215354   7.013   0.046   3.669
 4819SOL     OW15355   1.443   3.197   6.881
 4819SOL    HW115356   1.512   3.269   6.876
 4819SOL    HW215357   1.457   3.132   6.806
 4820SOL     OW15358   6.759   3.597   2.391
 4820SOL    HW115359   6.702   3.529   2.345
 4820SOL    HW215360   6.831   3.627   2.329
 4821SOL     OW15361   6.863   6.123   2.327
 4821SOL    HW115362   6.817   6.182   2.261
 4821SOL    HW215363   6.906   6.179   2.398
 4822SOL     OW15364   1.320   4.147   4.314
 4822SOL    HW115365   1.221   4.135   4.306
 4822SOL    HW215366   1.362   4.060   4.341
 4823SOL     OW15367   1.572   2.753   2.015
 4823SOL    HW115368   1.631   2.673   2.011
 4823SOL    HW215369   1.525   2.755   2.103
 4824SOL     OW15370   5.376   0.338   5.212
 4824SOL    HW115371   5.391   0.424   5.262
 4824SOL    HW215372   5.279   0.329   5.190
 4825SOL     OW15373   1.351   0.681   4.469
 4825SOL    HW115374   1.254   0.676   4.446
 4825SOL    HW215375   1.370   0.767   4.516
 4826SOL     OW15376   4.436   0.358   1.544
 4826SOL    HW115377   4.514   0.326   1.596
 4826SOL    HW215378   4.467   0.407   1.462
 4827SOL     OW15379   0.030   1.908   1.021
 4827SOL    HW115380   0.056   1.990   0.970
 4827SOL    HW215381   0.068   1.912   1.113
 4828SOL     OW15382   4.638   0.707   2.364
 4828SOL    HW115383   4.592   0.764   2.432
 4828SOL    HW215384   4.730   0.685   2.396
 4829SOL     OW15385   3.905   6.851   5.682
 4829SOL    HW115386   3.841   6.884   5.751
 4829SOL    HW215387   3.876   6.883   5.592
 4830SOL     OW15388   3.124   5.593   3.491
 4830SOL    HW115389   3.090   5.616   3.400
 4830SOL    HW215390   3.154   5.677   3.537
 4831SOL     OW15391   3.638   5.235   5.979
 4831SOL    HW115392   3.566   5.301   5.955
 4831SOL    HW215393   3.619   5.198   6.070
 4832SOL     OW15394   2.918   3.418   4.647
 4832SOL    HW115395   3.016   3.433   4.665
 4832SOL    HW215396   2.895   3.452   4.556
 4833SOL     OW15397   6.283   2.820   4.672
 4833SOL    HW115398   6.301   2.755   4.745
 4833SOL    HW215399   6.231   2.898   4.708
 4834SOL     OW15400   2.136   5.611   1.904
 4834SOL    HW115401   2.110   5.598   1.808
 4834SOL    HW215402   2.085   5.547   1.961
 4835SOL     OW15403   6.973   3.118   5.184
 4835SOL    HW115404   6.950   3.021   5.195
 4835SOL    HW215405   6.916   3.157   5.112
 4836SOL     OW15406   5.196   1.132   4.856
 4836SOL    HW115407   5.147   1.048   4.880
 4836SOL    HW215408   5.267   1.111   4.789
 4837SOL     OW15409   7.013   3.451   4.345
 4837SOL    HW115410   6.973   3.418   4.431
 4837SOL    HW215411   0.019   3.373   4.288
 4838SOL     OW15412   1.117   4.522   6.229
 4838SOL    HW115413   1.092   4.619   6.224
 4838SOL    HW215414   1.208   4.512   6.269
 4839SOL     OW15415   2.254   2.145   0.782
 4839SOL    HW115416   2.210   2.228   0.816
 4839SOL    HW215417   2.343   2.134   0.825
 4840SOL     OW15418   5.594   3.178   5.408
 4840SOL    HW115419   5.565   3.130   5.325
 4840SOL    HW215420   5.690   3.203   5.401
 4841SOL     OW15421   3.198   5.361   3.087
 4841SOL    HW115422   3.256   5.281   3.105
 4841SOL    HW215423   3.242   5.443   3.124
 4842SOL     OW15424   2.720   5.339   3.140
 4842SOL    HW115425   2.622   5.326   3.132
 4842SOL    HW215426   2.759   5.267   3.199
 4843SOL     OW15427   0.319   2.319   2.540
 4843SOL    HW115428   0.350   2.414   2.533
 4843SOL    HW215429   0.357   2.266   2.464
 4844SOL     OW15430   1.303   5.364   5.185
 4844SOL    HW115431   1.254   5.448   5.163
 4844SOL    HW215432   1.291   5.342   5.282
 4845SOL     OW15433   4.710   4.220   4.809
 4845SOL    HW115434   4.648   4.259   4.878
 4845SOL    HW215435   4.718   4.284   4.733
 4846SOL     OW15436   6.838   3.599   4.965
 4846SOL    HW115437   6.791   3.530   4.910
 4846SOL    HW215438   6.854   3.563   5.057
 4847SOL     OW15439   2.586   6.258   6.055
 4847SOL    HW115440   2.552   6.241   5.962
 4847SOL    HW215441   2.569   6.178   6.112
 4848SOL     OW15442   2.730   0.806   4.036
 4848SOL    HW115443   2.785   0.809   3.953
 4848SOL    HW215444   2.655   0.872   4.028
 4849SOL     OW15445   1.834   6.588   1.516
 4849SOL    HW115446   1.803   6.683   1.521
 4849SOL    HW215447   1.892   6.568   1.595
 4850SOL     OW15448   4.763   0.711   0.596
 4850SOL    HW115449   4.852   0.702   0.639
 4850SOL    HW215450   4.723   0.800   0.617
 4851SOL     OW15451   3.503   5.713   6.914
 4851SOL    HW115452   3.602   5.711   6.909
 4851SOL    HW215453   3.472   5.650   6.984
 4852SOL     OW15454   4.528   5.071   5.149
 4852SOL    HW115455   4.444   5.109   5.110
 4852SOL    HW215456   4.606   5.102   5.095
 4853SOL     OW15457   4.107   1.129   3.198
 4853SOL    HW115458   4.110   1.067   3.119
 4853SOL    HW215459   4.100   1.223   3.165
 4854SOL     OW15460   6.039   6.255   1.510
 4854SOL    HW115461   6.117   6.204   1.546
 4854SOL    HW215462   5.977   6.279   1.585
 4855SOL     OW15463   6.286   5.229   4.368
 4855SOL    HW115464   6.367   5.242   4.311
 4855SOL    HW215465   6.292   5.289   4.449
 4856SOL     OW15466   0.048   3.707   3.055
 4856SOL    HW115467   0.005   3.745   2.973
 4856SOL    HW215468   0.137   3.669   3.031
 4857SOL     OW15469   2.689   2.002   4.316
 4857SOL    HW115470   2.769   1.962   4.270
 4857SOL    HW215471   2.717   2.041   4.403
 4858SOL     OW15472   0.308   6.011   4.513
 4858SOL    HW115473   0.402   5.988   4.488
 4858SOL    HW215474   0.305   6.044   4.607
 4859SOL     OW15475   0.615   6.069   2.358
 4859SOL    HW115476   0.635   5.984   2.309
 4859SOL    HW215477   0.550   6.123   2.306
 4860SOL     OW15478   5.024   5.533   0.853
 4860SOL    HW115479   4.989   5.623   0.879
 4860SOL    HW215480   5.120   5.525   0.880
 4861SOL     OW15481   0.514   4.711   6.438
 4861SOL    HW115482   0.485   4.647   6.509
 4861SOL    HW215483   0.605   4.686   6.406
 4862SOL     OW15484   2.654   4.584   5.403
 4862SOL    HW115485   2.750   4.592   5.376
 4862SOL    HW215486   2.622   4.491   5.389
 4863SOL     OW15487   4.628   2.329   2.963
 4863SOL    HW115488   4.665   2.245   3.004
 4863SOL    HW215489   4.530   2.334   2.981
 4864SOL     OW15490   2.768   1.300   1.799
 4864SOL    HW115491   2.827   1.286   1.720
 4864SOL    HW215492   2.747   1.398   1.808
 4865SOL     OW15493   3.592   5.858   5.463
 4865SOL    HW115494   3.579   5.760   5.474
 4865SOL    HW215495   3.546   5.907   5.537
 4866SOL     OW15496   5.800   4.578   1.298
 4866SOL    HW115497   5.865   4.653   1.289
 4866SOL    HW215498   5.849   4.493   1.317
 4867SOL     OW15499   5.088   5.794   2.379
 4867SOL    HW115500   5.175   5.818   2.421
 4867SOL    HW215501   5.035   5.737   2.442
 4868SOL     OW15502   0.233   5.619   1.195
 4868SOL    HW115503   0.268   5.688   1.259
 4868SOL    HW215504   0.212   5.663   1.107
 4869SOL     OW15505   0.213   1.417   6.909
 4869SOL    HW115506   0.204   1.402   6.810
 4869SOL    HW215507   0.228   1.329   6.954
 4870SOL     OW15508   5.537   6.608   2.158
 4870SOL    HW115509   5.545   6.526   2.214
 4870SOL    HW215510   5.612   6.612   2.092
 4871SOL     OW15511   1.385   3.053   3.747
 4871SOL    HW115512   1.299   3.018   3.711
 4871SOL    HW215513   1.414   3.132   3.692
 4872SOL     OW15514   1.293   0.465   2.555
 4872SOL    HW115515   1.276   0.515   2.470
 4872SOL    HW215516   1.342   0.524   2.619
 4873SOL     OW15517   6.880   5.457   5.122
 4873SOL    HW115518   6.948   5.520   5.160
 4873SOL    HW215519   6.902   5.439   5.026
 4874SOL     OW15520   5.112   3.557   3.203
 4874SOL    HW115521   5.175   3.499   3.151
 4874SOL    HW215522   5.020   3.519   3.197
 4875SOL     OW15523   5.673   1.955   0.883
 4875SOL    HW115524   5.678   2.036   0.941
 4875SOL    HW215525   5.674   1.873   0.939
 4876SOL     OW15526   0.400   1.545   0.012
 4876SOL    HW115527   0.322   1.499   6.990
 4876SOL    HW215528   0.410   1.637   6.993
 4877SOL     OW15529   6.355   0.742   1.247
 4877SOL    HW115530   6.289   0.804   1.203
 4877SOL    HW215531   6.337   0.648   1.218
 4878SOL     OW15532   6.739   1.726   1.855
 4878SOL    HW115533   6.732   1.632   1.822
 4878SOL    HW215534   6.693   1.734   1.943
 4879SOL     OW15535   4.528   5.378   3.463
 4879SOL    HW115536   4.503   5.440   3.388
 4879SOL    HW215537   4.614   5.332   3.440
 4880SOL     OW15538   5.792   1.567   6.569
 4880SOL    HW115539   5.839   1.577   6.482
 4880SOL    HW215540   5.816   1.479   6.610
 4881SOL     OW15541   3.650   6.124   6.205
 4881SOL    HW115542   3.719   6.053   6.191
 4881SOL    HW215543   3.563   6.094   6.167
 4882SOL     OW15544   6.074   0.518   5.664
 4882SOL    HW115545   6.079   0.461   5.582
 4882SOL    HW215546   6.070   0.460   5.745
 4883SOL     OW15547   6.601   4.661   1.772
 4883SOL    HW115548   6.619   4.759   1.777
 4883SOL    HW215549   6.546   4.633   1.851
 4884SOL     OW15550   3.433   6.281   1.970
 4884SOL    HW115551   3.364   6.247   1.906
 4884SOL    HW215552   3.397   6.276   2.063
 4885SOL     OW15553   1.806   6.919   1.494
 4885SOL    HW115554   1.763   6.981   1.560
 4885SOL    HW215555   1.888   6.963   1.455
 4886SOL     OW15556   6.581   0.721   0.071
 4886SOL    HW115557   6.546   0.664   0.145
 4886SOL    HW215558   6.681   0.718   0.071
 4887SOL     OW15559   0.296   2.370   3.720
 4887SOL    HW115560   0.330   2.464   3.710
 4887SOL    HW215561   0.351   2.321   3.787
 4888SOL     OW15562   2.299   5.817   2.729
 4888SOL    HW115563   2.243   5.775   2.658
 4888SOL    HW215564   2.276   5.777   2.817
 4889SOL     OW15565   1.148   1.870   0.353
 4889SOL    HW115566   1.189   1.780   0.366
 4889SOL    HW215567   1.211   1.929   0.302
 4890SOL     OW15568   1.395   0.911   4.588
 4890SOL    HW115569   1.459   0.897   4.513
 4890SOL    HW215570   1.384   1.009   4.605
 4891SOL     OW15571   0.871   4.874   0.444
 4891SOL    HW115572   0.819   4.925   0.376
 4891SOL    HW215573   0.919   4.938   0.504
 4892SOL     OW15574   0.652   5.831   0.807
 4892SOL    HW115575   0.628   5.810   0.713
 4892SOL    HW215576   0.568   5.839   0.862
 4893SOL     OW15577   0.723   3.346   6.530
 4893SOL    HW115578   0.700   3.403   6.451
 4893SOL    HW215579   0.818   3.363   6.557
 4894SOL     OW15580   2.107   1.295   3.263
 4894SOL    HW115581   2.114   1.200   3.234
 4894SOL    HW215582   2.160   1.309   3.347
 4895SOL     OW15583   0.965   2.703   0.177
 4895SOL    HW115584   1.019   2.688   0.260
 4895SOL    HW215585   0.953   2.802   0.164
 4896SOL     OW15586   3.589   4.914   5.073
 4896SOL    HW115587   3.561   4.971   4.996
 4896SOL    HW215588   3.568   4.960   5.159
 4897SOL     OW15589   3.795   5.672   6.875
 4897SOL    HW115590   3.785   5.575   6.853
 4897SOL    HW215591   3.881   5.706   6.836
 4898SOL     OW15592   5.113   1.587   5.268
 4898SOL    HW115593   5.140   1.585   5.365
 4898SOL    HW215594   5.193   1.574   5.211
 4899SOL     OW15595   5.920   4.504   3.647
 4899SOL    HW115596   5.881   4.447   3.718
 4899SOL    HW215597   5.947   4.447   3.569
 4900SOL     OW15598   0.999   6.686   5.528
 4900SOL    HW115599   1.066   6.612   5.533
 4900SOL    HW215600   1.047   6.774   5.525
 4901SOL     OW15601   0.804   6.759   3.691
 4901SOL    HW115602   0.788   6.819   3.613
 4901SOL    HW215603   0.867   6.803   3.755
 4902SOL     OW15604   2.115   4.796   1.721
 4902SOL    HW115605   2.139   4.718   1.664
 4902SOL    HW215606   2.199   4.838   1.757
 4903SOL     OW15607   4.872   0.377   6.679
 4903SOL    HW115608   4.941   0.307   6.697
 4903SOL    HW215609   4.790   0.359   6.733
 4904SOL     OW15610   2.804   6.012   4.356
 4904SOL    HW115611   2.709   6.037   4.339
 4904SOL    HW215612   2.846   6.081   4.415
 4905SOL     OW15613   4.842   3.131   1.733
 4905SOL    HW115614   4.780   3.102   1.806
 4905SOL    HW215615   4.937   3.118   1.763
 4906SOL     OW15616   4.808   0.422   0.264
 4906SOL    HW115617   4.768   0.340   0.306
 4906SOL    HW215618   4.811   0.409   0.164
 4907SOL     OW15619   3.474   0.708   3.789
 4907SOL    HW115620   3.407   0.760   3.734
 4907SOL    HW215621   3.446   0.612   3.793
 4908SOL     OW15622   3.568   6.459   6.725
 4908SOL    HW115623   3.653   6.456   6.776
 4908SOL    HW215624   3.523   6.369   6.730
 4909SOL     OW15625   6.406   6.589   5.374
 4909SOL    HW115626   6.491   6.625   5.336
 4909SOL    HW215627   6.400   6.491   5.355
 4910SOL     OW15628   5.855   0.437   5.183
 4910SOL    HW115629   5.797   0.499   5.130
 4910SOL    HW215630   5.836   0.343   5.155
 4911SOL     OW15631   6.675   2.643   6.080
 4911SOL    HW115632   6.608   2.715   6.095
 4911SOL    HW215633   6.767   2.682   6.087
 4912SOL     OW15634   3.199   1.878   2.222
 4912SOL    HW115635   3.162   1.936   2.149
 4912SOL    HW215636   3.295   1.902   2.238
 4913SOL     OW15637   3.441   4.153   3.437
 4913SOL    HW115638   3.535   4.144   3.469
 4913SOL    HW215639   3.379   4.160   3.515
 4914SOL     OW15640   2.505   6.536   3.381
 4914SOL    HW115641   2.461   6.566   3.297
 4914SOL    HW215642   2.599   6.571   3.385
 4915SOL     OW15643   3.714   5.919   4.023
 4915SOL    HW115644   3.705   5.822   4.049
 4915SOL    HW215645   3.787   5.928   3.955
 4916SOL     OW15646   2.105   1.576   2.771
 4916SOL    HW115647   2.035   1.648   2.772
 4916SOL    HW215648   2.171   1.595   2.699
 4917SOL     OW15649   2.114   5.009   0.984
 4917SOL    HW115650   2.041   4.942   0.995
 4917SOL    HW215651   2.186   4.990   1.051
 4918SOL     OW15652   2.491   0.461   2.228
 4918SOL    HW115653   2.555   0.399   2.183
 4918SOL    HW215654   2.441   0.512   2.158
 4919SOL     OW15655   2.400   2.607   1.871
 4919SOL    HW115656   2.471   2.545   1.903
 4919SOL    HW215657   2.316   2.555   1.852
 4920SOL     OW15658   4.259   0.730   0.439
 4920SOL    HW115659   4.174   0.740   0.492
 4920SOL    HW215660   4.320   0.806   0.459
 4921SOL     OW15661   1.198   4.364   1.684
 4921SOL    HW115662   1.184   4.437   1.751
 4921SOL    HW215663   1.161   4.278   1.720
 4922SOL     OW15664   1.682   2.938   5.054
 4922SOL    HW115665   1.752   2.996   5.011
 4922SOL    HW215666   1.683   2.952   5.153
 4923SOL     OW15667   5.007   1.049   1.380
 4923SOL    HW115668   4.997   1.074   1.283
 4923SOL    HW215669   5.089   0.993   1.392
 4924SOL     OW15670   0.716   4.234   4.591
 4924SOL    HW115671   0.740   4.183   4.673
 4924SOL    HW215672   0.683   4.171   4.521
 4925SOL     OW15673   5.025   6.277   6.975
 4925SOL    HW115674   5.023   6.205   0.025
 4925SOL    HW215675   5.072   6.358   7.011
 4926SOL     OW15676   4.649   2.622   1.819
 4926SOL    HW115677   4.683   2.563   1.892
 4926SOL    HW215678   4.653   2.573   1.732
 4927SOL     OW15679   3.434   2.875   3.422
 4927SOL    HW115680   3.356   2.869   3.485
 4927SOL    HW215681   3.517   2.895   3.473
 4928SOL     OW15682   0.468   6.059   6.896
 4928SOL    HW115683   0.375   6.093   6.915
 4928SOL    HW215684   0.467   5.959   6.894
 4929SOL     OW15685   0.995   5.285   4.353
 4929SOL    HW115686   0.907   5.296   4.308
 4929SOL    HW215687   1.057   5.357   4.322
 4930SOL     OW15688   0.461   1.912   0.903
 4930SOL    HW115689   0.459   1.906   1.003
 4930SOL    HW215690   0.502   1.999   0.876
 4931SOL     OW15691   0.495   1.071   0.255
 4931SOL    HW115692   0.418   1.015   0.224
 4931SOL    HW215693   0.545   1.105   0.175
 4932SOL     OW15694   2.531   2.230   1.446
 4932SOL    HW115695   2.517   2.230   1.348
 4932SOL    HW215696   2.532   2.325   1.479
 4933SOL     OW15697   2.764   1.255   3.896
 4933SOL    HW115698   2.729   1.306   3.975
 4933SOL    HW215699   2.692   1.197   3.859
 4934SOL     OW15700   0.913   6.103   4.617
 4934SOL    HW115701   0.982   6.055   4.563
 4934SOL    HW215702   0.873   6.177   4.561
 4935SOL     OW15703   1.336   0.811   6.960
 4935SOL    HW115704   1.350   0.909   6.946
 4935SOL    HW215705   1.239   0.789   6.954
 4936SOL     OW15706   3.835   5.479   1.184
 4936SOL    HW115707   3.901   5.475   1.259
 4936SOL    HW215708   3.841   5.569   1.140
 4937SOL     OW15709   0.716   2.621   5.772
 4937SOL    HW115710   0.642   2.618   5.705
 4937SOL    HW215711   0.692   2.683   5.847
 4938SOL     OW15712   3.367   4.524   1.626
 4938SOL    HW115713   3.447   4.552   1.680
 4938SOL    HW215714   3.326   4.605   1.584
 4939SOL     OW15715   1.638   1.837   1.491
 4939SOL    HW115716   1.636   1.825   1.391
 4939SOL    HW215717   1.730   1.862   1.519
 4940SOL     OW15718   0.281   2.983   4.118
 4940SOL    HW115719   0.233   2.895   4.124
 4940SOL    HW215720   0.377   2.971   4.143
 4941SOL     OW15721   3.878   2.425   5.332
 4941SOL    HW115722   3.831   2.510   5.355
 4941SOL    HW215723   3.963   2.446   5.285
 4942SOL     OW15724   5.873   2.245   3.707
 4942SOL    HW115725   5.846   2.310   3.778
 4942SOL    HW215726   5.855   2.286   3.617
 4943SOL     OW15727   5.511   2.804   6.691
 4943SOL    HW115728   5.602   2.766   6.679
 4943SOL    HW215729   5.465   2.808   6.602
 4944SOL     OW15730   1.640   5.568   1.231
 4944SOL    HW115731   1.546   5.532   1.229
 4944SOL    HW215732   1.639   5.663   1.201
 4945SOL     OW15733   2.227   0.985   5.353
 4945SOL    HW115734   2.318   0.994   5.314
 4945SOL    HW215735   2.195   1.074   5.386
 4946SOL     OW15736   1.902   5.249   0.381
 4946SOL    HW115737   1.955   5.331   0.361
 4946SOL    HW215738   1.956   5.187   0.438
 4947SOL     OW15739   1.815   0.633   1.435
 4947SOL    HW115740   1.842   0.633   1.339
 4947SOL    HW215741   1.859   0.710   1.481
 4948SOL     OW15742   1.460   2.484   1.721
 4948SOL    HW115743   1.383   2.536   1.682
 4948SOL    HW215744   1.543   2.506   1.671
 4949SOL     OW15745   6.945   3.510   6.754
 4949SOL    HW115746   6.965   3.433   6.815
 4949SOL    HW215747   6.908   3.475   6.668
 4950SOL     OW15748   2.131   4.272   5.356
 4950SOL    HW115749   2.208   4.263   5.294
 4950SOL    HW215750   2.063   4.202   5.336
 4951SOL     OW15751   5.438   5.895   3.503
 4951SOL    HW115752   5.446   5.829   3.428
 4951SOL    HW215753   5.450   5.847   3.591
 4952SOL     OW15754   0.694   6.463   5.575
 4952SOL    HW115755   0.635   6.513   5.513
 4952SOL    HW215756   0.728   6.525   5.646
 4953SOL     OW15757   1.481   2.411   4.749
 4953SOL    HW115758   1.421   2.347   4.700
 4953SOL    HW215759   1.456   2.505   4.724
 4954SOL     OW15760   3.059   3.968   4.813
 4954SOL    HW115761   2.983   4.021   4.851
 4954SOL    HW215762   3.023   3.890   4.763
 4955SOL     OW15763   3.129   6.021   0.163
 4955SOL    HW115764   3.215   5.975   0.184
 4955SOL    HW215765   3.106   6.006   0.066
 4956SOL     OW15766   2.458   0.149   4.810
 4956SOL    HW115767   2.423   0.208   4.882
 4956SOL    HW215768   2.558   0.151   4.810
 4957SOL     OW15769   6.537   4.294   0.086
 4957SOL    HW115770   6.636   4.309   0.078
 4957SOL    HW215771   6.494   4.318   7.019
 4958SOL     OW15772   2.650   6.668   0.309
 4958SOL    HW115773   2.587   6.719   0.251
 4958SOL    HW215774   2.743   6.704   0.298
 4959SOL     OW15775   0.346   3.165   2.128
 4959SOL    HW115776   0.379   3.103   2.200
 4959SOL    HW215777   0.424   3.204   2.080
 4960SOL     OW15778   3.990   5.643   4.548
 4960SOL    HW115779   3.962   5.636   4.644
 4960SOL    HW215780   4.084   5.676   4.543
 4961SOL     OW15781   3.734   1.051   0.707
 4961SOL    HW115782   3.720   1.047   0.806
 4961SOL    HW215783   3.733   0.958   0.670
 4962SOL     OW15784   0.949   4.230   1.319
 4962SOL    HW115785   1.015   4.297   1.353
 4962SOL    HW215786   0.908   4.264   1.234
 4963SOL     OW15787   1.052   4.027   6.268
 4963SOL    HW115788   1.071   3.936   6.232
 4963SOL    HW215789   0.953   4.043   6.268
 4964SOL     OW15790   2.809   6.641   4.688
 4964SOL    HW115791   2.711   6.639   4.674
 4964SOL    HW215792   2.829   6.670   4.782
 4965SOL     OW15793   1.327   6.312   2.746
 4965SOL    HW115794   1.396   6.363   2.797
 4965SOL    HW215795   1.244   6.368   2.737
 4966SOL     OW15796   3.801   6.110   4.201
 4966SOL    HW115797   3.757   6.051   4.133
 4966SOL    HW215798   3.796   6.066   4.291
 4967SOL     OW15799   3.933   4.704   5.852
 4967SOL    HW115800   3.984   4.784   5.820
 4967SOL    HW215801   3.841   4.732   5.880
 4968SOL     OW15802   0.244   1.551   4.018
 4968SOL    HW115803   0.214   1.508   4.103
 4968SOL    HW215804   0.316   1.617   4.037
 4969SOL     OW15805   0.374   6.194   2.861
 4969SOL    HW115806   0.353   6.105   2.901
 4969SOL    HW215807   0.350   6.267   2.926
 4970SOL     OW15808   1.557   1.234   1.600
 4970SOL    HW115809   1.531   1.331   1.601
 4970SOL    HW215810   1.656   1.227   1.592
 4971SOL     OW15811   6.392   6.460   2.794
 4971SOL    HW115812   6.457   6.536   2.794
 4971SOL    HW215813   6.424   6.390   2.858
 4972SOL     OW15814   1.530   4.008   1.226
 4972SOL    HW115815   1.475   4.070   1.281
 4972SOL    HW215816   1.560   3.931   1.282
 4973SOL     OW15817   0.120   0.654   1.038
 4973SOL    HW115818   0.070   0.714   0.976
 4973SOL    HW215819   0.082   0.561   1.034
 4974SOL     OW15820   3.943   4.905   5.330
 4974SOL    HW115821   3.858   4.872   5.290
 4974SOL    HW215822   4.021   4.869   5.278
 4975SOL     OW15823   6.257   3.452   0.384
 4975SOL    HW115824   6.250   3.371   0.443
 4975SOL    HW215825   6.167   3.493   0.372
 4976SOL     OW15826   1.333   6.766   4.236
 4976SOL    HW115827   1.432   6.782   4.231
 4976SOL    HW215828   1.285   6.853   4.222
 4977SOL     OW15829   2.530   5.075   6.247
 4977SOL    HW115830   2.627   5.084   6.268
 4977SOL    HW215831   2.517   5.003   6.179
 4978SOL     OW15832   5.297   4.154   5.018
 4978SOL    HW115833   5.323   4.131   5.112
 4978SOL    HW215834   5.288   4.070   4.965
 4979SOL     OW15835   1.601   6.630   6.420
 4979SOL    HW115836   1.677   6.603   6.361
 4979SOL    HW215837   1.627   6.619   6.516
 4980SOL     OW15838   6.276   4.275   2.735
 4980SOL    HW115839   6.188   4.266   2.689
 4980SOL    HW215840   6.300   4.188   2.779
 4981SOL     OW15841   3.528   5.038   1.919
 4981SOL    HW115842   3.591   5.050   1.841
 4981SOL    HW215843   3.526   4.942   1.946
 4982SOL     OW15844   4.555   1.150   6.643
 4982SOL    HW115845   4.652   1.128   6.632
 4982SOL    HW215846   4.508   1.140   6.556
 4983SOL     OW15847   6.724   5.493   3.021
 4983SOL    HW115848   6.778   5.507   2.938
 4983SOL    HW215849   6.641   5.549   3.016
 4984SOL     OW15850   4.876   4.574   2.626
 4984SOL    HW115851   4.959   4.607   2.671
 4984SOL    HW215852   4.796   4.617   2.667
 4985SOL     OW15853   5.780   5.288   3.000
 4985SOL    HW115854   5.831   5.281   3.085
 4985SOL    HW215855   5.749   5.383   2.988
 4986SOL     OW15856   0.837   5.072   1.991
 4986SOL    HW115857   0.856   5.114   2.080
 4986SOL    HW215858   0.830   4.973   2.002
 4987SOL     OW15859   0.981   0.456   2.337
 4987SOL    HW115860   1.075   0.477   2.309
 4987SOL    HW215861   0.956   0.513   2.415
 4988SOL     OW15862   5.960   6.746   3.047
 4988SOL    HW115863   5.873   6.696   3.055
 4988SOL    HW215864   6.011   6.738   3.132
 4989SOL     OW15865   4.488   1.269   2.170
 4989SOL    HW115866   4.580   1.261   2.133
 4989SOL    HW215867   4.482   1.219   2.256
 4990SOL     OW15868   4.677   1.608   5.491
 4990SOL    HW115869   4.716   1.541   5.427
 4990SOL    HW215870   4.709   1.589   5.583
 4991SOL     OW15871   0.696   5.864   4.879
 4991SOL    HW115872   0.744   5.781   4.850
 4991SOL    HW215873   0.632   5.841   4.953
 4992SOL     OW15874   6.980   1.644   3.424
 4992SOL    HW115875   0.034   1.673   3.364
 4992SOL    HW215876   7.007   1.560   3.472
 4993SOL     OW15877   4.539   6.017   4.775
 4993SOL    HW115878   4.521   5.921   4.750
 4993SOL    HW215879   4.587   6.062   4.700
 4994SOL     OW15880   2.789   5.263   5.764
 4994SOL    HW115881   2.870   5.312   5.732
 4994SOL    HW215882   2.778   5.178   5.712
 4995SOL     OW15883   0.618   0.564   4.760
 4995SOL    HW115884   0.712   0.533   4.747
 4995SOL    HW215885   0.583   0.604   4.675
 4996SOL     OW15886   6.715   1.272   4.686
 4996SOL    HW115887   6.709   1.213   4.766
 4996SOL    HW215888   6.638   1.336   4.686
 4997SOL     OW15889   3.126   1.956   1.570
 4997SOL    HW115890   3.138   1.933   1.474
 4997SOL    HW215891   3.189   2.030   1.594
 4998SOL     OW15892   1.282   3.239   4.204
 4998SOL    HW115893   1.351   3.241   4.277
 4998SOL    HW215894   1.325   3.259   4.116
 4999SOL     OW15895   0.814   4.097   4.810
 4999SOL    HW115896   0.903   4.134   4.835
 4999SOL    HW215897   0.823   4.000   4.789
 5000SOL     OW15898   2.933   5.855   3.484
 5000SOL    HW115899   2.851   5.858   3.542
 5000SOL    HW215900   2.936   5.768   3.435
 5001SOL     OW15901   1.043   5.560   2.741
 5001SOL    HW115902   1.132   5.546   2.784
 5001SOL    HW215903   0.970   5.542   2.807
 5002SOL     OW15904   0.700   3.771   3.025
 5002SOL    HW115905   0.791   3.799   3.058
 5002SOL    HW215906   0.642   3.749   3.103
 5003SOL     OW15907   4.231   6.010   3.654
 5003SOL    HW115908   4.170   6.081   3.688
 5003SOL    HW215909   4.179   5.947   3.595
 5004SOL     OW15910   2.892   6.119   6.394
 5004SOL    HW115911   2.830   6.193   6.418
 5004SOL    HW215912   2.979   6.157   6.362
 5005SOL     OW15913   2.811   3.079   6.238
 5005SOL    HW115914   2.736   3.115   6.182
 5005SOL    HW215915   2.859   3.008   6.187
 5006SOL     OW15916   5.485   1.725   1.936
 5006SOL    HW115917   5.541   1.745   1.855
 5006SOL    HW215918   5.430   1.643   1.919
 5007SOL     OW15919   6.352   0.465   1.425
 5007SOL    HW115920   6.260   0.501   1.409
 5007SOL    HW215921   6.389   0.504   1.509
 5008SOL     OW15922   6.318   6.851   1.610
 5008SOL    HW115923   6.282   6.866   1.518
 5008SOL    HW215924   6.417   6.833   1.605
 5009SOL     OW15925   1.096   2.509   0.690
 5009SOL    HW115926   1.146   2.426   0.713
 5009SOL    HW215927   1.004   2.505   0.729
 5010SOL     OW15928   3.676   3.038   0.424
 5010SOL    HW115929   3.707   2.943   0.424
 5010SOL    HW215930   3.704   3.082   0.339
 5011SOL     OW15931   2.130   3.743   0.235
 5011SOL    HW115932   2.153   3.737   0.138
 5011SOL    HW215933   2.147   3.835   0.268
 5012SOL     OW15934   5.863   1.965   5.524
 5012SOL    HW115935   5.767   1.952   5.547
 5012SOL    HW215936   5.918   1.895   5.571
 5013SOL     OW15937   6.308   0.202   5.661
 5013SOL    HW115938   6.280   0.213   5.566
 5013SOL    HW215939   6.406   0.178   5.664
 5014SOL     OW15940   6.612   3.246   1.458
 5014SOL    HW115941   6.645   3.167   1.408
 5014SOL    HW215942   6.513   3.239   1.471
 5015SOL     OW15943   6.102   0.411   4.313
 5015SOL    HW115944   6.052   0.442   4.231
 5015SOL    HW215945   6.046   0.428   4.394
 5016SOL     OW15946   1.193   3.384   4.888
 5016SOL    HW115947   1.201   3.396   4.789
 5016SOL    HW215948   1.101   3.408   4.917
 5017SOL     OW15949   0.633   2.398   0.986
 5017SOL    HW115950   0.730   2.417   0.969
 5017SOL    HW215951   0.620   2.373   1.082
 5018SOL     OW15952   0.449   5.207   1.757
 5018SOL    HW115953   0.383   5.283   1.764
 5018SOL    HW215954   0.408   5.124   1.795
 5019SOL     OW15955   1.592   5.375   5.383
 5019SOL    HW115956   1.640   5.326   5.456
 5019SOL    HW215957   1.540   5.309   5.328
 5020SOL     OW15958   0.102   6.808   4.427
 5020SOL    HW115959   0.143   6.898   4.409
 5020SOL    HW215960   0.084   6.761   4.341
 5021SOL     OW15961   2.055   0.873   0.794
 5021SOL    HW115962   2.119   0.916   0.729
 5021SOL    HW215963   2.078   0.902   0.887
 5022SOL     OW15964   0.510   3.066   1.430
 5022SOL    HW115965   0.482   2.981   1.476
 5022SOL    HW215966   0.584   3.046   1.366
 5023SOL     OW15967   0.644   4.195   1.947
 5023SOL    HW115968   0.582   4.254   1.896
 5023SOL    HW215969   0.701   4.250   2.008
 5024SOL     OW15970   5.287   3.636   1.388
 5024SOL    HW115971   5.219   3.573   1.348
 5024SOL    HW215972   5.349   3.585   1.447
 5025SOL     OW15973   4.110   1.664   3.757
 5025SOL    HW115974   4.086   1.599   3.829
 5025SOL    HW215975   4.053   1.746   3.767
 5026SOL     OW15976   5.919   5.789   5.167
 5026SOL    HW115977   5.952   5.855   5.235
 5026SOL    HW215978   5.903   5.701   5.212
 5027SOL     OW15979   4.876   0.674   0.332
 5027SOL    HW115980   4.856   0.671   0.430
 5027SOL    HW215981   4.851   0.587   0.289
 5028SOL     OW15982   0.029   2.344   2.591
 5028SOL    HW115983   0.105   2.320   2.530
 5028SOL    HW215984   6.968   2.364   2.536
 5029SOL     OW15985   6.429   2.576   1.929
 5029SOL    HW115986   6.434   2.676   1.926
 5029SOL    HW215987   6.391   2.547   2.017
 5030SOL     OW15988   0.099   5.399   6.510
 5030SOL    HW115989   0.089   5.301   6.490
 5030SOL    HW215990   0.034   5.451   6.455
 5031SOL     OW15991   0.111   1.029   5.208
 5031SOL    HW115992   0.048   1.088   5.157
 5031SOL    HW215993   0.061   0.949   5.242
 5032SOL     OW15994   3.627   2.521   5.774
 5032SOL    HW115995   3.585   2.479   5.694
 5032SOL    HW215996   3.688   2.596   5.745
 5033SOL     OW15997   2.109   1.315   0.820
 5033SOL    HW115998   2.048   1.394   0.809
 5033SOL    HW215999   2.054   1.235   0.845
 5034SOL     OW16000   4.571   6.249   4.144
 5034SOL    HW116001   4.563   6.158   4.185
 5034SOL    HW216002   4.572   6.241   4.044
 5035SOL     OW16003   0.454   4.439   4.776
 5035SOL    HW116004   0.492   4.348   4.763
 5035SOL    HW216005   0.356   4.438   4.753
 5036SOL     OW16006   6.311   3.977   5.210
 5036SOL    HW116007   6.391   3.925   5.180
 5036SOL    HW216008   6.242   3.976   5.137
 5037SOL     OW16009   4.096   4.328   1.329
 5037SOL    HW116010   4.101   4.278   1.416
 5037SOL    HW216011   4.058   4.419   1.346
 5038SOL     OW16012   3.377   3.469   4.441
 5038SOL    HW116013   3.472   3.496   4.430
 5038SOL    HW216014   3.370   3.369   4.431
 5039SOL     OW16015   2.123   3.417   6.022
 5039SOL    HW116016   2.207   3.443   6.069
 5039SOL    HW216017   2.133   3.326   5.983
 5040SOL     OW16018   1.348   4.824   5.422
 5040SOL    HW116019   1.436   4.865   5.446
 5040SOL    HW216020   1.275   4.893   5.433
 5041SOL     OW16021   0.497   3.314   1.968
 5041SOL    HW116022   0.555   3.387   2.004
 5041SOL    HW216023   0.546   3.264   1.896
 5042SOL     OW16024   0.080   3.971   6.283
 5042SOL    HW116025   0.090   4.038   6.210
 5042SOL    HW216026   7.019   3.992   6.337
 5043SOL     OW16027   4.042   0.792   0.635
 5043SOL    HW116028   4.064   0.876   0.586
 5043SOL    HW216029   4.024   0.814   0.731
 5044SOL     OW16030   6.784   5.560   0.344
 5044SOL    HW116031   6.835   5.497   0.401
 5044SOL    HW216032   6.697   5.518   0.318
 5045SOL     OW16033   6.122   4.180   6.280
 5045SOL    HW116034   6.097   4.216   6.190
 5045SOL    HW216035   6.221   4.185   6.292
 5046SOL     OW16036   3.478   3.542   4.024
 5046SOL    HW116037   3.383   3.509   4.021
 5046SOL    HW216038   3.478   3.641   4.043
 5047SOL     OW16039   1.716   3.410   3.087
 5047SOL    HW116040   1.714   3.502   3.127
 5047SOL    HW216041   1.787   3.356   3.131
 5048SOL     OW16042   1.872   1.178   5.415
 5048SOL    HW116043   1.893   1.085   5.447
 5048SOL    HW216044   1.860   1.238   5.494
 5049SOL     OW16045   6.072   0.888   6.092
 5049SOL    HW116046   6.094   0.907   5.997
 5049SOL    HW216047   6.066   0.789   6.106
 5050SOL     OW16048   1.945   1.056   0.061
 5050SOL    HW116049   1.890   0.993   0.007
 5050SOL    HW216050   1.967   1.137   0.006
 5051SOL     OW16051   3.685   4.671   1.444
 5051SOL    HW116052   3.631   4.728   1.506
 5051SOL    HW216053   3.623   4.615   1.389
 5052SOL     OW16054   3.245   1.974   5.467
 5052SOL    HW116055   3.273   1.925   5.549
 5052SOL    HW216056   3.242   1.911   5.389
 5053SOL     OW16057   0.550   5.016   2.726
 5053SOL    HW116058   0.500   4.933   2.701
 5053SOL    HW216059   0.584   5.008   2.819
 5054SOL     OW16060   3.654   4.480   5.479
 5054SOL    HW116061   3.696   4.453   5.392
 5054SOL    HW216062   3.660   4.405   5.544
 5055SOL     OW16063   0.007   3.371   6.062
 5055SOL    HW116064   0.025   3.273   6.066
 5055SOL    HW216065   0.091   3.419   6.036
 5056SOL     OW16066   5.299   3.890   4.870
 5056SOL    HW116067   5.234   3.825   4.908
 5056SOL    HW216068   5.392   3.860   4.891
 5057SOL     OW16069   1.032   6.937   2.160
 5057SOL    HW116070   0.965   6.863   2.164
 5057SOL    HW216071   1.026   6.992   2.244
 5058SOL     OW16072   3.225   4.945   6.550
 5058SOL    HW116073   3.235   4.888   6.632
 5058SOL    HW216074   3.289   5.021   6.554
 5059SOL     OW16075   0.213   0.036   2.712
 5059SOL    HW116076   0.120   0.070   2.728
 5059SOL    HW216077   0.248   7.014   2.796
 5060SOL     OW16078   6.459   2.116   6.232
 5060SOL    HW116079   6.493   2.120   6.326
 5060SOL    HW216080   6.424   2.024   6.214
 5061SOL     OW16081   4.448   2.979   0.071
 5061SOL    HW116082   4.488   3.021   7.009
 5061SOL    HW216083   4.349   2.970   0.059
 5062SOL     OW16084   0.506   0.119   1.744
 5062SOL    HW116085   0.441   0.183   1.784
 5062SOL    HW216086   0.598   0.160   1.744
 5063SOL     OW16087   0.404   6.923   1.854
 5063SOL    HW116088   0.436   6.939   1.947
 5063SOL    HW216089   0.434   6.998   1.795
 5064SOL     OW16090   4.772   2.984   0.710
 5064SOL    HW116091   4.808   2.979   0.617
 5064SOL    HW216092   4.833   3.039   0.767
 5065SOL     OW16093   2.732   0.132   5.334
 5065SOL    HW116094   2.747   0.074   5.414
 5065SOL    HW216095   2.751   0.080   5.251
 5066SOL     OW16096   5.580   3.997   1.499
 5066SOL    HW116097   5.488   3.969   1.474
 5066SOL    HW216098   5.587   4.003   1.599
 5067SOL     OW16099   5.310   1.195   6.963
 5067SOL    HW116100   5.383   1.171   6.899
 5067SOL    HW216101   5.347   1.251   0.017
 5068SOL     OW16102   3.093   4.569   0.643
 5068SOL    HW116103   3.056   4.480   0.667
 5068SOL    HW216104   3.026   4.640   0.667
 5069SOL     OW16105   1.034   4.344   2.949
 5069SOL    HW116106   1.058   4.306   2.860
 5069SOL    HW216107   0.954   4.404   2.940
 5070SOL     OW16108   4.868   3.408   4.268
 5070SOL    HW116109   4.818   3.456   4.340
 5070SOL    HW216110   4.900   3.475   4.200
 5071SOL     OW16111   4.186   2.029   5.097
 5071SOL    HW116112   4.237   1.970   5.160
 5071SOL    HW216113   4.126   2.090   5.149
 5072SOL     OW16114   0.018   4.753   0.975
 5072SOL    HW116115   6.981   4.771   1.056
 5072SOL    HW216116   6.980   4.751   0.894
 5073SOL     OW16117   6.509   0.116   1.925
 5073SOL    HW116118   6.432   0.166   1.963
 5073SOL    HW216119   6.509   0.023   1.959
 5074SOL     OW16120   2.988   4.107   6.769
 5074SOL    HW116121   2.992   4.080   6.865
 5074SOL    HW216122   3.076   4.088   6.726
 5075SOL     OW16123   0.094   6.526   5.548
 5075SOL    HW116124   0.009   6.580   5.545
 5075SOL    HW216125   0.163   6.570   5.491
 5076SOL     OW16126   3.315   0.403   0.528
 5076SOL    HW116127   3.329   0.305   0.514
 5076SOL    HW216128   3.363   0.432   0.611
 5077SOL     OW16129   1.294   2.616   3.840
 5077SOL    HW116130   1.377   2.666   3.865
 5077SOL    HW216131   1.308   2.572   3.751
 5078SOL     OW16132   1.506   1.751   4.440
 5078SOL    HW116133   1.591   1.790   4.474
 5078SOL    HW216134   1.429   1.802   4.477
 5079SOL     OW16135   3.193   5.064   5.867
 5079SOL    HW116136   3.279   5.015   5.877
 5079SOL    HW216137   3.204   5.138   5.800
 5080SOL     OW16138   5.691   6.603   5.228
 5080SOL    HW116139   5.604   6.649   5.244
 5080SOL    HW216140   5.684   6.548   5.144
 5081SOL     OW16141   3.351   3.477   3.457
 5081SOL    HW116142   3.372   3.484   3.360
 5081SOL    HW216143   3.358   3.568   3.499
 5082SOL     OW16144   5.206   5.845   5.820
 5082SOL    HW116145   5.159   5.765   5.781
 5082SOL    HW216146   5.172   5.928   5.776
 5083SOL     OW16147   1.599   6.673   2.071
 5083SOL    HW116148   1.557   6.616   1.999
 5083SOL    HW216149   1.695   6.648   2.081
 5084SOL     OW16150   1.204   5.217   3.732
 5084SOL    HW116151   1.105   5.221   3.736
 5084SOL    HW216152   1.243   5.298   3.776
 5085SOL     OW16153   5.653   1.281   6.746
 5085SOL    HW116154   5.749   1.302   6.726
 5085SOL    HW216155   5.598   1.294   6.664
 5086SOL     OW16156   6.417   4.783   3.593
 5086SOL    HW116157   6.424   4.874   3.634
 5086SOL    HW216158   6.490   4.725   3.629
 5087SOL     OW16159   6.701   5.670   4.683
 5087SOL    HW116160   6.635   5.655   4.755
 5087SOL    HW216161   6.691   5.763   4.648
 5088SOL     OW16162   6.366   0.675   5.773
 5088SOL    HW116163   6.283   0.684   5.829
 5088SOL    HW216164   6.411   0.764   5.764
 5089SOL     OW16165   6.280   2.990   2.707
 5089SOL    HW116166   6.370   2.955   2.680
 5089SOL    HW216167   6.254   3.065   2.645
 5090SOL     OW16168   2.315   4.955   1.167
 5090SOL    HW116169   2.278   5.009   1.242
 5090SOL    HW216170   2.298   4.858   1.183
 5091SOL     OW16171   1.234   6.067   2.642
 5091SOL    HW116172   1.204   6.098   2.552
 5091SOL    HW216173   1.293   6.137   2.683
 5092SOL     OW16174   3.319   2.073   0.786
 5092SOL    HW116175   3.411   2.110   0.775
 5092SOL    HW216176   3.273   2.071   0.697
 5093SOL     OW16177   1.286   1.730   2.121
 5093SOL    HW116178   1.310   1.774   2.035
 5093SOL    HW216179   1.305   1.632   2.116
 5094SOL     OW16180   0.830   6.276   5.135
 5094SOL    HW116181   0.925   6.307   5.124
 5094SOL    HW216182   0.810   6.205   5.068
 5095SOL     OW16183   1.929   0.408   4.930
 5095SOL    HW116184   2.002   0.341   4.931
 5095SOL    HW216185   1.853   0.374   4.875
 5096SOL     OW16186   5.070   3.549   0.909
 5096SOL    HW116187   4.987   3.601   0.927
 5096SOL    HW216188   5.118   3.588   0.830
 5097SOL     OW16189   1.794   6.912   5.795
 5097SOL    HW116190   1.883   6.945   5.826
 5097SOL    HW216191   1.721   6.956   5.849
 5098SOL     OW16192   0.573   1.404   2.392
 5098SOL    HW116193   0.495   1.466   2.397
 5098SOL    HW216194   0.564   1.333   2.461
 5099SOL     OW16195   1.048   0.210   5.188
 5099SOL    HW116196   1.049   0.264   5.273
 5099SOL    HW216197   1.040   0.113   5.210
 5100SOL     OW16198   5.852   6.312   6.886
 5100SOL    HW116199   5.760   6.350   6.901
 5100SOL    HW216200   5.920   6.384   6.897
 5101SOL     OW16201   4.410   6.436   6.960
 5101SOL    HW116202   4.384   6.531   6.975
 5101SOL    HW216203   4.505   6.432   6.929
 5102SOL     OW16204   4.861   0.650   5.422
 5102SOL    HW116205   4.948   0.683   5.459
 5102SOL    HW216206   4.786   0.682   5.479
 5103SOL     OW16207   0.425   0.820   4.195
 5103SOL    HW116208   0.501   0.764   4.161
 5103SOL    HW216209   0.451   0.917   4.191
 5104SOL     OW16210   1.693   0.990   1.789
 5104SOL    HW116211   1.729   1.063   1.731
 5104SOL    HW216212   1.694   1.019   1.885
 5105SOL     OW16213   3.808   4.021   6.607
 5105SOL    HW116214   3.906   4.011   6.625
 5105SOL    HW216215   3.794   4.050   6.513
 5106SOL     OW16216   3.241   0.286   2.692
 5106SOL    HW116217   3.189   0.358   2.647
 5106SOL    HW216218   3.201   0.266   2.781
 5107SOL     OW16219   2.778   6.979   6.324
 5107SOL    HW116220   2.832   0.028   6.276
 5107SOL    HW216221   2.689   7.016   6.349
 5108SOL     OW16222   2.921   3.572   3.964
 5108SOL    HW116223   2.857   3.598   3.892
 5108SOL    HW216224   2.954   3.654   4.011
 5109SOL     OW16225   0.651   0.867   1.103
 5109SOL    HW116226   0.710   0.945   1.083
 5109SOL    HW216227   0.704   0.795   1.147
 5110SOL     OW16228   1.620   6.314   5.367
 5110SOL    HW116229   1.674   6.330   5.284
 5110SOL    HW216230   1.523   6.309   5.342
 5111SOL     OW16231   1.603   1.150   6.584
 5111SOL    HW116232   1.649   1.153   6.495
 5111SOL    HW216233   1.523   1.210   6.582
 5112SOL     OW16234   0.512   6.117   3.913
 5112SOL    HW116235   0.425   6.166   3.928
 5112SOL    HW216236   0.501   6.021   3.938
 5113SOL     OW16237   1.319   0.392   0.083
 5113SOL    HW116238   1.377   0.467   0.114
 5113SOL    HW216239   1.359   0.350   0.002
 5114SOL     OW16240   3.452   4.942   6.923
 5114SOL    HW116241   3.544   4.916   6.897
 5114SOL    HW216242   3.398   4.861   6.943
 5115SOL     OW16243   1.450   3.702   5.867
 5115SOL    HW116244   1.448   3.673   5.962
 5115SOL    HW216245   1.357   3.713   5.833
 5116SOL     OW16246   5.925   4.825   0.294
 5116SOL    HW116247   5.827   4.809   0.278
 5116SOL    HW216248   5.977   4.799   0.212
 5117SOL     OW16249   2.480   4.484   4.612
 5117SOL    HW116250   2.420   4.561   4.590
 5117SOL    HW216251   2.542   4.467   4.535
 5118SOL     OW16252   4.145   5.916   0.021
 5118SOL    HW116253   4.161   5.888   6.946
 5118SOL    HW216254   4.191   6.003   0.038
 5119SOL     OW16255   5.820   0.762   2.157
 5119SOL    HW116256   5.885   0.835   2.141
 5119SOL    HW216257   5.868   0.674   2.162
 5120SOL     OW16258   5.218   1.334   2.525
 5120SOL    HW116259   5.243   1.239   2.542
 5120SOL    HW216260   5.127   1.338   2.484
 5121SOL     OW16261   0.278   3.433   5.644
 5121SOL    HW116262   0.309   3.476   5.729
 5121SOL    HW216263   0.253   3.504   5.578
 5122SOL     OW16264   2.063   0.102   3.389
 5122SOL    HW116265   2.087   0.134   3.297
 5122SOL    HW216266   2.146   0.091   3.443
 5123SOL     OW16267   4.575   4.313   2.781
 5123SOL    HW116268   4.606   4.219   2.796
 5123SOL    HW216269   4.642   4.377   2.819
 5124SOL     OW16270   3.194   6.648   0.087
 5124SOL    HW116271   3.260   6.575   0.069
 5124SOL    HW216272   3.159   6.639   0.180
 5125SOL     OW16273   0.063   3.268   4.158
 5125SOL    HW116274   0.100   3.197   4.219
 5125SOL    HW216275   0.116   3.268   4.073
 5126SOL     OW16276   6.108   4.886   5.932
 5126SOL    HW116277   6.055   4.869   6.014
 5126SOL    HW216278   6.192   4.831   5.934
 5127SOL     OW16279   5.242   3.211   6.927
 5127SOL    HW116280   5.215   3.144   6.996
 5127SOL    HW216281   5.300   3.281   6.970
 5128SOL     OW16282   0.379   0.905   6.566
 5128SOL    HW116283   0.468   0.950   6.555
 5128SOL    HW216284   0.324   0.956   6.633
 5129SOL     OW16285   4.456   1.522   2.086
 5129SOL    HW116286   4.524   1.543   2.016
 5129SOL    HW216287   4.471   1.429   2.121
 5130SOL     OW16288   1.158   5.070   4.069
 5130SOL    HW116289   1.146   5.027   3.980
 5130SOL    HW216290   1.232   5.137   4.064
 5131SOL     OW16291   3.084   4.964   3.159
 5131SOL    HW116292   3.163   5.004   3.114
 5131SOL    HW216293   3.042   4.896   3.099
 5132SOL     OW16294   3.630   1.607   0.006
 5132SOL    HW116295   3.638   1.515   6.987
 5132SOL    HW216296   3.548   1.612   0.063
 5133SOL     OW16297   4.131   4.618   6.429
 5133SOL    HW116298   4.216   4.573   6.457
 5133SOL    HW216299   4.118   4.701   6.484
 5134SOL     OW16300   6.546   6.429   1.520
 5134SOL    HW116301   6.491   6.512   1.514
 5134SOL    HW216302   6.490   6.350   1.495
 5135SOL     OW16303   6.127   3.173   1.923
 5135SOL    HW116304   6.059   3.235   1.961
 5135SOL    HW216305   6.181   3.133   1.997
 5136SOL     OW16306   0.642   0.816   5.798
 5136SOL    HW116307   0.683   0.731   5.765
 5136SOL    HW216308   0.551   0.796   5.836
 5137SOL     OW16309   5.403   1.620   5.440
 5137SOL    HW116310   5.387   1.691   5.372
 5137SOL    HW216311   5.500   1.598   5.443
 5138SOL     OW16312   3.410   3.187   4.419
 5138SOL    HW116313   3.427   3.128   4.340
 5138SOL    HW216314   3.457   3.150   4.499
 5139SOL     OW16315   1.445   0.330   4.763
 5139SOL    HW116316   1.408   0.372   4.680
 5139SOL    HW216317   1.427   0.231   4.760
 5140SOL     OW16318   4.464   2.243   6.212
 5140SOL    HW116319   4.484   2.200   6.300
 5140SOL    HW216320   4.405   2.323   6.227
 5141SOL     OW16321   6.565   3.018   1.884
 5141SOL    HW116322   6.589   3.082   1.811
 5141SOL    HW216323   6.644   2.961   1.905
 5142SOL     OW16324   6.737   0.356   3.081
 5142SOL    HW116325   6.637   0.351   3.078
 5142SOL    HW216326   6.774   0.319   2.996
 5143SOL     OW16327   0.354   5.089   4.297
 5143SOL    HW116328   0.302   5.072   4.213
 5143SOL    HW216329   0.443   5.044   4.290
 5144SOL     OW16330   1.961   3.617   6.093
 5144SOL    HW116331   1.992   3.702   6.050
 5144SOL    HW216332   2.020   3.542   6.066
 5145SOL     OW16333   2.869   6.367   7.015
 5145SOL    HW116334   2.859   6.464   6.994
 5145SOL    HW216335   2.965   6.348   0.017
 5146SOL     OW16336   5.412   4.890   5.872
 5146SOL    HW116337   5.467   4.860   5.793
 5146SOL    HW216338   5.454   4.857   5.956
 5147SOL     OW16339   4.668   2.635   3.444
 5147SOL    HW116340   4.660   2.699   3.521
 5147SOL    HW216341   4.584   2.580   3.438
 5148SOL     OW16342   0.429   6.834   1.412
 5148SOL    HW116343   0.416   6.926   1.452
 5148SOL    HW216344   0.460   6.771   1.484
 5149SOL     OW16345   5.593   4.298   3.131
 5149SOL    HW116346   5.614   4.396   3.128
 5149SOL    HW216347   5.601   4.260   3.039
 5150SOL     OW16348   0.840   5.596   4.207
 5150SOL    HW116349   0.892   5.526   4.158
 5150SOL    HW216350   0.859   5.589   4.305
 5151SOL     OW16351   5.904   4.776   1.605
 5151SOL    HW116352   5.898   4.805   1.510
 5151SOL    HW216353   5.940   4.851   1.661
 5152SOL     OW16354   1.139   1.061   6.216
 5152SOL    HW116355   1.230   1.054   6.256
 5152SOL    HW216356   1.146   1.069   6.116
 5153SOL     OW16357   1.118   1.653   0.975
 5153SOL    HW116358   1.152   1.656   0.881
 5153SOL    HW216359   1.020   1.674   0.975
 5154SOL     OW16360   0.214   2.519   6.630
 5154SOL    HW116361   0.223   2.478   6.721
 5154SOL    HW216362   0.168   2.607   6.638
 5155SOL     OW16363   1.798   1.361   0.620
 5155SOL    HW116364   1.749   1.299   0.682
 5155SOL    HW216365   1.852   1.426   0.673
 5156SOL     OW16366   5.434   5.082   5.575
 5156SOL    HW116367   5.396   5.092   5.483
 5156SOL    HW216368   5.442   5.172   5.617
 5157SOL     OW16369   4.311   0.301   1.961
 5157SOL    HW116370   4.260   0.235   2.016
 5157SOL    HW216371   4.370   0.252   1.896
 5158SOL     OW16372   3.015   1.628   2.599
 5158SOL    HW116373   3.078   1.634   2.522
 5158SOL    HW216374   3.067   1.621   2.684
 5159SOL     OW16375   6.210   2.992   5.664
 5159SOL    HW116376   6.138   3.049   5.625
 5159SOL    HW216377   6.214   2.905   5.615
 5160SOL     OW16378   6.808   6.372   3.287
 5160SOL    HW116379   6.864   6.425   3.352
 5160SOL    HW216380   6.756   6.303   3.336
 5161SOL     OW16381   0.910   3.182   0.445
 5161SOL    HW116382   0.836   3.171   0.512
 5161SOL    HW216383   0.971   3.104   0.448
 5162SOL     OW16384   6.874   6.588   2.846
 5162SOL    HW116385   6.916   6.505   2.883
 5162SOL    HW216386   6.946   6.650   2.813
 5163SOL     OW16387   3.149   6.955   2.420
 5163SOL    HW116388   3.202   6.942   2.504
 5163SOL    HW216389   3.063   6.904   2.427
 5164SOL     OW16390   3.118   3.665   0.858
 5164SOL    HW116391   3.039   3.630   0.807
 5164SOL    HW216392   3.092   3.677   0.954
 5165SOL     OW16393   1.344   4.728   6.954
 5165SOL    HW116394   1.275   4.666   6.915
 5165SOL    HW216395   1.433   4.708   6.914
 5166SOL     OW16396   1.480   5.722   1.597
 5166SOL    HW116397   1.393   5.750   1.555
 5166SOL    HW216398   1.484   5.622   1.599
 5167SOL     OW16399   4.799   2.370   4.859
 5167SOL    HW116400   4.892   2.357   4.824
 5167SOL    HW216401   4.778   2.468   4.864
 5168SOL     OW16402   4.316   2.149   2.318
 5168SOL    HW116403   4.328   2.243   2.348
 5168SOL    HW216404   4.220   2.123   2.330
 5169SOL     OW16405   3.967   7.013   3.362
 5169SOL    HW116406   3.972   6.925   3.316
 5169SOL    HW216407   4.030   7.014   3.440
 5170SOL     OW16408   0.944   3.102   6.153
 5170SOL    HW116409   0.991   3.161   6.219
 5170SOL    HW216410   0.869   3.054   6.198
 5171SOL     OW16411   2.109   5.822   5.046
 5171SOL    HW116412   2.135   5.906   5.092
 5171SOL    HW216413   2.080   5.842   4.953
 5172SOL     OW16414   0.088   5.394   3.348
 5172SOL    HW116415   0.182   5.420   3.371
 5172SOL    HW216416   0.034   5.477   3.333
 5173SOL     OW16417   4.884   3.880   5.727
 5173SOL    HW116418   4.823   3.861   5.650
 5173SOL    HW216419   4.847   3.838   5.809
 5174SOL     OW16420   2.824   6.415   3.316
 5174SOL    HW116421   2.818   6.382   3.222
 5174SOL    HW216422   2.830   6.336   3.378
 5175SOL     OW16423   2.681   4.354   6.867
 5175SOL    HW116424   2.701   4.448   6.896
 5175SOL    HW216425   2.749   4.324   6.801
 5176SOL     OW16426   5.576   5.529   0.557
 5176SOL    HW116427   5.506   5.594   0.528
 5176SOL    HW216428   5.613   5.481   0.477
 5177SOL     OW16429   5.083   0.871   6.929
 5177SOL    HW116430   5.085   0.870   0.009
 5177SOL    HW216431   5.015   0.805   6.896
 5178SOL     OW16432   1.223   3.912   1.902
 5178SOL    HW116433   1.309   3.947   1.865
 5178SOL    HW216434   1.175   3.860   1.832
 5179SOL     OW16435   6.339   4.428   2.954
 5179SOL    HW116436   6.312   4.355   2.890
 5179SOL    HW216437   6.289   4.417   3.040
 5180SOL     OW16438   2.152   0.154   2.120
 5180SOL    HW116439   2.228   0.143   2.055
 5180SOL    HW216440   2.120   0.063   2.149
 5181SOL     OW16441   0.781   0.151   5.873
 5181SOL    HW116442   0.838   0.086   5.922
 5181SOL    HW216443   0.689   0.114   5.864
 5182SOL     OW16444   3.995   5.452   3.289
 5182SOL    HW116445   4.009   5.371   3.231
 5182SOL    HW216446   3.911   5.441   3.341
 5183SOL     OW16447   4.377   1.717   3.693
 5183SOL    HW116448   4.289   1.679   3.722
 5183SOL    HW216449   4.419   1.765   3.770
 5184SOL     OW16450   2.562   1.016   4.099
 5184SOL    HW116451   2.563   1.116   4.099
 5184SOL    HW216452   2.519   0.984   4.184
 5185SOL     OW16453   6.267   1.135   1.859
 5185SOL    HW116454   6.316   1.051   1.835
 5185SOL    HW216455   6.333   1.206   1.881
 5186SOL     OW16456   6.765   3.358   5.977
 5186SOL    HW116457   6.864   3.369   5.990
 5186SOL    HW216458   6.717   3.397   6.055
 5187SOL     OW16459   1.983   5.165   5.213
 5187SOL    HW116460   1.920   5.147   5.138
 5187SOL    HW216461   1.952   5.244   5.266
 5188SOL     OW16462   6.461   6.937   2.300
 5188SOL    HW116463   6.497   6.866   2.240
 5188SOL    HW216464   6.504   0.005   2.278
 5189SOL     OW16465   5.094   0.395   6.255
 5189SOL    HW116466   5.184   0.423   6.289
 5189SOL    HW216467   5.041   0.476   6.228
 5190SOL     OW16468   1.637   3.725   1.317
 5190SOL    HW116469   1.543   3.695   1.334
 5190SOL    HW216470   1.692   3.647   1.286
 5191SOL     OW16471   3.317   5.192   2.268
 5191SOL    HW116472   3.262   5.221   2.347
 5191SOL    HW216473   3.355   5.101   2.286
 5192SOL     OW16474   2.369   4.966   2.330
 5192SOL    HW116475   2.311   5.048   2.329
 5192SOL    HW216476   2.458   4.988   2.288
 5193SOL     OW16477   6.142   0.725   6.664
 5193SOL    HW116478   6.119   0.743   6.568
 5193SOL    HW216479   6.175   0.631   6.673
 5194SOL     OW16480   4.520   2.351   6.637
 5194SOL    HW116481   4.588   2.392   6.575
 5194SOL    HW216482   4.498   2.416   6.710
 5195SOL     OW16483   6.746   0.794   4.631
 5195SOL    HW116484   6.830   0.795   4.576
 5195SOL    HW216485   6.741   0.708   4.681
 5196SOL     OW16486   5.423   6.143   2.770
 5196SOL    HW116487   5.418   6.118   2.866
 5196SOL    HW216488   5.490   6.217   2.758
 5197SOL     OW16489   1.034   4.196   6.028
 5197SOL    HW116490   1.078   4.159   5.947
 5197SOL    HW216491   1.089   4.175   6.109
 5198SOL     OW16492   5.262   5.228   2.407
 5198SOL    HW116493   5.348   5.186   2.436
 5198SOL    HW216494   5.236   5.193   2.317
 5199SOL     OW16495   6.562   4.883   1.060
 5199SOL    HW116496   6.565   4.858   1.157
 5199SOL    HW216497   6.471   4.864   1.023
 5200SOL     OW16498   0.264   3.615   5.428
 5200SOL    HW116499   0.343   3.648   5.376
 5200SOL    HW216500   0.246   3.678   5.504
 5201SOL     OW16501   1.698   5.367   4.057
 5201SOL    HW116502   1.711   5.371   4.156
 5201SOL    HW216503   1.697   5.460   4.020
 5202SOL     OW16504   6.764   3.909   0.353
 5202SOL    HW116505   6.722   3.994   0.384
 5202SOL    HW216506   6.721   3.880   0.267
 5203SOL     OW16507   0.801   2.459   6.546
 5203SOL    HW116508   0.874   2.429   6.485
 5203SOL    HW216509   0.817   2.554   6.573
 5204SOL     OW16510   4.192   5.028   0.337
 5204SOL    HW116511   4.109   4.982   0.305
 5204SOL    HW216512   4.271   4.991   0.289
 5205SOL     OW16513   1.965   0.355   1.851
 5205SOL    HW116514   2.013   0.437   1.823
 5205SOL    HW216515   1.869   0.361   1.824
 5206SOL     OW16516   0.666   4.323   6.777
 5206SOL    HW116517   0.584   4.278   6.742
 5206SOL    HW216518   0.747   4.275   6.745
 5207SOL     OW16519   1.356   5.416   4.261
 5207SOL    HW116520   1.390   5.328   4.227
 5207SOL    HW216521   1.427   5.462   4.314
 5208SOL     OW16522   3.592   0.872   0.334
 5208SOL    HW116523   3.680   0.904   0.368
 5208SOL    HW216524   3.606   0.790   0.278
 5209SOL     OW16525   5.973   5.936   3.480
 5209SOL    HW116526   6.023   6.020   3.503
 5209SOL    HW216527   5.907   5.916   3.552
 5210SOL     OW16528   5.016   4.429   3.921
 5210SOL    HW116529   4.984   4.493   3.851
 5210SOL    HW216530   4.938   4.396   3.974
 5211SOL     OW16531   3.448   3.129   3.779
 5211SOL    HW116532   3.414   3.199   3.715
 5211SOL    HW216533   3.542   3.152   3.805
 5212SOL     OW16534   0.564   2.154   0.863
 5212SOL    HW116535   0.661   2.133   0.869
 5212SOL    HW216536   0.543   2.230   0.925
 5213SOL     OW16537   5.079   2.722   5.782
 5213SOL    HW116538   5.019   2.643   5.799
 5213SOL    HW216539   5.079   2.744   5.685
 5214SOL     OW16540   5.599   1.769   5.633
 5214SOL    HW116541   5.584   1.852   5.580
 5214SOL    HW216542   5.512   1.728   5.657
 5215SOL     OW16543   4.851   4.816   3.187
 5215SOL    HW116544   4.900   4.847   3.106
 5215SOL    HW216545   4.829   4.894   3.246
 5216SOL     OW16546   5.098   5.033   0.883
 5216SOL    HW116547   5.144   4.995   0.963
 5216SOL    HW216548   5.022   4.973   0.856
 5217SOL     OW16549   3.195   5.252   3.925
 5217SOL    HW116550   3.174   5.289   4.015
 5217SOL    HW216551   3.137   5.295   3.856
 5218SOL     OW16552   1.406   6.441   3.547
 5218SOL    HW116553   1.471   6.456   3.473
 5218SOL    HW216554   1.373   6.529   3.581
 5219SOL     OW16555   3.464   6.919   6.548
 5219SOL    HW116556   3.448   6.824   6.573
 5219SOL    HW216557   3.379   6.971   6.557
 5220SOL     OW16558   0.293   6.094   2.431
 5220SOL    HW116559   0.350   6.133   2.359
 5220SOL    HW216560   0.347   6.083   2.514
 5221SOL     OW16561   5.717   1.061   4.445
 5221SOL    HW116562   5.712   1.123   4.523
 5221SOL    HW216563   5.648   1.088   4.378
 5222SOL     OW16564   1.757   0.388   3.451
 5222SOL    HW116565   1.818   0.443   3.393
 5222SOL    HW216566   1.746   0.297   3.411
 5223SOL     OW16567   5.246   0.871   1.419
 5223SOL    HW116568   5.332   0.923   1.417
 5223SOL    HW216569   5.225   0.845   1.513
 5224SOL     OW16570   6.499   1.923   2.695
 5224SOL    HW116571   6.569   1.979   2.739
 5224SOL    HW216572   6.444   1.981   2.634
 5225SOL     OW16573   6.097   6.075   4.092
 5225SOL    HW116574   6.007   6.043   4.064
 5225SOL    HW216575   6.091   6.171   4.118
 5226SOL     OW16576   0.617   6.410   3.924
 5226SOL    HW116577   0.676   6.330   3.933
 5226SOL    HW216578   0.523   6.381   3.909
 5227SOL     OW16579   6.285   4.814   3.240
 5227SOL    HW116580   6.262   4.886   3.175
 5227SOL    HW216581   6.366   4.765   3.208
 5228SOL     OW16582   5.591   1.551   0.700
 5228SOL    HW116583   5.658   1.477   0.712
 5228SOL    HW216584   5.502   1.512   0.676
 5229SOL     OW16585   1.418   3.720   6.192
 5229SOL    HW116586   1.453   3.646   6.250
 5229SOL    HW216587   1.466   3.805   6.215
 5230SOL     OW16588   0.450   0.338   0.496
 5230SOL    HW116589   0.494   0.301   0.577
 5230SOL    HW216590   0.467   0.436   0.490
 5231SOL     OW16591   3.945   3.073   4.086
 5231SOL    HW116592   3.962   3.010   4.011
 5231SOL    HW216593   3.860   3.048   4.132
 5232SOL     OW16594   4.563   2.219   0.095
 5232SOL    HW116595   4.465   2.239   0.097
 5232SOL    HW216596   4.589   2.170   0.178
 5233SOL     OW16597   6.898   5.978   1.953
 5233SOL    HW116598   6.920   6.076   1.959
 5233SOL    HW216599   6.978   5.928   1.921
 5234SOL     OW16600   3.365   6.665   0.533
 5234SOL    HW116601   3.421   6.615   0.599
 5234SOL    HW216602   3.421   6.689   0.453
 5235SOL     OW16603   1.820   3.493   0.783
 5235SOL    HW116604   1.848   3.509   0.688
 5235SOL    HW216605   1.871   3.415   0.820
 5236SOL     OW16606   5.111   3.518   1.213
 5236SOL    HW116607   5.090   3.423   1.235
 5236SOL    HW216608   5.112   3.529   1.113
 5237SOL     OW16609   2.434   1.925   5.294
 5237SOL    HW116610   2.380   1.974   5.225
 5237SOL    HW216611   2.390   1.934   5.383
 5238SOL     OW16612   1.733   5.265   0.685
 5238SOL    HW116613   1.713   5.168   0.699
 5238SOL    HW216614   1.770   5.304   0.769
 5239SOL     OW16615   3.221   2.984   4.090
 5239SOL    HW116616   3.148   3.002   4.156
 5239SOL    HW216617   3.188   3.006   3.998
 5240SOL     OW16618   3.309   2.155   5.262
 5240SOL    HW116619   3.248   2.086   5.302
 5240SOL    HW216620   3.255   2.231   5.226
 5241SOL     OW16621   1.070   6.255   6.249
 5241SOL    HW116622   1.126   6.245   6.331
 5241SOL    HW216623   1.038   6.165   6.219
 5242SOL     OW16624   5.892   1.112   5.819
 5242SOL    HW116625   5.869   1.208   5.801
 5242SOL    HW216626   5.824   1.072   5.879
 5243SOL     OW16627   1.004   5.754   1.022
 5243SOL    HW116628   0.981   5.712   0.934
 5243SOL    HW216629   1.097   5.727   1.048
 5244SOL     OW16630   4.271   4.327   5.731
 5244SOL    HW116631   4.224   4.367   5.809
 5244SOL    HW216632   4.208   4.322   5.653
 5245SOL     OW16633   4.160   3.965   6.389
 5245SOL    HW116634   4.130   4.027   6.317
 5245SOL    HW216635   4.134   3.871   6.367
 5246SOL     OW16636   0.809   3.277   2.712
 5246SOL    HW116637   0.816   3.241   2.619
 5246SOL    HW216638   0.714   3.271   2.743
 5247SOL     OW16639   0.279   5.198   0.750
 5247SOL    HW116640   0.212   5.125   0.760
 5247SOL    HW216641   0.266   5.266   0.822
 5248SOL     OW16642   5.449   1.012   6.091
 5248SOL    HW116643   5.377   0.999   6.160
 5248SOL    HW216644   5.447   1.107   6.059
 5249SOL     OW16645   0.758   4.831   5.193
 5249SOL    HW116646   0.762   4.910   5.131
 5249SOL    HW216647   0.845   4.781   5.189
 5250SOL     OW16648   0.168   2.090   5.756
 5250SOL    HW116649   0.249   2.098   5.813
 5250SOL    HW216650   0.193   2.048   5.668
 5251SOL     OW16651   6.537   3.495   1.380
 5251SOL    HW116652   6.468   3.486   1.308
 5251SOL    HW216653   6.568   3.404   1.408
 5252SOL     OW16654   3.257   6.456   1.240
 5252SOL    HW116655   3.321   6.524   1.276
 5252SOL    HW216656   3.304   6.399   1.173
 5253SOL     OW16657   5.643   3.641   4.529
 5253SOL    HW116658   5.554   3.595   4.528
 5253SOL    HW216659   5.712   3.580   4.490
 5254SOL     OW16660   4.360   1.334   4.285
 5254SOL    HW116661   4.270   1.370   4.261
 5254SOL    HW216662   4.430   1.380   4.231
 5255SOL     OW16663   3.158   6.717   5.115
 5255SOL    HW116664   3.169   6.809   5.152
 5255SOL    HW216665   3.248   6.676   5.101
 5256SOL     OW16666   4.965   0.783   3.730
 5256SOL    HW116667   4.988   0.807   3.824
 5256SOL    HW216668   4.984   0.861   3.670
 5257SOL     OW16669   3.895   6.655   0.278
 5257SOL    HW116670   3.823   6.723   0.292
 5257SOL    HW216671   3.857   6.563   0.284
 5258SOL     OW16672   4.883   4.296   2.633
 5258SOL    HW116673   4.819   4.249   2.695
 5258SOL    HW216674   4.854   4.391   2.622
 5259SOL     OW16675   4.479   6.436   2.631
 5259SOL    HW116676   4.569   6.476   2.649
 5259SOL    HW216677   4.489   6.338   2.613
 5260SOL     OW16678   6.055   3.407   0.968
 5260SOL    HW116679   5.993   3.334   0.940
 5260SOL    HW216680   6.008   3.467   1.033
 5261SOL     OW16681   0.194   2.921   4.616
 5261SOL    HW116682   0.251   2.990   4.660
 5261SOL    HW216683   0.202   2.929   4.517
 5262SOL     OW16684   2.693   6.737   2.294
 5262SOL    HW116685   2.597   6.761   2.305
 5262SOL    HW216686   2.709   6.711   2.199
 5263SOL     OW16687   1.621   0.026   5.945
 5263SOL    HW116688   1.562   0.048   6.022
 5263SOL    HW216689   1.652   0.110   5.900
 5264SOL     OW16690   6.609   1.610   1.537
 5264SOL    HW116691   6.588   1.620   1.440
 5264SOL    HW216692   6.582   1.693   1.586
 5265SOL     OW16693   5.372   4.657   2.224
 5265SOL    HW116694   5.456   4.704   2.251
 5265SOL    HW216695   5.303   4.665   2.296
 5266SOL     OW16696   1.130   6.442   1.995
 5266SOL    HW116697   1.035   6.444   2.026
 5266SOL    HW216698   1.132   6.459   1.896
 5267SOL     OW16699   4.727   5.272   5.421
 5267SOL    HW116700   4.777   5.230   5.345
 5267SOL    HW216701   4.680   5.201   5.474
 5268SOL     OW16702   6.673   5.282   5.528
 5268SOL    HW116703   6.749   5.247   5.583
 5268SOL    HW216704   6.694   5.375   5.497
 5269SOL     OW16705   1.584   5.565   4.324
 5269SOL    HW116706   1.669   5.513   4.325
 5269SOL    HW216707   1.604   5.663   4.317
 5270SOL     OW16708   5.680   2.899   1.496
 5270SOL    HW116709   5.745   2.826   1.478
 5270SOL    HW216710   5.626   2.917   1.414
 5271SOL     OW16711   4.788   4.897   5.008
 5271SOL    HW116712   4.833   4.892   5.098
 5271SOL    HW216713   4.772   4.992   4.984
 5272SOL     OW16714   6.986   5.901   4.705
 5272SOL    HW116715   0.054   5.875   4.746
 5272SOL    HW216716   6.950   5.824   4.653
 5273SOL     OW16717   0.760   2.171   3.943
 5273SOL    HW116718   0.842   2.114   3.934
 5273SOL    HW216719   0.741   2.186   4.039
 5274SOL     OW16720   0.010   4.761   3.838
 5274SOL    HW116721   0.061   4.697   3.781
 5274SOL    HW216722   6.939   4.776   3.799
 5275SOL     OW16723   2.523   6.695   6.223
 5275SOL    HW116724   2.602   6.703   6.286
 5275SOL    HW216725   2.448   6.752   6.257
 5276SOL     OW16726   6.818   6.910   1.719
 5276SOL    HW116727   6.840   6.875   1.628
 5276SOL    HW216728   6.729   6.875   1.747
 5277SOL     OW16729   1.415   1.400   3.502
 5277SOL    HW116730   1.339   1.384   3.440
 5277SOL    HW216731   1.435   1.315   3.552
 5278SOL     OW16732   0.348   6.464   5.767
 5278SOL    HW116733   0.310   6.449   5.676
 5278SOL    HW216734   0.406   6.387   5.792
 5279SOL     OW16735   1.206   5.789   6.518
 5279SOL    HW116736   1.296   5.774   6.476
 5279SOL    HW216737   1.216   5.795   6.618
 5280SOL     OW16738   3.712   6.515   4.527
 5280SOL    HW116739   3.706   6.418   4.503
 5280SOL    HW216740   3.629   6.542   4.575
 5281SOL     OW16741   1.242   1.020   4.212
 5281SOL    HW116742   1.289   1.103   4.240
 5281SOL    HW216743   1.159   1.007   4.267
 5282SOL     OW16744   1.686   0.256   2.532
 5282SOL    HW116745   1.681   0.200   2.615
 5282SOL    HW216746   1.649   0.347   2.551
 5283SOL     OW16747   0.199   0.490   3.611
 5283SOL    HW116748   0.177   0.444   3.697
 5283SOL    HW216749   0.202   0.589   3.626
 5284SOL     OW16750   5.166   1.878   2.012
 5284SOL    HW116751   5.244   1.912   2.064
 5284SOL    HW216752   5.157   1.930   1.927
 5285SOL     OW16753   0.804   3.135   3.256
 5285SOL    HW116754   0.778   3.213   3.312
 5285SOL    HW216755   0.862   3.165   3.180
 5286SOL     OW16756   6.469   2.790   0.529
 5286SOL    HW116757   6.429   2.741   0.452
 5286SOL    HW216758   6.411   2.866   0.555
 5287SOL     OW16759   3.420   5.276   1.857
 5287SOL    HW116760   3.443   5.183   1.887
 5287SOL    HW216761   3.322   5.291   1.866
 5288SOL     OW16762   5.432   0.257   1.477
 5288SOL    HW116763   5.373   0.337   1.464
 5288SOL    HW216764   5.527   0.281   1.456
 5289SOL     OW16765   1.700   5.388   6.494
 5289SOL    HW116766   1.720   5.293   6.472
 5289SOL    HW216767   1.773   5.425   6.551
 5290SOL     OW16768   1.951   4.111   5.894
 5290SOL    HW116769   2.008   4.191   5.879
 5290SOL    HW216770   1.925   4.071   5.806
 5291SOL     OW16771   3.036   4.115   5.493
 5291SOL    HW116772   3.008   4.202   5.453
 5291SOL    HW216773   3.135   4.105   5.487
 5292SOL     OW16774   6.963   4.447   6.577
 5292SOL    HW116775   7.012   4.527   6.542
 5292SOL    HW216776   6.958   4.452   6.677
 5293SOL     OW16777   2.367   5.363   4.430
 5293SOL    HW116778   2.333   5.393   4.519
 5293SOL    HW216779   2.465   5.379   4.425
 5294SOL     OW16780   4.335   0.620   5.013
 5294SOL    HW116781   4.342   0.688   5.086
 5294SOL    HW216782   4.284   0.540   5.046
 5295SOL     OW16783   3.033   0.953   3.003
 5295SOL    HW116784   3.004   0.862   2.974
 5295SOL    HW216785   3.096   0.945   3.080
 5296SOL     OW16786   3.814   4.535   0.754
 5296SOL    HW116787   3.826   4.450   0.702
 5296SOL    HW216788   3.881   4.603   0.723
 5297SOL     OW16789   2.724   3.723   0.472
 5297SOL    HW116790   2.668   3.717   0.555
 5297SOL    HW216791   2.728   3.818   0.442
 5298SOL     OW16792   2.523   6.492   0.100
 5298SOL    HW116793   2.595   6.456   0.040
 5298SOL    HW216794   2.514   6.434   0.180
 5299SOL     OW16795   2.717   2.133   0.649
 5299SOL    HW116796   2.810   2.142   0.684
 5299SOL    HW216797   2.707   2.191   0.568
 5300SOL     OW16798   1.282   4.571   0.572
 5300SOL    HW116799   1.188   4.577   0.604
 5300SOL    HW216800   1.284   4.533   0.480
 5301SOL     OW16801   4.371   0.693   0.114
 5301SOL    HW116802   4.394   0.768   0.176
 5301SOL    HW216803   4.323   0.621   0.165
 5302SOL     OW16804   4.613   5.718   3.682
 5302SOL    HW116805   4.564   5.768   3.754
 5302SOL    HW216806   4.547   5.680   3.617
 5303SOL     OW16807   6.608   5.186   6.474
 5303SOL    HW116808   6.651   5.262   6.426
 5303SOL    HW216809   6.584   5.114   6.409
 5304SOL     OW16810   5.889   1.326   1.134
 5304SOL    HW116811   5.887   1.395   1.206
 5304SOL    HW216812   5.831   1.356   1.058
 5305SOL     OW16813   1.255   5.463   2.886
 5305SOL    HW116814   1.235   5.366   2.872
 5305SOL    HW216815   1.353   5.475   2.901
 5306SOL     OW16816   0.127   4.447   6.128
 5306SOL    HW116817   0.192   4.479   6.060
 5306SOL    HW216818   0.162   4.466   6.220
 5307SOL     OW16819   4.755   2.377   0.301
 5307SOL    HW116820   4.699   2.344   0.225
 5307SOL    HW216821   4.741   2.475   0.313
 5308SOL     OW16822   1.278   4.765   2.684
 5308SOL    HW116823   1.303   4.670   2.706
 5308SOL    HW216824   1.352   4.807   2.633
 5309SOL     OW16825   4.249   6.021   2.817
 5309SOL    HW116826   4.268   5.922   2.818
 5309SOL    HW216827   4.195   6.045   2.898
 5310SOL     OW16828   6.020   3.161   2.293
 5310SOL    HW116829   6.014   3.259   2.313
 5310SOL    HW216830   5.938   3.131   2.245
 5311SOL     OW16831   6.084   0.489   6.991
 5311SOL    HW116832   6.005   0.518   0.026
 5311SOL    HW216833   6.067   0.512   6.895
 5312SOL     OW16834   0.017   6.080   1.600
 5312SOL    HW116835   7.010   6.124   1.514
 5312SOL    HW216836   7.012   5.983   1.597
 5313SOL     OW16837   0.084   4.915   5.494
 5313SOL    HW116838   0.097   4.825   5.536
 5313SOL    HW216839   0.147   4.926   5.418
 5314SOL     OW16840   5.288   6.662   0.716
 5314SOL    HW116841   5.365   6.709   0.759
 5314SOL    HW216842   5.323   6.585   0.662
 5315SOL     OW16843   4.670   2.287   3.288
 5315SOL    HW116844   4.678   2.218   3.217
 5315SOL    HW216845   4.759   2.299   3.332
 5316SOL     OW16846   0.809   3.778   5.307
 5316SOL    HW116847   0.770   3.765   5.215
 5316SOL    HW216848   0.760   3.720   5.372
 5317SOL     OW16849   6.949   1.301   5.759
 5317SOL    HW116850   6.941   1.267   5.666
 5317SOL    HW216851   6.871   1.360   5.781
 5318SOL     OW16852   0.253   3.005   0.596
 5318SOL    HW116853   0.302   2.952   0.665
 5318SOL    HW216854   0.163   3.029   0.632
 5319SOL     OW16855   4.736   6.132   0.941
 5319SOL    HW116856   4.707   6.045   0.902
 5319SOL    HW216857   4.732   6.203   0.871
 5320SOL     OW16858   4.244   5.858   1.301
 5320SOL    HW116859   4.151   5.866   1.337
 5320SOL    HW216860   4.271   5.761   1.302
 5321SOL     OW16861   1.918   4.552   4.948
 5321SOL    HW116862   1.843   4.524   4.887
 5321SOL    HW216863   1.922   4.490   5.026
 5322SOL     OW16864   5.483   0.214   0.633
 5322SOL    HW116865   5.446   0.187   0.545
 5322SOL    HW216866   5.541   0.141   0.669
 5323SOL     OW16867   4.451   1.494   5.594
 5323SOL    HW116868   4.382   1.566   5.593
 5323SOL    HW216869   4.541   1.534   5.575
 5324SOL     OW16870   2.853   2.193   6.769
 5324SOL    HW116871   2.825   2.260   6.700
 5324SOL    HW216872   2.785   2.120   6.774
 5325SOL     OW16873   2.661   1.730   5.266
 5325SOL    HW116874   2.590   1.789   5.304
 5325SOL    HW216875   2.619   1.651   5.222
 5326SOL     OW16876   6.362   5.921   3.519
 5326SOL    HW116877   6.448   5.906   3.471
 5326SOL    HW216878   6.286   5.912   3.455
 5327SOL     OW16879   5.912   2.565   4.637
 5327SOL    HW116880   5.897   2.525   4.728
 5327SOL    HW216881   6.009   2.565   4.616
 5328SOL     OW16882   3.889   3.801   5.954
 5328SOL    HW116883   3.953   3.736   5.911
 5328SOL    HW216884   3.795   3.772   5.936
 5329SOL     OW16885   1.120   5.402   6.465
 5329SOL    HW116886   1.033   5.353   6.454
 5329SOL    HW216887   1.113   5.466   6.541
 5330SOL     OW16888   3.975   4.441   0.048
 5330SOL    HW116889   3.988   4.342   0.049
 5330SOL    HW216890   4.051   4.484   7.019
 5331SOL     OW16891   6.277   1.985   6.669
 5331SOL    HW116892   6.201   1.928   6.638
 5331SOL    HW216893   6.331   1.935   6.736
 5332SOL     OW16894   1.726   4.132   1.535
 5332SOL    HW116895   1.769   4.111   1.622
 5332SOL    HW216896   1.626   4.132   1.547
 5333SOL     OW16897   1.240   0.868   3.247
 5333SOL    HW116898   1.212   0.932   3.175
 5333SOL    HW216899   1.213   0.775   3.221
 5334SOL     OW16900   3.264   0.643   5.310
 5334SOL    HW116901   3.179   0.627   5.360
 5334SOL    HW216902   3.243   0.666   5.215
 5335SOL     OW16903   6.121   6.035   0.822
 5335SOL    HW116904   6.047   6.014   0.885
 5335SOL    HW216905   6.202   6.064   0.874
 5336SOL     OW16906   1.819   3.480   2.348
 5336SOL    HW116907   1.918   3.476   2.356
 5336SOL    HW216908   1.786   3.402   2.294
 5337SOL     OW16909   4.602   3.814   1.471
 5337SOL    HW116910   4.678   3.749   1.473
 5337SOL    HW216911   4.603   3.869   1.554
 5338SOL     OW16912   5.965   1.683   6.772
 5338SOL    HW116913   5.903   1.640   6.707
 5338SOL    HW216914   5.913   1.720   6.849
 5339SOL     OW16915   6.564   1.736   3.891
 5339SOL    HW116916   6.511   1.781   3.819
 5339SOL    HW216917   6.553   1.637   3.884
 5340SOL     OW16918   6.010   3.014   0.439
 5340SOL    HW116919   5.916   2.997   0.409
 5340SOL    HW216920   6.013   3.013   0.539
 5341SOL     OW16921   3.987   2.370   5.889
 5341SOL    HW116922   3.988   2.392   5.792
 5341SOL    HW216923   4.011   2.273   5.901
 5342SOL     OW16924   3.743   0.865   5.144
 5342SOL    HW116925   3.781   0.817   5.065
 5342SOL    HW216926   3.703   0.798   5.207
 5343SOL     OW16927   3.571   3.738   3.565
 5343SOL    HW116928   3.559   3.786   3.478
 5343SOL    HW216929   3.499   3.766   3.629
 5344SOL     OW16930   1.504   2.703   2.596
 5344SOL    HW116931   1.590   2.691   2.645
 5344SOL    HW216932   1.432   2.728   2.661
 5345SOL     OW16933   4.644   5.814   0.866
 5345SOL    HW116934   4.569   5.862   0.912
 5345SOL    HW216935   4.611   5.778   0.779
 5346SOL     OW16936   3.275   6.342   3.482
 5346SOL    HW116937   3.193   6.382   3.523
 5346SOL    HW216938   3.290   6.251   3.519
 5347SOL     OW16939   6.867   2.214   2.260
 5347SOL    HW116940   6.827   2.247   2.174
 5347SOL    HW216941   6.879   2.292   2.322
 5348SOL     OW16942   0.853   1.551   0.521
 5348SOL    HW116943   0.870   1.569   0.618
 5348SOL    HW216944   0.882   1.458   0.499
 5349SOL     OW16945   0.934   2.361   0.393
 5349SOL    HW116946   0.890   2.277   0.361
 5349SOL    HW216947   1.009   2.338   0.455
 5350SOL     OW16948   2.545   0.358   6.098
 5350SOL    HW116949   2.508   0.267   6.116
 5350SOL    HW216950   2.505   0.394   6.014
 5351SOL     OW16951   4.838   5.588   1.557
 5351SOL    HW116952   4.792   5.661   1.506
 5351SOL    HW216953   4.788   5.569   1.641
 5352SOL     OW16954   2.332   6.182   3.725
 5352SOL    HW116955   2.428   6.158   3.709
 5352SOL    HW216956   2.305   6.149   3.815
 5353SOL     OW16957   4.173   6.052   4.496
 5353SOL    HW116958   4.148   6.147   4.518
 5353SOL    HW216959   4.213   6.049   4.404
 5354SOL     OW16960   2.363   4.481   2.845
 5354SOL    HW116961   2.454   4.521   2.855
 5354SOL    HW216962   2.321   4.517   2.761
 5355SOL     OW16963   4.572   2.211   3.539
 5355SOL    HW116964   4.650   2.273   3.537
 5355SOL    HW216965   4.566   2.162   3.452
 5356SOL     OW16966   5.809   3.904   1.810
 5356SOL    HW116967   5.764   3.993   1.810
 5356SOL    HW216968   5.763   3.844   1.745
 5357SOL     OW16969   3.443   1.288   0.960
 5357SOL    HW116970   3.507   1.211   0.959
 5357SOL    HW216971   3.356   1.259   0.920
 5358SOL     OW16972   4.037   2.638   0.745
 5358SOL    HW116973   4.123   2.593   0.768
 5358SOL    HW216974   3.967   2.613   0.813
 5359SOL     OW16975   2.254   1.727   0.593
 5359SOL    HW116976   2.293   1.643   0.630
 5359SOL    HW216977   2.321   1.773   0.535
 5360SOL     OW16978   3.867   6.671   4.947
 5360SOL    HW116979   3.786   6.702   4.998
 5360SOL    HW216980   3.924   6.750   4.924
 5361SOL     OW16981   2.672   1.043   4.767
 5361SOL    HW116982   2.731   1.080   4.839
 5361SOL    HW216983   2.689   1.093   4.682
 5362SOL     OW16984   5.136   4.516   3.561
 5362SOL    HW116985   5.100   4.561   3.479
 5362SOL    HW216986   5.108   4.567   3.642
 5363SOL     OW16987   0.952   6.011   6.150
 5363SOL    HW116988   0.960   6.058   6.063
 5363SOL    HW216989   1.041   5.972   6.176
 5364SOL     OW16990   6.316   5.403   0.847
 5364SOL    HW116991   6.362   5.418   0.934
 5364SOL    HW216992   6.287   5.491   0.809
 5365SOL     OW16993   4.516   3.030   6.492
 5365SOL    HW116994   4.422   3.030   6.526
 5365SOL    HW216995   4.551   3.124   6.489
 5366SOL     OW16996   4.812   4.784   1.165
 5366SOL    HW116997   4.839   4.787   1.069
 5366SOL    HW216998   4.732   4.724   1.175
 5367SOL     OW16999   0.512   5.048   0.674
 5367SOL    HW117000   0.430   5.105   0.675
 5367SOL    HW217001   0.579   5.086   0.738
 5368SOL     OW17002   5.327   1.562   2.947
 5368SOL    HW117003   5.341   1.529   2.853
 5368SOL    HW217004   5.270   1.497   2.997
 5369SOL     OW17005   2.546   5.688   3.533
 5369SOL    HW117006   2.607   5.729   3.601
 5369SOL    HW217007   2.539   5.748   3.454
 5370SOL     OW17008   3.982   3.025   1.843
 5370SOL    HW117009   3.988   3.122   1.867
 5370SOL    HW217010   4.018   3.012   1.751
 5371SOL     OW17011   2.253   4.407   4.372
 5371SOL    HW117012   2.230   4.495   4.330
 5371SOL    HW217013   2.195   4.393   4.452
 5372SOL     OW17014   2.749   5.402   2.162
 5372SOL    HW117015   2.832   5.418   2.216
 5372SOL    HW217016   2.672   5.449   2.204
 5373SOL     OW17017   2.998   4.887   4.314
 5373SOL    HW117018   2.966   4.851   4.226
 5373SOL    HW217019   2.946   4.845   4.388
 5374SOL     OW17020   1.228   3.369   6.895
 5374SOL    HW117021   1.304   3.307   6.915
 5374SOL    HW217022   1.164   3.324   6.833
 5375SOL     OW17023   1.034   4.685   5.162
 5375SOL    HW117024   0.997   4.654   5.074
 5375SOL    HW217025   1.047   4.607   5.222
 5376SOL     OW17026   1.557   3.230   1.590
 5376SOL    HW117027   1.638   3.245   1.533
 5376SOL    HW217028   1.504   3.314   1.597
 5377SOL     OW17029   6.680   0.310   1.821
 5377SOL    HW117030   6.770   0.275   1.796
 5377SOL    HW217031   6.616   0.234   1.833
 5378SOL     OW17032   6.617   0.892   0.921
 5378SOL    HW117033   6.661   0.962   0.864
 5378SOL    HW217034   6.603   0.928   1.013
 5379SOL     OW17035   0.443   5.308   4.021
 5379SOL    HW117036   0.501   5.266   3.951
 5379SOL    HW217037   0.500   5.348   4.092
 5380SOL     OW17038   1.910   1.131   3.482
 5380SOL    HW117039   1.819   1.089   3.481
 5380SOL    HW217040   1.959   1.106   3.399
 5381SOL     OW17041   6.733   3.646   0.710
 5381SOL    HW117042   6.712   3.743   0.717
 5381SOL    HW217043   6.757   3.623   0.616
 5382SOL     OW17044   2.965   0.156   1.482
 5382SOL    HW117045   2.984   0.062   1.511
 5382SOL    HW217046   2.999   0.170   1.389
 5383SOL     OW17047   2.972   2.376   5.323
 5383SOL    HW117048   2.982   2.283   5.359
 5383SOL    HW217049   3.052   2.399   5.267
 5384SOL     OW17050   5.962   0.103   3.861
 5384SOL    HW117051   5.890   0.172   3.860
 5384SOL    HW217052   6.049   0.146   3.837
 5385SOL     OW17053   2.977   3.817   3.233
 5385SOL    HW117054   2.938   3.731   3.202
 5385SOL    HW217055   2.998   3.875   3.153
 5386SOL     OW17056   5.004   6.375   4.439
 5386SOL    HW117057   5.074   6.307   4.460
 5386SOL    HW217058   4.963   6.354   4.350
 5387SOL     OW17059   1.937   5.982   2.906
 5387SOL    HW117060   1.970   6.064   2.859
 5387SOL    HW217061   2.003   5.957   2.978
 5388SOL     OW17062   5.339   5.962   2.551
 5388SOL    HW117063   5.347   5.966   2.451
 5388SOL    HW217064   5.321   6.053   2.587
 5389SOL     OW17065   5.494   0.690   1.646
 5389SOL    HW117066   5.488   0.768   1.584
 5389SOL    HW217067   5.587   0.652   1.644
 5390SOL     OW17068   4.409   5.212   4.193
 5390SOL    HW117069   4.490   5.227   4.249
 5390SOL    HW217070   4.405   5.280   4.120
 5391SOL     OW17071   2.408   3.350   0.456
 5391SOL    HW117072   2.420   3.392   0.366
 5391SOL    HW217073   2.326   3.293   0.456
 5392SOL     OW17074   6.541   3.391   1.074
 5392SOL    HW117075   6.570   3.476   1.030
 5392SOL    HW217076   6.505   3.328   1.006
 5393SOL     OW17077   6.632   0.010   6.867
 5393SOL    HW117078   6.571   6.960   6.904
 5393SOL    HW217079   6.608   0.099   6.906
 5394SOL     OW17080   0.382   3.584   6.389
 5394SOL    HW117081   0.448   3.631   6.448
 5394SOL    HW217082   0.386   3.486   6.406
 5395SOL     OW17083   4.865   0.660   1.461
 5395SOL    HW117084   4.830   0.729   1.399
 5395SOL    HW217085   4.789   0.620   1.512
 5396SOL     OW17086   5.245   3.294   2.840
 5396SOL    HW117087   5.275   3.262   2.750
 5396SOL    HW217088   5.253   3.393   2.845
 5397SOL     OW17089   6.977   3.041   2.074
 5397SOL    HW117090   6.983   3.135   2.107
 5397SOL    HW217091   0.016   2.982   2.129
 5398SOL     OW17092   3.265   2.468   1.489
 5398SOL    HW117093   3.352   2.515   1.474
 5398SOL    HW217094   3.274   2.403   1.564
 5399SOL     OW17095   2.337   6.485   1.088
 5399SOL    HW117096   2.309   6.454   0.998
 5399SOL    HW217097   2.374   6.409   1.140
 5400SOL     OW17098   2.944   4.283   1.163
 5400SOL    HW117099   3.017   4.239   1.110
 5400SOL    HW217100   2.969   4.379   1.180
 5401SOL     OW17101   5.597   3.199   2.248
 5401SOL    HW117102   5.685   3.205   2.202
 5401SOL    HW217103   5.611   3.184   2.346
 5402SOL     OW17104   2.395   6.032   1.992
 5402SOL    HW117105   2.372   5.950   2.045
 5402SOL    HW217106   2.331   6.105   2.014
 5403SOL     OW17107   6.925   3.338   6.477
 5403SOL    HW117108   6.956   3.408   6.412
 5403SOL    HW217109   6.837   3.302   6.447
 5404SOL     OW17110   1.093   2.294   3.612
 5404SOL    HW117111   0.994   2.288   3.624
 5404SOL    HW217112   1.115   2.279   3.515
 5405SOL     OW17113   6.869   5.188   0.089
 5405SOL    HW117114   6.936   5.119   0.116
 5405SOL    HW217115   6.864   5.192   7.009
 5406SOL     OW17116   2.541   1.644   6.667
 5406SOL    HW117117   2.481   1.619   6.743
 5406SOL    HW217118   2.625   1.684   6.703
 5407SOL     OW17119   4.300   3.501   0.522
 5407SOL    HW117120   4.308   3.483   0.620
 5407SOL    HW217121   4.354   3.433   0.471
 5408SOL     OW17122   2.890   1.007   5.287
 5408SOL    HW117123   2.823   0.954   5.338
 5408SOL    HW217124   2.943   0.947   5.228
 5409SOL     OW17125   5.105   0.334   2.797
 5409SOL    HW117126   5.104   0.413   2.735
 5409SOL    HW217127   5.036   0.268   2.767
 5410SOL     OW17128   2.635   2.467   1.818
 5410SOL    HW117129   2.614   2.458   1.721
 5410SOL    HW217130   2.733   2.482   1.831
 5411SOL     OW17131   6.316   4.951   6.136
 5411SOL    HW117132   6.254   4.988   6.204
 5411SOL    HW217133   6.266   4.931   6.052
 5412SOL     OW17134   4.806   2.695   0.530
 5412SOL    HW117135   4.780   2.786   0.497
 5412SOL    HW217136   4.837   2.640   0.452
 5413SOL     OW17137   2.694   1.272   1.429
 5413SOL    HW117138   2.662   1.269   1.335
 5413SOL    HW217139   2.690   1.366   1.463
 5414SOL     OW17140   5.348   1.929   4.398
 5414SOL    HW117141   5.340   1.923   4.298
 5414SOL    HW217142   5.335   2.023   4.427
 5415SOL     OW17143   0.340   5.787   1.370
 5415SOL    HW117144   0.320   5.864   1.431
 5415SOL    HW217145   0.437   5.789   1.344
 5416SOL     OW17146   4.171   5.407   5.422
 5416SOL    HW117147   4.212   5.384   5.334
 5416SOL    HW217148   4.234   5.463   5.475
 5417SOL     OW17149   3.441   6.552   5.737
 5417SOL    HW117150   3.398   6.636   5.771
 5417SOL    HW217151   3.516   6.575   5.675
 5418SOL     OW17152   3.568   0.094   3.381
 5418SOL    HW117153   3.578   0.005   3.427
 5418SOL    HW217154   3.472   0.123   3.386
 5419SOL     OW17155   3.431   4.963   0.266
 5419SOL    HW117156   3.484   4.930   0.344
 5419SOL    HW217157   3.415   4.888   0.203
 5420SOL     OW17158   1.894   3.285   3.249
 5420SOL    HW117159   1.934   3.207   3.200
 5420SOL    HW217160   1.968   3.337   3.293
 5421SOL     OW17161   1.688   3.609   1.661
 5421SOL    HW117162   1.786   3.597   1.646
 5421SOL    HW217163   1.673   3.680   1.730
 5422SOL     OW17164   0.449   4.983   1.012
 5422SOL    HW117165   0.358   5.006   1.046
 5422SOL    HW217166   0.494   5.066   0.979
 5423SOL     OW17167   6.223   2.960   0.154
 5423SOL    HW117168   6.263   2.982   0.065
 5423SOL    HW217169   6.172   3.039   0.189
 5424SOL     OW17170   5.416   2.995   4.162
 5424SOL    HW117171   5.333   2.946   4.191
 5424SOL    HW217172   5.454   2.951   4.081
 5425SOL     OW17173   4.198   1.263   4.915
 5425SOL    HW117174   4.105   1.244   4.882
 5425SOL    HW217175   4.251   1.305   4.841
 5426SOL     OW17176   5.801   6.383   4.444
 5426SOL    HW117177   5.805   6.330   4.529
 5426SOL    HW217178   5.798   6.481   4.466
 5427SOL     OW17179   4.709   5.765   6.745
 5427SOL    HW117180   4.639   5.830   6.717
 5427SOL    HW217181   4.769   5.807   6.812
 5428SOL     OW17182   6.789   6.822   1.162
 5428SOL    HW117183   6.844   6.903   1.143
 5428SOL    HW217184   6.692   6.844   1.149
 5429SOL     OW17185   1.998   1.996   6.620
 5429SOL    HW117186   2.010   1.945   6.535
 5429SOL    HW217187   1.901   1.996   6.645
 5430SOL     OW17188   0.313   2.369   5.518
 5430SOL    HW117189   0.365   2.345   5.600
 5430SOL    HW217190   0.350   2.454   5.479
 5431SOL     OW17191   3.366   5.898   0.171
 5431SOL    HW117192   3.405   5.853   0.091
 5431SOL    HW217193   3.438   5.944   0.223
 5432SOL     OW17194   5.614   0.404   6.617
 5432SOL    HW117195   5.527   0.356   6.606
 5432SOL    HW217196   5.608   0.465   6.697
 5433SOL     OW17197   0.577   1.939   4.484
 5433SOL    HW117198   0.528   1.942   4.397
 5433SOL    HW217199   0.575   2.029   4.527
 5434SOL     OW17200   3.201   0.445   5.883
 5434SOL    HW117201   3.151   0.506   5.945
 5434SOL    HW217202   3.298   0.469   5.882
 5435SOL     OW17203   5.970   0.261   1.994
 5435SOL    HW117204   5.896   0.241   2.058
 5435SOL    HW217205   5.932   0.278   1.903
 5436SOL     OW17206   4.775   4.031   4.004
 5436SOL    HW117207   4.730   4.065   4.087
 5436SOL    HW217208   4.823   3.947   4.025
 5437SOL     OW17209   2.683   4.206   0.412
 5437SOL    HW117210   2.652   4.261   0.335
 5437SOL    HW217211   2.779   4.184   0.401
 5438SOL     OW17212   6.913   2.346   1.717
 5438SOL    HW117213   6.960   2.279   1.659
 5438SOL    HW217214   6.913   2.435   1.672
 5439SOL     OW17215   1.359   1.665   1.418
 5439SOL    HW117216   1.404   1.733   1.360
 5439SOL    HW217217   1.272   1.702   1.451
 5440SOL     OW17218   1.296   1.092   0.936
 5440SOL    HW117219   1.300   1.114   1.033
 5440SOL    HW217220   1.318   0.995   0.923
 5441SOL     OW17221   3.883   1.880   3.736
 5441SOL    HW117222   3.824   1.943   3.787
 5441SOL    HW217223   3.897   1.917   3.644
 5442SOL     OW17224   4.449   6.795   2.822
 5442SOL    HW117225   4.511   6.727   2.782
 5442SOL    HW217226   4.357   6.756   2.827
 5443SOL     OW17227   3.452   6.870   4.926
 5443SOL    HW117228   3.451   6.854   4.827
 5443SOL    HW217229   3.416   6.790   4.974
 5444SOL     OW17230   0.717   0.810   4.126
 5444SOL    HW117231   0.788   0.858   4.075
 5444SOL    HW217232   0.742   0.807   4.223
 5445SOL     OW17233   6.359   3.930   3.289
 5445SOL    HW117234   6.390   3.839   3.314
 5445SOL    HW217235   6.427   3.998   3.319
 5446SOL     OW17236   6.454   5.708   4.832
 5446SOL    HW117237   6.429   5.778   4.764
 5446SOL    HW217238   6.372   5.656   4.858
 5447SOL     OW17239   2.793   2.411   6.913
 5447SOL    HW117240   2.752   2.471   6.844
 5447SOL    HW217241   2.801   2.319   6.875
 5448SOL     OW17242   4.249   2.628   5.753
 5448SOL    HW117243   4.223   2.724   5.761
 5448SOL    HW217244   4.285   2.596   5.840
 5449SOL     OW17245   1.515   2.609   6.390
 5449SOL    HW117246   1.465   2.694   6.402
 5449SOL    HW217247   1.605   2.628   6.350
 5450SOL     OW17248   2.122   0.516   1.445
 5450SOL    HW117249   2.220   0.508   1.429
 5450SOL    HW217250   2.076   0.536   1.358
 5451SOL     OW17251   1.877   6.291   3.407
 5451SOL    HW117252   1.778   6.293   3.412
 5451SOL    HW217253   1.915   6.370   3.455
 5452SOL     OW17254   2.129   4.659   6.864
 5452SOL    HW117255   2.079   4.573   6.878
 5452SOL    HW217256   2.227   4.640   6.865
 5453SOL     OW17257   6.674   3.896   0.744
 5453SOL    HW117258   6.710   3.989   0.738
 5453SOL    HW217259   6.602   3.885   0.675
 5454SOL     OW17260   0.347   4.191   0.033
 5454SOL    HW117261   0.360   4.104   7.005
 5454SOL    HW217262   0.256   4.226   0.014
 5455SOL     OW17263   6.508   3.201   0.317
 5455SOL    HW117264   6.604   3.175   0.311
 5455SOL    HW217265   6.488   3.269   0.246
 5456SOL     OW17266   3.654   6.825   6.360
 5456SOL    HW117267   3.601   6.894   6.409
 5456SOL    HW217268   3.677   6.750   6.423
 5457SOL     OW17269   5.320   2.121   1.238
 5457SOL    HW117270   5.343   2.219   1.240
 5457SOL    HW217271   5.322   2.089   1.144
 5458SOL     OW17272   0.957   4.624   7.004
 5458SOL    HW117273   1.040   4.574   6.979
 5458SOL    HW217274   0.971   4.671   0.071
 5459SOL     OW17275   1.725   5.521   0.458
 5459SOL    HW117276   1.761   5.474   0.377
 5459SOL    HW217277   1.743   5.466   0.539
 5460SOL     OW17278   3.331   0.045   1.944
 5460SOL    HW117279   3.243   0.025   1.902
 5460SOL    HW217280   3.351   6.996   2.014
 5461SOL     OW17281   5.885   6.282   5.168
 5461SOL    HW117282   5.856   6.363   5.117
 5461SOL    HW217283   5.831   6.203   5.138
 5462SOL     OW17284   1.875   0.497   0.661
 5462SOL    HW117285   1.948   0.445   0.703
 5462SOL    HW217286   1.841   0.448   0.581
 5463SOL     OW17287   6.144   2.147   0.483
 5463SOL    HW117288   6.227   2.202   0.479
 5463SOL    HW217289   6.071   2.199   0.528
 5464SOL     OW17290   1.064   0.497   4.173
 5464SOL    HW117291   1.048   0.555   4.094
 5464SOL    HW217292   1.163   0.483   4.184
 5465SOL     OW17293   3.446   6.559   3.399
 5465SOL    HW117294   3.372   6.492   3.405
 5465SOL    HW217295   3.440   6.608   3.311
 5466SOL     OW17296   5.655   4.756   4.806
 5466SOL    HW117297   5.603   4.835   4.772
 5466SOL    HW217298   5.751   4.766   4.780
 5467SOL     OW17299   5.169   1.902   2.875
 5467SOL    HW117300   5.245   1.940   2.821
 5467SOL    HW217301   5.176   1.935   2.969
 5468SOL     OW17302   4.920   1.657   4.380
 5468SOL    HW117303   4.942   1.737   4.435
 5468SOL    HW217304   4.932   1.678   4.283
 5469SOL     OW17305   3.695   4.976   6.338
 5469SOL    HW117306   3.615   4.923   6.363
 5469SOL    HW217307   3.758   4.919   6.285
 5470SOL     OW17308   1.904   5.238   3.479
 5470SOL    HW117309   1.841   5.161   3.489
 5470SOL    HW217310   1.870   5.301   3.409
 5471SOL     OW17311   5.688   6.623   1.052
 5471SOL    HW117312   5.684   6.590   1.146
 5471SOL    HW217313   5.639   6.560   0.992
 5472SOL     OW17314   4.545   4.197   6.114
 5472SOL    HW117315   4.630   4.210   6.164
 5472SOL    HW217316   4.467   4.218   6.173
 5473SOL     OW17317   0.763   3.753   3.357
 5473SOL    HW117318   0.681   3.806   3.336
 5473SOL    HW217319   0.739   3.680   3.421
 5474SOL     OW17320   1.378   4.969   4.319
 5474SOL    HW117321   1.284   4.973   4.354
 5474SOL    HW217322   1.382   4.907   4.240
 5475SOL     OW17323   3.545   2.716   1.243
 5475SOL    HW117324   3.452   2.753   1.243
 5475SOL    HW217325   3.554   2.646   1.314
 5476SOL     OW17326   2.336   3.562   6.419
 5476SOL    HW117327   2.284   3.632   6.370
 5476SOL    HW217328   2.316   3.472   6.378
 5477SOL     OW17329   2.106   3.625   3.533
 5477SOL    HW117330   2.103   3.593   3.628
 5477SOL    HW217331   2.172   3.700   3.525
 5478SOL     OW17332   5.687   5.505   6.056
 5478SOL    HW117333   5.774   5.466   6.026
 5478SOL    HW217334   5.611   5.458   6.011
 5479SOL     OW17335   4.727   0.986   5.057
 5479SOL    HW117336   4.647   1.009   5.112
 5479SOL    HW217337   4.770   0.903   5.094
 5480SOL     OW17338   1.174   3.811   4.278
 5480SOL    HW117339   1.130   3.898   4.257
 5480SOL    HW217340   1.106   3.747   4.314
 5481SOL     OW17341   3.025   0.241   4.614
 5481SOL    HW117342   3.024   0.298   4.532
 5481SOL    HW217343   2.995   0.148   4.591
 5482SOL     OW17344   3.797   4.545   1.675
 5482SOL    HW117345   3.726   4.564   1.743
 5482SOL    HW217346   3.791   4.613   1.601
 5483SOL     OW17347   0.645   3.287   5.332
 5483SOL    HW117348   0.738   3.251   5.335
 5483SOL    HW217349   0.585   3.220   5.286
 5484SOL     OW17350   4.550   0.376   4.880
 5484SOL    HW117351   4.595   0.450   4.929
 5484SOL    HW217352   4.510   0.411   4.795
 5485SOL     OW17353   2.679   6.748   5.463
 5485SOL    HW117354   2.683   6.838   5.506
 5485SOL    HW217355   2.771   6.719   5.439
 5486SOL     OW17356   2.405   5.662   5.157
 5486SOL    HW117357   2.429   5.587   5.095
 5486SOL    HW217358   2.386   5.626   5.248
 5487SOL     OW17359   3.043   4.378   5.937
 5487SOL    HW117360   3.042   4.297   5.879
 5487SOL    HW217361   3.037   4.460   5.881
 5488SOL     OW17362   6.599   1.038   0.400
 5488SOL    HW117363   6.589   1.136   0.417
 5488SOL    HW217364   6.537   1.011   0.326
 5489SOL     OW17365   6.424   3.169   2.231
 5489SOL    HW117366   6.484   3.215   2.297
 5489SOL    HW217367   6.395   3.234   2.161
 5490SOL     OW17368   1.166   6.816   2.449
 5490SOL    HW117369   1.094   6.751   2.426
 5490SOL    HW217370   1.218   6.840   2.367
 5491SOL     OW17371   6.763   3.188   0.454
 5491SOL    HW117372   6.837   3.252   0.431
 5491SOL    HW217373   6.703   3.231   0.522
 5492SOL     OW17374   0.858   3.114   5.358
 5492SOL    HW117375   0.948   3.132   5.317
 5492SOL    HW217376   0.819   3.032   5.318
 5493SOL     OW17377   4.162   3.655   1.833
 5493SOL    HW117378   4.165   3.656   1.933
 5493SOL    HW217379   4.167   3.561   1.800
 5494SOL     OW17380   6.034   4.530   4.950
 5494SOL    HW117381   5.950   4.502   4.995
 5494SOL    HW217382   6.100   4.561   5.019
 5495SOL     OW17383   6.362   0.888   0.461
 5495SOL    HW117384   6.340   0.881   0.558
 5495SOL    HW217385   6.380   0.797   0.423
 5496SOL     OW17386   4.488   0.556   4.340
 5496SOL    HW117387   4.463   0.460   4.330
 5496SOL    HW217388   4.585   0.568   4.319
 5497SOL     OW17389   0.247   0.636   5.661
 5497SOL    HW117390   0.238   0.719   5.716
 5497SOL    HW217391   0.223   0.657   5.566
 5498SOL     OW17392   0.208   4.745   1.616
 5498SOL    HW117393   0.183   4.762   1.521
 5498SOL    HW217394   0.135   4.695   1.662
 5499SOL     OW17395   0.101   0.593   3.955
 5499SOL    HW117396   0.184   0.551   3.919
 5499SOL    HW217397   0.125   0.676   4.005
 5500SOL     OW17398   1.840   0.594   0.061
 5500SOL    HW117399   1.802   0.653   0.132
 5500SOL    HW217400   1.940   0.599   0.064
 5501SOL     OW17401   3.931   1.985   0.349
 5501SOL    HW117402   3.875   1.903   0.364
 5501SOL    HW217403   3.875   2.066   0.357
 5502SOL     OW17404   5.234   3.543   6.507
 5502SOL    HW117405   5.333   3.533   6.523
 5502SOL    HW217406   5.216   3.530   6.409
 5503SOL     OW17407   0.205   3.704   0.091
 5503SOL    HW117408   0.206   3.717   0.190
 5503SOL    HW217409   0.125   3.751   0.052
 5504SOL     OW17410   3.718   1.278   6.722
 5504SOL    HW117411   3.768   1.347   6.670
 5504SOL    HW217412   3.726   1.189   6.677
 5505SOL     OW17413   2.347   4.348   3.910
 5505SOL    HW117414   2.362   4.250   3.925
 5505SOL    HW217415   2.326   4.364   3.814
 5506SOL     OW17416   0.462   3.545   6.026
 5506SOL    HW117417   0.504   3.556   5.936
 5506SOL    HW217418   0.506   3.609   6.090
 5507SOL     OW17419   3.226   0.212   6.305
 5507SOL    HW117420   3.169   0.238   6.383
 5507SOL    HW217421   3.250   0.115   6.313
 5508SOL     OW17422   0.891   1.070   6.642
 5508SOL    HW117423   0.982   1.030   6.633
 5508SOL    HW217424   0.884   1.118   6.730
 5509SOL     OW17425   0.018   5.179   0.948
 5509SOL    HW117426   0.011   5.239   1.028
 5509SOL    HW217427   6.957   5.120   0.945
 5510SOL     OW17428   4.568   5.540   0.030
 5510SOL    HW117429   4.503   5.610   0.001
 5510SOL    HW217430   4.634   5.579   0.094
 5511SOL     OW17431   0.487   1.854   5.142
 5511SOL    HW117432   0.438   1.775   5.179
 5511SOL    HW217433   0.574   1.824   5.103
 5512SOL     OW17434   3.698   1.330   2.335
 5512SOL    HW117435   3.645   1.265   2.281
 5512SOL    HW217436   3.638   1.373   2.403
 5513SOL     OW17437   4.392   4.572   6.490
 5513SOL    HW117438   4.485   4.550   6.461
 5513SOL    HW217439   4.387   4.669   6.516
 5514SOL     OW17440   2.962   6.729   5.405
 5514SOL    HW117441   2.951   6.671   5.325
 5514SOL    HW217442   3.050   6.709   5.449
 5515SOL     OW17443   1.762   5.632   2.092
 5515SOL    HW117444   1.676   5.588   2.067
 5515SOL    HW217445   1.838   5.571   2.074
 5516SOL     OW17446   2.537   2.919   5.438
 5516SOL    HW117447   2.460   2.934   5.500
 5516SOL    HW217448   2.522   2.971   5.354
 5517SOL     OW17449   1.843   3.680   2.806
 5517SOL    HW117450   1.863   3.680   2.708
 5517SOL    HW217451   1.928   3.677   2.858
 5518SOL     OW17452   4.921   4.627   5.236
 5518SOL    HW117453   4.974   4.545   5.256
 5518SOL    HW217454   4.943   4.698   5.304
 5519SOL     OW17455   4.422   2.503   3.655
 5519SOL    HW117456   4.421   2.487   3.557
 5519SOL    HW217457   4.328   2.508   3.690
 5520SOL     OW17458   5.366   6.742   2.314
 5520SOL    HW117459   5.439   6.710   2.253
 5520SOL    HW217460   5.406   6.778   2.398
 5521SOL     OW17461   5.513   5.295   1.977
 5521SOL    HW117462   5.531   5.233   2.054
 5521SOL    HW217463   5.416   5.292   1.954
 5522SOL     OW17464   5.552   5.094   1.006
 5522SOL    HW117465   5.483   5.144   1.057
 5522SOL    HW217466   5.510   5.051   0.926
 5523SOL     OW17467   6.206   1.436   2.530
 5523SOL    HW117468   6.123   1.380   2.522
 5523SOL    HW217469   6.262   1.424   2.448
 5524SOL     OW17470   3.238   0.823   4.774
 5524SOL    HW117471   3.266   0.916   4.798
 5524SOL    HW217472   3.282   0.796   4.688
 5525SOL     OW17473   6.767   2.622   1.263
 5525SOL    HW117474   6.806   2.614   1.172
 5525SOL    HW217475   6.684   2.678   1.259
 5526SOL     OW17476   4.440   4.911   3.344
 5526SOL    HW117477   4.351   4.942   3.313
 5526SOL    HW217478   4.436   4.813   3.365
 5527SOL     OW17479   5.028   2.377   4.153
 5527SOL    HW117480   5.037   2.419   4.063
 5527SOL    HW217481   5.110   2.396   4.207
 5528SOL     OW17482   1.065   1.537   1.438
 5528SOL    HW117483   1.059   1.511   1.342
 5528SOL    HW217484   1.155   1.511   1.474
 5529SOL     OW17485   3.344   0.606   2.650
 5529SOL    HW117486   3.256   0.563   2.633
 5529SOL    HW217487   3.331   0.688   2.706
 5530SOL     OW17488   6.416   2.329   1.526
 5530SOL    HW117489   6.506   2.289   1.504
 5530SOL    HW217490   6.425   2.428   1.532
 5531SOL     OW17491   3.636   3.889   1.267
 5531SOL    HW117492   3.590   3.856   1.350
 5531SOL    HW217493   3.706   3.955   1.292
 5532SOL     OW17494   1.741   2.565   1.636
 5532SOL    HW117495   1.729   2.642   1.700
 5532SOL    HW217496   1.801   2.592   1.561
 5533SOL     OW17497   4.179   1.994   4.246
 5533SOL    HW117498   4.241   2.007   4.324
 5533SOL    HW217499   4.111   1.925   4.269
 5534SOL     OW17500   1.015   1.804   5.380
 5534SOL    HW117501   1.022   1.901   5.404
 5534SOL    HW217502   1.047   1.790   5.286
 5535SOL     OW17503   1.185   1.982   3.411
 5535SOL    HW117504   1.085   1.985   3.412
 5535SOL    HW217505   1.221   2.069   3.378
 5536SOL     OW17506   2.974   0.821   4.793
 5536SOL    HW117507   3.074   0.819   4.797
 5536SOL    HW217508   2.945   0.864   4.708
 5537SOL     OW17509   2.766   1.080   2.787
 5537SOL    HW117510   2.774   1.068   2.688
 5537SOL    HW217511   2.833   1.148   2.817
 5538SOL     OW17512   4.861   5.623   4.821
 5538SOL    HW117513   4.909   5.706   4.849
 5538SOL    HW217514   4.778   5.647   4.772
 5539SOL     OW17515   2.553   2.676   1.078
 5539SOL    HW117516   2.522   2.625   1.158
 5539SOL    HW217517   2.651   2.663   1.066
 5540SOL     OW17518   4.926   4.930   2.956
 5540SOL    HW117519   4.882   4.936   2.867
 5540SOL    HW217520   5.018   4.969   2.950
 5541SOL     OW17521   5.169   1.276   5.620
 5541SOL    HW117522   5.254   1.305   5.665
 5541SOL    HW217523   5.178   1.287   5.522
 5542SOL     OW17524   3.850   4.592   6.430
 5542SOL    HW117525   3.942   4.578   6.468
 5542SOL    HW217526   3.852   4.573   6.331
 5543SOL     OW17527   6.553   2.825   6.292
 5543SOL    HW117528   6.541   2.898   6.360
 5543SOL    HW217529   6.589   2.743   6.337
 5544SOL     OW17530   6.027   0.787   5.651
 5544SOL    HW117531   6.023   0.688   5.665
 5544SOL    HW217532   5.943   0.818   5.607
 5545SOL     OW17533   3.499   1.957   2.302
 5545SOL    HW117534   3.544   2.033   2.255
 5545SOL    HW217535   3.547   1.937   2.388
 5546SOL     OW17536   2.163   4.998   5.769
 5546SOL    HW117537   2.203   5.084   5.803
 5546SOL    HW217538   2.078   5.018   5.720
 5547SOL     OW17539   3.048   5.134   5.283
 5547SOL    HW117540   3.128   5.116   5.225
 5547SOL    HW217541   3.077   5.181   5.366
 5548SOL     OW17542   6.586   3.569   5.203
 5548SOL    HW117543   6.663   3.510   5.180
 5548SOL    HW217544   6.583   3.646   5.139
 5549SOL     OW17545   2.824   5.049   6.904
 5549SOL    HW117546   2.876   5.093   6.831
 5549SOL    HW217547   2.846   5.092   6.991
 5550SOL     OW17548   4.345   6.474   1.166
 5550SOL    HW117549   4.284   6.549   1.191
 5550SOL    HW217550   4.438   6.508   1.155
 5551SOL     OW17551   1.036   1.653   3.291
 5551SOL    HW117552   1.032   1.745   3.252
 5551SOL    HW217553   1.095   1.595   3.235
 5552SOL     OW17554   0.047   2.377   1.414
 5552SOL    HW117555   0.005   2.352   1.327
 5552SOL    HW217556   7.005   2.437   1.465
 5553SOL     OW17557   5.478   6.017   0.868
 5553SOL    HW117558   5.463   5.944   0.801
 5553SOL    HW217559   5.503   5.978   0.956
 5554SOL     OW17560   2.956   2.074   4.817
 5554SOL    HW117561   2.932   2.134   4.893
 5554SOL    HW217562   3.053   2.084   4.795
 5555SOL     OW17563   0.375   5.494   3.460
 5555SOL    HW117564   0.296   5.484   3.520
 5555SOL    HW217565   0.458   5.465   3.508
 5556SOL     OW17566   0.307   2.020   4.746
 5556SOL    HW117567   0.369   2.019   4.824
 5556SOL    HW217568   0.214   2.001   4.777
 5557SOL     OW17569   2.184   0.206   3.850
 5557SOL    HW117570   2.191   0.286   3.791
 5557SOL    HW217571   2.119   0.141   3.812
 5558SOL     OW17572   5.183   3.315   5.149
 5558SOL    HW117573   5.179   3.216   5.165
 5558SOL    HW217574   5.113   3.361   5.204
 5559SOL     OW17575   2.010   0.314   1.106
 5559SOL    HW117576   1.948   0.266   1.044
 5559SOL    HW217577   2.103   0.280   1.092
 5560SOL     OW17578   0.343   1.037   3.813
 5560SOL    HW117579   0.393   1.056   3.729
 5560SOL    HW217580   0.324   1.122   3.862
 5561SOL     OW17581   1.614   2.754   3.576
 5561SOL    HW117582   1.647   2.841   3.540
 5561SOL    HW217583   1.514   2.753   3.575
 5562SOL     OW17584   2.497   2.964   6.316
 5562SOL    HW117585   2.434   2.895   6.352
 5562SOL    HW217586   2.538   3.015   6.392
 5563SOL     OW17587   4.643   5.857   1.692
 5563SOL    HW117588   4.676   5.949   1.713
 5563SOL    HW217589   4.664   5.836   1.597
 5564SOL     OW17590   5.345   3.938   1.792
 5564SOL    HW117591   5.273   3.978   1.849
 5564SOL    HW217592   5.324   3.841   1.777
 5565SOL     OW17593   3.364   3.136   5.657
 5565SOL    HW117594   3.430   3.182   5.598
 5565SOL    HW217595   3.275   3.131   5.611
 5566SOL     OW17596   1.771   4.656   1.301
 5566SOL    HW117597   1.757   4.752   1.324
 5566SOL    HW217598   1.859   4.625   1.337
 5567SOL     OW17599   1.337   5.415   1.746
 5567SOL    HW117600   1.253   5.361   1.733
 5567SOL    HW217601   1.395   5.405   1.665
 5568SOL     OW17602   3.299   2.168   1.632
 5568SOL    HW117603   3.397   2.183   1.636
 5568SOL    HW217604   3.254   2.213   1.709
 5569SOL     OW17605   5.074   1.175   0.064
 5569SOL    HW117606   5.164   1.188   0.023
 5569SOL    HW217607   5.007   1.157   7.012
 5570SOL     OW17608   6.908   4.413   5.984
 5570SOL    HW117609   6.934   4.346   5.914
 5570SOL    HW217610   6.991   4.446   6.030
 5571SOL     OW17611   6.888   4.909   6.398
 5571SOL    HW117612   6.878   4.831   6.336
 5571SOL    HW217613   6.843   4.889   6.485
 5572SOL     OW17614   5.005   2.439   6.417
 5572SOL    HW117615   4.993   2.532   6.451
 5572SOL    HW217616   5.080   2.395   6.466
 5573SOL     OW17617   1.106   3.848   0.570
 5573SOL    HW117618   1.074   3.844   0.475
 5573SOL    HW217619   1.060   3.777   0.623
 5574SOL     OW17620   0.773   6.161   4.878
 5574SOL    HW117621   0.753   6.066   4.902
 5574SOL    HW217622   0.752   6.176   4.781
 5575SOL     OW17623   1.803   0.772   0.686
 5575SOL    HW117624   1.829   0.675   0.687
 5575SOL    HW217625   1.879   0.828   0.717
 5576SOL     OW17626   6.193   5.896   6.767
 5576SOL    HW117627   6.143   5.981   6.756
 5576SOL    HW217628   6.132   5.819   6.751
 5577SOL     OW17629   1.979   3.849   5.456
 5577SOL    HW117630   1.970   3.759   5.414
 5577SOL    HW217631   2.021   3.912   5.391
 5578SOL     OW17632   3.839   2.588   6.698
 5578SOL    HW117633   3.869   2.675   6.735
 5578SOL    HW217634   3.740   2.578   6.712
 5579SOL     OW17635   4.952   4.089   0.069
 5579SOL    HW117636   4.891   4.056   7.017
 5579SOL    HW217637   4.917   4.059   0.158
 5580SOL     OW17638   6.062   1.465   0.482
 5580SOL    HW117639   6.068   1.376   0.437
 5580SOL    HW217640   6.127   1.469   0.557
 5581SOL     OW17641   2.378   2.141   6.847
 5581SOL    HW117642   2.287   2.182   6.850
 5581SOL    HW217643   2.446   2.210   6.871
 5582SOL     OW17644   3.968   3.577   3.331
 5582SOL    HW117645   3.951   3.542   3.423
 5582SOL    HW217646   4.022   3.510   3.279
 5583SOL     OW17647   4.361   6.880   1.388
 5583SOL    HW117648   4.271   6.923   1.380
 5583SOL    HW217649   4.350   6.780   1.391
 5584SOL     OW17650   6.677   3.139   3.401
 5584SOL    HW117651   6.632   3.067   3.348
 5584SOL    HW217652   6.768   3.155   3.364
 5585SOL     OW17653   5.977   0.157   4.331
 5585SOL    HW117654   6.055   0.214   4.306
 5585SOL    HW217655   5.960   0.163   4.429
 5586SOL     OW17656   1.912   1.052   6.372
 5586SOL    HW117657   1.903   0.954   6.391
 5586SOL    HW217658   1.861   1.075   6.288
 5587SOL     OW17659   3.369   0.208   4.061
 5587SOL    HW117660   3.333   0.220   3.968
 5587SOL    HW217661   3.332   0.279   4.120
 5588SOL     OW17662   4.015   0.142   6.112
 5588SOL    HW117663   4.024   0.184   6.021
 5588SOL    HW217664   4.105   0.118   6.146
 5589SOL     OW17665   4.444   3.161   6.872
 5589SOL    HW117666   4.364   3.127   6.822
 5589SOL    HW217667   4.508   3.203   6.808
 5590SOL     OW17668   0.153   6.352   3.483
 5590SOL    HW117669   0.188   6.326   3.574
 5590SOL    HW217670   0.189   6.288   3.415
 5591SOL     OW17671   4.651   1.076   0.130
 5591SOL    HW117672   4.604   1.151   0.084
 5591SOL    HW217673   4.711   1.029   0.066
 5592SOL     OW17674   1.900   2.511   2.390
 5592SOL    HW117675   1.819   2.487   2.444
 5592SOL    HW217676   1.962   2.565   2.447
 5593SOL     OW17677   1.653   3.092   5.771
 5593SOL    HW117678   1.671   2.999   5.802
 5593SOL    HW217679   1.736   3.147   5.783
 5594SOL     OW17680   2.342   0.572   6.920
 5594SOL    HW117681   2.273   0.545   6.852
 5594SOL    HW217682   2.431   0.584   6.874
 5595SOL     OW17683   6.488   2.165   5.895
 5595SOL    HW117684   6.489   2.156   5.994
 5595SOL    HW217685   6.581   2.175   5.861
 5596SOL     OW17686   4.936   1.290   3.490
 5596SOL    HW117687   4.978   1.357   3.429
 5596SOL    HW217688   4.870   1.336   3.549
 5597SOL     OW17689   0.227   1.298   5.979
 5597SOL    HW117690   0.227   1.250   6.066
 5597SOL    HW217691   0.190   1.239   5.907
 5598SOL     OW17692   6.842   2.235   4.152
 5598SOL    HW117693   6.867   2.201   4.243
 5598SOL    HW217694   6.774   2.174   4.112
 5599SOL     OW17695   5.139   2.907   3.423
 5599SOL    HW117696   5.135   2.955   3.511
 5599SOL    HW217697   5.047   2.875   3.399
 5600SOL     OW17698   2.652   1.695   2.337
 5600SOL    HW117699   2.751   1.696   2.325
 5600SOL    HW217700   2.612   1.621   2.283
 5601SOL     OW17701   5.600   2.686   5.520
 5601SOL    HW117702   5.582   2.633   5.604
 5601SOL    HW217703   5.669   2.755   5.539
 5602SOL     OW17704   6.552   2.391   2.527
 5602SOL    HW117705   6.596   2.438   2.451
 5602SOL    HW217706   6.596   2.302   2.541
 5603SOL     OW17707   4.274   1.484   5.312
 5603SOL    HW117708   4.226   1.404   5.350
 5603SOL    HW217709   4.338   1.453   5.242
 5604SOL     OW17710   1.082   0.688   4.388
 5604SOL    HW117711   1.068   0.786   4.379
 5604SOL    HW217712   1.061   0.643   4.300
 5605SOL     OW17713   3.441   6.386   4.389
 5605SOL    HW117714   3.476   6.323   4.458
 5605SOL    HW217715   3.506   6.393   4.313
 5606SOL     OW17716   4.515   2.677   0.628
 5606SOL    HW117717   4.593   2.711   0.680
 5606SOL    HW217718   4.546   2.646   0.538
 5607SOL     OW17719   6.251   2.526   2.477
 5607SOL    HW117720   6.303   2.562   2.399
 5607SOL    HW217721   6.314   2.484   2.542
 5608SOL     OW17722   4.925   0.569   3.563
 5608SOL    HW117723   4.840   0.579   3.511
 5608SOL    HW217724   4.939   0.650   3.619
 5609SOL     OW17725   0.321   0.047   0.789
 5609SOL    HW117726   0.397   0.108   0.767
 5609SOL    HW217727   0.345   6.973   0.764
 5610SOL     OW17728   5.538   4.637   0.496
 5610SOL    HW117729   5.590   4.553   0.510
 5610SOL    HW217730   5.466   4.620   0.428
 5611SOL     OW17731   6.505   4.623   1.507
 5611SOL    HW117732   6.447   4.543   1.521
 5611SOL    HW217733   6.554   4.644   1.592
 5612SOL     OW17734   3.092   1.609   0.451
 5612SOL    HW117735   3.039   1.639   0.530
 5612SOL    HW217736   3.100   1.509   0.452
 5613SOL     OW17737   6.415   5.140   5.834
 5613SOL    HW117738   6.364   5.177   5.757
 5613SOL    HW217739   6.511   5.166   5.827
 5614SOL     OW17740   5.539   2.580   3.899
 5614SOL    HW117741   5.507   2.624   3.983
 5614SOL    HW217742   5.464   2.527   3.859
 5615SOL     OW17743   0.244   2.922   2.908
 5615SOL    HW117744   0.168   2.984   2.890
 5615SOL    HW217745   0.237   2.886   3.001
 5616SOL     OW17746   1.241   3.001   2.585
 5616SOL    HW117747   1.235   2.983   2.486
 5616SOL    HW217748   1.151   3.030   2.618
 5617SOL     OW17749   1.855   4.913   6.114
 5617SOL    HW117750   1.858   4.844   6.041
 5617SOL    HW217751   1.904   4.995   6.084
 5618SOL     OW17752   6.125   5.896   3.003
 5618SOL    HW117753   6.180   5.816   2.976
 5618SOL    HW217754   6.153   5.975   2.948
 5619SOL     OW17755   3.692   2.962   3.811
 5619SOL    HW117756   3.633   2.940   3.733
 5619SOL    HW217757   3.638   2.958   3.895
 5620SOL     OW17758   4.879   4.421   5.001
 5620SOL    HW117759   4.905   4.478   5.079
 5620SOL    HW217760   4.797   4.369   5.024
 5621SOL     OW17761   1.691   2.266   5.320
 5621SOL    HW117762   1.607   2.319   5.306
 5621SOL    HW217763   1.753   2.317   5.380
 5622SOL     OW17764   4.711   6.071   4.569
 5622SOL    HW117765   4.799   6.023   4.574
 5622SOL    HW217766   4.724   6.167   4.593
 5623SOL     OW17767   5.044   5.793   3.559
 5623SOL    HW117768   5.015   5.826   3.649
 5623SOL    HW217769   4.993   5.843   3.488
 5624SOL     OW17770   6.267   5.582   3.934
 5624SOL    HW117771   6.286   5.566   3.837
 5624SOL    HW217772   6.258   5.494   3.981
 5625SOL     OW17773   1.102   6.446   5.062
 5625SOL    HW117774   1.069   6.421   4.971
 5625SOL    HW217775   1.148   6.535   5.057
 5626SOL     OW17776   0.872   4.326   6.315
 5626SOL    HW117777   0.866   4.322   6.215
 5626SOL    HW217778   0.945   4.265   6.346
 5627SOL     OW17779   0.394   5.960   0.172
 5627SOL    HW117780   0.435   5.872   0.195
 5627SOL    HW217781   0.460   6.015   0.121
 5628SOL     OW17782   2.363   2.238   1.740
 5628SOL    HW117783   2.434   2.304   1.766
 5628SOL    HW217784   2.348   2.175   1.816
 5629SOL     OW17785   5.367   3.337   2.309
 5629SOL    HW117786   5.374   3.431   2.340
 5629SOL    HW217787   5.451   3.311   2.262
 5630SOL     OW17788   1.461   4.343   6.950
 5630SOL    HW117789   1.478   4.360   6.853
 5630SOL    HW217790   1.516   4.265   6.980
 5631SOL     OW17791   3.951   1.571   1.582
 5631SOL    HW117792   3.908   1.637   1.643
 5631SOL    HW217793   4.032   1.612   1.540
 5632SOL     OW17794   5.317   6.846   5.823
 5632SOL    HW117795   5.346   6.801   5.739
 5632SOL    HW217796   5.226   6.886   5.810
 5633SOL     OW17797   0.809   4.908   5.763
 5633SOL    HW117798   0.751   4.833   5.794
 5633SOL    HW217799   0.847   4.957   5.842
 5634SOL     OW17800   2.488   6.967   1.420
 5634SOL    HW117801   2.571   6.964   1.365
 5634SOL    HW217802   2.416   6.913   1.375
 5635SOL     OW17803   2.298   0.822   6.986
 5635SOL    HW117804   2.320   0.729   6.957
 5635SOL    HW217805   2.292   0.882   6.906
 5636SOL     OW17806   5.973   1.724   5.614
 5636SOL    HW117807   6.011   1.684   5.697
 5636SOL    HW217808   6.026   1.693   5.534
 5637SOL     OW17809   4.879   6.627   4.712
 5637SOL    HW117810   4.859   6.623   4.614
 5637SOL    HW217811   4.968   6.669   4.726
 5638SOL     OW17812   6.021   5.755   1.105
 5638SOL    HW117813   6.103   5.753   1.161
 5638SOL    HW217814   5.987   5.849   1.097
 5639SOL     OW17815   1.726   0.319   1.248
 5639SOL    HW117816   1.768   0.320   1.338
 5639SOL    HW217817   1.715   0.225   1.217
 5640SOL     OW17818   2.870   5.943   2.903
 5640SOL    HW117819   2.827   6.004   2.836
 5640SOL    HW217820   2.858   5.848   2.874
 5641SOL     OW17821   1.214   4.443   4.447
 5641SOL    HW117822   1.311   4.420   4.440
 5641SOL    HW217823   1.163   4.364   4.482
 5642SOL     OW17824   1.744   4.997   0.023
 5642SOL    HW117825   1.818   5.058   7.013
 5642SOL    HW217826   1.776   4.902   0.020
 5643SOL     OW17827   4.463   2.190   5.124
 5643SOL    HW117828   4.475   2.157   5.030
 5643SOL    HW217829   4.374   2.160   5.159
 5644SOL     OW17830   4.366   0.998   4.922
 5644SOL    HW117831   4.309   1.080   4.927
 5644SOL    HW217832   4.312   0.922   4.886
 5645SOL     OW17833   5.759   5.541   4.373
 5645SOL    HW117834   5.823   5.515   4.300
 5645SOL    HW217835   5.804   5.530   4.462
 5646SOL     OW17836   0.201   5.710   4.450
 5646SOL    HW117837   0.191   5.792   4.506
 5646SOL    HW217838   0.220   5.632   4.510
 5647SOL     OW17839   5.508   5.279   5.911
 5647SOL    HW117840   5.502   5.183   5.938
 5647SOL    HW217841   5.445   5.333   5.967
 5648SOL     OW17842   1.892   1.828   4.787
 5648SOL    HW117843   1.799   1.793   4.776
 5648SOL    HW217844   1.913   1.892   4.713
 5649SOL     OW17845   0.597   0.966   5.320
 5649SOL    HW117846   0.504   1.000   5.331
 5649SOL    HW217847   0.660   1.043   5.311
 5650SOL     OW17848   6.005   4.895   6.708
 5650SOL    HW117849   6.087   4.941   6.674
 5650SOL    HW217850   6.018   4.796   6.700
 5651SOL     OW17851   7.000   0.440   2.841
 5651SOL    HW117852   6.988   0.538   2.833
 5651SOL    HW217853   6.998   0.414   2.938
 5652SOL     OW17854   4.885   4.813   0.887
 5652SOL    HW117855   4.846   4.727   0.855
 5652SOL    HW217856   4.850   4.888   0.831
 5653SOL     OW17857   1.206   5.951   6.274
 5653SOL    HW117858   1.280   6.010   6.304
 5653SOL    HW217859   1.185   5.885   6.346
 5654SOL     OW17860   6.946   6.261   5.901
 5654SOL    HW117861   0.018   6.260   5.942
 5654SOL    HW217862   6.926   6.353   5.867
 5655SOL     OW17863   6.935   3.296   3.828
 5655SOL    HW117864   6.965   3.379   3.875
 5655SOL    HW217865   6.913   3.317   3.733
 5656SOL     OW17866   3.511   4.682   0.254
 5656SOL    HW117867   3.548   4.770   0.284
 5656SOL    HW217868   3.479   4.630   0.334
 5657SOL     OW17869   3.938   6.836   1.975
 5657SOL    HW117870   3.854   6.867   2.021
 5657SOL    HW217871   3.966   6.904   1.907
 5658SOL     OW17872   3.999   0.146   5.603
 5658SOL    HW117873   4.078   0.193   5.564
 5658SOL    HW217874   3.961   0.082   5.536
 5659SOL     OW17875   3.092   3.914   3.010
 5659SOL    HW117876   3.057   3.880   2.923
 5659SOL    HW217877   3.137   4.002   2.996
 5660SOL     OW17878   6.004   6.679   6.787
 5660SOL    HW117879   6.061   6.623   6.846
 5660SOL    HW217880   6.004   6.774   6.820
 5661SOL     OW17881   6.197   5.672   4.381
 5661SOL    HW117882   6.279   5.693   4.434
 5661SOL    HW217883   6.129   5.744   4.395
 5662SOL     OW17884   2.676   4.625   4.271
 5662SOL    HW117885   2.622   4.546   4.244
 5662SOL    HW217886   2.650   4.704   4.214
 5663SOL     OW17887   1.596   4.467   0.489
 5663SOL    HW117888   1.520   4.496   0.431
 5663SOL    HW217889   1.564   4.396   0.552
 5664SOL     OW17890   0.376   4.494   2.445
 5664SOL    HW117891   0.335   4.585   2.450
 5664SOL    HW217892   0.433   4.487   2.363
 5665SOL     OW17893   2.139   2.921   6.068
 5665SOL    HW117894   2.174   2.848   6.127
 5665SOL    HW217895   2.110   2.998   6.125
 5666SOL     OW17896   5.672   4.453   0.801
 5666SOL    HW117897   5.666   4.545   0.841
 5666SOL    HW217898   5.713   4.459   0.710
 5667SOL     OW17899   0.219   4.822   3.651
 5667SOL    HW117900   0.255   4.889   3.716
 5667SOL    HW217901   0.150   4.865   3.593
 5668SOL     OW17902   5.685   2.170   6.079
 5668SOL    HW117903   5.711   2.143   6.172
 5668SOL    HW217904   5.671   2.088   6.024
 5669SOL     OW17905   0.519   4.303   6.377
 5669SOL    HW117906   0.601   4.246   6.384
 5669SOL    HW217907   0.471   4.282   6.291
 5670SOL     OW17908   0.863   3.930   3.669
 5670SOL    HW117909   0.780   3.877   3.684
 5670SOL    HW217910   0.928   3.915   3.744
 5671SOL     OW17911   2.087   0.874   5.956
 5671SOL    HW117912   2.080   0.895   6.053
 5671SOL    HW217913   2.155   0.801   5.942
 5672SOL     OW17914   4.459   4.844   5.978
 5672SOL    HW117915   4.529   4.837   6.049
 5672SOL    HW217916   4.373   4.873   6.019
 5673SOL     OW17917   0.673   0.512   2.431
 5673SOL    HW117918   0.677   0.471   2.340
 5673SOL    HW217919   0.609   0.588   2.431
 5674SOL     OW17920   6.741   3.354   1.948
 5674SOL    HW117921   6.748   3.446   1.911
 5674SOL    HW217922   6.757   3.287   1.875
 5675SOL     OW17923   4.422   2.597   5.391
 5675SOL    HW117924   4.378   2.509   5.374
 5675SOL    HW217925   4.446   2.640   5.305
 5676SOL     OW17926   2.326   0.625   2.029
 5676SOL    HW117927   2.336   0.679   2.113
 5676SOL    HW217928   2.309   0.686   1.952
 5677SOL     OW17929   6.507   0.383   3.686
 5677SOL    HW117930   6.468   0.475   3.692
 5677SOL    HW217931   6.511   0.354   3.591
 5678SOL     OW17932   2.881   6.403   2.882
 5678SOL    HW117933   2.848   6.328   2.939
 5678SOL    HW217934   2.851   6.389   2.788
 5679SOL     OW17935   2.136   6.558   4.864
 5679SOL    HW117936   2.172   6.538   4.956
 5679SOL    HW217937   2.158   6.483   4.803
 5680SOL     OW17938   1.880   5.788   6.559
 5680SOL    HW117939   1.951   5.785   6.630
 5680SOL    HW217940   1.915   5.836   6.479
 5681SOL     OW17941   1.214   2.747   6.898
 5681SOL    HW117942   1.283   2.695   6.949
 5681SOL    HW217943   1.132   2.691   6.886
 5682SOL     OW17944   1.192   3.680   5.035
 5682SOL    HW117945   1.259   3.724   4.977
 5682SOL    HW217946   1.236   3.647   5.119
 5683SOL     OW17947   3.270   2.369   5.959
 5683SOL    HW117948   3.283   2.372   5.860
 5683SOL    HW217949   3.249   2.461   5.992
 5684SOL     OW17950   3.495   4.154   4.050
 5684SOL    HW117951   3.412   4.148   4.105
 5684SOL    HW217952   3.572   4.116   4.102
 5685SOL     OW17953   6.995   4.965   1.931
 5685SOL    HW117954   6.965   4.947   1.837
 5685SOL    HW217955   0.026   5.051   1.933
 5686SOL     OW17956   3.673   0.232   0.418
 5686SOL    HW117957   3.720   0.144   0.430
 5686SOL    HW217958   3.650   0.244   0.322
 5687SOL     OW17959   5.026   4.948   5.311
 5687SOL    HW117960   5.081   4.867   5.290
 5687SOL    HW217961   5.075   5.007   5.374
 5688SOL     OW17962   5.570   1.714   1.684
 5688SOL    HW117963   5.597   1.744   1.593
 5688SOL    HW217964   5.475   1.685   1.683
 5689SOL     OW17965   3.626   2.521   0.410
 5689SOL    HW117966   3.667   2.537   0.500
 5689SOL    HW217967   3.547   2.460   0.419
 5690SOL     OW17968   4.940   6.325   1.130
 5690SOL    HW117969   4.921   6.343   1.034
 5690SOL    HW217970   4.869   6.266   1.168
 5691SOL     OW17971   1.635   0.437   1.998
 5691SOL    HW117972   1.647   0.522   1.946
 5691SOL    HW217973   1.662   0.453   2.093
 5692SOL     OW17974   6.496   2.478   0.149
 5692SOL    HW117975   6.586   2.456   0.188
 5692SOL    HW217976   6.506   2.496   0.052
 5693SOL     OW17977   4.930   2.346   2.419
 5693SOL    HW117978   4.987   2.408   2.473
 5693SOL    HW217979   4.834   2.356   2.448
 5694SOL     OW17980   0.298   1.765   3.761
 5694SOL    HW117981   0.215   1.807   3.722
 5694SOL    HW217982   0.272   1.684   3.814
 5695SOL     OW17983   1.723   3.329   3.459
 5695SOL    HW117984   1.747   3.419   3.494
 5695SOL    HW217985   1.780   3.307   3.379
 5696SOL     OW17986   2.997   0.542   4.862
 5696SOL    HW117987   2.962   0.630   4.830
 5696SOL    HW217988   3.082   0.521   4.815
 5697SOL     OW17989   6.629   2.469   0.468
 5697SOL    HW117990   6.546   2.427   0.430
 5697SOL    HW217991   6.612   2.495   0.564
 5698SOL     OW17992   0.777   3.646   1.633
 5698SOL    HW117993   0.779   3.680   1.539
 5698SOL    HW217994   0.684   3.617   1.655
 5699SOL     OW17995   5.863   0.882   5.223
 5699SOL    HW117996   5.880   0.952   5.293
 5699SOL    HW217997   5.889   0.792   5.260
 5700SOL     OW17998   1.684   5.811   4.350
 5700SOL    HW117999   1.632   5.896   4.358
 5700SOL    HW218000   1.774   5.823   4.392
 5701SOL     OW18001   6.381   5.435   1.538
 5701SOL    HW118002   6.319   5.491   1.482
 5701SOL    HW218003   6.349   5.340   1.537
 5702SOL     OW18004   2.565   0.472   6.343
 5702SOL    HW118005   2.573   0.433   6.251
 5702SOL    HW218006   2.546   0.399   6.409
 5703SOL     OW18007   4.538   4.955   0.626
 5703SOL    HW118008   4.475   5.030   0.649
 5703SOL    HW218009   4.486   4.873   0.605
 5704SOL     OW18010   4.586   5.369   3.723
 5704SOL    HW118011   4.578   5.379   3.624
 5704SOL    HW218012   4.645   5.441   3.759
 5705SOL     OW18013   6.097   0.575   1.392
 5705SOL    HW118014   6.075   0.667   1.425
 5705SOL    HW218015   6.038   0.552   1.315
 5706SOL     OW18016   1.362   1.296   6.595
 5706SOL    HW118017   1.301   1.344   6.533
 5706SOL    HW218018   1.321   1.292   6.686
 5707SOL     OW18019   2.212   1.714   6.827
 5707SOL    HW118020   2.262   1.755   6.751
 5707SOL    HW218021   2.117   1.745   6.826
 5708SOL     OW18022   4.930   6.888   2.300
 5708SOL    HW118023   4.862   6.957   2.277
 5708SOL    HW218024   4.885   6.807   2.338
 5709SOL     OW18025   0.314   6.996   2.959
 5709SOL    HW118026   0.400   6.977   2.910
 5709SOL    HW218027   0.322   6.964   3.053
 5710SOL     OW18028   3.372   3.040   6.143
 5710SOL    HW118029   3.392   2.997   6.055
 5710SOL    HW218030   3.392   3.138   6.137
 5711SOL     OW18031   4.653   1.047   4.447
 5711SOL    HW118032   4.648   1.012   4.354
 5711SOL    HW218033   4.606   0.984   4.509
 5712SOL     OW18034   0.186   5.903   6.278
 5712SOL    HW118035   0.246   5.854   6.342
 5712SOL    HW218036   0.226   5.899   6.186
 5713SOL     OW18037   0.193   3.139   2.531
 5713SOL    HW118038   0.223   3.150   2.626
 5713SOL    HW218039   0.165   3.227   2.493
 5714SOL     OW18040   1.631   0.876   6.103
 5714SOL    HW118041   1.536   0.862   6.075
 5714SOL    HW218042   1.685   0.901   6.022
 5715SOL     OW18043   1.273   6.617   2.597
 5715SOL    HW118044   1.361   6.662   2.614
 5715SOL    HW218045   1.209   6.682   2.557
 5716SOL     OW18046   2.081   3.840   6.007
 5716SOL    HW118047   2.073   3.853   5.908
 5716SOL    HW218048   2.120   3.922   6.049
 5717SOL     OW18049   1.216   4.113   0.275
 5717SOL    HW118050   1.134   4.164   0.300
 5717SOL    HW218051   1.296   4.159   0.314
 5718SOL     OW18052   3.160   4.687   6.370
 5718SOL    HW118053   3.182   4.768   6.424
 5718SOL    HW218054   3.067   4.695   6.334
 5719SOL     OW18055   3.257   0.710   6.550
 5719SOL    HW118056   3.277   0.639   6.483
 5719SOL    HW218057   3.196   0.673   6.620
 5720SOL     OW18058   1.579   4.972   5.160
 5720SOL    HW118059   1.587   5.070   5.140
 5720SOL    HW218060   1.567   4.959   5.259
 5721SOL     OW18061   0.744   3.764   1.380
 5721SOL    HW118062   0.762   3.688   1.318
 5721SOL    HW218063   0.799   3.843   1.353
 5722SOL     OW18064   5.431   6.889   4.459
 5722SOL    HW118065   5.438   6.789   4.454
 5722SOL    HW218066   5.350   6.919   4.409
 5723SOL     OW18067   3.364   5.399   0.498
 5723SOL    HW118068   3.273   5.439   0.487
 5723SOL    HW218069   3.431   5.473   0.509
 5724SOL     OW18070   5.315   1.753   6.143
 5724SOL    HW118071   5.310   1.739   6.242
 5724SOL    HW218072   5.408   1.737   6.111
 5725SOL     OW18073   5.421   5.201   4.993
 5725SOL    HW118074   5.464   5.133   5.053
 5725SOL    HW218075   5.347   5.156   4.942
 5726SOL     OW18076   5.752   3.391   6.083
 5726SOL    HW118077   5.664   3.379   6.036
 5726SOL    HW218078   5.820   3.332   6.040
 5727SOL     OW18079   5.762   1.907   3.543
 5727SOL    HW118080   5.792   1.987   3.492
 5727SOL    HW218081   5.663   1.899   3.537
 5728SOL     OW18082   6.142   0.131   5.190
 5728SOL    HW118083   6.136   0.201   5.119
 5728SOL    HW218084   6.223   0.148   5.246
 5729SOL     OW18085   0.371   2.013   6.380
 5729SOL    HW118086   0.278   2.049   6.383
 5729SOL    HW218087   0.374   1.934   6.318
 5730SOL     OW18088   3.961   4.440   5.780
 5730SOL    HW118089   3.960   4.523   5.835
 5730SOL    HW218090   3.964   4.464   5.683
 5731SOL     OW18091   3.023   1.175   3.881
 5731SOL    HW118092   2.926   1.200   3.891
 5731SOL    HW218093   3.036   1.126   3.795
 5732SOL     OW18094   5.976   5.221   5.266
 5732SOL    HW118095   5.974   5.121   5.278
 5732SOL    HW218096   6.061   5.246   5.220
 5733SOL     OW18097   3.168   1.292   6.900
 5733SOL    HW118098   3.068   1.284   6.903
 5733SOL    HW218099   3.202   1.316   6.991
 5734SOL     OW18100   1.513   6.130   6.111
 5734SOL    HW118101   1.431   6.188   6.113
 5734SOL    HW218102   1.551   6.129   6.018
 5735SOL     OW18103   4.081   0.570   2.124
 5735SOL    HW118104   4.076   0.472   2.143
 5735SOL    HW218105   4.173   0.603   2.145
 5736SOL     OW18106   4.358   3.963   6.756
 5736SOL    HW118107   4.338   3.872   6.794
 5736SOL    HW218108   4.422   3.954   6.680
 5737SOL     OW18109   4.639   5.327   1.314
 5737SOL    HW118110   4.638   5.361   1.220
 5737SOL    HW218111   4.712   5.259   1.324
 5738SOL     OW18112   3.204   1.060   6.484
 5738SOL    HW118113   3.264   1.028   6.557
 5738SOL    HW218114   3.190   1.159   6.494
 5739SOL     OW18115   3.029   0.538   5.476
 5739SOL    HW118116   3.053   0.451   5.519
 5739SOL    HW218117   3.026   0.609   5.546
 5740SOL     OW18118   5.372   3.821   2.287
 5740SOL    HW118119   5.287   3.806   2.338
 5740SOL    HW218120   5.371   3.765   2.204
 5741SOL     OW18121   0.801   3.691   4.075
 5741SOL    HW118122   0.743   3.629   4.127
 5741SOL    HW218123   0.746   3.764   4.034
 5742SOL     OW18124   4.548   0.324   3.516
 5742SOL    HW118125   4.479   0.320   3.588
 5742SOL    HW218126   4.639   0.314   3.556
 5743SOL     OW18127   3.579   3.871   5.237
 5743SOL    HW118128   3.609   3.962   5.210
 5743SOL    HW218129   3.650   3.804   5.213
 5744SOL     OW18130   5.593   6.344   2.735
 5744SOL    HW118131   5.591   6.394   2.822
 5744SOL    HW218132   5.538   6.394   2.668
 5745SOL     OW18133   2.121   2.551   3.464
 5745SOL    HW118134   2.028   2.585   3.453
 5745SOL    HW218135   2.150   2.564   3.559
 5746SOL     OW18136   4.353   0.354   3.702
 5746SOL    HW118137   4.348   0.282   3.770
 5746SOL    HW218138   4.264   0.366   3.659
 5747SOL     OW18139   0.878   5.893   1.823
 5747SOL    HW118140   0.823   5.828   1.770
 5747SOL    HW218141   0.885   5.861   1.917
 5748SOL     OW18142   0.502   6.150   0.610
 5748SOL    HW118143   0.479   6.053   0.613
 5748SOL    HW218144   0.587   6.163   0.558
 5749SOL     OW18145   1.867   6.277   5.141
 5749SOL    HW118146   1.799   6.205   5.133
 5749SOL    HW218147   1.939   6.263   5.074
 5750SOL     OW18148   6.781   4.584   4.070
 5750SOL    HW118149   6.781   4.514   3.999
 5750SOL    HW218150   6.874   4.597   4.104
 5751SOL     OW18151   2.132   3.786   4.455
 5751SOL    HW118152   2.141   3.707   4.516
 5751SOL    HW218153   2.165   3.868   4.502
 5752SOL     OW18154   5.394   0.113   0.949
 5752SOL    HW118155   5.462   0.140   0.881
 5752SOL    HW218156   5.437   0.112   1.040
 5753SOL     OW18157   3.270   4.047   4.652
 5753SOL    HW118158   3.189   4.021   4.705
 5753SOL    HW218159   3.321   4.118   4.702
 5754SOL     OW18160   0.707   6.090   1.609
 5754SOL    HW118161   0.739   6.181   1.585
 5754SOL    HW218162   0.782   6.025   1.604
 5755SOL     OW18163   1.935   2.131   0.290
 5755SOL    HW118164   1.979   2.138   0.379
 5755SOL    HW218165   1.966   2.049   0.243
 5756SOL     OW18166   5.720   6.085   1.646
 5756SOL    HW118167   5.710   5.996   1.602
 5756SOL    HW218168   5.670   6.085   1.733
 5757SOL     OW18169   6.761   0.166   3.530
 5757SOL    HW118170   6.806   0.243   3.575
 5757SOL    HW218171   6.686   0.200   3.474
 5758SOL     OW18172   1.014   6.732   3.124
 5758SOL    HW118173   0.961   6.655   3.088
 5758SOL    HW218174   1.075   6.767   3.053
 5759SOL     OW18175   4.135   6.687   1.512
 5759SOL    HW118176   4.204   6.716   1.578
 5759SOL    HW218177   4.050   6.736   1.527
 5760SOL     OW18178   7.013   3.120   1.792
 5760SOL    HW118179   0.072   3.060   1.779
 5760SOL    HW218180   6.980   3.110   1.886
 5761SOL     OW18181   5.625   5.421   4.779
 5761SOL    HW118182   5.641   5.323   4.778
 5761SOL    HW218183   5.547   5.442   4.839
 5762SOL     OW18184   5.068   4.546   6.820
 5762SOL    HW118185   5.156   4.590   6.840
 5762SOL    HW218186   5.033   4.503   6.904
 5763SOL     OW18187   5.600   0.491   0.436
 5763SOL    HW118188   5.615   0.450   0.526
 5763SOL    HW218189   5.608   0.591   0.444
 5764SOL     OW18190   4.370   5.486   3.257
 5764SOL    HW118191   4.355   5.387   3.255
 5764SOL    HW218192   4.295   5.531   3.208
 5765SOL     OW18193   6.255   4.728   1.245
 5765SOL    HW118194   6.200   4.787   1.186
 5765SOL    HW218195   6.339   4.777   1.271
 5766SOL     OW18196   0.712   1.779   4.641
 5766SOL    HW118197   0.788   1.752   4.581
 5766SOL    HW218198   0.650   1.839   4.590
 5767SOL     OW18199   2.048   7.010   1.353
 5767SOL    HW118200   2.051   7.016   1.253
 5767SOL    HW218201   2.077   0.077   1.392
 5768SOL     OW18202   6.908   6.312   4.118
 5768SOL    HW118203   6.934   6.242   4.185
 5768SOL    HW218204   6.832   6.279   4.063
 5769SOL     OW18205   1.406   4.995   6.228
 5769SOL    HW118206   1.487   4.942   6.204
 5769SOL    HW218207   1.370   5.040   6.146
 5770SOL     OW18208   0.893   5.965   1.419
 5770SOL    HW118209   0.969   6.028   1.406
 5770SOL    HW218210   0.810   6.005   1.381
 5771SOL     OW18211   2.248   5.437   4.208
 5771SOL    HW118212   2.272   5.379   4.130
 5771SOL    HW218213   2.307   5.415   4.286
 5772SOL     OW18214   4.872   0.312   2.100
 5772SOL    HW118215   4.794   0.374   2.091
 5772SOL    HW218216   4.839   0.219   2.111
 5773SOL     OW18217   4.454   2.268   2.100
 5773SOL    HW118218   4.411   2.206   2.166
 5773SOL    HW218219   4.384   2.310   2.043
 5774SOL     OW18220   0.460   6.463   3.354
 5774SOL    HW118221   0.491   6.503   3.440
 5774SOL    HW218222   0.517   6.384   3.331
 5775SOL     OW18223   0.558   5.442   2.566
 5775SOL    HW118224   0.489   5.379   2.602
 5775SOL    HW218225   0.546   5.452   2.467
 5776SOL     OW18226   2.059   0.199   2.696
 5776SOL    HW118227   2.010   0.115   2.720
 5776SOL    HW218228   2.008   0.248   2.625
 5777SOL     OW18229   1.506   0.286   3.297
 5777SOL    HW118230   1.562   0.364   3.326
 5777SOL    HW218231   1.425   0.279   3.355
 5778SOL     OW18232   1.236   1.507   6.456
 5778SOL    HW118233   1.261   1.491   6.361
 5778SOL    HW218234   1.156   1.566   6.460
 5779SOL     OW18235   4.719   2.431   6.434
 5779SOL    HW118236   4.817   2.422   6.450
 5779SOL    HW218237   4.697   2.394   6.344
 5780SOL     OW18238   5.480   4.489   3.884
 5780SOL    HW118239   5.401   4.428   3.884
 5780SOL    HW218240   5.458   4.572   3.934
 5781SOL     OW18241   0.548   4.150   5.061
 5781SOL    HW118242   0.481   4.200   5.006
 5781SOL    HW218243   0.588   4.211   5.129
 5782SOL     OW18244   0.887   1.262   0.488
 5782SOL    HW118245   0.900   1.164   0.499
 5782SOL    HW218246   0.794   1.279   0.455
 5783SOL     OW18247   1.743   1.588   1.945
 5783SOL    HW118248   1.686   1.584   2.026
 5783SOL    HW218249   1.706   1.656   1.881
 5784SOL     OW18250   0.347   6.751   0.209
 5784SOL    HW118251   0.256   6.722   0.181
 5784SOL    HW218252   0.408   6.672   0.211
 5785SOL     OW18253   2.616   1.329   0.914
 5785SOL    HW118254   2.646   1.410   0.964
 5785SOL    HW218255   2.695   1.283   0.873
 5786SOL     OW18256   0.074   3.968   0.232
 5786SOL    HW118257   0.025   3.902   0.289
 5786SOL    HW218258   0.116   4.038   0.290
 5787SOL     OW18259   2.638   1.852   5.598
 5787SOL    HW118260   2.615   1.899   5.684
 5787SOL    HW218261   2.563   1.791   5.573
 5788SOL     OW18262   2.586   0.423   2.766
 5788SOL    HW118263   2.551   0.378   2.684
 5788SOL    HW218264   2.511   0.472   2.811
 5789SOL     OW18265   3.795   5.433   6.403
 5789SOL    HW118266   3.719   5.450   6.340
 5789SOL    HW218267   3.850   5.356   6.368
 5790SOL     OW18268   0.526   3.178   4.401
 5790SOL    HW118269   0.427   3.178   4.391
 5790SOL    HW218270   0.556   3.088   4.433
 5791SOL     OW18271   2.742   0.016   2.927
 5791SOL    HW118272   2.734   0.096   2.868
 5791SOL    HW218273   2.831   0.017   2.973
 5792SOL     OW18274   0.005   1.927   3.073
 5792SOL    HW118275   6.927   1.943   3.077
 5792SOL    HW218276   0.023   1.829   3.062
 5793SOL     OW18277   6.545   1.246   3.835
 5793SOL    HW118278   6.490   1.215   3.912
 5793SOL    HW218279   6.503   1.214   3.749
 5794SOL     OW18280   3.558   3.417   0.548
 5794SOL    HW118281   3.610   3.481   0.492
 5794SOL    HW218282   3.613   3.334   0.564
 5795SOL     OW18283   5.705   5.067   5.819
 5795SOL    HW118284   5.799   5.075   5.787
 5795SOL    HW218285   5.653   5.148   5.792
 5796SOL     OW18286   3.004   1.396   0.144
 5796SOL    HW118287   3.049   1.373   0.231
 5796SOL    HW218288   2.994   1.314   0.089
 5797SOL     OW18289   3.499   2.114   4.544
 5797SOL    HW118290   3.401   2.131   4.534
 5797SOL    HW218291   3.528   2.141   4.636
 5798SOL     OW18292   0.214   4.575   4.985
 5798SOL    HW118293   0.172   4.656   5.027
 5798SOL    HW218294   0.305   4.598   4.951
 5799SOL     OW18295   5.081   0.092   3.475
 5799SOL    HW118296   5.140   0.021   3.437
 5799SOL    HW218297   5.075   0.168   3.410
 5800SOL     OW18298   5.497   4.510   1.434
 5800SOL    HW118299   5.494   4.486   1.531
 5800SOL    HW218300   5.583   4.477   1.394
 5801SOL     OW18301   0.441   1.719   3.526
 5801SOL    HW118302   0.512   1.662   3.566
 5801SOL    HW218303   0.385   1.759   3.599
 5802SOL     OW18304   0.699   4.129   6.550
 5802SOL    HW118305   0.614   4.150   6.599
 5802SOL    HW218306   0.777   4.138   6.611
 5803SOL     OW18307   1.149   4.814   1.247
 5803SOL    HW118308   1.187   4.877   1.315
 5803SOL    HW218309   1.221   4.789   1.182
 5804SOL     OW18310   6.418   3.846   4.566
 5804SOL    HW118311   6.383   3.924   4.513
 5804SOL    HW218312   6.370   3.841   4.653
 5805SOL     OW18313   4.163   4.331   6.354
 5805SOL    HW118314   4.149   4.319   6.256
 5805SOL    HW218315   4.078   4.314   6.403
 5806SOL     OW18316   0.982   6.689   0.362
 5806SOL    HW118317   0.965   6.780   0.324
 5806SOL    HW218318   1.052   6.695   0.433
 5807SOL     OW18319   1.418   3.950   0.969
 5807SOL    HW118320   1.500   3.918   0.923
 5807SOL    HW218321   1.440   3.977   1.063
 5808SOL     OW18322   5.166   4.286   2.822
 5808SOL    HW118323   5.069   4.305   2.836
 5808SOL    HW218324   5.188   4.198   2.862
 5809SOL     OW18325   6.944   3.317   4.597
 5809SOL    HW118326   6.909   3.242   4.653
 5809SOL    HW218327   6.878   3.392   4.596
 5810SOL     OW18328   3.085   1.418   3.766
 5810SOL    HW118329   3.068   1.512   3.795
 5810SOL    HW218330   3.069   1.356   3.843
 5811SOL     OW18331   2.816   0.456   5.052
 5811SOL    HW118332   2.847   0.479   5.144
 5811SOL    HW218333   2.888   0.479   4.986
 5812SOL     OW18334   5.011   6.953   3.776
 5812SOL    HW118335   4.918   6.951   3.814
 5812SOL    HW218336   5.053   6.863   3.784
 5813SOL     OW18337   1.190   1.003   5.901
 5813SOL    HW118338   1.091   0.984   5.897
 5813SOL    HW218339   1.215   1.062   5.825
 5814SOL     OW18340   6.796   4.146   0.709
 5814SOL    HW118341   6.761   4.173   0.799
 5814SOL    HW218342   6.895   4.132   0.715
 5815SOL     OW18343   4.334   2.362   3.005
 5815SOL    HW118344   4.312   2.290   3.071
 5815SOL    HW218345   4.260   2.429   3.002
 5816SOL     OW18346   5.542   0.412   0.021
 5816SOL    HW118347   5.610   0.348   0.056
 5816SOL    HW218348   5.495   0.371   6.962
 5817SOL     OW18349   6.140   3.029   5.946
 5817SOL    HW118350   6.168   3.000   5.855
 5817SOL    HW218351   6.120   2.948   6.002
 5818SOL     OW18352   5.986   6.301   5.428
 5818SOL    HW118353   5.899   6.323   5.472
 5818SOL    HW218354   5.973   6.296   5.329
 5819SOL     OW18355   5.022   0.666   1.030
 5819SOL    HW118356   4.997   0.742   0.970
 5819SOL    HW218357   4.953   0.594   1.024
 5820SOL     OW18358   5.015   6.754   3.421
 5820SOL    HW118359   5.112   6.768   3.436
 5820SOL    HW218360   4.989   6.791   3.332
 5821SOL     OW18361   2.794   0.675   1.887
 5821SOL    HW118362   2.743   0.597   1.922
 5821SOL    HW218363   2.804   0.744   1.959
 5822SOL     OW18364   0.544   2.540   1.692
 5822SOL    HW118365   0.453   2.562   1.728
 5822SOL    HW218366   0.546   2.557   1.594
 5823SOL     OW18367   1.005   0.756   5.052
 5823SOL    HW118368   1.098   0.763   5.017
 5823SOL    HW218369   1.005   0.770   5.151
 5824SOL     OW18370   6.596   6.518   3.169
 5824SOL    HW118371   6.671   6.460   3.201
 5824SOL    HW218372   6.528   6.461   3.123
 5825SOL     OW18373   2.584   1.442   6.372
 5825SOL    HW118374   2.548   1.534   6.353
 5825SOL    HW218375   2.683   1.449   6.389
 5826SOL     OW18376   6.402   6.334   5.254
 5826SOL    HW118377   6.388   6.245   5.296
 5826SOL    HW218378   6.478   6.329   5.189
 5827SOL     OW18379   0.978   5.234   5.128
 5827SOL    HW118380   0.968   5.318   5.182
 5827SOL    HW218381   1.074   5.218   5.107
 5828SOL     OW18382   0.675   3.792   1.914
 5828SOL    HW118383   0.704   3.855   1.842
 5828SOL    HW218384   0.619   3.719   1.874
 5829SOL     OW18385   2.928   1.214   2.327
 5829SOL    HW118386   2.832   1.188   2.317
 5829SOL    HW218387   2.934   1.308   2.361
 5830SOL     OW18388   4.096   0.932   5.906
 5830SOL    HW118389   4.099   0.909   6.004
 5830SOL    HW218390   4.007   0.969   5.884
 5831SOL     OW18391   6.135   6.255   3.021
 5831SOL    HW118392   6.087   6.245   2.933
 5831SOL    HW218393   6.117   6.176   3.079
 5832SOL     OW18394   4.326   4.028   5.644
 5832SOL    HW118395   4.412   4.025   5.594
 5832SOL    HW218396   4.292   4.122   5.647
 5833SOL     OW18397   3.135   3.508   4.261
 5833SOL    HW118398   3.215   3.502   4.322
 5833SOL    HW218399   3.165   3.498   4.166
 5834SOL     OW18400   6.251   1.622   0.342
 5834SOL    HW118401   6.247   1.716   0.376
 5834SOL    HW218402   6.179   1.568   0.386
 5835SOL     OW18403   5.065   2.395   3.579
 5835SOL    HW118404   4.977   2.357   3.608
 5835SOL    HW218405   5.120   2.322   3.539
 5836SOL     OW18406   3.134   5.691   2.843
 5836SOL    HW118407   3.069   5.716   2.914
 5836SOL    HW218408   3.136   5.591   2.833
 5837SOL     OW18409   4.730   4.636   0.107
 5837SOL    HW118410   4.711   4.570   0.180
 5837SOL    HW218411   4.645   4.682   0.081
 5838SOL     OW18412   1.616   1.477   6.192
 5838SOL    HW118413   1.594   1.562   6.241
 5838SOL    HW218414   1.713   1.477   6.168
 5839SOL     OW18415   6.943   3.187   2.405
 5839SOL    HW118416   7.011   3.258   2.426
 5839SOL    HW218417   6.870   3.226   2.349
 5840SOL     OW18418   0.963   5.938   6.897
 5840SOL    HW118419   0.982   5.946   6.995
 5840SOL    HW218420   0.897   6.009   6.870
 5841SOL     OW18421   5.882   3.327   2.698
 5841SOL    HW118422   5.900   3.233   2.669
 5841SOL    HW218423   5.824   3.327   2.779
 5842SOL     OW18424   3.470   3.390   0.860
 5842SOL    HW118425   3.472   3.453   0.783
 5842SOL    HW218426   3.415   3.430   0.934
 5843SOL     OW18427   2.106   3.501   2.404
 5843SOL    HW118428   2.121   3.586   2.354
 5843SOL    HW218429   2.131   3.423   2.346
 5844SOL     OW18430   0.549   5.907   6.397
 5844SOL    HW118431   0.647   5.927   6.397
 5844SOL    HW218432   0.531   5.827   6.454
 5845SOL     OW18433   1.328   2.496   3.587
 5845SOL    HW118434   1.264   2.426   3.556
 5845SOL    HW218435   1.393   2.517   3.513
 5846SOL     OW18436   6.664   2.905   5.152
 5846SOL    HW118437   6.718   2.959   5.217
 5846SOL    HW218438   6.685   2.808   5.163
 5847SOL     OW18439   2.014   2.202   2.127
 5847SOL    HW118440   1.933   2.223   2.183
 5847SOL    HW218441   1.995   2.225   2.032
 5848SOL     OW18442   2.093   5.114   3.305
 5848SOL    HW118443   2.036   5.083   3.229
 5848SOL    HW218444   2.034   5.142   3.381
 5849SOL     OW18445   1.232   0.152   5.518
 5849SOL    HW118446   1.298   0.187   5.451
 5849SOL    HW218447   1.175   0.228   5.552
 5850SOL     OW18448   1.283   3.684   2.055
 5850SOL    HW118449   1.377   3.666   2.086
 5850SOL    HW218450   1.277   3.777   2.018
 5851SOL     OW18451   6.051   3.725   2.371
 5851SOL    HW118452   5.967   3.677   2.396
 5851SOL    HW218453   6.037   3.824   2.380
 5852SOL     OW18454   4.103   6.443   2.829
 5852SOL    HW118455   4.121   6.364   2.770
 5852SOL    HW218456   4.005   6.465   2.826
 5853SOL     OW18457   3.099   5.578   6.288
 5853SOL    HW118458   3.105   5.677   6.298
 5853SOL    HW218459   3.007   5.548   6.309
 5854SOL     OW18460   6.735   3.105   5.787
 5854SOL    HW118461   6.637   3.090   5.776
 5854SOL    HW218462   6.750   3.179   5.853
 5855SOL     OW18463   1.285   1.161   4.601
 5855SOL    HW118464   1.212   1.161   4.532
 5855SOL    HW218465   1.295   1.253   4.638
 5856SOL     OW18466   2.090   5.572   3.534
 5856SOL    HW118467   2.071   5.503   3.604
 5856SOL    HW218468   2.157   5.638   3.569
 5857SOL     OW18469   6.445   2.964   5.328
 5857SOL    HW118470   6.474   2.952   5.423
 5857SOL    HW218471   6.524   2.951   5.268
 5858SOL     OW18472   2.888   1.530   2.293
 5858SOL    HW118473   2.958   1.511   2.224
 5858SOL    HW218474   2.923   1.595   2.360
 5859SOL     OW18475   6.115   6.295   0.610
 5859SOL    HW118476   6.101   6.391   0.638
 5859SOL    HW218477   6.035   6.241   0.635
 5860SOL     OW18478   1.952   4.654   1.901
 5860SOL    HW118479   1.936   4.556   1.890
 5860SOL    HW218480   2.006   4.688   1.823
 5861SOL     OW18481   5.451   2.126   3.973
 5861SOL    HW118482   5.506   2.144   3.892
 5861SOL    HW218483   5.478   2.189   4.046
 5862SOL     OW18484   3.757   5.177   3.242
 5862SOL    HW118485   3.763   5.192   3.143
 5862SOL    HW218486   3.827   5.111   3.269
 5863SOL     OW18487   2.327   0.684   6.294
 5863SOL    HW118488   2.379   0.758   6.335
 5863SOL    HW218489   2.391   0.617   6.255
 5864SOL     OW18490   4.327   4.082   1.676
 5864SOL    HW118491   4.334   3.983   1.689
 5864SOL    HW218492   4.394   4.128   1.734
 5865SOL     OW18493   5.263   0.622   3.877
 5865SOL    HW118494   5.217   0.570   3.805
 5865SOL    HW218495   5.355   0.586   3.891
 5866SOL     OW18496   4.681   6.607   6.074
 5866SOL    HW118497   4.745   6.645   6.140
 5866SOL    HW218498   4.593   6.589   6.119
 5867SOL     OW18499   0.307   2.720   1.292
 5867SOL    HW118500   0.272   2.736   1.200
 5867SOL    HW218501   0.244   2.661   1.343
 5868SOL     OW18502   0.485   0.270   5.116
 5868SOL    HW118503   0.514   0.214   5.193
 5868SOL    HW218504   0.544   0.350   5.109
 5869SOL     OW18505   2.366   4.649   3.780
 5869SOL    HW118506   2.405   4.646   3.688
 5869SOL    HW218507   2.436   4.625   3.847
 5870SOL     OW18508   5.190   5.110   4.558
 5870SOL    HW118509   5.191   5.010   4.554
 5870SOL    HW218510   5.230   5.147   4.475
 5871SOL     OW18511   3.473   3.694   0.365
 5871SOL    HW118512   3.416   3.705   0.447
 5871SOL    HW218513   3.557   3.645   0.389
 5872SOL     OW18514   4.324   5.642   6.813
 5872SOL    HW118515   4.351   5.687   6.899
 5872SOL    HW218516   4.406   5.610   6.766
 5873SOL     OW18517   2.221   3.160   0.422
 5873SOL    HW118518   2.141   3.209   0.388
 5873SOL    HW218519   2.194   3.102   0.499
 5874SOL     OW18520   2.578   3.333   1.359
 5874SOL    HW118521   2.658   3.391   1.347
 5874SOL    HW218522   2.525   3.365   1.437
 5875SOL     OW18523   3.279   1.906   0.234
 5875SOL    HW118524   3.296   1.970   0.159
 5875SOL    HW218525   3.195   1.855   0.216
 5876SOL     OW18526   3.234   3.174   6.486
 5876SOL    HW118527   3.259   3.199   6.579
 5876SOL    HW218528   3.153   3.115   6.487
 5877SOL     OW18529   6.630   0.131   1.206
 5877SOL    HW118530   6.684   0.214   1.219
 5877SOL    HW218531   6.533   0.151   1.224
 5878SOL     OW18532   4.741   5.776   2.161
 5878SOL    HW118533   4.716   5.837   2.236
 5878SOL    HW218534   4.712   5.816   2.074
 5879SOL     OW18535   3.947   3.094   6.240
 5879SOL    HW118536   3.898   3.162   6.185
 5879SOL    HW218537   3.939   3.004   6.197
 5880SOL     OW18538   5.173   3.060   5.512
 5880SOL    HW118539   5.168   3.043   5.414
 5880SOL    HW218540   5.089   3.027   5.556
 5881SOL     OW18541   0.952   6.328   2.838
 5881SOL    HW118542   1.046   6.326   2.873
 5881SOL    HW218543   0.904   6.245   2.867
 5882SOL     OW18544   1.307   6.238   5.596
 5882SOL    HW118545   1.257   6.317   5.561
 5882SOL    HW218546   1.401   6.241   5.564
 5883SOL     OW18547   0.429   3.985   0.796
 5883SOL    HW118548   0.481   4.047   0.854
 5883SOL    HW218549   0.489   3.914   0.760
 5884SOL     OW18550   5.841   1.445   3.968
 5884SOL    HW118551   5.920   1.473   3.914
 5884SOL    HW218552   5.786   1.526   3.990
 5885SOL     OW18553   0.544   5.113   0.393
 5885SOL    HW118554   0.555   5.082   0.487
 5885SOL    HW218555   0.630   5.103   0.343
 5886SOL     OW18556   1.307   3.530   3.279
 5886SOL    HW118557   1.272   3.551   3.188
 5886SOL    HW218558   1.351   3.440   3.278
 5887SOL     OW18559   2.166   1.878   1.469
 5887SOL    HW118560   2.237   1.947   1.485
 5887SOL    HW218561   2.205   1.786   1.482
 5888SOL     OW18562   2.953   0.155   1.763
 5888SOL    HW118563   3.010   0.073   1.766
 5888SOL    HW218564   2.943   0.185   1.669
 5889SOL     OW18565   0.214   0.747   1.282
 5889SOL    HW118566   0.311   0.767   1.295
 5889SOL    HW218567   0.200   0.706   1.192
 5890SOL     OW18568   2.722   6.338   2.230
 5890SOL    HW118569   2.702   6.260   2.289
 5890SOL    HW218570   2.726   6.307   2.135
 5891SOL     OW18571   2.747   3.062   0.722
 5891SOL    HW118572   2.825   3.116   0.693
 5891SOL    HW218573   2.681   3.121   0.770
 5892SOL     OW18574   0.583   3.806   0.463
 5892SOL    HW118575   0.603   3.901   0.439
 5892SOL    HW218576   0.540   3.761   0.385
 5893SOL     OW18577   1.034   5.602   2.073
 5893SOL    HW118578   0.969   5.553   2.130
 5893SOL    HW218579   1.127   5.579   2.100
 5894SOL     OW18580   0.666   5.766   5.387
 5894SOL    HW118581   0.761   5.782   5.413
 5894SOL    HW218582   0.620   5.713   5.458
 5895SOL     OW18583   5.820   3.175   4.932
 5895SOL    HW118584   5.808   3.108   4.859
 5895SOL    HW218585   5.907   3.159   4.978
 5896SOL     OW18586   5.874   1.482   1.808
 5896SOL    HW118587   5.869   1.488   1.908
 5896SOL    HW218588   5.866   1.573   1.769
 5897SOL     OW18589   4.467   1.479   1.237
 5897SOL    HW118590   4.565   1.497   1.227
 5897SOL    HW218591   4.418   1.517   1.158
 5898SOL     OW18592   1.916   1.295   5.660
 5898SOL    HW118593   1.967   1.222   5.705
 5898SOL    HW218594   1.945   1.383   5.698
 5899SOL     OW18595   6.978   5.330   6.143
 5899SOL    HW118596   7.009   5.412   6.191
 5899SOL    HW218597   6.983   5.251   6.204
 5900SOL     OW18598   6.791   5.990   2.969
 5900SOL    HW118599   6.865   5.924   2.979
 5900SOL    HW218600   6.823   6.081   2.995
 5901SOL     OW18601   1.713   6.960   6.366
 5901SOL    HW118602   1.794   6.903   6.353
 5901SOL    HW218603   1.642   6.935   6.301
 5902SOL     OW18604   5.841   4.461   4.546
 5902SOL    HW118605   5.806   4.453   4.452
 5902SOL    HW218606   5.910   4.390   4.561
 5903SOL     OW18607   6.414   2.399   6.903
 5903SOL    HW118608   6.492   2.337   6.909
 5903SOL    HW218609   6.340   2.366   6.962
 5904SOL     OW18610   1.984   4.659   3.048
 5904SOL    HW118611   2.022   4.683   2.959
 5904SOL    HW218612   2.030   4.578   3.084
 5905SOL     OW18613   5.743   0.921   3.948
 5905SOL    HW118614   5.788   1.007   3.922
 5905SOL    HW218615   5.690   0.936   4.032
 5906SOL     OW18616   5.388   1.373   5.735
 5906SOL    HW118617   5.462   1.334   5.681
 5906SOL    HW218618   5.409   1.468   5.757
 5907SOL     OW18619   1.531   1.525   6.525
 5907SOL    HW118620   1.530   1.578   6.440
 5907SOL    HW218621   1.452   1.465   6.528
 5908SOL     OW18622   4.501   3.471   6.189
 5908SOL    HW118623   4.424   3.437   6.134
 5908SOL    HW218624   4.527   3.562   6.157
 5909SOL     OW18625   7.017   4.697   5.294
 5909SOL    HW118626   6.982   4.606   5.272
 5909SOL    HW218627   6.947   4.749   5.343
 5910SOL     OW18628   1.913   4.043   1.344
 5910SOL    HW118629   1.839   4.085   1.397
 5910SOL    HW218630   1.937   4.102   1.267
 5911SOL     OW18631   6.207   5.090   6.327
 5911SOL    HW118632   6.111   5.061   6.328
 5911SOL    HW218633   6.220   5.163   6.394
 5912SOL     OW18634   6.192   3.602   6.806
 5912SOL    HW118635   6.230   3.509   6.812
 5912SOL    HW218636   6.267   3.668   6.799
 5913SOL     OW18637   2.195   1.954   6.201
 5913SOL    HW118638   2.135   1.912   6.269
 5913SOL    HW218639   2.140   2.011   6.139
 5914SOL     OW18640   2.433   5.492   0.536
 5914SOL    HW118641   2.472   5.464   0.624
 5914SOL    HW218642   2.505   5.493   0.467
 5915SOL     OW18643   4.721   2.776   2.820
 5915SOL    HW118644   4.752   2.708   2.885
 5915SOL    HW218645   4.646   2.829   2.860
 5916SOL     OW18646   3.811   6.929   5.425
 5916SOL    HW118647   3.830   0.001   5.390
 5916SOL    HW218648   3.733   6.890   5.375
 5917SOL     OW18649   3.807   3.381   3.183
 5917SOL    HW118650   3.829   3.437   3.263
 5917SOL    HW218651   3.724   3.417   3.140
 5918SOL     OW18652   1.690   3.397   4.014
 5918SOL    HW118653   1.751   3.429   3.942
 5918SOL    HW218654   1.742   3.345   4.081
 5919SOL     OW18655   2.353   2.585   0.438
 5919SOL    HW118656   2.440   2.635   0.437
 5919SOL    HW218657   2.371   2.487   0.446
 5920SOL     OW18658   3.811   0.432   6.352
 5920SOL    HW118659   3.765   0.344   6.338
 5920SOL    HW218660   3.869   0.427   6.433
 5921SOL     OW18661   3.809   5.396   5.712
 5921SOL    HW118662   3.885   5.395   5.777
 5921SOL    HW218663   3.746   5.321   5.733
 5922SOL     OW18664   6.452   4.627   2.812
 5922SOL    HW118665   6.390   4.556   2.844
 5922SOL    HW218666   6.409   4.716   2.823
 5923SOL     OW18667   6.533   0.330   3.416
 5923SOL    HW118668   6.560   0.237   3.392
 5923SOL    HW218669   6.497   0.377   3.336
 5924SOL     OW18670   5.254   2.343   4.352
 5924SOL    HW118671   5.330   2.334   4.287
 5924SOL    HW218672   5.273   2.421   4.413
 5925SOL     OW18673   5.680   5.802   1.575
 5925SOL    HW118674   5.694   5.794   1.674
 5925SOL    HW218675   5.593   5.759   1.550
 5926SOL     OW18676   3.625   5.413   1.690
 5926SOL    HW118677   3.564   5.352   1.739
 5926SOL    HW218678   3.579   5.500   1.672
 5927SOL     OW18679   2.796   5.940   1.618
 5927SOL    HW118680   2.721   5.876   1.598
 5927SOL    HW218681   2.786   6.021   1.561
 5928SOL     OW18682   1.280   0.226   2.388
 5928SOL    HW118683   1.340   0.170   2.446
 5928SOL    HW218684   1.281   0.320   2.422
 5929SOL     OW18685   1.215   6.598   5.969
 5929SOL    HW118686   1.131   6.644   5.995
 5929SOL    HW218687   1.276   6.591   6.048
 5930SOL     OW18688   6.448   1.083   5.122
 5930SOL    HW118689   6.487   1.118   5.037
 5930SOL    HW218690   6.369   1.025   5.102
 5931SOL     OW18691   5.903   5.497   1.689
 5931SOL    HW118692   5.868   5.506   1.783
 5931SOL    HW218693   5.929   5.587   1.655
 5932SOL     OW18694   1.993   6.501   1.296
 5932SOL    HW118695   2.082   6.546   1.292
 5932SOL    HW218696   1.934   6.549   1.361
 5933SOL     OW18697   0.195   4.184   2.745
 5933SOL    HW118698   0.234   4.276   2.741
 5933SOL    HW218699   0.268   4.118   2.764
 5934SOL     OW18700   3.722   3.724   3.017
 5934SOL    HW118701   3.804   3.744   3.071
 5934SOL    HW218702   3.741   3.741   2.920
 5935SOL     OW18703   3.922   4.098   4.912
 5935SOL    HW118704   3.956   4.051   4.831
 5935SOL    HW218705   3.859   4.170   4.885
 5936SOL     OW18706   4.864   4.715   6.763
 5936SOL    HW118707   4.942   4.654   6.778
 5936SOL    HW218708   4.872   4.795   6.823
 5937SOL     OW18709   1.100   4.092   0.728
 5937SOL    HW118710   1.114   4.007   0.676
 5937SOL    HW218711   1.007   4.093   0.765
 5938SOL     OW18712   2.238   4.436   3.134
 5938SOL    HW118713   2.322   4.465   3.180
 5938SOL    HW218714   2.251   4.440   3.035
 5939SOL     OW18715   3.090   0.511   3.116
 5939SOL    HW118716   3.174   0.533   3.164
 5939SOL    HW218717   3.029   0.461   3.178
 5940SOL     OW18718   3.757   7.007   2.983
 5940SOL    HW118719   3.849   0.016   2.956
 5940SOL    HW218720   3.733   6.923   2.934
 5941SOL     OW18721   6.470   5.131   2.226
 5941SOL    HW118722   6.550   5.182   2.256
 5941SOL    HW218723   6.407   5.119   2.303
 5942SOL     OW18724   3.973   3.439   6.160
 5942SOL    HW118725   3.892   3.461   6.215
 5942SOL    HW218726   3.944   3.410   6.068
 5943SOL     OW18727   1.960   5.750   0.189
 5943SOL    HW118728   2.024   5.788   0.256
 5943SOL    HW218729   1.952   5.811   0.111
 5944SOL     OW18730   4.957   1.346   2.408
 5944SOL    HW118731   5.005   1.304   2.331
 5944SOL    HW218732   4.867   1.302   2.419
 5945SOL     OW18733   6.417   4.830   5.862
 5945SOL    HW118734   6.501   4.790   5.826
 5945SOL    HW218735   6.426   4.930   5.864
 5946SOL     OW18736   4.491   3.644   5.910
 5946SOL    HW118737   4.411   3.702   5.894
 5946SOL    HW218738   4.574   3.699   5.896
 5947SOL     OW18739   4.155   3.419   1.676
 5947SOL    HW118740   4.206   3.336   1.699
 5947SOL    HW218741   4.064   3.414   1.716
 5948SOL     OW18742   3.512   4.885   2.920
 5948SOL    HW118743   3.603   4.859   2.887
 5948SOL    HW218744   3.516   4.896   3.019
 5949SOL     OW18745   4.225   4.769   1.006
 5949SOL    HW118746   4.152   4.827   0.972
 5949SOL    HW218747   4.207   4.674   0.983
 5950SOL     OW18748   5.899   1.985   4.620
 5950SOL    HW118749   5.842   1.915   4.664
 5950SOL    HW218750   5.843   2.037   4.555
 5951SOL     OW18751   2.119   6.226   4.090
 5951SOL    HW118752   2.039   6.246   4.146
 5951SOL    HW218753   2.184   6.302   4.096
 5952SOL     OW18754   6.402   6.165   3.631
 5952SOL    HW118755   6.314   6.192   3.670
 5952SOL    HW218756   6.397   6.070   3.600
 5953SOL     OW18757   6.598   3.541   5.492
 5953SOL    HW118758   6.579   3.521   5.396
 5953SOL    HW218759   6.689   3.582   5.500
 5954SOL     OW18760   6.877   4.616   6.307
 5954SOL    HW118761   6.958   4.623   6.365
 5954SOL    HW218762   6.796   4.604   6.363
 5955SOL     OW18763   5.293   5.061   1.765
 5955SOL    HW118764   5.304   5.161   1.768
 5955SOL    HW218765   5.197   5.038   1.784
 5956SOL     OW18766   3.937   2.316   6.914
 5956SOL    HW118767   3.953   2.217   6.904
 5956SOL    HW218768   3.850   2.340   6.872
 5957SOL     OW18769   5.480   6.395   5.747
 5957SOL    HW118770   5.495   6.490   5.775
 5957SOL    HW218771   5.389   6.366   5.778
 5958SOL     OW18772   6.418   6.207   1.700
 5958SOL    HW118773   6.503   6.156   1.715
 5958SOL    HW218774   6.341   6.143   1.694
 5959SOL     OW18775   2.956   1.724   5.731
 5959SOL    HW118776   2.858   1.735   5.715
 5959SOL    HW218777   2.992   1.806   5.776
 5960SOL     OW18778   2.602   0.345   3.682
 5960SOL    HW118779   2.632   0.437   3.709
 5960SOL    HW218780   2.597   0.340   3.582
 5961SOL     OW18781   3.520   0.663   5.029
 5961SOL    HW118782   3.578   0.735   4.992
 5961SOL    HW218783   3.556   0.574   5.000
 5962SOL     OW18784   4.785   5.560   2.327
 5962SOL    HW118785   4.777   5.618   2.245
 5962SOL    HW218786   4.841   5.481   2.306
 5963SOL     OW18787   3.856   3.813   2.534
 5963SOL    HW118788   3.876   3.717   2.516
 5963SOL    HW218789   3.928   3.851   2.592
 5964SOL     OW18790   0.193   4.885   6.581
 5964SOL    HW118791   0.272   4.905   6.523
 5964SOL    HW218792   0.157   4.970   6.619
 5965SOL     OW18793   1.858   2.745   6.525
 5965SOL    HW118794   1.814   2.792   6.602
 5965SOL    HW218795   1.924   2.679   6.560
 5966SOL     OW18796   2.890   6.049   4.647
 5966SOL    HW118797   2.977   6.057   4.696
 5966SOL    HW218798   2.889   6.114   4.571
 5967SOL     OW18799   4.679   6.850   2.965
 5967SOL    HW118800   4.604   6.837   2.899
 5967SOL    HW218801   4.642   6.888   3.050
 5968SOL     OW18802   6.402   2.323   3.149
 5968SOL    HW118803   6.329   2.269   3.106
 5968SOL    HW218804   6.368   2.363   3.234
 5969SOL     OW18805   5.851   3.334   3.952
 5969SOL    HW118806   5.942   3.345   3.991
 5969SOL    HW218807   5.784   3.379   4.012
 5970SOL     OW18808   1.270   3.607   2.924
 5970SOL    HW118809   1.284   3.532   2.859
 5970SOL    HW218810   1.354   3.620   2.977
 5971SOL     OW18811   1.768   6.698   3.089
 5971SOL    HW118812   1.698   6.633   3.119
 5971SOL    HW218813   1.823   6.656   3.016
 5972SOL     OW18814   5.299   0.104   6.935
 5972SOL    HW118815   5.300   0.128   0.012
 5972SOL    HW218816   5.363   0.029   6.919
 5973SOL     OW18817   1.822   4.241   2.837
 5973SOL    HW118818   1.896   4.304   2.860
 5973SOL    HW218819   1.858   4.147   2.832
 5974SOL     OW18820   6.815   3.725   6.903
 5974SOL    HW118821   6.902   3.764   6.934
 5974SOL    HW218822   6.833   3.660   6.829
 5975SOL     OW18823   3.735   2.815   1.079
 5975SOL    HW118824   3.761   2.906   1.110
 5975SOL    HW218825   3.672   2.774   1.145
 5976SOL     OW18826   2.985   3.217   4.854
 5976SOL    HW118827   3.075   3.173   4.851
 5976SOL    HW218828   2.955   3.237   4.761
 5977SOL     OW18829   1.969   4.887   2.050
 5977SOL    HW118830   1.956   4.802   1.999
 5977SOL    HW218831   2.046   4.876   2.113
 5978SOL     OW18832   5.247   4.495   2.527
 5978SOL    HW118833   5.346   4.478   2.528
 5978SOL    HW218834   5.207   4.462   2.613
 5979SOL     OW18835   6.553   0.856   3.714
 5979SOL    HW118836   6.642   0.842   3.758
 5979SOL    HW218837   6.555   0.940   3.660
 5980SOL     OW18838   4.785   4.465   0.683
 5980SOL    HW118839   4.877   4.463   0.723
 5980SOL    HW218840   4.723   4.512   0.746
 5981SOL     OW18841   6.069   1.670   2.470
 5981SOL    HW118842   6.094   1.749   2.526
 5981SOL    HW218843   6.131   1.594   2.490
 5982SOL     OW18844   6.982   1.976   6.697
 5982SOL    HW118845   6.989   2.074   6.717
 5982SOL    HW218846   0.053   1.935   6.698
 5983SOL     OW18847   2.207   2.086   3.954
 5983SOL    HW118848   2.269   2.016   3.987
 5983SOL    HW218849   2.250   2.136   3.878
 5984SOL     OW18850   6.901   6.134   4.335
 5984SOL    HW118851   6.873   6.040   4.317
 5984SOL    HW218852   6.902   6.150   4.434
 5985SOL     OW18853   5.267   2.138   3.682
 5985SOL    HW118854   5.213   2.192   3.747
 5985SOL    HW218855   5.364   2.144   3.707
 5986SOL     OW18856   3.556   3.059   3.218
 5986SOL    HW118857   3.501   3.006   3.283
 5986SOL    HW218858   3.509   3.145   3.197
 5987SOL     OW18859   4.473   6.647   4.619
 5987SOL    HW118860   4.539   6.703   4.568
 5987SOL    HW218861   4.490   6.551   4.600
 5988SOL     OW18862   4.415   6.751   4.117
 5988SOL    HW118863   4.358   6.683   4.162
 5988SOL    HW218864   4.378   6.842   4.135
 5989SOL     OW18865   2.830   0.375   6.119
 5989SOL    HW118866   2.732   0.377   6.102
 5989SOL    HW218867   2.866   0.285   6.096
 5990SOL     OW18868   3.634   4.749   0.705
 5990SOL    HW118869   3.658   4.657   0.677
 5990SOL    HW218870   3.718   4.803   0.716
 5991SOL     OW18871   3.340   5.475   4.300
 5991SOL    HW118872   3.429   5.442   4.331
 5991SOL    HW218873   3.295   5.403   4.247
 5992SOL     OW18874   3.585   0.542   4.092
 5992SOL    HW118875   3.568   0.512   3.998
 5992SOL    HW218876   3.674   0.586   4.098
 5993SOL     OW18877   2.456   6.199   5.812
 5993SOL    HW118878   2.432   6.113   5.768
 5993SOL    HW218879   2.377   6.261   5.809
 5994SOL     OW18880   6.308   2.412   2.161
 5994SOL    HW118881   6.250   2.493   2.163
 5994SOL    HW218882   6.273   2.347   2.094
 5995SOL     OW18883   6.527   5.164   1.151
 5995SOL    HW118884   6.543   5.068   1.127
 5995SOL    HW218885   6.613   5.213   1.154
 5996SOL     OW18886   0.511   5.691   6.552
 5996SOL    HW118887   0.439   5.621   6.547
 5996SOL    HW218888   0.585   5.668   6.489
 5997SOL     OW18889   0.139   6.842   1.763
 5997SOL    HW118890   0.082   6.914   1.804
 5997SOL    HW218891   0.233   6.853   1.794
 5998SOL     OW18892   5.415   1.956   2.767
 5998SOL    HW118893   5.433   2.047   2.805
 5998SOL    HW218894   5.477   1.939   2.691
 5999SOL     OW18895   1.807   1.818   3.312
 5999SOL    HW118896   1.726   1.870   3.338
 5999SOL    HW218897   1.795   1.722   3.339
 6000SOL     OW18898   4.109   4.817   2.490
 6000SOL    HW118899   4.177   4.749   2.466
 6000SOL    HW218900   4.143   4.909   2.467
 6001SOL     OW18901   6.831   2.728   0.095
 6001SOL    HW118902   6.785   2.798   0.039
 6001SOL    HW218903   6.779   2.714   0.179
 6002SOL     OW18904   1.683   0.612   1.748
 6002SOL    HW118905   1.586   0.594   1.737
 6002SOL    HW218906   1.722   0.640   1.660
 6003SOL     OW18907   5.604   3.908   4.767
 6003SOL    HW118908   5.567   3.912   4.674
 6003SOL    HW218909   5.566   3.828   4.814
 6004SOL     OW18910   0.750   3.537   2.888
 6004SOL    HW118911   0.742   3.610   2.956
 6004SOL    HW218912   0.813   3.565   2.816
 6005SOL     OW18913   3.971   5.680   4.119
 6005SOL    HW118914   4.020   5.649   4.038
 6005SOL    HW218915   3.872   5.674   4.102
 6006SOL     OW18916   2.842   6.430   6.631
 6006SOL    HW118917   2.808   6.522   6.652
 6006SOL    HW218918   2.771   6.363   6.649
 6007SOL     OW18919   5.751   2.146   4.002
 6007SOL    HW118920   5.767   2.240   3.974
 6007SOL    HW218921   5.776   2.084   3.928
 6008SOL     OW18922   3.425   4.885   5.919
 6008SOL    HW118923   3.370   4.856   5.841
 6008SOL    HW218924   3.517   4.846   5.912
 6009SOL     OW18925   2.703   1.647   4.103
 6009SOL    HW118926   2.738   1.703   4.028
 6009SOL    HW218927   2.736   1.683   4.190
 6010SOL     OW18928   1.769   4.209   2.453
 6010SOL    HW118929   1.772   4.294   2.399
 6010SOL    HW218930   1.676   4.173   2.453
 6011SOL     OW18931   5.009   2.754   2.104
 6011SOL    HW118932   5.097   2.801   2.096
 6011SOL    HW218933   4.961   2.759   2.016
 6012SOL     OW18934   6.716   2.700   0.336
 6012SOL    HW118935   6.653   2.638   0.384
 6012SOL    HW218936   6.731   2.782   0.391
 6013SOL     OW18937   6.238   0.676   2.228
 6013SOL    HW118938   6.302   0.752   2.222
 6013SOL    HW218939   6.273   0.598   2.176
 6014SOL     OW18940   6.115   0.866   0.126
 6014SOL    HW118941   6.135   0.950   0.178
 6014SOL    HW218942   6.159   0.788   0.170
 6015SOL     OW18943   6.100   2.145   4.771
 6015SOL    HW118944   6.016   2.099   4.744
 6015SOL    HW218945   6.170   2.131   4.701
 6016SOL     OW18946   1.637   0.675   5.108
 6016SOL    HW118947   1.700   0.609   5.149
 6016SOL    HW218948   1.557   0.627   5.073
 6017SOL     OW18949   6.083   5.182   3.231
 6017SOL    HW118950   6.058   5.279   3.232
 6017SOL    HW218951   6.012   5.129   3.278
 6018SOL     OW18952   2.751   3.404   0.537
 6018SOL    HW118953   2.759   3.364   0.446
 6018SOL    HW218954   2.659   3.444   0.548
 6019SOL     OW18955   3.837   0.888   3.931
 6019SOL    HW118956   3.861   0.810   3.989
 6019SOL    HW218957   3.919   0.921   3.884
 6020SOL     OW18958   3.888   0.711   2.772
 6020SOL    HW118959   3.827   0.637   2.745
 6020SOL    HW218960   3.949   0.734   2.696
 6021SOL     OW18961   4.337   1.135   1.961
 6021SOL    HW118962   4.390   1.175   2.035
 6021SOL    HW218963   4.262   1.080   1.999
 6022SOL     OW18964   4.781   1.484   3.038
 6022SOL    HW118965   4.744   1.577   3.035
 6022SOL    HW218966   4.740   1.433   3.114
 6023SOL     OW18967   0.450   1.645   3.109
 6023SOL    HW118968   0.418   1.646   3.015
 6023SOL    HW218969   0.379   1.684   3.168
 6024SOL     OW18970   0.655   4.844   1.796
 6024SOL    HW118971   0.666   4.913   1.725
 6024SOL    HW218972   0.577   4.868   1.854
 6025SOL     OW18973   4.472   1.455   1.700
 6025SOL    HW118974   4.516   1.474   1.788
 6025SOL    HW218975   4.514   1.374   1.659
 6026SOL     OW18976   6.404   5.420   5.209
 6026SOL    HW118977   6.495   5.457   5.190
 6026SOL    HW218978   6.383   5.431   5.306
 6027SOL     OW18979   2.639   2.671   6.903
 6027SOL    HW118980   2.703   2.741   6.935
 6027SOL    HW218981   2.545   2.700   6.921
 6028SOL     OW18982   1.853   4.757   0.112
 6028SOL    HW118983   1.839   4.666   0.152
 6028SOL    HW218984   1.877   4.822   0.185
 6029SOL     OW18985   1.857   6.014   0.609
 6029SOL    HW118986   1.883   6.076   0.683
 6029SOL    HW218987   1.894   5.923   0.627
 6030SOL     OW18988   2.235   0.762   1.822
 6030SOL    HW118989   2.158   0.699   1.808
 6030SOL    HW218990   2.287   0.770   1.736
 6031SOL     OW18991   4.673   6.688   5.794
 6031SOL    HW118992   4.671   6.690   5.894
 6031SOL    HW218993   4.767   6.678   5.762
 6032SOL     OW18994   1.585   3.558   2.482
 6032SOL    HW118995   1.562   3.474   2.530
 6032SOL    HW218996   1.639   3.535   2.400
 6033SOL     OW18997   1.411   1.833   2.720
 6033SOL    HW118998   1.484   1.890   2.683
 6033SOL    HW218999   1.326   1.850   2.670
 6034SOL     OW19000   2.395   4.464   5.029
 6034SOL    HW119001   2.441   4.544   5.068
 6034SOL    HW219002   2.348   4.490   4.945
 6035SOL     OW19003   5.252   0.635   4.552
 6035SOL    HW119004   5.240   0.681   4.640
 6035SOL    HW219005   5.340   0.589   4.549
 6036SOL     OW19006   0.320   0.016   5.105
 6036SOL    HW119007   0.405   6.997   5.070
 6036SOL    HW219008   0.336   0.109   5.135
 6037SOL     OW19009   5.072   5.201   5.442
 6037SOL    HW119010   5.086   5.284   5.497
 6037SOL    HW219011   5.005   5.220   5.370
 6038SOL     OW19012   6.689   4.048   6.074
 6038SOL    HW119013   6.739   4.025   5.990
 6038SOL    HW219014   6.610   4.104   6.050
 6039SOL     OW19015   3.288   3.385   2.303
 6039SOL    HW119016   3.293   3.465   2.244
 6039SOL    HW219017   3.218   3.399   2.373
 6040SOL     OW19018   0.600   2.164   6.329
 6040SOL    HW119019   0.522   2.102   6.340
 6040SOL    HW219020   0.615   2.214   6.414
 6041SOL     OW19021   0.922   1.629   0.017
 6041SOL    HW119022   0.836   1.581   0.003
 6041SOL    HW219023   0.925   1.666   0.110
 6042SOL     OW19024   4.907   5.079   2.637
 6042SOL    HW119025   4.942   5.155   2.581
 6042SOL    HW219026   4.904   4.996   2.581
 6043SOL     OW19027   0.949   4.995   4.574
 6043SOL    HW119028   0.898   4.953   4.499
 6043SOL    HW219029   1.041   5.017   4.543
 6044SOL     OW19030   0.480   0.426   1.049
 6044SOL    HW119031   0.570   0.383   1.052
 6044SOL    HW219032   0.464   0.475   1.134
 6045SOL     OW19033   5.785   5.203   0.772
 6045SOL    HW119034   5.752   5.166   0.685
 6045SOL    HW219035   5.858   5.269   0.754
 6046SOL     OW19036   2.705   2.495   0.196
 6046SOL    HW119037   2.700   2.476   0.098
 6046SOL    HW219038   2.796   2.470   0.230
 6047SOL     OW19039   6.270   6.907   3.837
 6047SOL    HW119040   6.278   6.938   3.932
 6047SOL    HW219041   6.344   6.947   3.783
 6048SOL     OW19042   3.959   0.393   3.769
 6048SOL    HW119043   3.951   0.454   3.691
 6048SOL    HW219044   3.868   0.355   3.790
 6049SOL     OW19045   4.802   3.893   6.513
 6049SOL    HW119046   4.815   3.903   6.414
 6049SOL    HW219047   4.890   3.895   6.558
 6050SOL     OW19048   4.132   4.707   5.239
 6050SOL    HW119049   4.132   4.623   5.185
 6050SOL    HW219050   4.197   4.699   5.314
 6051SOL     OW19051   2.418   2.227   2.499
 6051SOL    HW119052   2.447   2.142   2.544
 6051SOL    HW219053   2.331   2.211   2.451
 6052SOL     OW19054   6.770   1.327   0.503
 6052SOL    HW119055   6.725   1.377   0.429
 6052SOL    HW219056   6.856   1.373   0.526
 6053SOL     OW19057   2.711   6.976   6.772
 6053SOL    HW119058   2.792   0.014   6.763
 6053SOL    HW219059   2.676   6.981   6.866
 6054SOL     OW19060   1.728   5.612   0.938
 6054SOL    HW119061   1.791   5.540   0.910
 6054SOL    HW219062   1.723   5.614   1.038
 6055SOL     OW19063   4.964   1.204   5.207
 6055SOL    HW119064   4.878   1.161   5.178
 6055SOL    HW219065   5.002   1.258   5.132
 6056SOL     OW19066   3.695   1.710   6.131
 6056SOL    HW119067   3.678   1.789   6.191
 6056SOL    HW219068   3.632   1.636   6.156
 6057SOL     OW19069   4.111   1.212   5.171
 6057SOL    HW119070   4.062   1.298   5.186
 6057SOL    HW219071   4.149   1.212   5.079
 6058SOL     OW19072   5.642   2.735   4.348
 6058SOL    HW119073   5.703   2.656   4.358
 6058SOL    HW219074   5.580   2.739   4.426
 6059SOL     OW19075   5.053   4.463   6.270
 6059SOL    HW119076   5.016   4.398   6.204
 6059SOL    HW219077   4.981   4.525   6.301
 6060SOL     OW19078   4.409   5.026   5.768
 6060SOL    HW119079   4.414   4.964   5.846
 6060SOL    HW219080   4.358   5.108   5.794
 6061SOL     OW19081   3.103   2.013   6.756
 6061SOL    HW119082   3.011   2.028   6.720
 6061SOL    HW219083   3.102   1.935   6.819
 6062SOL     OW19084   1.804   1.000   4.599
 6062SOL    HW119085   1.758   0.992   4.687
 6062SOL    HW219086   1.891   0.950   4.602
 6063SOL     OW19087   4.082   1.120   6.588
 6063SOL    HW119088   4.072   1.042   6.649
 6063SOL    HW219089   3.998   1.130   6.534
 6064SOL     OW19090   1.173   5.686   2.978
 6064SOL    HW119091   1.175   5.753   2.903
 6064SOL    HW219092   1.185   5.594   2.941
 6065SOL     OW19093   6.073   6.538   0.765
 6065SOL    HW119094   6.124   6.499   0.841
 6065SOL    HW219095   6.108   6.629   0.744
 6066SOL     OW19096   4.397   1.937   0.970
 6066SOL    HW119097   4.367   1.843   0.984
 6066SOL    HW219098   4.353   1.996   1.038
 6067SOL     OW19099   6.358   1.375   5.995
 6067SOL    HW119100   6.320   1.367   5.903
 6067SOL    HW219101   6.435   1.313   6.006
 6068SOL     OW19102   4.839   3.092   4.965
 6068SOL    HW119103   4.904   3.105   5.040
 6068SOL    HW219104   4.769   3.163   4.969
 6069SOL     OW19105   6.752   4.342   5.448
 6069SOL    HW119106   6.676   4.285   5.415
 6069SOL    HW219107   6.822   4.283   5.489
 6070SOL     OW19108   4.250   2.310   6.388
 6070SOL    HW119109   4.173   2.304   6.324
 6070SOL    HW219110   4.228   2.258   6.471
 6071SOL     OW19111   4.029   6.084   5.090
 6071SOL    HW119112   4.118   6.130   5.084
 6071SOL    HW219113   3.968   6.122   5.021
 6072SOL     OW19114   1.033   1.992   1.934
 6072SOL    HW119115   0.983   2.014   2.017
 6072SOL    HW219116   1.015   1.897   1.907
 6073SOL     OW19117   6.594   2.763   0.891
 6073SOL    HW119118   6.521   2.826   0.916
 6073SOL    HW219119   6.555   2.675   0.865
 6074SOL     OW19120   0.659   6.928   4.602
 6074SOL    HW119121   0.627   6.984   4.678
 6074SOL    HW219122   0.581   6.880   4.561
 6075SOL     OW19123   6.240   3.556   0.087
 6075SOL    HW119124   6.157   3.612   0.092
 6075SOL    HW219125   6.248   3.502   0.171
 6076SOL     OW19126   2.066   6.683   3.981
 6076SOL    HW119127   2.085   6.730   3.894
 6076SOL    HW219128   2.112   6.594   3.981
 6077SOL     OW19129   5.855   6.153   2.426
 6077SOL    HW119130   5.816   6.142   2.518
 6077SOL    HW219131   5.790   6.120   2.358
 6078SOL     OW19132   3.099   5.000   3.853
 6078SOL    HW119133   3.153   5.082   3.874
 6078SOL    HW219134   3.041   5.018   3.773
 6079SOL     OW19135   2.334   2.823   0.222
 6079SOL    HW119136   2.418   2.773   0.241
 6079SOL    HW219137   2.284   2.838   0.308
 6080SOL     OW19138   5.892   2.188   1.655
 6080SOL    HW119139   5.855   2.099   1.681
 6080SOL    HW219140   5.981   2.176   1.611
 6081SOL     OW19141   6.387   3.662   3.695
 6081SOL    HW119142   6.362   3.688   3.788
 6081SOL    HW219143   6.436   3.575   3.697
 6082SOL     OW19144   4.170   0.541   2.730
 6082SOL    HW119145   4.186   0.609   2.658
 6082SOL    HW219146   4.201   0.578   2.817
 6083SOL     OW19147   1.197   6.076   6.824
 6083SOL    HW119148   1.116   6.024   6.851
 6083SOL    HW219149   1.172   6.145   6.757
 6084SOL     OW19150   6.254   5.558   5.015
 6084SOL    HW119151   6.236   5.645   5.060
 6084SOL    HW219152   6.314   5.502   5.073
 6085SOL     OW19153   6.581   3.137   6.985
 6085SOL    HW119154   6.483   3.116   6.984
 6085SOL    HW219155   6.600   3.213   6.923
 6086SOL     OW19156   4.374   1.411   4.727
 6086SOL    HW119157   4.447   1.480   4.728
 6086SOL    HW219158   4.387   1.351   4.649
 6087SOL     OW19159   5.532   6.437   6.885
 6087SOL    HW119160   5.557   6.534   6.884
 6087SOL    HW219161   5.477   6.417   6.803
 6088SOL     OW19162   0.795   0.216   4.766
 6088SOL    HW119163   0.818   0.231   4.670
 6088SOL    HW219164   0.767   0.122   4.780
 6089SOL     OW19165   0.802   3.381   1.007
 6089SOL    HW119166   0.886   3.377   0.952
 6089SOL    HW219167   0.812   3.321   1.087
 6090SOL     OW19168   0.579   6.019   5.452
 6090SOL    HW119169   0.616   5.929   5.427
 6090SOL    HW219170   0.652   6.075   5.492
 6091SOL     OW19171   6.343   1.765   2.318
 6091SOL    HW119172   6.276   1.701   2.281
 6091SOL    HW219173   6.301   1.822   2.388
 6092SOL     OW19174   2.329   1.020   2.020
 6092SOL    HW119175   2.284   1.054   1.937
 6092SOL    HW219176   2.266   0.961   2.070
 6093SOL     OW19177   1.367   2.941   1.337
 6093SOL    HW119178   1.396   2.963   1.430
 6093SOL    HW219179   1.268   2.932   1.334
 6094SOL     OW19180   1.532   1.490   1.538
 6094SOL    HW119181   1.471   1.543   1.479
 6094SOL    HW219182   1.626   1.521   1.527
 6095SOL     OW19183   5.621   3.003   6.869
 6095SOL    HW119184   5.712   2.961   6.869
 6095SOL    HW219185   5.560   2.952   6.810
 6096SOL     OW19186   4.143   1.482   4.254
 6096SOL    HW119187   4.101   1.541   4.185
 6096SOL    HW219188   4.100   1.498   4.343
 6097SOL     OW19189   2.406   1.022   2.550
 6097SOL    HW119190   2.320   1.072   2.563
 6097SOL    HW219191   2.386   0.928   2.520
 6098SOL     OW19192   2.435   2.336   6.093
 6098SOL    HW119193   2.438   2.318   5.995
 6098SOL    HW219194   2.429   2.250   6.143
 6099SOL     OW19195   6.208   6.040   5.219
 6099SOL    HW119196   6.133   6.005   5.276
 6099SOL    HW219197   6.295   6.021   5.263
 6100SOL     OW19198   6.347   2.716   0.300
 6100SOL    HW119199   6.357   2.668   0.213
 6100SOL    HW219200   6.296   2.801   0.285
 6101SOL     OW19201   6.731   2.055   5.735
 6101SOL    HW119202   6.675   2.007   5.668
 6101SOL    HW219203   6.795   1.991   5.777
 6102SOL     OW19204   3.510   1.015   5.236
 6102SOL    HW119205   3.420   0.992   5.199
 6102SOL    HW219206   3.572   0.937   5.222
 6103SOL     OW19207   6.526   0.586   4.444
 6103SOL    HW119208   6.529   0.686   4.451
 6103SOL    HW219209   6.609   0.554   4.399
 6104SOL     OW19210   6.216   1.240   0.043
 6104SOL    HW119211   6.243   1.335   0.060
 6104SOL    HW219212   6.205   1.193   0.131
 6105SOL     OW19213   3.633   5.627   5.947
 6105SOL    HW119214   3.591   5.658   5.862
 6105SOL    HW219215   3.613   5.692   6.020
 6106SOL     OW19216   2.811   5.106   6.261
 6106SOL    HW119217   2.809   5.129   6.164
 6106SOL    HW219218   2.903   5.078   6.287
 6107SOL     OW19219   2.016   4.980   4.814
 6107SOL    HW119220   2.090   4.915   4.827
 6107SOL    HW219221   2.047   5.072   4.838
 6108SOL     OW19222   0.982   2.193   4.234
 6108SOL    HW119223   1.039   2.274   4.219
 6108SOL    HW219224   0.890   2.222   4.262
 6109SOL     OW19225   5.783   3.302   0.609
 6109SOL    HW119226   5.771   3.240   0.532
 6109SOL    HW219227   5.859   3.365   0.590
 6110SOL     OW19228   3.412   1.574   5.502
 6110SOL    HW119229   3.497   1.606   5.459
 6110SOL    HW219230   3.419   1.475   5.519
 6111SOL     OW19231   1.109   4.717   3.025
 6111SOL    HW119232   1.071   4.632   3.061
 6111SOL    HW219233   1.196   4.737   3.070
 6112SOL     OW19234   1.502   1.605   3.107
 6112SOL    HW119235   1.440   1.664   3.055
 6112SOL    HW219236   1.596   1.637   3.095
 6113SOL     OW19237   1.701   0.243   5.799
 6113SOL    HW119238   1.695   0.221   5.702
 6113SOL    HW219239   1.650   0.327   5.818
 6114SOL     OW19240   5.020   5.764   0.594
 6114SOL    HW119241   5.029   5.738   0.690
 6114SOL    HW219242   5.091   5.831   0.571
 6115SOL     OW19243   4.828   5.301   2.880
 6115SOL    HW119244   4.821   5.349   2.792
 6115SOL    HW219245   4.782   5.213   2.873
 6116SOL     OW19246   3.128   1.207   2.141
 6116SOL    HW119247   3.116   1.300   2.105
 6116SOL    HW219248   3.065   1.193   2.217
 6117SOL     OW19249   5.803   6.640   4.560
 6117SOL    HW119250   5.898   6.630   4.591
 6117SOL    HW219251   5.788   6.734   4.529
 6118SOL     OW19252   6.459   1.520   3.316
 6118SOL    HW119253   6.419   1.588   3.254
 6118SOL    HW219254   6.551   1.497   3.285
 6119SOL     OW19255   0.633   5.406   4.932
 6119SOL    HW119256   0.588   5.413   5.021
 6119SOL    HW219257   0.566   5.375   4.863
 6120SOL     OW19258   3.138   6.870   2.999
 6120SOL    HW119259   3.184   6.782   3.013
 6120SOL    HW219260   3.206   6.941   2.982
 6121SOL     OW19261   0.423   2.532   3.519
 6121SOL    HW119262   0.337   2.561   3.561
 6121SOL    HW219263   0.463   2.608   3.469
 6122SOL     OW19264   4.198   6.142   3.275
 6122SOL    HW119265   4.211   6.197   3.192
 6122SOL    HW219266   4.203   6.202   3.355
 6123SOL     OW19267   6.554   1.061   2.010
 6123SOL    HW119268   6.565   0.965   1.984
 6123SOL    HW219269   6.466   1.073   2.057
 6124SOL     OW19270   3.171   0.197   6.043
 6124SOL    HW119271   3.201   0.200   6.138
 6124SOL    HW219272   3.151   0.290   6.012
 6125SOL     OW19273   1.680   6.197   1.688
 6125SOL    HW119274   1.588   6.192   1.725
 6125SOL    HW219275   1.684   6.265   1.615
 6126SOL     OW19276   5.038   4.686   3.356
 6126SOL    HW119277   4.960   4.720   3.305
 6126SOL    HW219278   5.114   4.751   3.350
 6127SOL     OW19279   2.135   5.990   1.342
 6127SOL    HW119280   2.076   5.911   1.331
 6127SOL    HW219281   2.079   6.072   1.354
 6128SOL     OW19282   6.869   2.345   0.596
 6128SOL    HW119283   6.919   2.266   0.560
 6128SOL    HW219284   6.826   2.395   0.521
 6129SOL     OW19285   5.965   4.014   2.326
 6129SOL    HW119286   5.914   3.991   2.243
 6129SOL    HW219287   6.020   4.096   2.310
 6130SOL     OW19288   4.773   2.398   3.564
 6130SOL    HW119289   4.726   2.485   3.547
 6130SOL    HW219290   4.794   2.391   3.661
 6131SOL     OW19291   6.566   1.312   5.723
 6131SOL    HW119292   6.541   1.277   5.633
 6131SOL    HW219293   6.591   1.236   5.783
 6132SOL     OW19294   3.926   3.114   0.860
 6132SOL    HW119295   3.916   3.137   0.763
 6132SOL    HW219296   3.900   3.193   0.915
 6133SOL     OW19297   1.025   3.563   1.435
 6133SOL    HW119298   0.968   3.535   1.513
 6133SOL    HW219299   1.104   3.614   1.469
 6134SOL     OW19300   3.782   3.844   6.816
 6134SOL    HW119301   3.837   3.761   6.812
 6134SOL    HW219302   3.799   3.899   6.734
 6135SOL     OW19303   6.536   6.958   1.027
 6135SOL    HW119304   6.582   0.002   1.089
 6135SOL    HW219305   6.507   7.006   0.945
 6136SOL     OW19306   0.693   2.013   2.003
 6136SOL    HW119307   0.637   2.016   2.086
 6136SOL    HW219308   0.634   1.991   1.925
 6137SOL     OW19309   2.921   6.387   6.159
 6137SOL    HW119310   2.896   6.291   6.166
 6137SOL    HW219311   2.913   6.417   6.063
 6138SOL     OW19312   3.943   6.432   2.564
 6138SOL    HW119313   4.025   6.383   2.592
 6138SOL    HW219314   3.967   6.525   2.536
 6139SOL     OW19315   1.584   4.099   5.056
 6139SOL    HW119316   1.560   4.039   5.132
 6139SOL    HW219317   1.682   4.098   5.041
 6140SOL     OW19318   1.305   6.801   1.814
 6140SOL    HW119319   1.390   6.787   1.762
 6140SOL    HW219320   1.326   6.844   1.902
 6141SOL     OW19321   6.628   5.492   5.930
 6141SOL    HW119322   6.719   5.458   5.909
 6141SOL    HW219323   6.584   5.429   5.994
 6142SOL     OW19324   6.673   3.602   0.963
 6142SOL    HW119325   6.749   3.581   1.024
 6142SOL    HW219326   6.707   3.617   0.870
 6143SOL     OW19327   5.921   4.997   6.462
 6143SOL    HW119328   5.916   4.921   6.396
 6143SOL    HW219329   5.935   4.960   6.553
 6144SOL     OW19330   0.271   4.001   3.568
 6144SOL    HW119331   0.371   4.003   3.566
 6144SOL    HW219332   0.240   3.914   3.606
 6145SOL     OW19333   4.958   5.677   2.623
 6145SOL    HW119334   4.915   5.593   2.656
 6145SOL    HW219335   4.889   5.736   2.581
 6146SOL     OW19336   5.226   1.364   3.073
 6146SOL    HW119337   5.252   1.351   3.168
 6146SOL    HW219338   5.197   1.277   3.034
 6147SOL     OW19339   2.073   3.680   2.939
 6147SOL    HW119340   2.104   3.597   2.985
 6147SOL    HW219341   2.098   3.760   2.994
 6148SOL     OW19342   6.127   6.442   4.120
 6148SOL    HW119343   6.111   6.510   4.191
 6148SOL    HW219344   6.091   6.474   4.033
 6149SOL     OW19345   3.326   5.119   3.137
 6149SOL    HW119346   3.307   5.101   3.040
 6149SOL    HW219347   3.421   5.096   3.157
 6150SOL     OW19348   4.904   6.126   5.960
 6150SOL    HW119349   4.834   6.186   5.921
 6150SOL    HW219350   4.864   6.070   6.032
 6151SOL     OW19351   5.129   2.377   5.342
 6151SOL    HW119352   5.029   2.366   5.341
 6151SOL    HW219353   5.159   2.395   5.436
 6152SOL     OW19354   5.767   4.654   6.317
 6152SOL    HW119355   5.767   4.563   6.276
 6152SOL    HW219356   5.688   4.664   6.377
 6153SOL     OW19357   4.371   4.021   1.402
 6153SOL    HW119358   4.363   4.079   1.484
 6153SOL    HW219359   4.434   3.945   1.421
 6154SOL     OW19360   5.884   2.410   2.825
 6154SOL    HW119361   5.784   2.407   2.816
 6154SOL    HW219362   5.923   2.447   2.741
 6155SOL     OW19363   0.240   3.889   4.854
 6155SOL    HW119364   0.287   3.801   4.843
 6155SOL    HW219365   0.148   3.874   4.890
 6156SOL     OW19366   5.873   6.581   2.705
 6156SOL    HW119367   5.935   6.660   2.709
 6156SOL    HW219368   5.790   6.602   2.758
 6157SOL     OW19369   1.846   1.803   4.422
 6157SOL    HW119370   1.835   1.703   4.423
 6157SOL    HW219371   1.877   1.832   4.332
 6158SOL     OW19372   4.293   0.737   6.788
 6158SOL    HW119373   4.372   0.735   6.849
 6158SOL    HW219374   4.322   0.719   6.695
 6159SOL     OW19375   5.429   2.861   0.883
 6159SOL    HW119376   5.351   2.917   0.910
 6159SOL    HW219377   5.409   2.764   0.902
 6160SOL     OW19378   5.759   5.840   1.303
 6160SOL    HW119379   5.853   5.870   1.319
 6160SOL    HW219380   5.710   5.837   1.391
 6161SOL     OW19381   5.305   0.545   6.407
 6161SOL    HW119382   5.224   0.588   6.446
 6161SOL    HW219383   5.332   0.467   6.464
 6162SOL     OW19384   0.520   5.314   4.683
 6162SOL    HW119385   0.470   5.241   4.729
 6162SOL    HW219386   0.610   5.281   4.654
 6163SOL     OW19387   6.149   3.828   0.520
 6163SOL    HW119388   6.115   3.736   0.502
 6163SOL    HW219389   6.160   3.877   0.433
 6164SOL     OW19390   3.146   1.311   0.859
 6164SOL    HW119391   3.106   1.220   0.857
 6164SOL    HW219392   3.082   1.375   0.900
 6165SOL     OW19393   4.216   6.305   0.532
 6165SOL    HW119394   4.315   6.292   0.536
 6165SOL    HW219395   4.180   6.315   0.624
 6166SOL     OW19396   2.514   1.060   6.069
 6166SOL    HW119397   2.487   1.136   6.011
 6166SOL    HW219398   2.434   1.019   6.111
 6167SOL     OW19399   0.588   4.226   2.877
 6167SOL    HW119400   0.494   4.225   2.910
 6167SOL    HW219401   0.636   4.305   2.915
 6168SOL     OW19402   0.513   3.867   2.412
 6168SOL    HW119403   0.453   3.929   2.462
 6168SOL    HW219404   0.589   3.919   2.373
 6169SOL     OW19405   2.219   4.064   2.372
 6169SOL    HW119406   2.129   4.103   2.392
 6169SOL    HW219407   2.275   4.132   2.325
 6170SOL     OW19408   6.866   3.428   5.197
 6170SOL    HW119409   6.964   3.442   5.207
 6170SOL    HW219410   6.835   3.360   5.264
 6171SOL     OW19411   0.474   0.347   6.712
 6171SOL    HW119412   0.568   0.352   6.678
 6171SOL    HW219413   0.440   0.440   6.728
 6172SOL     OW19414   0.465   2.840   2.700
 6172SOL    HW119415   0.560   2.814   2.714
 6172SOL    HW219416   0.435   2.900   2.774
 6173SOL     OW19417   6.443   6.966   2.793
 6173SOL    HW119418   6.383   6.964   2.873
 6173SOL    HW219419   6.430   0.032   2.743
 6174SOL     OW19420   5.569   4.088   2.902
 6174SOL    HW119421   5.624   4.033   2.964
 6174SOL    HW219422   5.514   4.028   2.844
 6175SOL     OW19423   2.445   1.058   4.933
 6175SOL    HW119424   2.375   1.116   4.891
 6175SOL    HW219425   2.526   1.056   4.875
 6176SOL     OW19426   4.343   4.287   5.266
 6176SOL    HW119427   4.348   4.377   5.222
 6176SOL    HW219428   4.408   4.225   5.221
 6177SOL     OW19429   6.343   1.444   2.284
 6177SOL    HW119430   6.435   1.473   2.256
 6177SOL    HW219431   6.275   1.484   2.222
 6178SOL     OW19432   5.082   4.138   2.262
 6178SOL    HW119433   5.143   4.217   2.253
 6178SOL    HW219434   5.077   4.110   2.357
 6179SOL     OW19435   6.178   4.862   2.601
 6179SOL    HW119436   6.084   4.841   2.630
 6179SOL    HW219437   6.237   4.869   2.681
 6180SOL     OW19438   2.784   4.556   0.116
 6180SOL    HW119439   2.882   4.539   0.123
 6180SOL    HW219440   2.757   4.624   0.184
 6181SOL     OW19441   4.582   5.150   6.258
 6181SOL    HW119442   4.565   5.098   6.342
 6181SOL    HW219443   4.665   5.205   6.269
 6182SOL     OW19444   3.247   3.225   0.009
 6182SOL    HW119445   3.294   3.139   0.030
 6182SOL    HW219446   3.168   3.235   0.070
 6183SOL     OW19447   0.951   2.058   1.018
 6183SOL    HW119448   1.011   2.123   1.065
 6183SOL    HW219449   0.879   2.028   1.080
 6184SOL     OW19450   2.809   0.709   5.893
 6184SOL    HW119451   2.780   0.804   5.904
 6184SOL    HW219452   2.729   0.652   5.873
 6185SOL     OW19453   3.384   2.744   5.372
 6185SOL    HW119454   3.416   2.785   5.286
 6185SOL    HW219455   3.305   2.795   5.405
 6186SOL     OW19456   6.271   2.012   2.183
 6186SOL    HW119457   6.175   2.001   2.210
 6186SOL    HW219458   6.325   1.937   2.219
 6187SOL     OW19459   5.276   2.144   5.325
 6187SOL    HW119460   5.275   2.103   5.417
 6187SOL    HW219461   5.225   2.230   5.327
 6188SOL     OW19462   1.786   2.134   5.087
 6188SOL    HW119463   1.780   2.208   5.020
 6188SOL    HW219464   1.757   2.168   5.176
 6189SOL     OW19465   5.221   6.228   2.518
 6189SOL    HW119466   5.177   6.244   2.429
 6189SOL    HW219467   5.157   6.181   2.579
 6190SOL     OW19468   6.880   2.402   5.288
 6190SOL    HW119469   6.934   2.352   5.357
 6190SOL    HW219470   6.820   2.338   5.241
 6191SOL     OW19471   3.510   3.577   6.866
 6191SOL    HW119472   3.513   3.672   6.896
 6191SOL    HW219473   3.437   3.529   6.916
 6192SOL     OW19474   2.289   2.026   0.541
 6192SOL    HW119475   2.194   1.998   0.523
 6192SOL    HW219476   2.297   2.059   0.635
 6193SOL     OW19477   5.092   5.211   0.129
 6193SOL    HW119478   5.010   5.223   0.184
 6193SOL    HW219479   5.091   5.277   0.054
 6194SOL     OW19480   6.481   0.194   6.083
 6194SOL    HW119481   6.435   0.283   6.085
 6194SOL    HW219482   6.537   0.188   6.000
 6195SOL     OW19483   5.948   6.598   5.335
 6195SOL    HW119484   5.973   6.502   5.345
 6195SOL    HW219485   5.850   6.605   5.313
 6196SOL     OW19486   5.074   3.824   3.264
 6196SOL    HW119487   5.070   3.757   3.190
 6196SOL    HW219488   4.987   3.823   3.315
 6197SOL     OW19489   2.883   5.178   2.080
 6197SOL    HW119490   2.977   5.212   2.092
 6197SOL    HW219491   2.818   5.250   2.105
 6198SOL     OW19492   6.544   6.481   6.494
 6198SOL    HW119493   6.595   6.419   6.434
 6198SOL    HW219494   6.462   6.435   6.528
 6199SOL     OW19495   1.147   0.012   0.734
 6199SOL    HW119496   1.090   0.059   0.667
 6199SOL    HW219497   1.188   6.952   0.691
 6200SOL     OW19498   1.880   2.150   2.465
 6200SOL    HW119499   1.865   2.199   2.550
 6200SOL    HW219500   1.844   2.205   2.389
 6201SOL     OW19501   6.763   3.690   3.676
 6201SOL    HW119502   6.726   3.769   3.724
 6201SOL    HW219503   6.822   3.720   3.602
 6202SOL     OW19504   6.200   1.409   3.004
 6202SOL    HW119505   6.267   1.401   2.930
 6202SOL    HW219506   6.111   1.376   2.971
 6203SOL     OW19507   6.092   6.092   1.888
 6203SOL    HW119508   6.052   6.000   1.881
 6203SOL    HW219509   6.139   6.101   1.976
 6204SOL     OW19510   1.767   0.023   5.237
 6204SOL    HW119511   1.724   0.048   5.150
 6204SOL    HW219512   1.759   0.099   5.301
 6205SOL     OW19513   4.953   4.249   3.032
 6205SOL    HW119514   4.970   4.338   3.075
 6205SOL    HW219515   4.877   4.257   2.967
 6206SOL     OW19516   4.978   1.911   3.825
 6206SOL    HW119517   5.015   1.995   3.785
 6206SOL    HW219518   4.893   1.931   3.873
 6207SOL     OW19519   2.268   5.986   3.979
 6207SOL    HW119520   2.228   6.075   4.003
 6207SOL    HW219521   2.215   5.914   4.023
 6208SOL     OW19522   3.751   2.799   5.678
 6208SOL    HW119523   3.827   2.811   5.615
 6208SOL    HW219524   3.664   2.809   5.630
 6209SOL     OW19525   4.025   3.851   0.793
 6209SOL    HW119526   3.982   3.791   0.860
 6209SOL    HW219527   4.062   3.796   0.718
 6210SOL     OW19528   4.446   2.447   3.388
 6210SOL    HW119529   4.524   2.394   3.354
 6210SOL    HW219530   4.378   2.458   3.316
 6211SOL     OW19531   5.091   5.365   4.876
 6211SOL    HW119532   5.039   5.397   4.796
 6211SOL    HW219533   5.127   5.444   4.926
 6212SOL     OW19534   4.134   4.302   6.096
 6212SOL    HW119535   4.043   4.273   6.068
 6212SOL    HW219536   4.202   4.236   6.064
 6213SOL     OW19537   4.348   6.005   0.415
 6213SOL    HW119538   4.320   6.096   0.446
 6213SOL    HW219539   4.396   6.013   0.328
 6214SOL     OW19540   6.147   5.821   5.690
 6214SOL    HW119541   6.154   5.761   5.610
 6214SOL    HW219542   6.068   5.794   5.745
 6215SOL     OW19543   5.218   2.601   6.159
 6215SOL    HW119544   5.275   2.545   6.219
 6215SOL    HW219545   5.180   2.678   6.212
 6216SOL     OW19546   4.809   2.539   2.978
 6216SOL    HW119547   4.769   2.452   2.948
 6216SOL    HW219548   4.827   2.535   3.076
 6217SOL     OW19549   0.770   4.583   2.421
 6217SOL    HW119550   0.852   4.527   2.435
 6217SOL    HW219551   0.727   4.602   2.510
 6218SOL     OW19552   4.675   6.755   0.182
 6218SOL    HW119553   4.659   6.736   0.279
 6218SOL    HW219554   4.709   6.848   0.171
 6219SOL     OW19555   1.694   0.985   5.665
 6219SOL    HW119556   1.693   1.085   5.665
 6219SOL    HW219557   1.606   0.950   5.696
 6220SOL     OW19558   4.357   0.619   0.961
 6220SOL    HW119559   4.375   0.713   0.930
 6220SOL    HW219560   4.443   0.570   0.971
 6221SOL     OW19561   6.202   5.585   6.329
 6221SOL    HW119562   6.206   5.619   6.236
 6221SOL    HW219563   6.286   5.535   6.350
 6222SOL     OW19564   6.531   1.630   2.693
 6222SOL    HW119565   6.466   1.562   2.725
 6222SOL    HW219566   6.485   1.719   2.685
 6223SOL     OW19567   0.603   5.104   3.905
 6223SOL    HW119568   0.565   5.012   3.916
 6223SOL    HW219569   0.605   5.127   3.807
 6224SOL     OW19570   4.301   2.072   6.927
 6224SOL    HW119571   4.256   2.014   6.860
 6224SOL    HW219572   4.391   2.099   6.893
 6225SOL     OW19573   4.307   7.011   6.401
 6225SOL    HW119574   4.355   0.072   6.436
 6225SOL    HW219575   4.258   6.967   6.476
 6226SOL     OW19576   0.540   1.311   4.364
 6226SOL    HW119577   0.626   1.355   4.338
 6226SOL    HW219578   0.476   1.380   4.398
 6227SOL     OW19579   3.199   4.118   5.207
 6227SOL    HW119580   3.196   4.212   5.241
 6227SOL    HW219581   3.108   4.091   5.176
 6228SOL     OW19582   1.870   2.634   3.852
 6228SOL    HW119583   1.876   2.631   3.752
 6228SOL    HW219584   1.913   2.553   3.891
 6229SOL     OW19585   0.623   3.884   3.978
 6229SOL    HW119586   0.560   3.937   4.035
 6229SOL    HW219587   0.580   3.866   3.890
 6230SOL     OW19588   0.766   0.936   2.093
 6230SOL    HW119589   0.697   0.984   2.039
 6230SOL    HW219590   0.827   0.886   2.031
 6231SOL     OW19591   0.370   4.881   0.448
 6231SOL    HW119592   0.368   4.979   0.429
 6231SOL    HW219593   0.446   4.860   0.508
 6232SOL     OW19594   4.664   1.417   6.695
 6232SOL    HW119595   4.618   1.332   6.671
 6232SOL    HW219596   4.759   1.398   6.719
 6233SOL     OW19597   0.420   3.708   1.576
 6233SOL    HW119598   0.471   3.793   1.584
 6233SOL    HW219599   0.324   3.724   1.596
 6234SOL     OW19600   5.793   0.222   4.728
 6234SOL    HW119601   5.873   0.267   4.688
 6234SOL    HW219602   5.821   0.163   4.803
 6235SOL     OW19603   6.851   1.048   2.466
 6235SOL    HW119604   6.811   1.107   2.396
 6235SOL    HW219605   6.848   0.953   2.434
 6236SOL     OW19606   0.567   4.745   1.095
 6236SOL    HW119607   0.539   4.840   1.087
 6236SOL    HW219608   0.487   4.687   1.112
 6237SOL     OW19609   3.749   0.893   1.120
 6237SOL    HW119610   3.761   0.848   1.208
 6237SOL    HW219611   3.834   0.885   1.067
 6238SOL     OW19612   2.162   6.829   4.770
 6238SOL    HW119613   2.147   6.736   4.804
 6238SOL    HW219614   2.199   6.885   4.844
 6239SOL     OW19615   4.719   1.019   2.836
 6239SOL    HW119616   4.624   0.999   2.862
 6239SOL    HW219617   4.722   1.050   2.741
 6240SOL     OW19618   4.050   3.309   4.179
 6240SOL    HW119619   4.083   3.365   4.103
 6240SOL    HW219620   4.028   3.217   4.145
 6241SOL     OW19621   3.166   6.754   3.596
 6241SOL    HW119622   3.243   6.728   3.654
 6241SOL    HW219623   3.116   6.672   3.568
 6242SOL     OW19624   2.847   2.011   3.740
 6242SOL    HW119625   2.894   1.985   3.655
 6242SOL    HW219626   2.877   2.102   3.768
 6243SOL     OW19627   5.574   1.681   6.082
 6243SOL    HW119628   5.557   1.585   6.106
 6243SOL    HW219629   5.630   1.723   6.153
 6244SOL     OW19630   4.228   4.656   3.098
 6244SOL    HW119631   4.278   4.654   3.185
 6244SOL    HW219632   4.284   4.613   3.027
 6245SOL     OW19633   0.613   4.300   2.575
 6245SOL    HW119634   0.555   4.296   2.493
 6245SOL    HW219635   0.571   4.245   2.648
 6246SOL     OW19636   6.942   6.479   4.385
 6246SOL    HW119637   6.934   6.452   4.481
 6246SOL    HW219638   6.878   6.425   4.331
 6247SOL     OW19639   6.172   6.374   2.659
 6247SOL    HW119640   6.257   6.399   2.705
 6247SOL    HW219641   6.100   6.363   2.727
 6248SOL     OW19642   3.824   3.022   6.614
 6248SOL    HW119643   3.893   2.954   6.586
 6248SOL    HW219644   3.751   3.024   6.547
 6249SOL     OW19645   5.905   3.038   1.163
 6249SOL    HW119646   5.884   3.131   1.133
 6249SOL    HW219647   5.821   2.986   1.175
 6250SOL     OW19648   0.212   0.589   0.272
 6250SOL    HW119649   0.262   0.548   0.348
 6250SOL    HW219650   0.203   0.688   0.288
 6251SOL     OW19651   2.811   6.500   4.443
 6251SOL    HW119652   2.848   6.549   4.521
 6251SOL    HW219653   2.811   6.559   4.362
 6252SOL     OW19654   2.608   5.802   0.242
 6252SOL    HW119655   2.556   5.788   0.157
 6252SOL    HW219656   2.703   5.776   0.228
 6253SOL     OW19657   3.266   5.118   4.523
 6253SOL    HW119658   3.256   5.096   4.621
 6253SOL    HW219659   3.347   5.074   4.487
 6254SOL     OW19660   6.727   6.215   0.293
 6254SOL    HW119661   6.650   6.198   0.231
 6254SOL    HW219662   6.698   6.277   0.366
 6255SOL     OW19663   0.064   1.035   1.608
 6255SOL    HW119664   0.104   1.057   1.519
 6255SOL    HW219665   0.107   1.091   1.679
 6256SOL     OW19666   4.587   5.730   2.458
 6256SOL    HW119667   4.488   5.717   2.458
 6256SOL    HW219668   4.632   5.646   2.426
 6257SOL     OW19669   4.113   4.247   1.610
 6257SOL    HW119670   4.194   4.195   1.638
 6257SOL    HW219671   4.033   4.187   1.613
 6258SOL     OW19672   4.227   6.164   5.587
 6258SOL    HW119673   4.128   6.168   5.572
 6258SOL    HW219674   4.260   6.254   5.615
 6259SOL     OW19675   2.820   0.881   5.012
 6259SOL    HW119676   2.740   0.822   4.999
 6259SOL    HW219677   2.896   0.845   4.959
 6260SOL     OW19678   2.320   1.706   0.311
 6260SOL    HW119679   2.377   1.624   0.304
 6260SOL    HW219680   2.374   1.786   0.285
 6261SOL     OW19681   3.688   6.175   1.686
 6261SOL    HW119682   3.623   6.133   1.623
 6261SOL    HW219683   3.781   6.161   1.653
 6262SOL     OW19684   6.649   0.518   2.062
 6262SOL    HW119685   6.555   0.496   2.089
 6262SOL    HW219686   6.685   0.446   2.003
 6263SOL     OW19687   6.205   6.338   5.593
 6263SOL    HW119688   6.178   6.400   5.667
 6263SOL    HW219689   6.140   6.348   5.517
 6264SOL     OW19690   1.579   6.505   1.199
 6264SOL    HW119691   1.658   6.459   1.157
 6264SOL    HW219692   1.611   6.581   1.256
 6265SOL     OW19693   4.703   1.682   0.284
 6265SOL    HW119694   4.757   1.604   0.252
 6265SOL    HW219695   4.614   1.682   0.240
 6266SOL     OW19696   2.583   5.442   3.449
 6266SOL    HW119697   2.572   5.536   3.479
 6266SOL    HW219698   2.523   5.425   3.370
 6267SOL     OW19699   1.301   6.870   4.892
 6267SOL    HW119700   1.397   6.889   4.911
 6267SOL    HW219701   1.258   6.951   4.854
 6268SOL     OW19702   3.845   0.763   1.362
 6268SOL    HW119703   3.918   0.830   1.351
 6268SOL    HW219704   3.822   0.754   1.459
 6269SOL     OW19705   5.527   5.411   0.806
 6269SOL    HW119706   5.603   5.346   0.811
 6269SOL    HW219707   5.531   5.461   0.719
 6270SOL     OW19708   1.959   6.427   0.397
 6270SOL    HW119709   1.934   6.331   0.404
 6270SOL    HW219710   1.972   6.451   0.300
 6271SOL     OW19711   6.055   3.257   6.731
 6271SOL    HW119712   6.014   3.173   6.764
 6271SOL    HW219713   5.989   3.332   6.741
 6272SOL     OW19714   6.864   6.990   0.432
 6272SOL    HW119715   6.885   6.912   0.491
 6272SOL    HW219716   6.877   0.055   0.484
 6273SOL     OW19717   6.975   0.488   1.796
 6273SOL    HW119718   6.914   0.568   1.803
 6273SOL    HW219719   6.969   0.435   1.881
 6274SOL     OW19720   3.279   5.610   4.896
 6274SOL    HW119721   3.277   5.572   4.988
 6274SOL    HW219722   3.337   5.553   4.838
 6275SOL     OW19723   1.954   5.188   6.975
 6275SOL    HW119724   2.049   5.193   6.947
 6275SOL    HW219725   1.907   5.272   6.946
 6276SOL     OW19726   1.490   5.885   2.934
 6276SOL    HW119727   1.482   5.974   2.978
 6276SOL    HW219728   1.573   5.839   2.965
 6277SOL     OW19729   5.424   3.188   1.469
 6277SOL    HW119730   5.338   3.182   1.519
 6277SOL    HW219731   5.499   3.200   1.533
 6278SOL     OW19732   2.968   0.441   6.356
 6278SOL    HW119733   2.925   0.397   6.277
 6278SOL    HW219734   3.013   0.526   6.328
 6279SOL     OW19735   2.655   0.212   1.554
 6279SOL    HW119736   2.739   0.212   1.608
 6279SOL    HW219737   2.633   0.118   1.527
 6280SOL     OW19738   6.777   1.990   6.927
 6280SOL    HW119739   6.794   1.937   7.010
 6280SOL    HW219740   6.862   2.000   6.876
 6281SOL     OW19741   6.002   4.320   5.223
 6281SOL    HW119742   5.920   4.298   5.274
 6281SOL    HW219743   6.057   4.386   5.274
 6282SOL     OW19744   0.525   3.344   5.844
 6282SOL    HW119745   0.511   3.384   5.935
 6282SOL    HW219746   0.536   3.418   5.777
 6283SOL     OW19747   1.167   6.051   5.205
 6283SOL    HW119748   1.233   5.977   5.200
 6283SOL    HW219749   1.097   6.028   5.274
 6284SOL     OW19750   2.142   4.651   6.549
 6284SOL    HW119751   2.217   4.717   6.545
 6284SOL    HW219752   2.061   4.694   6.587
 6285SOL     OW19753   1.007   3.839   3.861
 6285SOL    HW119754   0.999   3.748   3.899
 6285SOL    HW219755   1.038   3.903   3.932
 6286SOL     OW19756   1.128   2.969   5.299
 6286SOL    HW119757   1.072   2.931   5.225
 6286SOL    HW219758   1.204   3.020   5.260
 6287SOL     OW19759   4.584   4.744   4.981
 6287SOL    HW119760   4.589   4.686   4.900
 6287SOL    HW219761   4.672   4.790   4.994
 6288SOL     OW19762   3.993   3.323   6.827
 6288SOL    HW119763   3.953   3.324   6.919
 6288SOL    HW219764   4.092   3.323   6.834
 6289SOL     OW19765   2.825   4.786   5.611
 6289SOL    HW119766   2.726   4.773   5.601
 6289SOL    HW219767   2.867   4.700   5.640
 6290SOL     OW19768   5.196   5.594   4.948
 6290SOL    HW119769   5.173   5.691   4.953
 6290SOL    HW219770   5.293   5.584   4.925
 6291SOL     OW19771   3.137   3.207   3.181
 6291SOL    HW119772   3.169   3.115   3.206
 6291SOL    HW219773   3.093   3.249   3.260
 6292SOL     OW19774   1.808   2.971   4.534
 6292SOL    HW119775   1.788   2.885   4.580
 6292SOL    HW219776   1.884   3.017   4.580
 6293SOL     OW19777   4.727   1.419   6.201
 6293SOL    HW119778   4.701   1.440   6.295
 6293SOL    HW219779   4.824   1.441   6.187
 6294SOL     OW19780   1.753   1.422   3.058
 6294SOL    HW119781   1.689   1.409   2.983
 6294SOL    HW219782   1.763   1.520   3.077
 6295SOL     OW19783   5.703   3.899   5.475
 6295SOL    HW119784   5.620   3.935   5.517
 6295SOL    HW219785   5.775   3.968   5.479
 6296SOL     OW19786   0.205   2.379   6.329
 6296SOL    HW119787   0.175   2.437   6.405
 6296SOL    HW219788   0.261   2.434   6.266
 6297SOL     OW19789   5.964   0.524   4.108
 6297SOL    HW119790   5.954   0.623   4.103
 6297SOL    HW219791   5.893   0.480   4.053
 6298SOL     OW19792   6.252   5.148   0.795
 6298SOL    HW119793   6.333   5.103   0.758
 6298SOL    HW219794   6.278   5.235   0.836
 6299SOL     OW19795   4.648   1.757   2.523
 6299SOL    HW119796   4.571   1.804   2.480
 6299SOL    HW219797   4.723   1.748   2.458
 6300SOL     OW19798   3.091   0.307   6.557
 6300SOL    HW119799   3.041   0.370   6.498
 6300SOL    HW219800   3.035   0.227   6.576
 6301SOL     OW19801   3.563   6.337   0.436
 6301SOL    HW119802   3.582   6.433   0.456
 6301SOL    HW219803   3.565   6.284   0.520
 6302SOL     OW19804   2.882   1.069   5.846
 6302SOL    HW119805   2.791   1.044   5.877
 6302SOL    HW219806   2.888   1.057   5.747
 6303SOL     OW19807   0.933   5.748   5.568
 6303SOL    HW119808   0.911   5.689   5.646
 6303SOL    HW219809   1.028   5.731   5.540
 6304SOL     OW19810   4.491   1.177   3.453
 6304SOL    HW119811   4.459   1.151   3.545
 6304SOL    HW219812   4.449   1.264   3.427
 6305SOL     OW19813   1.019   6.113   5.901
 6305SOL    HW119814   1.105   6.162   5.912
 6305SOL    HW219815   0.963   6.158   5.831
 6306SOL     OW19816   0.136   4.307   3.845
 6306SOL    HW119817   0.043   4.306   3.807
 6306SOL    HW219818   0.193   4.369   3.791
 6307SOL     OW19819   3.959   3.772   3.146
 6307SOL    HW119820   4.024   3.847   3.154
 6307SOL    HW219821   3.961   3.716   3.229
 6308SOL     OW19822   0.496   2.261   7.008
 6308SOL    HW119823   0.453   2.209   0.062
 6308SOL    HW219824   0.562   2.203   6.960
 6309SOL     OW19825   1.926   6.112   3.913
 6309SOL    HW119826   1.928   6.025   3.962
 6309SOL    HW219827   1.986   6.178   3.957
 6310SOL     OW19828   1.353   6.355   3.208
 6310SOL    HW119829   1.361   6.432   3.271
 6310SOL    HW219830   1.361   6.270   3.260
 6311SOL     OW19831   4.929   0.773   5.887
 6311SOL    HW119832   4.948   0.870   5.872
 6311SOL    HW219833   4.830   0.761   5.898
 6312SOL     OW19834   4.063   6.186   6.568
 6312SOL    HW119835   4.005   6.170   6.648
 6312SOL    HW219836   4.111   6.273   6.578
 6313SOL     OW19837   5.730   6.272   3.775
 6313SOL    HW119838   5.652   6.317   3.818
 6313SOL    HW219839   5.721   6.173   3.783
 6314SOL     OW19840   1.670   0.068   2.179
 6314SOL    HW119841   1.589   0.127   2.180
 6314SOL    HW219842   1.670   0.011   2.261
 6315SOL     OW19843   2.382   2.521   4.021
 6315SOL    HW119844   2.316   2.596   4.025
 6315SOL    HW219845   2.358   2.451   4.088
 6316SOL     OW19846   5.701   1.130   4.776
 6316SOL    HW119847   5.691   1.214   4.723
 6316SOL    HW219848   5.676   1.147   4.871
 6317SOL     OW19849   4.755   5.183   2.001
 6317SOL    HW119850   4.726   5.114   1.935
 6317SOL    HW219851   4.725   5.156   2.093
 6318SOL     OW19852   6.416   6.962   6.118
 6318SOL    HW119853   6.423   6.918   6.208
 6318SOL    HW219854   6.453   0.034   6.123
 6319SOL     OW19855   5.716   1.807   4.715
 6319SOL    HW119856   5.704   1.740   4.788
 6319SOL    HW219857   5.630   1.818   4.665
 6320SOL     OW19858   6.464   0.437   4.735
 6320SOL    HW119859   6.413   0.452   4.820
 6320SOL    HW219860   6.555   0.477   4.743
 6321SOL     OW19861   5.731   2.125   0.293
 6321SOL    HW119862   5.831   2.129   0.291
 6321SOL    HW219863   5.695   2.161   0.207
 6322SOL     OW19864   1.673   1.008   1.434
 6322SOL    HW119865   1.624   1.073   1.493
 6322SOL    HW219866   1.611   0.934   1.409
 6323SOL     OW19867   2.899   3.279   1.440
 6323SOL    HW119868   2.872   3.373   1.415
 6323SOL    HW219869   2.959   3.282   1.520
 6324SOL     OW19870   4.483   1.553   0.841
 6324SOL    HW119871   4.480   1.597   0.751
 6324SOL    HW219872   4.440   1.613   0.909
 6325SOL     OW19873   1.827   2.584   3.301
 6325SOL    HW119874   1.767   2.655   3.264
 6325SOL    HW219875   1.813   2.576   3.400
 6326SOL     OW19876   5.716   4.464   5.583
 6326SOL    HW119877   5.778   4.416   5.645
 6326SOL    HW219878   5.744   4.559   5.575
 6327SOL     OW19879   0.180   0.238   3.047
 6327SOL    HW119880   0.256   0.279   2.996
 6327SOL    HW219881   0.167   0.144   3.017
 6328SOL     OW19882   4.592   4.077   5.590
 6328SOL    HW119883   4.620   4.081   5.494
 6328SOL    HW219884   4.579   4.169   5.625
 6329SOL     OW19885   1.495   2.782   5.418
 6329SOL    HW119886   1.562   2.836   5.366
 6329SOL    HW219887   1.429   2.742   5.355
 6330SOL     OW19888   5.570   1.217   3.682
 6330SOL    HW119889   5.602   1.310   3.666
 6330SOL    HW219890   5.476   1.219   3.714
 6331SOL     OW19891   0.301   3.232   3.131
 6331SOL    HW119892   0.253   3.317   3.148
 6331SOL    HW219893   0.359   3.210   3.210
 6332SOL     OW19894   2.707   1.449   0.430
 6332SOL    HW119895   2.607   1.453   0.421
 6332SOL    HW219896   2.732   1.363   0.475
 6333SOL     OW19897   4.909   1.273   0.723
 6333SOL    HW119898   4.991   1.322   0.694
 6333SOL    HW219899   4.828   1.324   0.697
 6334SOL     OW19900   1.816   1.227   1.663
 6334SOL    HW119901   1.847   1.300   1.724
 6334SOL    HW219902   1.874   1.225   1.582
 6335SOL     OW19903   6.110   1.367   0.973
 6335SOL    HW119904   6.050   1.367   1.053
 6335SOL    HW219905   6.205   1.366   1.003
 6336SOL     OW19906   0.727   3.029   5.864
 6336SOL    HW119907   0.678   2.956   5.817
 6336SOL    HW219908   0.820   3.035   5.828
 6337SOL     OW19909   4.445   5.754   4.729
 6337SOL    HW119910   4.529   5.721   4.685
 6337SOL    HW219911   4.385   5.676   4.748
 6338SOL     OW19912   2.920   1.711   3.738
 6338SOL    HW119913   2.877   1.757   3.660
 6338SOL    HW219914   2.864   1.633   3.767
 6339SOL     OW19915   0.950   4.555   3.404
 6339SOL    HW119916   1.013   4.544   3.327
 6339SOL    HW219917   0.889   4.632   3.386
 6340SOL     OW19918   1.810   4.396   1.571
 6340SOL    HW119919   1.776   4.302   1.568
 6340SOL    HW219920   1.777   4.441   1.654
 6341SOL     OW19921   0.942   4.170   3.627
 6341SOL    HW119922   0.895   4.083   3.645
 6341SOL    HW219923   1.038   4.152   3.605
 6342SOL     OW19924   1.933   1.968   1.822
 6342SOL    HW119925   1.891   2.028   1.754
 6342SOL    HW219926   2.017   1.929   1.785
 6343SOL     OW19927   2.327   5.629   1.092
 6343SOL    HW119928   2.296   5.544   1.049
 6343SOL    HW219929   2.422   5.646   1.066
 6344SOL     OW19930   6.469   1.476   3.932
 6344SOL    HW119931   6.508   1.395   3.888
 6344SOL    HW219932   6.468   1.462   4.031
 6345SOL     OW19933   5.580   3.359   1.826
 6345SOL    HW119934   5.481   3.360   1.810
 6345SOL    HW219935   5.604   3.426   1.896
 6346SOL     OW19936   6.543   4.526   5.269
 6346SOL    HW119937   6.609   4.599   5.285
 6346SOL    HW219938   6.499   4.541   5.181
 6347SOL     OW19939   1.914   1.838   2.906
 6347SOL    HW119940   2.013   1.850   2.910
 6347SOL    HW219941   1.871   1.925   2.880
 6348SOL     OW19942   6.783   2.387   5.936
 6348SOL    HW119943   6.734   2.313   5.982
 6348SOL    HW219944   6.868   2.407   5.985
 6349SOL     OW19945   6.845   1.498   6.920
 6349SOL    HW119946   6.888   1.408   6.926
 6349SOL    HW219947   6.889   1.551   6.847
 6350SOL     OW19948   1.804   5.509   1.761
 6350SOL    HW119949   1.873   5.462   1.705
 6350SOL    HW219950   1.815   5.482   1.856
 6351SOL     OW19951   5.633   3.105   2.477
 6351SOL    HW119952   5.715   3.060   2.511
 6351SOL    HW219953   5.552   3.057   2.510
 6352SOL     OW19954   2.649   0.736   4.595
 6352SOL    HW119955   2.656   0.650   4.546
 6352SOL    HW219956   2.562   0.781   4.573
 6353SOL     OW19957   3.469   6.059   6.436
 6353SOL    HW119958   3.408   5.980   6.429
 6353SOL    HW219959   3.497   6.088   6.344
 6354SOL     OW19960   4.405   5.156   2.187
 6354SOL    HW119961   4.407   5.175   2.089
 6354SOL    HW219962   4.493   5.182   2.227
 6355SOL     OW19963   2.688   5.152   0.980
 6355SOL    HW119964   2.593   5.181   0.991
 6355SOL    HW219965   2.745   5.232   0.961
 6356SOL     OW19966   6.100   4.144   0.006
 6356SOL    HW119967   6.140   4.092   6.950
 6356SOL    HW219968   6.000   4.142   7.018
 6357SOL     OW19969   5.591   1.517   1.214
 6357SOL    HW119970   5.506   1.567   1.199
 6357SOL    HW219971   5.570   1.420   1.228
 6358SOL     OW19972   1.021   2.162   6.788
 6358SOL    HW119973   0.938   2.217   6.800
 6358SOL    HW219974   1.084   2.208   6.727
 6359SOL     OW19975   5.649   6.110   0.691
 6359SOL    HW119976   5.623   6.200   0.656
 6359SOL    HW219977   5.575   6.074   0.748
 6360SOL     OW19978   0.893   2.737   1.857
 6360SOL    HW119979   0.897   2.805   1.784
 6360SOL    HW219980   0.919   2.648   1.821
 6361SOL     OW19981   0.654   0.709   6.665
 6361SOL    HW119982   0.733   0.710   6.726
 6361SOL    HW219983   0.658   0.628   6.607
 6362SOL     OW19984   1.219   5.529   0.059
 6362SOL    HW119985   1.127   5.495   0.039
 6362SOL    HW219986   1.213   5.620   0.100
 6363SOL     OW19987   2.717   4.662   3.564
 6363SOL    HW119988   2.628   4.618   3.547
 6363SOL    HW219989   2.788   4.613   3.515
 6364SOL     OW19990   2.403   2.676   4.665
 6364SOL    HW119991   2.385   2.706   4.759
 6364SOL    HW219992   2.355   2.591   4.648
 6365SOL     OW19993   5.795   5.433   3.539
 6365SOL    HW119994   5.870   5.485   3.497
 6365SOL    HW219995   5.719   5.427   3.475
 6366SOL     OW19996   5.793   6.814   4.947
 6366SOL    HW119997   5.801   6.906   4.986
 6366SOL    HW219998   5.884   6.777   4.929
 6367SOL     OW19999   1.842   2.067   2.754
 6367SOL    HW120000   1.938   2.095   2.752
 6367SOL    HW220001   1.789   2.132   2.809
 6368SOL     OW20002   4.934   2.977   4.730
 6368SOL    HW120003   4.924   3.026   4.643
 6368SOL    HW220004   4.900   3.033   4.805
 6369SOL     OW20005   2.824   5.727   6.616
 6369SOL    HW120006   2.882   5.801   6.650
 6369SOL    HW220007   2.772   5.758   6.537
 6370SOL     OW20008   5.705   3.214   4.545
 6370SOL    HW120009   5.614   3.222   4.504
 6370SOL    HW220010   5.709   3.134   4.604
 6371SOL     OW20011   5.454   4.204   2.132
 6371SOL    HW120012   5.381   4.242   2.189
 6371SOL    HW220013   5.434   4.108   2.111
 6372SOL     OW20014   6.785   1.641   2.970
 6372SOL    HW120015   6.836   1.638   2.884
 6372SOL    HW220016   6.705   1.699   2.959
 6373SOL     OW20017   4.908   4.191   1.494
 6373SOL    HW120018   4.930   4.121   1.561
 6373SOL    HW220019   4.813   4.221   1.507
 6374SOL     OW20020   4.590   3.108   0.466
 6374SOL    HW120021   4.645   3.034   0.429
 6374SOL    HW220022   4.527   3.073   0.535
 6375SOL     OW20023   6.302   2.976   1.646
 6375SOL    HW120024   6.353   3.017   1.571
 6375SOL    HW220025   6.297   3.040   1.723
 6376SOL     OW20026   3.450   0.908   6.645
 6376SOL    HW120027   3.533   0.866   6.606
 6376SOL    HW220028   3.373   0.846   6.633
 6377SOL     OW20029   6.903   0.741   0.033
 6377SOL    HW120030   6.871   0.657   7.008
 6377SOL    HW220031   6.907   0.725   0.132
 6378SOL     OW20032   5.358   5.699   3.304
 6378SOL    HW120033   5.414   5.677   3.224
 6378SOL    HW220034   5.270   5.736   3.273
 6379SOL     OW20035   2.495   6.063   0.307
 6379SOL    HW120036   2.418   6.071   0.243
 6379SOL    HW220037   2.527   5.968   0.309
 6380SOL     OW20038   1.405   3.768   4.894
 6380SOL    HW120039   1.485   3.707   4.885
 6380SOL    HW220040   1.432   3.861   4.869
 6381SOL     OW20041   4.319   2.716   0.256
 6381SOL    HW120042   4.250   2.644   0.248
 6381SOL    HW220043   4.276   2.805   0.245
 6382SOL     OW20044   2.033   1.643   1.619
 6382SOL    HW120045   2.075   1.683   1.700
 6382SOL    HW220046   2.103   1.623   1.551
 6383SOL     OW20047   1.953   2.501   2.131
 6383SOL    HW120048   2.050   2.514   2.107
 6383SOL    HW220049   1.946   2.481   2.229
 6384SOL     OW20050   6.178   2.798   2.391
 6384SOL    HW120051   6.183   2.755   2.481
 6384SOL    HW220052   6.262   2.849   2.373
 6385SOL     OW20053   6.717   3.008   1.302
 6385SOL    HW120054   6.797   3.006   1.362
 6385SOL    HW220055   6.744   3.048   1.214
 6386SOL     OW20056   2.510   3.682   0.278
 6386SOL    HW120057   2.557   3.691   0.366
 6386SOL    HW220058   2.558   3.737   0.209
 6387SOL     OW20059   6.735   0.684   6.197
 6387SOL    HW120060   6.829   0.689   6.165
 6387SOL    HW220061   6.713   0.591   6.226
 6388SOL     OW20062   6.292   5.522   2.080
 6388SOL    HW120063   6.266   5.613   2.111
 6388SOL    HW220064   6.369   5.530   2.016
 6389SOL     OW20065   1.103   0.916   6.565
 6389SOL    HW120066   1.069   0.875   6.480
 6389SOL    HW220067   1.203   0.908   6.568
 6390SOL     OW20068   6.692   1.330   6.322
 6390SOL    HW120069   6.602   1.292   6.341
 6390SOL    HW220070   6.696   1.424   6.358
 6391SOL     OW20071   0.648   1.551   5.283
 6391SOL    HW120072   0.584   1.481   5.315
 6391SOL    HW220073   0.635   1.635   5.335
 6392SOL     OW20074   4.318   6.594   3.371
 6392SOL    HW120075   4.285   6.679   3.412
 6392SOL    HW220076   4.370   6.543   3.439
 6393SOL     OW20077   6.807   5.335   0.561
 6393SOL    HW120078   6.877   5.354   0.629
 6393SOL    HW220079   6.831   5.253   0.510
 6394SOL     OW20080   1.363   5.582   1.282
 6394SOL    HW120081   1.336   5.486   1.295
 6394SOL    HW220082   1.358   5.630   1.369
 6395SOL     OW20083   1.902   4.877   3.244
 6395SOL    HW120084   1.928   4.788   3.281
 6395SOL    HW220085   1.907   4.875   3.144
 6396SOL     OW20086   0.797   3.626   0.374
 6396SOL    HW120087   0.856   3.568   0.430
 6396SOL    HW220088   0.739   3.682   0.433
 6397SOL     OW20089   5.818   3.037   3.601
 6397SOL    HW120090   5.733   3.089   3.613
 6397SOL    HW220091   5.797   2.940   3.590
 6398SOL     OW20092   1.467   0.127   1.133
 6398SOL    HW120093   1.466   0.091   1.040
 6398SOL    HW220094   1.552   0.100   1.178
 6399SOL     OW20095   3.014   0.961   6.103
 6399SOL    HW120096   2.953   1.010   6.165
 6399SOL    HW220097   2.988   0.979   6.009
 6400SOL     OW20098   1.326   6.077   2.982
 6400SOL    HW120099   1.274   6.078   3.068
 6400SOL    HW220100   1.332   5.983   2.948
 6401SOL     OW20101   3.789   6.319   3.740
 6401SOL    HW120102   3.809   6.265   3.658
 6401SOL    HW220103   3.862   6.305   3.808
 6402SOL     OW20104   1.782   5.351   4.922
 6402SOL    HW120105   1.801   5.267   4.973
 6402SOL    HW220106   1.841   5.425   4.957
 6403SOL     OW20107   4.624   6.009   5.060
 6403SOL    HW120108   4.642   6.107   5.062
 6403SOL    HW220109   4.595   5.982   4.968
 6404SOL     OW20110   4.158   0.066   2.081
 6404SOL    HW120111   4.112   0.016   2.155
 6404SOL    HW220112   4.246   0.022   2.062
 6405SOL     OW20113   5.282   1.642   2.278
 6405SOL    HW120114   5.242   1.661   2.368
 6405SOL    HW220115   5.225   1.685   2.207
 6406SOL     OW20116   0.924   2.196   2.879
 6406SOL    HW120117   0.842   2.144   2.854
 6406SOL    HW220118   0.917   2.224   2.975
 6407SOL     OW20119   1.890   6.268   2.764
 6407SOL    HW120120   1.979   6.263   2.811
 6407SOL    HW220121   1.902   6.244   2.668
 6408SOL     OW20122   6.392   0.717   0.883
 6408SOL    HW120123   6.349   0.695   0.971
 6408SOL    HW220124   6.449   0.799   0.893
 6409SOL     OW20125   5.876   4.999   3.323
 6409SOL    HW120126   5.786   4.982   3.283
 6409SOL    HW220127   5.926   4.912   3.332
 6410SOL     OW20128   2.227   1.270   5.689
 6410SOL    HW120129   2.202   1.361   5.720
 6410SOL    HW220130   2.200   1.257   5.594
 6411SOL     OW20131   0.523   2.444   2.088
 6411SOL    HW120132   0.451   2.431   2.020
 6411SOL    HW220133   0.603   2.390   2.063
 6412SOL     OW20134   3.283   0.183   0.191
 6412SOL    HW120135   3.339   0.243   0.133
 6412SOL    HW220136   3.273   0.094   0.146
 6413SOL     OW20137   5.041   5.898   3.976
 6413SOL    HW120138   5.029   5.938   4.067
 6413SOL    HW220139   4.988   5.950   3.909
 6414SOL     OW20140   1.761   6.989   0.052
 6414SOL    HW120141   1.708   6.958   0.131
 6414SOL    HW220142   1.799   0.060   0.071
 6415SOL     OW20143   0.532   2.478   2.993
 6415SOL    HW120144   0.433   2.471   2.997
 6415SOL    HW220145   0.571   2.387   2.975
 6416SOL     OW20146   2.565   0.006   0.196
 6416SOL    HW120147   2.515   0.093   0.202
 6416SOL    HW220148   2.519   6.966   0.130
 6417SOL     OW20149   3.759   1.779   0.180
 6417SOL    HW120150   3.842   1.732   0.211
 6417SOL    HW220151   3.711   1.720   0.114
 6418SOL     OW20152   4.759   5.209   0.868
 6418SOL    HW120153   4.760   5.130   0.929
 6418SOL    HW220154   4.802   5.184   0.781
 6419SOL     OW20155   0.646   6.907   6.881
 6419SOL    HW120156   0.594   6.870   6.958
 6419SOL    HW220157   0.596   6.891   6.796
 6420SOL     OW20158   1.987   4.227   3.927
 6420SOL    HW120159   1.969   4.166   4.004
 6420SOL    HW220160   2.021   4.173   3.849
 6421SOL     OW20161   5.234   0.485   1.552
 6421SOL    HW120162   5.157   0.493   1.614
 6421SOL    HW220163   5.290   0.567   1.557
 6422SOL     OW20164   6.340   2.132   4.620
 6422SOL    HW120165   6.399   2.211   4.637
 6422SOL    HW220166   6.345   2.106   4.524
 6423SOL     OW20167   2.467   4.473   4.144
 6423SOL    HW120168   2.392   4.448   4.206
 6423SOL    HW220169   2.455   4.425   4.057
 6424SOL     OW20170   6.659   5.007   4.572
 6424SOL    HW120171   6.729   4.958   4.520
 6424SOL    HW220172   6.672   4.991   4.670
 6425SOL     OW20173   6.794   6.093   3.423
 6425SOL    HW120174   6.871   6.092   3.487
 6425SOL    HW220175   6.729   6.165   3.450
 6426SOL     OW20176   4.576   4.573   4.759
 6426SOL    HW120177   4.535   4.579   4.668
 6426SOL    HW220178   4.516   4.519   4.818
 6427SOL     OW20179   3.694   2.913   3.526
 6427SOL    HW120180   3.785   2.952   3.543
 6427SOL    HW220181   3.699   2.849   3.449
 6428SOL     OW20182   4.926   2.623   0.281
 6428SOL    HW120183   4.986   2.550   0.246
 6428SOL    HW220184   4.871   2.659   0.205
 6429SOL     OW20185   2.332   0.571   5.215
 6429SOL    HW120186   2.288   0.635   5.153
 6429SOL    HW220187   2.413   0.532   5.172
 6430SOL     OW20188   6.708   0.433   5.080
 6430SOL    HW120189   6.789   0.420   5.136
 6430SOL    HW220190   6.638   0.366   5.105
 6431SOL     OW20191   3.784   5.009   1.784
 6431SOL    HW120192   3.811   5.020   1.688
 6431SOL    HW220193   3.747   4.917   1.799
 6432SOL     OW20194   4.697   4.062   5.852
 6432SOL    HW120195   4.625   4.104   5.907
 6432SOL    HW220196   4.660   4.035   5.763
 6433SOL     OW20197   2.439   5.602   6.766
 6433SOL    HW120198   2.488   5.545   6.700
 6433SOL    HW220199   2.365   5.650   6.718
 6434SOL     OW20200   3.500   5.591   5.664
 6434SOL    HW120201   3.448   5.539   5.732
 6434SOL    HW220202   3.527   5.530   5.589
 6435SOL     OW20203   4.934   0.891   0.909
 6435SOL    HW120204   4.852   0.863   0.859
 6435SOL    HW220205   4.988   0.954   0.852
 6436SOL     OW20206   6.952   4.135   4.306
 6436SOL    HW120207   7.011   4.065   4.346
 6436SOL    HW220208   7.000   4.178   4.229
 6437SOL     OW20209   0.758   2.038   5.235
 6437SOL    HW120210   0.679   2.087   5.273
 6437SOL    HW220211   0.834   2.043   5.299
 6438SOL     OW20212   0.215   6.019   0.370
 6438SOL    HW120213   0.276   5.998   0.447
 6438SOL    HW220214   0.257   5.987   0.285
 6439SOL     OW20215   5.813   0.293   2.591
 6439SOL    HW120216   5.831   0.301   2.493
 6439SOL    HW220217   5.837   0.379   2.637
 6440SOL     OW20218   2.345   1.419   6.574
 6440SOL    HW120219   2.369   1.424   6.671
 6440SOL    HW220220   2.415   1.465   6.520
 6441SOL     OW20221   0.837   1.245   2.952
 6441SOL    HW120222   0.775   1.321   2.934
 6441SOL    HW220223   0.831   1.178   2.878
 6442SOL     OW20224   3.088   2.938   5.233
 6442SOL    HW120225   3.054   3.014   5.179
 6442SOL    HW220226   3.013   2.876   5.256
 6443SOL     OW20227   4.871   2.554   0.819
 6443SOL    HW120228   4.893   2.480   0.882
 6443SOL    HW220229   4.888   2.524   0.725
 6444SOL     OW20230   6.680   3.422   4.816
 6444SOL    HW120231   6.609   3.385   4.876
 6444SOL    HW220232   6.639   3.456   4.732
 6445SOL     OW20233   2.863   3.450   3.303
 6445SOL    HW120234   2.780   3.406   3.270
 6445SOL    HW220235   2.914   3.489   3.227
 6446SOL     OW20236   2.418   0.924   6.469
 6446SOL    HW120237   2.365   1.002   6.501
 6446SOL    HW220238   2.486   0.954   6.402
 6447SOL     OW20239   6.579   3.508   1.674
 6447SOL    HW120240   6.667   3.554   1.662
 6447SOL    HW220241   6.550   3.471   1.586
 6448SOL     OW20242   3.996   5.536   1.403
 6448SOL    HW120243   4.062   5.470   1.365
 6448SOL    HW220244   3.951   5.496   1.483
 6449SOL     OW20245   2.592   5.664   1.069
 6449SOL    HW120246   2.658   5.737   1.048
 6449SOL    HW220247   2.607   5.631   1.162
 6450SOL     OW20248   0.271   4.017   1.244
 6450SOL    HW120249   0.367   3.991   1.237
 6450SOL    HW220250   0.235   4.039   1.153
 6451SOL     OW20251   3.680   2.223   1.423
 6451SOL    HW120252   3.724   2.134   1.435
 6451SOL    HW220253   3.606   2.215   1.356
 6452SOL     OW20254   4.939   2.387   3.291
 6452SOL    HW120255   4.997   2.442   3.231
 6452SOL    HW220256   4.963   2.406   3.386
 6453SOL     OW20257   3.408   0.350   1.022
 6453SOL    HW120258   3.365   0.341   1.111
 6453SOL    HW220259   3.504   0.376   1.033
 6454SOL     OW20260   5.646   2.627   3.219
 6454SOL    HW120261   5.605   2.639   3.309
 6454SOL    HW220262   5.622   2.704   3.160
 6455SOL     OW20263   6.210   3.599   3.346
 6455SOL    HW120264   6.169   3.683   3.310
 6455SOL    HW220265   6.300   3.619   3.385
 6456SOL     OW20266   6.090   1.293   3.243
 6456SOL    HW120267   6.167   1.300   3.179
 6456SOL    HW220268   6.047   1.383   3.252
 6457SOL     OW20269   4.365   0.569   2.006
 6457SOL    HW120270   4.379   0.629   1.926
 6457SOL    HW220271   4.344   0.477   1.974
 6458SOL     OW20272   0.594   4.727   3.755
 6458SOL    HW120273   0.692   4.741   3.739
 6458SOL    HW220274   0.554   4.812   3.790
 6459SOL     OW20275   6.431   2.939   2.380
 6459SOL    HW120276   6.462   2.958   2.473
 6459SOL    HW220277   6.433   3.023   2.326
 6460SOL     OW20278   0.965   5.697   6.768
 6460SOL    HW120279   0.961   5.792   6.801
 6460SOL    HW220280   0.875   5.670   6.735
 6461SOL     OW20281   3.021   5.261   0.784
 6461SOL    HW120282   3.065   5.183   0.741
 6461SOL    HW220283   3.063   5.346   0.751
 6462SOL     OW20284   1.735   3.427   5.515
 6462SOL    HW120285   1.816   3.377   5.483
 6462SOL    HW220286   1.653   3.375   5.495
 6463SOL     OW20287   4.404   2.060   1.455
 6463SOL    HW120288   4.398   2.155   1.486
 6463SOL    HW220289   4.431   2.001   1.531
 6464SOL     OW20290   0.647   5.763   4.541
 6464SOL    HW120291   0.735   5.719   4.526
 6464SOL    HW220292   0.587   5.746   4.463
 6465SOL     OW20293   3.681   1.321   3.226
 6465SOL    HW120294   3.756   1.345   3.164
 6465SOL    HW220295   3.616   1.397   3.229
 6466SOL     OW20296   0.559   2.942   0.088
 6466SOL    HW120297   0.602   2.913   0.002
 6466SOL    HW220298   0.507   2.866   0.125
 6467SOL     OW20299   3.267   1.554   0.758
 6467SOL    HW120300   3.214   1.604   0.825
 6467SOL    HW220301   3.243   1.457   0.762
 6468SOL     OW20302   2.742   0.766   0.990
 6468SOL    HW120303   2.729   0.711   1.073
 6468SOL    HW220304   2.661   0.758   0.932
 6469SOL     OW20305   3.350   1.849   3.506
 6469SOL    HW120306   3.410   1.769   3.513
 6469SOL    HW220307   3.258   1.825   3.537
 6470SOL     OW20308   6.184   1.928   0.040
 6470SOL    HW120309   6.270   1.968   0.070
 6470SOL    HW220310   6.202   1.856   6.992
 6471SOL     OW20311   6.899   6.091   5.671
 6471SOL    HW120312   6.915   6.118   5.766
 6471SOL    HW220313   6.938   6.159   5.609
 6472SOL     OW20314   6.691   6.022   2.687
 6472SOL    HW120315   6.725   6.112   2.660
 6472SOL    HW220316   6.680   6.019   2.786
 6473SOL     OW20317   2.339   0.997   3.917
 6473SOL    HW120318   2.250   1.040   3.935
 6473SOL    HW220319   2.403   1.022   3.990
 6474SOL     OW20320   3.647   5.590   5.339
 6474SOL    HW120321   3.720   5.532   5.374
 6474SOL    HW220322   3.685   5.657   5.275
 6475SOL     OW20323   5.550   4.493   2.560
 6475SOL    HW120324   5.569   4.535   2.649
 6475SOL    HW220325   5.637   4.471   2.515
 6476SOL     OW20326   3.476   1.548   6.220
 6476SOL    HW120327   3.418   1.627   6.201
 6476SOL    HW220328   3.452   1.510   6.310
 6477SOL     OW20329   6.171   6.452   1.389
 6477SOL    HW120330   6.258   6.410   1.363
 6477SOL    HW220331   6.109   6.382   1.423
 6478SOL     OW20332   3.516   5.659   1.758
 6478SOL    HW120333   3.531   5.757   1.770
 6478SOL    HW220334   3.420   5.641   1.736
 6479SOL     OW20335   3.674   6.365   4.247
 6479SOL    HW120336   3.749   6.426   4.225
 6479SOL    HW220337   3.692   6.274   4.209
 6480SOL     OW20338   2.933   1.470   6.785
 6480SOL    HW120339   2.895   1.560   6.762
 6480SOL    HW220340   2.998   1.480   6.861
 6481SOL     OW20341   3.270   2.599   1.784
 6481SOL    HW120342   3.193   2.535   1.783
 6481SOL    HW220343   3.351   2.554   1.745
 6482SOL     OW20344   6.495   4.008   4.833
 6482SOL    HW120345   6.412   3.999   4.778
 6482SOL    HW220346   6.544   3.921   4.833
 6483SOL     OW20347   1.200   5.711   5.566
 6483SOL    HW120348   1.266   5.674   5.501
 6483SOL    HW220349   1.232   5.800   5.599
 6484SOL     OW20350   2.899   0.899   4.234
 6484SOL    HW120351   2.821   0.853   4.190
 6484SOL    HW220352   2.981   0.884   4.180
 6485SOL     OW20353   2.328   0.001   4.247
 6485SOL    HW120354   2.383   0.073   4.204
 6485SOL    HW220355   2.373   6.991   4.331
 6486SOL     OW20356   1.520   4.954   3.396
 6486SOL    HW120357   1.513   5.045   3.355
 6486SOL    HW220358   1.612   4.942   3.434
 6487SOL     OW20359   6.215   4.431   3.672
 6487SOL    HW120360   6.285   4.466   3.735
 6487SOL    HW220361   6.139   4.495   3.667
 6488SOL     OW20362   4.291   5.470   4.470
 6488SOL    HW120363   4.250   5.548   4.516
 6488SOL    HW220364   4.265   5.469   4.374
 6489SOL     OW20365   4.289   3.272   5.866
 6489SOL    HW120366   4.276   3.361   5.909
 6489SOL    HW220367   4.363   3.223   5.912
 6490SOL     OW20368   1.945   1.872   0.088
 6490SOL    HW120369   2.002   1.843   0.165
 6490SOL    HW220370   1.854   1.896   0.122
 6491SOL     OW20371   2.596   0.201   0.811
 6491SOL    HW120372   2.687   0.172   0.782
 6491SOL    HW220373   2.558   0.135   0.875
 6492SOL     OW20374   3.458   3.774   4.863
 6492SOL    HW120375   3.534   3.716   4.891
 6492SOL    HW220376   3.455   3.856   4.920
 6493SOL     OW20377   1.289   4.035   5.799
 6493SOL    HW120378   1.335   3.954   5.835
 6493SOL    HW220379   1.327   4.058   5.709
 6494SOL     OW20380   6.109   0.002   1.922
 6494SOL    HW120381   6.103   0.097   1.952
 6494SOL    HW220382   6.095   7.018   1.823
 6495SOL     OW20383   6.262   6.997   4.319
 6495SOL    HW120384   6.258   0.076   4.306
 6495SOL    HW220385   6.272   6.952   4.231
 6496SOL     OW20386   4.456   0.936   1.530
 6496SOL    HW120387   4.408   1.006   1.583
 6496SOL    HW220388   4.396   0.857   1.517
 6497SOL     OW20389   0.096   1.385   1.135
 6497SOL    HW120390   0.097   1.467   1.077
 6497SOL    HW220391   0.150   1.402   1.217
 6498SOL     OW20392   1.589   4.669   4.628
 6498SOL    HW120393   1.522   4.661   4.702
 6498SOL    HW220394   1.583   4.760   4.587
 6499SOL     OW20395   5.550   3.144   3.631
 6499SOL    HW120396   5.525   3.071   3.568
 6499SOL    HW220397   5.499   3.227   3.608
 6500SOL     OW20398   1.701   3.998   3.105
 6500SOL    HW120399   1.793   4.009   3.143
 6500SOL    HW220400   1.650   4.083   3.118
 6501SOL     OW20401   6.273   1.968   1.129
 6501SOL    HW120402   6.334   1.975   1.209
 6501SOL    HW220403   6.277   2.054   1.077
 6502SOL     OW20404   6.440   3.730   1.731
 6502SOL    HW120405   6.487   3.642   1.727
 6502SOL    HW220406   6.386   3.735   1.815
 6503SOL     OW20407   6.501   3.233   5.390
 6503SOL    HW120408   6.465   3.174   5.318
 6503SOL    HW220409   6.425   3.279   5.436
 6504SOL     OW20410   4.640   6.128   6.869
 6504SOL    HW120411   4.670   6.125   6.773
 6504SOL    HW220412   4.635   6.224   6.899
 6505SOL     OW20413   6.383   5.869   0.455
 6505SOL    HW120414   6.435   5.950   0.428
 6505SOL    HW220415   6.383   5.804   0.379
 6506SOL     OW20416   0.401   3.433   2.385
 6506SOL    HW120417   0.484   3.389   2.419
 6506SOL    HW220418   0.426   3.497   2.312
 6507SOL     OW20419   4.267   4.645   7.006
 6507SOL    HW120420   4.356   4.689   7.014
 6507SOL    HW220421   4.268   4.581   6.929
 6508SOL     OW20422   0.836   6.193   2.174
 6508SOL    HW120423   0.754   6.192   2.117
 6508SOL    HW220424   0.896   6.117   2.149
 6509SOL     OW20425   3.016   1.322   5.908
 6509SOL    HW120426   2.959   1.353   5.984
 6509SOL    HW220427   2.978   1.237   5.871
 6510SOL     OW20428   4.306   5.911   5.717
 6510SOL    HW120429   4.405   5.908   5.732
 6510SOL    HW220430   4.279   6.004   5.692
 6511SOL     OW20431   2.980   0.843   7.014
 6511SOL    HW120432   2.983   0.764   6.954
 6511SOL    HW220433   2.945   0.816   0.084
 6512SOL     OW20434   4.040   0.988   0.885
 6512SOL    HW120435   4.037   1.046   0.967
 6512SOL    HW220436   4.007   0.896   0.909
 6513SOL     OW20437   2.398   5.401   3.854
 6513SOL    HW120438   2.349   5.338   3.914
 6513SOL    HW220439   2.474   5.353   3.810
 6514SOL     OW20440   5.828   0.061   5.853
 6514SOL    HW120441   5.826   0.036   5.950
 6514SOL    HW220442   5.749   0.020   5.807
 6515SOL     OW20443   2.119   4.856   2.265
 6515SOL    HW120444   2.210   4.880   2.298
 6515SOL    HW220445   2.105   4.757   2.273
 6516SOL     OW20446   0.030   3.421   1.304
 6516SOL    HW120447   0.099   3.492   1.313
 6516SOL    HW220448   0.024   3.369   1.389
 6517SOL     OW20449   0.071   2.691   0.384
 6517SOL    HW120450   0.007   2.732   0.449
 6517SOL    HW220451   0.023   2.625   0.327
 6518SOL     OW20452   1.197   1.330   3.339
 6518SOL    HW120453   1.101   1.341   3.312
 6518SOL    HW220454   1.251   1.306   3.258
 6519SOL     OW20455   0.867   1.567   3.004
 6519SOL    HW120456   0.792   1.528   3.057
 6519SOL    HW220457   0.953   1.522   3.030
 6520SOL     OW20458   0.227   5.619   0.326
 6520SOL    HW120459   0.214   5.527   0.291
 6520SOL    HW220460   0.151   5.677   0.297
 6521SOL     OW20461   1.570   3.575   4.436
 6521SOL    HW120462   1.639   3.579   4.364
 6521SOL    HW220463   1.589   3.646   4.504
 6522SOL     OW20464   2.701   3.657   5.388
 6522SOL    HW120465   2.773   3.604   5.344
 6522SOL    HW220466   2.642   3.596   5.441
 6523SOL     OW20467   5.899   0.407   6.586
 6523SOL    HW120468   5.949   0.445   6.508
 6523SOL    HW220469   5.803   0.396   6.561
 6524SOL     OW20470   2.155   2.508   1.868
 6524SOL    HW120471   2.116   2.589   1.911
 6524SOL    HW220472   2.090   2.432   1.874
 6525SOL     OW20473   0.838   5.206   3.331
 6525SOL    HW120474   0.788   5.199   3.245
 6525SOL    HW220475   0.807   5.134   3.394
 6526SOL     OW20476   0.246   6.820   0.498
 6526SOL    HW120477   0.329   6.849   0.546
 6526SOL    HW220478   0.257   6.836   0.400
 6527SOL     OW20479   0.581   2.206   0.490
 6527SOL    HW120480   0.533   2.200   0.578
 6527SOL    HW220481   0.593   2.303   0.466
 6528SOL     OW20482   5.267   0.565   6.056
 6528SOL    HW120483   5.229   0.647   6.098
 6528SOL    HW220484   5.367   0.567   6.065
 6529SOL     OW20485   0.013   1.240   1.957
 6529SOL    HW120486   0.036   1.314   1.894
 6529SOL    HW220487   0.094   1.183   1.973
 6530SOL     OW20488   0.824   2.498   2.362
 6530SOL    HW120489   0.772   2.483   2.445
 6530SOL    HW220490   0.915   2.458   2.372
 6531SOL     OW20491   4.200   3.825   5.338
 6531SOL    HW120492   4.290   3.799   5.372
 6531SOL    HW220493   4.179   3.775   5.254
 6532SOL     OW20494   1.430   0.568   0.528
 6532SOL    HW120495   1.380   0.509   0.592
 6532SOL    HW220496   1.365   0.607   0.463
 6533SOL     OW20497   4.826   3.741   0.519
 6533SOL    HW120498   4.880   3.805   0.574
 6533SOL    HW220499   4.773   3.792   0.451
 6534SOL     OW20500   6.895   4.362   2.944
 6534SOL    HW120501   6.796   4.374   2.955
 6534SOL    HW220502   6.927   4.293   3.010
 6535SOL     OW20503   6.277   3.360   5.409
 6535SOL    HW120504   6.222   3.356   5.493
 6535SOL    HW220505   6.278   3.455   5.376
 6536SOL     OW20506   1.164   4.010   4.755
 6536SOL    HW120507   1.259   4.012   4.786
 6536SOL    HW220508   1.136   3.915   4.743
 6537SOL     OW20509   5.996   5.598   3.781
 6537SOL    HW120510   5.988   5.641   3.872
 6537SOL    HW220511   6.027   5.504   3.792
 6538SOL     OW20512   2.441   3.524   5.551
 6538SOL    HW120513   2.503   3.462   5.599
 6538SOL    HW220514   2.367   3.550   5.613
 6539SOL     OW20515   6.186   0.891   5.428
 6539SOL    HW120516   6.157   0.837   5.507
 6539SOL    HW220517   6.234   0.832   5.363
 6540SOL     OW20518   5.092   2.786   6.295
 6540SOL    HW120519   5.018   2.797   6.228
 6540SOL    HW220520   5.122   2.876   6.326
 6541SOL     OW20521   5.926   0.960   4.797
 6541SOL    HW120522   5.835   0.982   4.762
 6541SOL    HW220523   5.995   1.007   4.742
 6542SOL     OW20524   1.648   4.227   4.169
 6542SOL    HW120525   1.604   4.310   4.132
 6542SOL    HW220526   1.726   4.253   4.225
 6543SOL     OW20527   3.908   2.195   5.007
 6543SOL    HW120528   3.852   2.151   4.936
 6543SOL    HW220529   3.976   2.254   4.964
 6544SOL     OW20530   0.853   6.484   2.060
 6544SOL    HW120531   0.833   6.412   2.126
 6544SOL    HW220532   0.815   6.458   1.971
 6545SOL     OW20533   4.411   0.127   1.062
 6545SOL    HW120534   4.412   0.109   0.964
 6545SOL    HW220535   4.450   0.048   1.110
 6546SOL     OW20536   5.157   3.519   6.241
 6546SOL    HW120537   5.161   3.427   6.203
 6546SOL    HW220538   5.242   3.568   6.221
 6547SOL     OW20539   6.136   5.265   6.769
 6547SOL    HW120540   6.183   5.259   6.680
 6547SOL    HW220541   6.204   5.264   6.842
 6548SOL     OW20542   0.536   2.201   5.215
 6548SOL    HW120543   0.441   2.195   5.245
 6548SOL    HW220544   0.541   2.181   5.117
 6549SOL     OW20545   4.986   0.249   1.584
 6549SOL    HW120546   4.968   0.346   1.598
 6549SOL    HW220547   5.082   0.229   1.602
 6550SOL     OW20548   6.255   6.991   2.996
 6550SOL    HW120549   6.187   6.963   2.929
 6550SOL    HW220550   6.240   6.942   3.082
 6551SOL     OW20551   2.813   3.806   1.106
 6551SOL    HW120552   2.794   3.720   1.060
 6551SOL    HW220553   2.738   3.870   1.090
 6552SOL     OW20554   2.441   6.675   0.523
 6552SOL    HW120555   2.463   6.623   0.606
 6552SOL    HW220556   2.514   6.664   0.456
 6553SOL     OW20557   0.063   1.336   3.041
 6553SOL    HW120558   0.016   1.316   3.126
 6553SOL    HW220559   0.162   1.329   3.054
 6554SOL     OW20560   2.919   1.389   4.713
 6554SOL    HW120561   2.833   1.397   4.763
 6554SOL    HW220562   2.933   1.294   4.685
 6555SOL     OW20563   0.006   2.887   4.086
 6555SOL    HW120564   0.014   2.944   4.004
 6555SOL    HW220565   6.931   2.860   4.099
 6556SOL     OW20566   4.904   2.748   3.349
 6556SOL    HW120567   4.823   2.692   3.366
 6556SOL    HW220568   4.960   2.705   3.278
 6557SOL     OW20569   2.119   0.500   2.126
 6557SOL    HW120570   2.126   0.401   2.131
 6557SOL    HW220571   2.189   0.535   2.063
 6558SOL     OW20572   5.221   5.028   0.455
 6558SOL    HW120573   5.203   5.113   0.504
 6558SOL    HW220574   5.287   5.045   0.382
 6559SOL     OW20575   6.892   2.814   6.075
 6559SOL    HW120576   6.954   2.840   6.002
 6559SOL    HW220577   6.943   2.803   6.160
 6560SOL     OW20578   5.667   4.727   0.257
 6560SOL    HW120579   5.568   4.716   0.252
 6560SOL    HW220580   5.705   4.656   0.317
 6561SOL     OW20581   3.818   4.530   1.036
 6561SOL    HW120582   3.889   4.469   1.071
 6561SOL    HW220583   3.820   4.530   0.936
 6562SOL     OW20584   5.655   3.248   1.212
 6562SOL    HW120585   5.603   3.163   1.219
 6562SOL    HW220586   5.678   3.280   1.304
 6563SOL     OW20587   5.132   5.849   5.147
 6563SOL    HW120588   5.055   5.898   5.105
 6563SOL    HW220589   5.218   5.882   5.109
 6564SOL     OW20590   0.025   3.982   2.859
 6564SOL    HW120591   0.096   4.039   2.818
 6564SOL    HW220592   6.955   4.013   2.828
 6565SOL     OW20593   5.663   0.050   3.183
 6565SOL    HW120594   5.622   6.987   3.145
 6565SOL    HW220595   5.700   0.031   3.274
 6566SOL     OW20596   4.166   6.028   2.414
 6566SOL    HW120597   4.174   6.126   2.427
 6566SOL    HW220598   4.198   6.004   2.322
 6567SOL     OW20599   4.121   0.493   0.934
 6567SOL    HW120600   4.117   0.401   0.973
 6567SOL    HW220601   4.214   0.529   0.944
 6568SOL     OW20602   3.697   1.261   1.300
 6568SOL    HW120603   3.756   1.312   1.364
 6568SOL    HW220604   3.717   1.163   1.307
 6569SOL     OW20605   0.230   4.200   5.852
 6569SOL    HW120606   0.309   4.145   5.825
 6569SOL    HW220607   0.256   4.297   5.852
 6570SOL     OW20608   4.089   6.512   1.841
 6570SOL    HW120609   4.014   6.499   1.905
 6570SOL    HW220610   4.130   6.602   1.855
 6571SOL     OW20611   2.868   5.673   2.944
 6571SOL    HW120612   2.787   5.715   2.985
 6571SOL    HW220613   2.900   5.598   3.001
 6572SOL     OW20614   0.732   5.924   4.002
 6572SOL    HW120615   0.799   5.891   3.936
 6572SOL    HW220616   0.645   5.878   3.986
 6573SOL     OW20617   1.165   1.119   3.084
 6573SOL    HW120618   1.174   1.095   2.987
 6573SOL    HW220619   1.072   1.151   3.102
 6574SOL     OW20620   1.644   5.987   2.348
 6574SOL    HW120621   1.592   5.974   2.433
 6574SOL    HW220622   1.594   6.051   2.289
 6575SOL     OW20623   6.789   0.481   2.617
 6575SOL    HW120624   6.780   0.488   2.716
 6575SOL    HW220625   6.855   0.410   2.594
 6576SOL     OW20626   4.037   5.717   0.697
 6576SOL    HW120627   3.993   5.792   0.747
 6576SOL    HW220628   4.053   5.640   0.759
 6577SOL     OW20629   1.925   2.256   3.349
 6577SOL    HW120630   2.024   2.267   3.359
 6577SOL    HW220631   1.899   2.164   3.378
 6578SOL     OW20632   1.657   4.894   1.880
 6578SOL    HW120633   1.724   4.821   1.873
 6578SOL    HW220634   1.627   4.904   1.975
 6579SOL     OW20635   6.501   1.413   4.219
 6579SOL    HW120636   6.587   1.372   4.189
 6579SOL    HW220637   6.520   1.480   4.291
 6580SOL     OW20638   0.967   6.859   6.988
 6580SOL    HW120639   0.939   6.944   6.942
 6580SOL    HW220640   0.940   6.781   6.931
 6581SOL     OW20641   1.294   1.805   6.891
 6581SOL    HW120642   1.204   1.838   6.921
 6581SOL    HW220643   1.295   1.798   6.791
 6582SOL     OW20644   6.702   1.206   2.980
 6582SOL    HW120645   6.734   1.127   2.928
 6582SOL    HW220646   6.666   1.275   2.917
 6583SOL     OW20647   4.685   6.401   6.896
 6583SOL    HW120648   4.750   6.448   6.955
 6583SOL    HW220649   4.713   6.411   6.800
 6584SOL     OW20650   3.140   2.168   1.013
 6584SOL    HW120651   3.187   2.219   1.085
 6584SOL    HW220652   3.193   2.173   0.928
 6585SOL     OW20653   5.802   0.033   1.021
 6585SOL    HW120654   5.871   0.096   1.055
 6585SOL    HW220655   5.838   6.959   1.024
 6586SOL     OW20656   6.183   2.279   6.439
 6586SOL    HW120657   6.123   2.311   6.512
 6586SOL    HW220658   6.276   2.310   6.456
 6587SOL     OW20659   1.712   4.227   5.490
 6587SOL    HW120660   1.708   4.242   5.589
 6587SOL    HW220661   1.624   4.250   5.449
 6588SOL     OW20662   0.651   3.520   0.804
 6588SOL    HW120663   0.694   3.474   0.727
 6588SOL    HW220664   0.698   3.496   0.889
 6589SOL     OW20665   0.110   0.741   1.876
 6589SOL    HW120666   0.138   0.726   1.971
 6589SOL    HW220667   0.071   0.657   1.839
 6590SOL     OW20668   1.186   0.008   4.164
 6590SOL    HW120669   1.163   0.016   4.261
 6590SOL    HW220670   1.102   0.017   4.110
 6591SOL     OW20671   5.511   4.061   4.269
 6591SOL    HW120672   5.488   3.970   4.304
 6591SOL    HW220673   5.431   4.121   4.276
 6592SOL     OW20674   5.647   5.937   2.849
 6592SOL    HW120675   5.660   6.017   2.790
 6592SOL    HW220676   5.601   5.965   2.933
 6593SOL     OW20677   2.588   2.081   2.925
 6593SOL    HW120678   2.637   2.165   2.904
 6593SOL    HW220679   2.580   2.025   2.842
 6594SOL     OW20680   4.643   1.680   6.768
 6594SOL    HW120681   4.661   1.585   6.741
 6594SOL    HW220682   4.545   1.691   6.787
 6595SOL     OW20683   1.770   2.427   5.039
 6595SOL    HW120684   1.815   2.502   5.088
 6595SOL    HW220685   1.674   2.423   5.066
 6596SOL     OW20686   5.622   5.933   2.525
 6596SOL    HW120687   5.676   6.004   2.570
 6596SOL    HW220688   5.526   5.944   2.550
 6597SOL     OW20689   1.568   5.046   2.346
 6597SOL    HW120690   1.604   5.035   2.438
 6597SOL    HW220691   1.644   5.043   2.280
 6598SOL     OW20692   1.762   4.784   4.267
 6598SOL    HW120693   1.765   4.859   4.200
 6598SOL    HW220694   1.795   4.700   4.224
 6599SOL     OW20695   5.746   5.277   6.220
 6599SOL    HW120696   5.773   5.245   6.311
 6599SOL    HW220697   5.827   5.301   6.168
 6600SOL     OW20698   4.207   0.076   5.045
 6600SOL    HW120699   4.277   0.013   5.079
 6600SOL    HW220700   4.251   0.149   4.992
 6601SOL     OW20701   1.373   2.331   1.982
 6601SOL    HW120702   1.421   2.375   1.906
 6601SOL    HW220703   1.411   2.240   1.997
 6602SOL     OW20704   2.324   6.368   1.629
 6602SOL    HW120705   2.404   6.321   1.667
 6602SOL    HW220706   2.241   6.318   1.654
 6603SOL     OW20707   0.521   3.154   3.288
 6603SOL    HW120708   0.554   3.242   3.322
 6603SOL    HW220709   0.599   3.099   3.257
 6604SOL     OW20710   1.672   6.561   2.419
 6604SOL    HW120711   1.596   6.506   2.452
 6604SOL    HW220712   1.637   6.641   2.371
 6605SOL     OW20713   6.616   5.469   1.418
 6605SOL    HW120714   6.543   5.452   1.485
 6605SOL    HW220715   6.588   5.436   1.328
 6606SOL     OW20716   1.861   3.524   3.844
 6606SOL    HW120717   1.945   3.576   3.861
 6606SOL    HW220718   1.798   3.579   3.790
 6607SOL     OW20719   5.714   3.744   3.679
 6607SOL    HW120720   5.809   3.737   3.709
 6607SOL    HW220721   5.666   3.658   3.698
 6608SOL     OW20722   0.300   6.673   5.945
 6608SOL    HW120723   0.271   6.631   6.031
 6608SOL    HW220724   0.308   6.602   5.874
 6609SOL     OW20725   4.418   1.948   5.697
 6609SOL    HW120726   4.513   1.921   5.714
 6609SOL    HW220727   4.413   2.001   5.612
 6610SOL     OW20728   3.270   5.166   0.901
 6610SOL    HW120729   3.270   5.202   0.808
 6610SOL    HW220730   3.263   5.241   0.966
 6611SOL     OW20731   4.511   1.902   4.103
 6611SOL    HW120732   4.532   1.932   4.196
 6611SOL    HW220733   4.462   1.974   4.055
 6612SOL     OW20734   6.082   1.673   6.134
 6612SOL    HW120735   6.060   1.769   6.116
 6612SOL    HW220736   6.178   1.665   6.161
 6613SOL     OW20737   5.346   0.362   6.832
 6613SOL    HW120738   5.311   0.271   6.854
 6613SOL    HW220739   5.272   0.418   6.795
 6614SOL     OW20740   4.240   5.974   1.603
 6614SOL    HW120741   4.278   6.066   1.590
 6614SOL    HW220742   4.292   5.908   1.549
 6615SOL     OW20743   3.039   5.222   0.344
 6615SOL    HW120744   3.116   5.248   0.286
 6615SOL    HW220745   3.009   5.129   0.320
 6616SOL     OW20746   5.185   1.292   5.368
 6616SOL    HW120747   5.097   1.299   5.321
 6616SOL    HW220748   5.258   1.324   5.308
 6617SOL     OW20749   4.264   0.746   4.042
 6617SOL    HW120750   4.352   0.791   4.026
 6617SOL    HW220751   4.250   0.735   4.141
 6618SOL     OW20752   6.879   2.464   2.404
 6618SOL    HW120753   6.915   2.550   2.440
 6618SOL    HW220754   6.790   2.481   2.360
 6619SOL     OW20755   5.218   6.494   4.103
 6619SOL    HW120756   5.276   6.574   4.091
 6619SOL    HW220757   5.123   6.522   4.115
 6620SOL     OW20758   0.699   3.291   3.659
 6620SOL    HW120759   0.795   3.316   3.673
 6620SOL    HW220760   0.682   3.201   3.699
 6621SOL     OW20761   3.785   2.952   5.061
 6621SOL    HW120762   3.768   2.860   5.027
 6621SOL    HW220763   3.826   3.008   4.989
 6622SOL     OW20764   0.299   5.617   0.627
 6622SOL    HW120765   0.216   5.666   0.654
 6622SOL    HW220766   0.274   5.541   0.567
 6623SOL     OW20767   3.646   4.231   5.591
 6623SOL    HW120768   3.585   4.201   5.518
 6623SOL    HW220769   3.741   4.217   5.563
 6624SOL     OW20770   1.416   2.057   4.317
 6624SOL    HW120771   1.459   2.136   4.361
 6624SOL    HW220772   1.399   2.077   4.220
 6625SOL     OW20773   6.005   2.708   5.684
 6625SOL    HW120774   5.996   2.711   5.784
 6625SOL    HW220775   6.101   2.719   5.659
 6626SOL     OW20776   2.624   6.238   5.426
 6626SOL    HW120777   2.587   6.299   5.355
 6626SOL    HW220778   2.713   6.203   5.398
 6627SOL     OW20779   1.508   6.075   4.846
 6627SOL    HW120780   1.415   6.080   4.882
 6627SOL    HW220781   1.507   6.032   4.756
 6628SOL     OW20782   4.729   5.511   4.167
 6628SOL    HW120783   4.827   5.492   4.179
 6628SOL    HW220784   4.676   5.433   4.199
 6629SOL     OW20785   5.369   6.252   6.988
 6629SOL    HW120786   5.334   6.248   6.895
 6629SOL    HW220787   5.464   6.285   6.987
 6630SOL     OW20788   2.279   1.600   1.485
 6630SOL    HW120789   2.277   1.513   1.534
 6630SOL    HW220790   2.315   1.586   1.393
 6631SOL     OW20791   2.131   4.740   6.173
 6631SOL    HW120792   2.056   4.684   6.210
 6631SOL    HW220793   2.126   4.740   6.073
 6632SOL     OW20794   1.238   0.695   0.379
 6632SOL    HW120795   1.218   0.625   0.310
 6632SOL    HW220796   1.241   0.785   0.335
 6633SOL     OW20797   3.461   5.740   6.471
 6633SOL    HW120798   3.438   5.645   6.494
 6633SOL    HW220799   3.560   5.750   6.466
 6634SOL     OW20800   4.648   2.225   4.692
 6634SOL    HW120801   4.714   2.271   4.751
 6634SOL    HW220802   4.578   2.291   4.662
 6635SOL     OW20803   5.366   4.744   2.572
 6635SOL    HW120804   5.294   4.675   2.558
 6635SOL    HW220805   5.393   4.745   2.668
 6636SOL     OW20806   3.484   6.555   1.325
 6636SOL    HW120807   3.478   6.647   1.364
 6636SOL    HW220808   3.557   6.504   1.371
 6637SOL     OW20809   1.188   1.112   0.459
 6637SOL    HW120810   1.249   1.088   0.534
 6637SOL    HW220811   1.227   1.081   0.372
 6638SOL     OW20812   3.145   3.487   3.728
 6638SOL    HW120813   3.204   3.493   3.648
 6638SOL    HW220814   3.062   3.540   3.713
 6639SOL     OW20815   5.216   2.961   1.384
 6639SOL    HW120816   5.146   3.031   1.370
 6639SOL    HW220817   5.173   2.871   1.390
 6640SOL     OW20818   1.167   2.878   4.979
 6640SOL    HW120819   1.251   2.930   4.966
 6640SOL    HW220820   1.142   2.834   4.892
 6641SOL     OW20821   4.010   2.033   1.115
 6641SOL    HW120822   4.084   2.099   1.106
 6641SOL    HW220823   4.006   2.000   1.209
 6642SOL     OW20824   1.319   5.673   0.360
 6642SOL    HW120825   1.389   5.730   0.404
 6642SOL    HW220826   1.339   5.577   0.377
 6643SOL     OW20827   4.375   0.050   0.368
 6643SOL    HW120828   4.321   0.053   0.285
 6643SOL    HW220829   4.461   0.099   0.354
 6644SOL     OW20830   1.603   6.462   3.366
 6644SOL    HW120831   1.621   6.394   3.295
 6644SOL    HW220832   1.689   6.501   3.398
 6645SOL     OW20833   6.159   2.539   0.741
 6645SOL    HW120834   6.184   2.560   0.647
 6645SOL    HW220835   6.169   2.441   0.758
 6646SOL     OW20836   4.569   0.436   6.748
 6646SOL    HW120837   4.543   0.460   6.655
 6646SOL    HW220838   4.522   0.495   6.813
 6647SOL     OW20839   4.680   4.997   1.110
 6647SOL    HW120840   4.720   4.905   1.116
 6647SOL    HW220841   4.583   4.990   1.088
 6648SOL     OW20842   2.234   6.075   5.623
 6648SOL    HW120843   2.201   6.161   5.664
 6648SOL    HW220844   2.289   6.095   5.543
 6649SOL     OW20845   6.083   2.106   6.839
 6649SOL    HW120846   6.168   2.077   6.794
 6649SOL    HW220847   6.073   2.058   6.925
 6650SOL     OW20848   2.761   1.225   5.190
 6650SOL    HW120849   2.809   1.302   5.231
 6650SOL    HW220850   2.793   1.140   5.231
 6651SOL     OW20851   0.198   1.825   6.721
 6651SOL    HW120852   0.231   1.801   6.812
 6651SOL    HW220853   0.264   1.795   6.652
 6652SOL     OW20854   1.016   4.686   0.243
 6652SOL    HW120855   1.074   4.747   0.297
 6652SOL    HW220856   0.942   4.652   0.301
 6653SOL     OW20857   5.568   3.433   0.732
 6653SOL    HW120858   5.648   3.393   0.687
 6653SOL    HW220859   5.552   3.386   0.819
 6654SOL     OW20860   0.621   4.405   3.209
 6654SOL    HW120861   0.655   4.385   3.301
 6654SOL    HW220862   0.523   4.421   3.213
 6655SOL     OW20863   6.782   5.234   1.636
 6655SOL    HW120864   6.758   5.258   1.730
 6655SOL    HW220865   6.833   5.309   1.595
 6656SOL     OW20866   4.337   1.172   2.786
 6656SOL    HW120867   4.329   1.246   2.719
 6656SOL    HW220868   4.379   1.207   2.870
 6657SOL     OW20869   5.780   2.129   4.276
 6657SOL    HW120870   5.771   2.137   4.177
 6657SOL    HW220871   5.690   2.141   4.318
 6658SOL     OW20872   6.259   6.159   4.989
 6658SOL    HW120873   6.234   6.098   5.064
 6658SOL    HW220874   6.179   6.174   4.930
 6659SOL     OW20875   1.090   4.920   1.657
 6659SOL    HW120876   1.004   4.870   1.644
 6659SOL    HW220877   1.070   5.010   1.696
 6660SOL     OW20878   0.205   6.577   3.350
 6660SOL    HW120879   0.303   6.560   3.339
 6660SOL    HW220880   0.166   6.509   3.413
 6661SOL     OW20881   3.488   6.595   4.104
 6661SOL    HW120882   3.556   6.636   4.165
 6661SOL    HW220883   3.480   6.650   4.021
 6662SOL     OW20884   3.029   0.083   2.222
 6662SOL    HW120885   2.939   0.050   2.193
 6662SOL    HW220886   3.063   0.026   2.297
 6663SOL     OW20887   1.352   4.285   5.877
 6663SOL    HW120888   1.293   4.328   5.809
 6663SOL    HW220889   1.327   4.189   5.887
 6664SOL     OW20890   3.296   0.725   1.253
 6664SOL    HW120891   3.341   0.812   1.233
 6664SOL    HW220892   3.212   0.719   1.199
 6665SOL     OW20893   2.655   0.551   5.708
 6665SOL    HW120894   2.735   0.507   5.667
 6665SOL    HW220895   2.619   0.620   5.645
 6666SOL     OW20896   4.765   6.520   5.373
 6666SOL    HW120897   4.765   6.478   5.463
 6666SOL    HW220898   4.678   6.501   5.327
 6667SOL     OW20899   0.024   6.114   6.388
 6667SOL    HW120900   0.078   6.046   6.339
 6667SOL    HW220901   0.016   6.197   6.332
 6668SOL     OW20902   6.757   5.993   0.547
 6668SOL    HW120903   6.825   5.991   0.473
 6668SOL    HW220904   6.711   6.081   0.548
 6669SOL     OW20905   1.496   1.742   2.355
 6669SOL    HW120906   1.559   1.817   2.377
 6669SOL    HW220907   1.444   1.766   2.273
 6670SOL     OW20908   3.789   2.865   0.804
 6670SOL    HW120909   3.768   2.848   0.901
 6670SOL    HW220910   3.843   2.949   0.797
 6671SOL     OW20911   5.318   5.806   0.015
 6671SOL    HW120912   5.287   5.863   0.091
 6671SOL    HW220913   5.417   5.811   0.007
 6672SOL     OW20914   0.848   1.769   0.943
 6672SOL    HW120915   0.769   1.719   0.979
 6672SOL    HW220916   0.822   1.864   0.924
 6673SOL     OW20917   5.816   3.859   4.463
 6673SOL    HW120918   5.746   3.798   4.500
 6673SOL    HW220919   5.773   3.943   4.430
 6674SOL     OW20920   0.156   2.530   0.093
 6674SOL    HW120921   0.117   2.622   0.095
 6674SOL    HW220922   0.102   2.469   0.151
 6675SOL     OW20923   4.325   2.684   6.960
 6675SOL    HW120924   4.278   2.596   6.955
 6675SOL    HW220925   4.311   2.724   0.030
 6676SOL     OW20926   1.424   3.884   3.915
 6676SOL    HW120927   1.494   3.912   3.980
 6676SOL    HW220928   1.389   3.964   3.866
 6677SOL     OW20929   0.618   1.699   0.414
 6677SOL    HW120930   0.687   1.636   0.451
 6677SOL    HW220931   0.622   1.785   0.465
 6678SOL     OW20932   1.657   5.149   0.401
 6678SOL    HW120933   1.635   5.150   0.498
 6678SOL    HW220934   1.732   5.213   0.383
 6679SOL     OW20935   2.150   1.249   3.894
 6679SOL    HW120936   2.239   1.284   3.864
 6679SOL    HW220937   2.094   1.324   3.926
 6680SOL     OW20938   5.345   6.315   0.414
 6680SOL    HW120939   5.252   6.334   0.445
 6680SOL    HW220940   5.372   6.382   0.345
 6681SOL     OW20941   3.970   5.816   1.395
 6681SOL    HW120942   3.977   5.718   1.408
 6681SOL    HW220943   3.927   5.858   1.475
 6682SOL     OW20944   3.344   5.220   6.643
 6682SOL    HW120945   3.278   5.282   6.601
 6682SOL    HW220946   3.406   5.184   6.573
 6683SOL     OW20947   6.292   3.055   6.913
 6683SOL    HW120948   6.275   3.013   6.824
 6683SOL    HW220949   6.214   3.114   6.937
 6684SOL     OW20950   3.522   6.830   1.409
 6684SOL    HW120951   3.543   6.794   1.500
 6684SOL    HW220952   3.450   6.899   1.417
 6685SOL     OW20953   4.252   3.380   6.850
 6685SOL    HW120954   4.272   3.384   6.948
 6685SOL    HW220955   4.334   3.407   6.799
 6686SOL     OW20956   5.586   5.396   3.960
 6686SOL    HW120957   5.665   5.382   3.900
 6686SOL    HW220958   5.588   5.489   3.996
 6687SOL     OW20959   6.409   2.198   1.817
 6687SOL    HW120960   6.507   2.214   1.815
 6687SOL    HW220961   6.362   2.272   1.771
 6688SOL     OW20962   4.018   5.500   0.896
 6688SOL    HW120963   4.067   5.418   0.868
 6688SOL    HW220964   3.981   5.487   0.988
 6689SOL     OW20965   2.779   5.109   5.996
 6689SOL    HW120966   2.784   5.183   5.929
 6689SOL    HW220967   2.854   5.045   5.980
 6690SOL     OW20968   1.018   0.009   5.734
 6690SOL    HW120969   1.110   6.993   5.752
 6690SOL    HW220970   0.964   0.006   5.817
 6691SOL     OW20971   2.667   2.353   2.414
 6691SOL    HW120972   2.683   2.355   2.316
 6691SOL    HW220973   2.596   2.285   2.435
 6692SOL     OW20974   4.654   4.967   1.420
 6692SOL    HW120975   4.735   4.998   1.469
 6692SOL    HW220976   4.680   4.935   1.329
 6693SOL     OW20977   4.282   1.756   4.606
 6693SOL    HW120978   4.221   1.692   4.653
 6693SOL    HW220979   4.313   1.715   4.520
 6694SOL     OW20980   3.849   5.537   0.529
 6694SOL    HW120981   3.936   5.584   0.544
 6694SOL    HW220982   3.791   5.547   0.610
 6695SOL     OW20983   2.704   2.354   6.603
 6695SOL    HW120984   2.738   2.428   6.544
 6695SOL    HW220985   2.604   2.352   6.599
 6696SOL     OW20986   3.988   3.723   4.589
 6696SOL    HW120987   4.036   3.719   4.501
 6696SOL    HW220988   3.942   3.635   4.606
 6697SOL     OW20989   4.594   2.440   2.268
 6697SOL    HW120990   4.556   2.374   2.203
 6697SOL    HW220991   4.523   2.468   2.332
 6698SOL     OW20992   3.649   4.347   1.635
 6698SOL    HW120993   3.556   4.386   1.634
 6698SOL    HW220994   3.716   4.421   1.641
 6699SOL     OW20995   1.073   4.456   5.360
 6699SOL    HW120996   1.063   4.407   5.273
 6699SOL    HW220997   1.021   4.407   5.431
 6700SOL     OW20998   6.068   0.576   0.340
 6700SOL    HW120999   6.048   0.649   0.405
 6700SOL    HW221000   6.154   0.597   0.292
 6701SOL     OW21001   5.921   6.903   1.325
 6701SOL    HW121002   5.838   6.921   1.378
 6701SOL    HW221003   5.902   6.916   1.228
 6702SOL     OW21004   3.019   1.935   1.048
 6702SOL    HW121005   3.091   2.000   1.026
 6702SOL    HW221006   2.930   1.981   1.042
 6703SOL     OW21007   1.722   1.927   6.260
 6703SOL    HW121008   1.743   1.837   6.222
 6703SOL    HW221009   1.722   1.995   6.187
 6704SOL     OW21010   3.723   1.394   5.220
 6704SOL    HW121011   3.647   1.330   5.232
 6704SOL    HW221012   3.702   1.459   5.147
 6705SOL     OW21013   6.454   3.356   1.990
 6705SOL    HW121014   6.420   3.332   1.899
 6705SOL    HW221015   6.554   3.356   1.990
 6706SOL     OW21016   0.405   6.630   1.605
 6706SOL    HW121017   0.347   6.679   1.671
 6706SOL    HW221018   0.488   6.598   1.651
 6707SOL     OW21019   5.516   0.569   2.430
 6707SOL    HW121020   5.513   0.484   2.377
 6707SOL    HW221021   5.503   0.548   2.527
 6708SOL     OW21022   0.412   4.153   1.437
 6708SOL    HW121023   0.459   4.083   1.492
 6708SOL    HW221024   0.380   4.112   1.352
 6709SOL     OW21025   1.243   4.727   2.201
 6709SOL    HW121026   1.258   4.639   2.246
 6709SOL    HW221027   1.145   4.740   2.184
 6710SOL     OW21028   4.641   1.254   1.569
 6710SOL    HW121029   4.710   1.182   1.559
 6710SOL    HW221030   4.570   1.243   1.499
 6711SOL     OW21031   4.704   6.215   6.292
 6711SOL    HW121032   4.783   6.263   6.331
 6711SOL    HW221033   4.620   6.256   6.326
 6712SOL     OW21034   6.190   3.455   0.724
 6712SOL    HW121035   6.129   3.438   0.801
 6712SOL    HW221036   6.274   3.499   0.758
 6713SOL     OW21037   1.577   0.205   4.511
 6713SOL    HW121038   1.494   0.151   4.526
 6713SOL    HW221039   1.657   0.145   4.511
 6714SOL     OW21040   5.946   1.255   0.177
 6714SOL    HW121041   5.992   1.224   0.261
 6714SOL    HW221042   5.859   1.206   0.167
 6715SOL     OW21043   1.401   0.238   0.300
 6715SOL    HW121044   1.385   0.254   0.203
 6715SOL    HW221045   1.323   0.272   0.353
 6716SOL     OW21046   6.955   5.350   2.350
 6716SOL    HW121047   6.977   5.447   2.361
 6716SOL    HW221048   6.893   5.321   2.423
 6717SOL     OW21049   3.974   2.615   6.300
 6717SOL    HW121050   4.045   2.611   6.230
 6717SOL    HW221051   4.003   2.562   6.380
 6718SOL     OW21052   3.351   0.118   2.344
 6718SOL    HW121053   3.417   0.161   2.405
 6718SOL    HW221054   3.276   0.078   2.397
 6719SOL     OW21055   1.852   0.313   6.607
 6719SOL    HW121056   1.807   0.362   6.681
 6719SOL    HW221057   1.822   0.217   6.606
 6720SOL     OW21058   2.226   0.614   5.960
 6720SOL    HW121059   2.313   0.576   5.929
 6720SOL    HW221060   2.162   0.540   5.980
 6721SOL     OW21061   0.589   1.216   0.731
 6721SOL    HW121062   0.651   1.274   0.783
 6721SOL    HW221063   0.598   1.237   0.634
 6722SOL     OW21064   6.110   3.181   0.251
 6722SOL    HW121065   6.066   3.115   0.312
 6722SOL    HW221066   6.074   3.273   0.270
 6723SOL     OW21067   1.494   2.029   6.370
 6723SOL    HW121068   1.558   1.968   6.325
 6723SOL    HW221069   1.428   1.975   6.422
 6724SOL     OW21070   1.830   3.314   5.798
 6724SOL    HW121071   1.781   3.401   5.795
 6724SOL    HW221072   1.916   3.322   5.748
 6725SOL     OW21073   6.202   2.972   3.477
 6725SOL    HW121074   6.261   3.053   3.480
 6725SOL    HW221075   6.172   2.956   3.382
 6726SOL     OW21076   0.151   1.142   5.573
 6726SOL    HW121077   0.060   1.151   5.532
 6726SOL    HW221078   0.188   1.232   5.592
 6727SOL     OW21079   1.031   4.455   5.960
 6727SOL    HW121080   1.002   4.361   5.978
 6727SOL    HW221081   1.065   4.496   6.044
 6728SOL     OW21082   3.610   2.031   3.586
 6728SOL    HW121083   3.539   1.965   3.563
 6728SOL    HW221084   3.606   2.051   3.684
 6729SOL     OW21085   5.070   1.562   0.879
 6729SOL    HW121086   5.013   1.528   0.954
 6729SOL    HW221087   5.023   1.637   0.833
 6730SOL     OW21088   1.156   0.773   1.312
 6730SOL    HW121089   1.139   0.721   1.229
 6730SOL    HW221090   1.100   0.737   1.386
 6731SOL     OW21091   3.201   6.476   0.783
 6731SOL    HW121092   3.117   6.517   0.749
 6731SOL    HW221093   3.280   6.529   0.750
 6732SOL     OW21094   5.700   5.201   4.126
 6732SOL    HW121095   5.659   5.280   4.081
 6732SOL    HW221096   5.797   5.218   4.143
 6733SOL     OW21097   3.462   5.380   6.256
 6733SOL    HW121098   3.406   5.415   6.181
 6733SOL    HW221099   3.431   5.420   6.343
 6734SOL     OW21100   5.455   1.329   4.881
 6734SOL    HW121101   5.471   1.247   4.937
 6734SOL    HW221102   5.425   1.301   4.790
 6735SOL     OW21103   5.963   3.473   3.462
 6735SOL    HW121104   6.049   3.523   3.449
 6735SOL    HW221105   5.976   3.377   3.439
 6736SOL     OW21106   3.181   4.125   1.023
 6736SOL    HW121107   3.119   4.077   1.085
 6736SOL    HW221108   3.183   4.078   0.935
 6737SOL     OW21109   1.197   2.860   1.633
 6737SOL    HW121110   1.135   2.935   1.658
 6737SOL    HW221111   1.289   2.897   1.620
 6738SOL     OW21112   1.855   5.827   3.391
 6738SOL    HW121113   1.873   5.732   3.366
 6738SOL    HW221114   1.929   5.886   3.357
 6739SOL     OW21115   6.571   0.018   3.966
 6739SOL    HW121116   6.590   0.051   4.059
 6739SOL    HW221117   6.610   6.947   3.954
 6740SOL     OW21118   6.291   6.427   4.541
 6740SOL    HW121119   6.343   6.506   4.509
 6740SOL    HW221120   6.196   6.454   4.558
 6741SOL     OW21121   4.807   2.060   5.526
 6741SOL    HW121122   4.746   2.135   5.554
 6741SOL    HW221123   4.789   1.980   5.583
 6742SOL     OW21124   5.416   4.588   3.494
 6742SOL    HW121125   5.485   4.516   3.481
 6742SOL    HW221126   5.328   4.546   3.517
 6743SOL     OW21127   4.289   4.432   0.226
 6743SOL    HW121128   4.265   4.441   0.129
 6743SOL    HW221129   4.314   4.338   0.246
 6744SOL     OW21130   6.495   5.316   6.069
 6744SOL    HW121131   6.450   5.239   6.024
 6744SOL    HW221132   6.560   5.282   6.136
 6745SOL     OW21133   6.727   6.313   3.791
 6745SOL    HW121134   6.730   6.233   3.851
 6745SOL    HW221135   6.648   6.305   3.730
 6746SOL     OW21136   1.595   1.253   2.804
 6746SOL    HW121137   1.660   1.183   2.775
 6746SOL    HW221138   1.635   1.344   2.787
 6747SOL     OW21139   0.893   6.900   6.388
 6747SOL    HW121140   0.905   6.802   6.372
 6747SOL    HW221141   0.830   6.937   6.320
 6748SOL     OW21142   2.319   1.812   3.770
 6748SOL    HW121143   2.375   1.885   3.730
 6748SOL    HW221144   2.349   1.724   3.734
 6749SOL     OW21145   3.539   4.300   0.748
 6749SOL    HW121146   3.554   4.378   0.687
 6749SOL    HW221147   3.610   4.232   0.733
 6750SOL     OW21148   2.832   1.643   4.644
 6750SOL    HW121149   2.878   1.554   4.639
 6750SOL    HW221150   2.880   1.701   4.710
 6751SOL     OW21151   4.563   6.864   3.449
 6751SOL    HW121152   4.552   6.807   3.531
 6751SOL    HW221153   4.653   6.907   3.451
 6752SOL     OW21154   1.687   6.250   3.184
 6752SOL    HW121155   1.687   6.244   3.085
 6752SOL    HW221156   1.663   6.161   3.223
 6753SOL     OW21157   3.722   2.661   5.370
 6753SOL    HW121158   3.650   2.696   5.309
 6753SOL    HW221159   3.699   2.684   5.465
 6754SOL     OW21160   6.121   1.145   1.440
 6754SOL    HW121161   6.123   1.237   1.479
 6754SOL    HW221162   6.122   1.077   1.513
 6755SOL     OW21163   2.751   4.823   0.660
 6755SOL    HW121164   2.766   4.724   0.657
 6755SOL    HW221165   2.836   4.870   0.636
 6756SOL     OW21166   2.413   2.228   5.829
 6756SOL    HW121167   2.501   2.181   5.818
 6756SOL    HW221168   2.340   2.161   5.843
 6757SOL     OW21169   3.360   0.842   0.489
 6757SOL    HW121170   3.382   0.746   0.507
 6757SOL    HW221171   3.428   0.880   0.426
 6758SOL     OW21172   5.660   2.883   1.177
 6758SOL    HW121173   5.673   2.784   1.186
 6758SOL    HW221174   5.563   2.905   1.181
 6759SOL     OW21175   7.017   3.413   3.320
 6759SOL    HW121176   6.990   3.367   3.404
 6759SOL    HW221177   6.969   3.500   3.312
 6760SOL     OW21178   5.339   2.871   3.031
 6760SOL    HW121179   5.406   2.937   2.996
 6760SOL    HW221180   5.257   2.875   2.974
 6761SOL     OW21181   4.989   2.114   4.493
 6761SOL    HW121182   5.082   2.151   4.492
 6761SOL    HW221183   4.991   2.018   4.522
 6762SOL     OW21184   6.773   5.462   3.388
 6762SOL    HW121185   6.849   5.397   3.379
 6762SOL    HW221186   6.692   5.424   3.344
 6763SOL     OW21187   4.641   5.538   5.001
 6763SOL    HW121188   4.700   5.616   5.021
 6763SOL    HW221189   4.611   5.496   5.087
 6764SOL     OW21190   1.416   5.973   1.990
 6764SOL    HW121191   1.478   5.912   1.941
 6764SOL    HW221192   1.347   5.919   2.038
 6765SOL     OW21193   5.936   5.194   3.535
 6765SOL    HW121194   5.892   5.143   3.462
 6765SOL    HW221195   5.888   5.280   3.550
 6766SOL     OW21196   4.694   6.397   0.312
 6766SOL    HW121197   4.724   6.473   0.370
 6766SOL    HW221198   4.735   6.312   0.344
 6767SOL     OW21199   2.700   0.748   0.421
 6767SOL    HW121200   2.688   0.836   0.465
 6767SOL    HW221201   2.767   0.757   0.346
 6768SOL     OW21202   1.853   0.782   6.711
 6768SOL    HW121203   1.839   0.789   6.613
 6768SOL    HW221204   1.918   0.708   6.730
 6769SOL     OW21205   3.549   2.898   0.636
 6769SOL    HW121206   3.588   2.923   0.547
 6769SOL    HW221207   3.623   2.885   0.702
 6770SOL     OW21208   6.651   0.798   2.040
 6770SOL    HW121209   6.658   0.699   2.033
 6770SOL    HW221210   6.729   0.841   1.994
 6771SOL     OW21211   4.332   2.040   2.805
 6771SOL    HW121212   4.251   2.098   2.806
 6771SOL    HW221213   4.409   2.090   2.764
 6772SOL     OW21214   3.093   1.168   2.655
 6772SOL    HW121215   3.027   1.223   2.604
 6772SOL    HW221216   3.085   1.072   2.629
 6773SOL     OW21217   6.581   3.939   1.829
 6773SOL    HW121218   6.536   3.856   1.798
 6773SOL    HW221219   6.677   3.938   1.800
 6774SOL     OW21220   0.351   2.528   6.139
 6774SOL    HW121221   0.430   2.542   6.199
 6774SOL    HW221222   0.342   2.606   6.077
 6775SOL     OW21223   2.630   3.944   0.661
 6775SOL    HW121224   2.624   3.943   0.761
 6775SOL    HW221225   2.549   3.899   0.623
 6776SOL     OW21226   4.563   4.667   0.407
 6776SOL    HW121227   4.470   4.670   0.370
 6776SOL    HW221228   4.584   4.575   0.438
 6777SOL     OW21229   4.126   4.609   6.135
 6777SOL    HW121230   4.138   4.522   6.087
 6777SOL    HW221231   4.147   4.596   6.232
 6778SOL     OW21232   0.729   4.033   2.327
 6778SOL    HW121233   0.663   4.104   2.350
 6778SOL    HW221234   0.807   4.038   2.390
 6779SOL     OW21235   6.822   4.268   0.139
 6779SOL    HW121236   6.891   4.262   0.211
 6779SOL    HW221237   6.824   4.186   0.083
 6780SOL     OW21238   1.012   2.302   2.469
 6780SOL    HW121239   1.111   2.315   2.457
 6780SOL    HW221240   0.979   2.234   2.403
 6781SOL     OW21241   5.523   6.443   5.464
 6781SOL    HW121242   5.488   6.403   5.550
 6781SOL    HW221243   5.614   6.481   5.480
 6782SOL     OW21244   0.219   1.112   2.400
 6782SOL    HW121245   0.217   1.022   2.357
 6782SOL    HW221246   0.168   1.109   2.486
 6783SOL     OW21247   0.243   6.488   6.145
 6783SOL    HW121248   0.153   6.510   6.183
 6783SOL    HW221249   0.311   6.488   6.219
 6784SOL     OW21250   3.839   4.547   0.285
 6784SOL    HW121251   3.872   4.526   0.193
 6784SOL    HW221252   3.914   4.580   0.342
 6785SOL     OW21253   6.040   4.842   1.973
 6785SOL    HW121254   6.003   4.866   1.883
 6785SOL    HW221255   5.965   4.811   2.031
 6786SOL     OW21256   1.182   2.259   6.613
 6786SOL    HW121257   1.255   2.322   6.585
 6786SOL    HW221258   1.182   2.180   6.551
 6787SOL     OW21259   1.751   4.176   1.125
 6787SOL    HW121260   1.710   4.179   1.216
 6787SOL    HW221261   1.699   4.114   1.066
 6788SOL     OW21262   2.714   3.882   1.668
 6788SOL    HW121263   2.807   3.850   1.685
 6788SOL    HW221264   2.657   3.803   1.644
 6789SOL     OW21265   0.163   6.702   2.239
 6789SOL    HW121266   0.261   6.680   2.240
 6789SOL    HW221267   0.120   6.657   2.161
 6790SOL     OW21268   1.616   4.133   0.031
 6790SOL    HW121269   1.565   4.048   0.046
 6790SOL    HW221270   1.659   4.160   0.117
 6791SOL     OW21271   3.859   2.579   0.949
 6791SOL    HW121272   3.845   2.676   0.966
 6791SOL    HW221273   3.833   2.527   1.031
 6792SOL     OW21274   6.701   5.727   6.000
 6792SOL    HW121275   6.662   5.641   5.967
 6792SOL    HW221276   6.639   5.769   6.066
 6793SOL     OW21277   0.831   2.087   0.794
 6793SOL    HW121278   0.858   2.151   0.722
 6793SOL    HW221279   0.903   2.084   0.864
 6794SOL     OW21280   5.375   1.069   4.672
 6794SOL    HW121281   5.370   1.054   4.573
 6794SOL    HW221282   5.430   0.997   4.714
 6795SOL     OW21283   2.840   5.856   0.838
 6795SOL    HW121284   2.835   5.761   0.869
 6795SOL    HW221285   2.875   5.858   0.744
 6796SOL     OW21286   6.177   1.089   2.380
 6796SOL    HW121287   6.138   1.181   2.381
 6796SOL    HW221288   6.116   1.027   2.430
 6797SOL     OW21289   4.991   3.776   2.060
 6797SOL    HW121290   5.006   3.731   1.972
 6797SOL    HW221291   5.046   3.859   2.065
 6798SOL     OW21292   5.716   4.910   2.674
 6798SOL    HW121293   5.672   4.993   2.641
 6798SOL    HW221294   5.649   4.854   2.723
 6799SOL     OW21295   5.467   5.736   0.349
 6799SOL    HW121296   5.520   5.811   0.310
 6799SOL    HW221297   5.377   5.769   0.377
 6800SOL     OW21298   2.037   4.741   0.780
 6800SOL    HW121299   2.015   4.732   0.877
 6800SOL    HW221300   2.044   4.650   0.738
 6801SOL     OW21301   1.563   1.283   2.270
 6801SOL    HW121302   1.614   1.290   2.356
 6801SOL    HW221303   1.494   1.210   2.278
 6802SOL     OW21304   2.443   5.771   0.460
 6802SOL    HW121305   2.436   5.678   0.496
 6802SOL    HW221306   2.510   5.773   0.386
 6803SOL     OW21307   4.627   2.640   6.587
 6803SOL    HW121308   4.527   2.644   6.580
 6803SOL    HW221309   4.663   2.582   6.515
 6804SOL     OW21310   2.200   5.722   3.240
 6804SOL    HW121311   2.193   5.764   3.331
 6804SOL    HW221312   2.112   5.683   3.214
 6805SOL     OW21313   5.605   6.508   4.688
 6805SOL    HW121314   5.564   6.542   4.773
 6805SOL    HW221315   5.681   6.568   4.661
 6806SOL     OW21316   4.843   1.455   3.851
 6806SOL    HW121317   4.753   1.444   3.894
 6806SOL    HW221318   4.850   1.548   3.814
 6807SOL     OW21319   2.384   3.094   0.210
 6807SOL    HW121320   2.337   3.006   0.201
 6807SOL    HW221321   2.359   3.136   0.297
 6808SOL     OW21322   0.464   3.112   5.186
 6808SOL    HW121323   0.376   3.139   5.224
 6808SOL    HW221324   0.450   3.064   5.099
 6809SOL     OW21325   1.894   4.371   0.054
 6809SOL    HW121326   1.796   4.391   0.067
 6809SOL    HW221327   1.947   4.417   0.126
 6810SOL     OW21328   1.222   0.870   1.856
 6810SOL    HW121329   1.269   0.792   1.898
 6810SOL    HW221330   1.228   0.862   1.757
 6811SOL     OW21331   5.197   4.141   0.158
 6811SOL    HW121332   5.248   4.172   0.078
 6811SOL    HW221333   5.106   4.110   0.130
 6812SOL     OW21334   4.103   3.314   3.355
 6812SOL    HW121335   4.083   3.216   3.361
 6812SOL    HW221336   4.112   3.352   3.447
 6813SOL     OW21337   5.049   1.668   1.227
 6813SOL    HW121338   5.067   1.755   1.182
 6813SOL    HW221339   5.099   1.664   1.313
 6814SOL     OW21340   3.327   2.693   0.972
 6814SOL    HW121341   3.246   2.655   0.927
 6814SOL    HW221342   3.334   2.790   0.950
 6815SOL     OW21343   2.891   6.991   1.223
 6815SOL    HW121344   2.823   6.960   1.157
 6815SOL    HW221345   2.947   6.913   1.251
 6816SOL     OW21346   6.304   4.860   6.960
 6816SOL    HW121347   6.398   4.876   6.930
 6816SOL    HW221348   6.261   4.947   6.983
 6817SOL     OW21349   6.610   1.819   5.537
 6817SOL    HW121350   6.642   1.815   5.442
 6817SOL    HW221351   6.624   1.731   5.580
 6818SOL     OW21352   2.916   6.150   1.960
 6818SOL    HW121353   2.969   6.171   1.878
 6818SOL    HW221354   2.829   6.199   1.957
 6819SOL     OW21355   3.307   0.896   3.655
 6819SOL    HW121356   3.223   0.939   3.622
 6819SOL    HW221357   3.386   0.942   3.615
 6820SOL     OW21358   0.927   4.801   3.749
 6820SOL    HW121359   0.952   4.708   3.722
 6820SOL    HW221360   1.010   4.856   3.759
 6821SOL     OW21361   2.539   2.185   5.423
 6821SOL    HW121362   2.623   2.224   5.462
 6821SOL    HW221363   2.548   2.085   5.421
 6822SOL     OW21364   5.749   1.773   6.274
 6822SOL    HW121365   5.817   1.733   6.336
 6822SOL    HW221366   5.759   1.873   6.275
 6823SOL     OW21367   3.781   3.713   4.135
 6823SOL    HW121368   3.738   3.742   4.050
 6823SOL    HW221369   3.736   3.631   4.170
 6824SOL     OW21370   0.059   3.106   6.158
 6824SOL    HW121371   0.103   3.124   6.246
 6824SOL    HW221372   0.130   3.099   6.087
 6825SOL     OW21373   4.714   0.033   2.485
 6825SOL    HW121374   4.787   0.081   2.437
 6825SOL    HW221375   4.632   0.091   2.488
 6826SOL     OW21376   2.151   3.239   2.882
 6826SOL    HW121377   2.142   3.312   2.814
 6826SOL    HW221378   2.184   3.156   2.837
 6827SOL     OW21379   5.216   5.484   0.431
 6827SOL    HW121380   5.184   5.525   0.516
 6827SOL    HW221381   5.182   5.390   0.424
 6828SOL     OW21382   1.492   2.214   1.713
 6828SOL    HW121383   1.442   2.301   1.705
 6828SOL    HW221384   1.426   2.139   1.720
 6829SOL     OW21385   5.248   6.473   3.599
 6829SOL    HW121386   5.238   6.394   3.660
 6829SOL    HW221387   5.292   6.443   3.514
 6830SOL     OW21388   5.566   1.396   3.085
 6830SOL    HW121389   5.495   1.347   3.036
 6830SOL    HW221390   5.554   1.495   3.071
 6831SOL     OW21391   0.855   0.578   6.070
 6831SOL    HW121392   0.885   0.483   6.075
 6831SOL    HW221393   0.855   0.608   5.975
 6832SOL     OW21394   2.770   4.417   1.588
 6832SOL    HW121395   2.797   4.443   1.680
 6832SOL    HW221396   2.787   4.319   1.574
 6833SOL     OW21397   4.068   5.239   0.037
 6833SOL    HW121398   4.167   5.243   0.047
 6833SOL    HW221399   4.044   5.165   6.993
 6834SOL     OW21400   4.303   6.777   1.725
 6834SOL    HW121401   4.301   6.876   1.715
 6834SOL    HW221402   4.285   6.753   1.821
 6835SOL     OW21403   3.923   0.089   4.756
 6835SOL    HW121404   3.863   0.060   4.682
 6835SOL    HW221405   3.970   0.010   4.795
 6836SOL     OW21406   3.521   6.174   0.655
 6836SOL    HW121407   3.457   6.104   0.685
 6836SOL    HW221408   3.556   6.224   0.734
 6837SOL     OW21409   1.764   3.280   2.156
 6837SOL    HW121410   1.850   3.233   2.134
 6837SOL    HW221411   1.772   3.376   2.129
 6838SOL     OW21412   2.120   1.033   0.561
 6838SOL    HW121413   2.139   0.951   0.507
 6838SOL    HW221414   2.034   1.073   0.532
 6839SOL     OW21415   4.754   1.153   0.912
 6839SOL    HW121416   4.677   1.215   0.925
 6839SOL    HW221417   4.822   1.195   0.852
 6840SOL     OW21418   2.213   1.723   5.923
 6840SOL    HW121419   2.294   1.697   5.975
 6840SOL    HW221420   2.193   1.820   5.938
 6841SOL     OW21421   6.310   3.377   5.855
 6841SOL    HW121422   6.400   3.410   5.825
 6841SOL    HW221423   6.309   3.370   5.955
 6842SOL     OW21424   2.252   5.095   1.678
 6842SOL    HW121425   2.272   5.065   1.771
 6842SOL    HW221426   2.156   5.077   1.657
 6843SOL     OW21427   5.296   0.272   6.524
 6843SOL    HW121428   5.318   0.238   6.615
 6843SOL    HW221429   5.243   0.203   6.475
 6844SOL     OW21430   5.381   1.076   3.835
 6844SOL    HW121431   5.283   1.094   3.832
 6844SOL    HW221432   5.398   0.979   3.814
 6845SOL     OW21433   5.376   2.528   3.023
 6845SOL    HW121434   5.340   2.479   3.102
 6845SOL    HW221435   5.389   2.624   3.047
 6846SOL     OW21436   2.990   4.043   0.021
 6846SOL    HW121437   2.972   3.945   0.027
 6846SOL    HW221438   2.908   4.094   0.049
 6847SOL     OW21439   6.273   4.297   4.584
 6847SOL    HW121440   6.299   4.357   4.508
 6847SOL    HW221441   6.337   4.311   4.660
 6848SOL     OW21442   5.383   3.719   4.064
 6848SOL    HW121443   5.326   3.797   4.037
 6848SOL    HW221444   5.360   3.640   4.008
 6849SOL     OW21445   3.610   4.177   5.847
 6849SOL    HW121446   3.558   4.093   5.860
 6849SOL    HW221447   3.602   4.206   5.751
 6850SOL     OW21448   4.340   2.181   3.206
 6850SOL    HW121449   4.298   2.192   3.296
 6850SOL    HW221450   4.417   2.118   3.212
 6851SOL     OW21451   2.049   2.676   2.611
 6851SOL    HW121452   2.145   2.669   2.640
 6851SOL    HW221453   2.000   2.737   2.673
 6852SOL     OW21454   2.884   5.588   1.287
 6852SOL    HW121455   2.792   5.548   1.293
 6852SOL    HW221456   2.881   5.671   1.232
 6853SOL     OW21457   5.465   3.147   6.409
 6853SOL    HW121458   5.562   3.170   6.408
 6853SOL    HW221459   5.440   3.111   6.499
 6854SOL     OW21460   5.138   6.700   6.281
 6854SOL    HW121461   5.139   6.753   6.196
 6854SOL    HW221462   5.180   6.611   6.265
 6855SOL     OW21463   3.851   5.349   3.594
 6855SOL    HW121464   3.933   5.296   3.576
 6855SOL    HW221465   3.778   5.289   3.627
 6856SOL     OW21466   0.596   2.758   6.060
 6856SOL    HW121467   0.511   2.790   6.018
 6856SOL    HW221468   0.576   2.686   6.127
 6857SOL     OW21469   1.223   3.017   6.823
 6857SOL    HW121470   1.233   2.920   6.843
 6857SOL    HW221471   1.289   3.070   6.876
 6858SOL     OW21472   3.320   4.268   1.617
 6858SOL    HW121473   3.225   4.261   1.646
 6858SOL    HW221474   3.356   4.359   1.640
 6859SOL     OW21475   0.610   1.311   1.988
 6859SOL    HW121476   0.672   1.357   2.051
 6859SOL    HW221477   0.538   1.265   2.039
 6860SOL     OW21478   6.818   5.205   2.145
 6860SOL    HW121479   6.792   5.134   2.210
 6860SOL    HW221480   6.879   5.271   2.189
 6861SOL     OW21481   4.934   2.958   5.634
 6861SOL    HW121482   4.917   2.987   5.728
 6861SOL    HW221483   4.849   2.967   5.581
 6862SOL     OW21484   0.769   4.622   6.310
 6862SOL    HW121485   0.841   4.689   6.324
 6862SOL    HW221486   0.809   4.530   6.307
 6863SOL     OW21487   6.684   6.263   4.668
 6863SOL    HW121488   6.716   6.357   4.680
 6863SOL    HW221489   6.761   6.205   4.641
 6864SOL     OW21490   1.584   3.940   5.823
 6864SOL    HW121491   1.534   3.859   5.855
 6864SOL    HW221492   1.673   3.944   5.867
 6865SOL     OW21493   1.754   0.637   4.719
 6865SOL    HW121494   1.750   0.726   4.765
 6865SOL    HW221495   1.788   0.568   4.783
 6866SOL     OW21496   6.464   4.560   2.023
 6866SOL    HW121497   6.366   4.544   2.035
 6866SOL    HW221498   6.513   4.474   2.035
 6867SOL     OW21499   1.414   3.866   0.470
 6867SOL    HW121500   1.322   3.899   0.493
 6867SOL    HW221501   1.437   3.788   0.528
 6868SOL     OW21502   1.826   5.550   5.713
 6868SOL    HW121503   1.916   5.546   5.757
 6868SOL    HW221504   1.808   5.464   5.666
 6869SOL     OW21505   3.401   6.947   5.623
 6869SOL    HW121506   3.472   6.969   5.689
 6869SOL    HW221507   3.336   6.882   5.664
 6870SOL     OW21508   0.737   2.958   0.331
 6870SOL    HW121509   0.697   2.990   0.245
 6870SOL    HW221510   0.664   2.938   0.396
 6871SOL     OW21511   6.525   3.426   2.305
 6871SOL    HW121512   6.535   3.483   2.224
 6871SOL    HW221513   6.437   3.445   2.348
 6872SOL     OW21514   1.244   2.703   2.186
 6872SOL    HW121515   1.212   2.616   2.148
 6872SOL    HW221516   1.337   2.691   2.222
 6873SOL     OW21517   1.527   4.267   4.417
 6873SOL    HW121518   1.447   4.231   4.370
 6873SOL    HW221519   1.609   4.249   4.363
 6874SOL     OW21520   5.660   5.695   2.659
 6874SOL    HW121521   5.688   5.625   2.594
 6874SOL    HW221522   5.689   5.785   2.626
 6875SOL     OW21523   1.423   2.694   1.208
 6875SOL    HW121524   1.387   2.778   1.249
 6875SOL    HW221525   1.352   2.652   1.152
 6876SOL     OW21526   3.402   0.053   3.668
 6876SOL    HW121527   3.476   0.037   3.733
 6876SOL    HW221528   3.432   0.023   3.577
 6877SOL     OW21529   2.407   4.371   1.832
 6877SOL    HW121530   2.308   4.363   1.820
 6877SOL    HW221531   2.449   4.281   1.828
 6878SOL     OW21532   1.780   0.754   3.787
 6878SOL    HW121533   1.751   0.850   3.797
 6878SOL    HW221534   1.779   0.729   3.690
 6879SOL     OW21535   2.290   2.294   0.379
 6879SOL    HW121536   2.287   2.264   0.284
 6879SOL    HW221537   2.281   2.215   0.440
 6880SOL     OW21538   1.428   5.723   6.385
 6880SOL    HW121539   1.388   5.714   6.294
 6880SOL    HW221540   1.513   5.775   6.380
 6881SOL     OW21541   1.705   3.752   0.296
 6881SOL    HW121542   1.621   3.703   0.318
 6881SOL    HW221543   1.713   3.764   0.197
 6882SOL     OW21544   2.740   6.919   0.625
 6882SOL    HW121545   2.645   6.948   0.634
 6882SOL    HW221546   2.788   6.931   0.712
 6883SOL     OW21547   5.145   0.805   6.090
 6883SOL    HW121548   5.108   0.870   6.156
 6883SOL    HW221549   5.078   0.788   6.018
 6884SOL     OW21550   1.953   4.001   2.849
 6884SOL    HW121551   1.979   4.000   2.945
 6884SOL    HW221552   1.923   3.910   2.821
 6885SOL     OW21553   4.753   4.803   3.837
 6885SOL    HW121554   4.775   4.900   3.823
 6885SOL    HW221555   4.742   4.786   3.935
 6886SOL     OW21556   5.776   1.352   5.699
 6886SOL    HW121557   5.699   1.303   5.657
 6886SOL    HW221558   5.745   1.396   5.783
 6887SOL     OW21559   4.952   5.786   6.262
 6887SOL    HW121560   4.911   5.758   6.349
 6887SOL    HW221561   4.920   5.724   6.189
 6888SOL     OW21562   5.520   4.210   6.584
 6888SOL    HW121563   5.517   4.277   6.509
 6888SOL    HW221564   5.615   4.186   6.603
 6889SOL     OW21565   1.349   3.311   5.528
 6889SOL    HW121566   1.395   3.321   5.616
 6889SOL    HW221567   1.251   3.325   5.540
 6890SOL     OW21568   3.816   5.271   2.970
 6890SOL    HW121569   3.842   5.361   2.935
 6890SOL    HW221570   3.755   5.226   2.905
 6891SOL     OW21571   2.303   2.520   1.289
 6891SOL    HW121572   2.311   2.614   1.321
 6891SOL    HW221573   2.225   2.512   1.227
 6892SOL     OW21574   3.099   1.498   4.479
 6892SOL    HW121575   3.075   1.438   4.556
 6892SOL    HW221576   3.113   1.443   4.397
 6893SOL     OW21577   6.170   2.916   6.682
 6893SOL    HW121578   6.207   2.875   6.598
 6893SOL    HW221579   6.119   2.847   6.732
 6894SOL     OW21580   5.538   4.308   1.175
 6894SOL    HW121581   5.529   4.217   1.134
 6894SOL    HW221582   5.452   4.333   1.220
 6895SOL     OW21583   1.484   6.136   0.853
 6895SOL    HW121584   1.410   6.081   0.892
 6895SOL    HW221585   1.488   6.224   0.900
 6896SOL     OW21586   3.509   2.121   4.261
 6896SOL    HW121587   3.422   2.138   4.214
 6896SOL    HW221588   3.495   2.121   4.360
 6897SOL     OW21589   4.909   3.817   4.910
 6897SOL    HW121590   4.845   3.749   4.947
 6897SOL    HW221591   5.002   3.790   4.931
 6898SOL     OW21592   2.281   1.222   1.223
 6898SOL    HW121593   2.196   1.245   1.175
 6898SOL    HW221594   2.268   1.234   1.321
 6899SOL     OW21595   6.014   5.585   2.337
 6899SOL    HW121596   6.053   5.524   2.268
 6899SOL    HW221597   5.915   5.568   2.344
 6900SOL     OW21598   6.745   4.365   6.454
 6900SOL    HW121599   6.829   4.367   6.509
 6900SOL    HW221600   6.768   4.349   6.358
 6901SOL     OW21601   4.355   5.179   6.630
 6901SOL    HW121602   4.301   5.264   6.624
 6901SOL    HW221603   4.348   5.129   6.543
 6902SOL     OW21604   6.540   5.874   6.141
 6902SOL    HW121605   6.569   5.806   6.208
 6902SOL    HW221606   6.511   5.958   6.188
 6903SOL     OW21607   2.834   4.823   5.237
 6903SOL    HW121608   2.920   4.824   5.288
 6903SOL    HW221609   2.831   4.741   5.180
 6904SOL     OW21610   0.356   5.688   5.061
 6904SOL    HW121611   0.259   5.709   5.062
 6904SOL    HW221612   0.409   5.771   5.080
 6905SOL     OW21613   5.256   5.349   6.744
 6905SOL    HW121614   5.180   5.366   6.807
 6905SOL    HW221615   5.338   5.395   6.777
 6906SOL     OW21616   4.175   1.513   3.536
 6906SOL    HW121617   4.167   1.565   3.621
 6906SOL    HW221618   4.132   1.423   3.549
 6907SOL     OW21619   6.045   1.792   1.615
 6907SOL    HW121620   6.115   1.862   1.612
 6907SOL    HW221621   6.053   1.740   1.700
 6908SOL     OW21622   2.485   4.493   6.610
 6908SOL    HW121623   2.559   4.441   6.654
 6908SOL    HW221624   2.522   4.544   6.532
 6909SOL     OW21625   5.358   4.488   1.998
 6909SOL    HW121626   5.416   4.518   1.923
 6909SOL    HW221627   5.352   4.560   2.066
 6910SOL     OW21628   1.504   3.017   2.670
 6910SOL    HW121629   1.405   3.031   2.667
 6910SOL    HW221630   1.536   2.989   2.579
 6911SOL     OW21631   3.371   6.872   5.360
 6911SOL    HW121632   3.390   6.882   5.458
 6911SOL    HW221633   3.396   6.957   5.313
 6912SOL     OW21634   1.950   3.373   6.378
 6912SOL    HW121635   1.881   3.368   6.306
 6912SOL    HW221636   2.037   3.339   6.343
 6913SOL     OW21637   4.850   5.988   5.429
 6913SOL    HW121638   4.832   6.082   5.456
 6913SOL    HW221639   4.773   5.954   5.375
 6914SOL     OW21640   6.225   3.411   2.147
 6914SOL    HW121641   6.215   3.510   2.155
 6914SOL    HW221642   6.297   3.391   2.080
 6915SOL     OW21643   0.691   3.487   2.068
 6915SOL    HW121644   0.766   3.535   2.023
 6915SOL    HW221645   0.679   3.523   2.160
 6916SOL     OW21646   4.942   0.425   5.802
 6916SOL    HW121647   5.036   0.455   5.819
 6916SOL    HW221648   4.940   0.363   5.724
 6917SOL     OW21649   4.827   5.541   1.967
 6917SOL    HW121650   4.859   5.532   2.062
 6917SOL    HW221651   4.866   5.624   1.927
 6918SOL     OW21652   0.667   3.217   2.274
 6918SOL    HW121653   0.682   3.306   2.317
 6918SOL    HW221654   0.615   3.158   2.336
 6919SOL     OW21655   6.003   6.968   2.382
 6919SOL    HW121656   6.057   7.009   2.308
 6919SOL    HW221657   6.065   6.927   2.449
 6920SOL     OW21658   4.605   0.695   4.951
 6920SOL    HW121659   4.514   0.665   4.980
 6920SOL    HW221660   4.632   0.775   5.004
 6921SOL     OW21661   4.005   6.879   4.235
 6921SOL    HW121662   3.997   6.874   4.334
 6921SOL    HW221663   3.987   6.973   4.205
 6922SOL     OW21664   2.207   6.304   4.522
 6922SOL    HW121665   2.126   6.339   4.476
 6922SOL    HW221666   2.288   6.319   4.466
 6923SOL     OW21667   6.169   6.638   2.206
 6923SOL    HW121668   6.262   6.639   2.243
 6923SOL    HW221669   6.106   6.601   2.275
 6924SOL     OW21670   3.304   6.188   1.122
 6924SOL    HW121671   3.393   6.168   1.161
 6924SOL    HW221672   3.232   6.158   1.184
 6925SOL     OW21673   5.359   6.573   6.519
 6925SOL    HW121674   5.407   6.617   6.442
 6925SOL    HW221675   5.295   6.505   6.483
 6926SOL     OW21676   2.330   1.457   0.675
 6926SOL    HW121677   2.390   1.399   0.621
 6926SOL    HW221678   2.239   1.417   0.681
 6927SOL     OW21679   3.730   0.815   0.607
 6927SOL    HW121680   3.822   0.787   0.578
 6927SOL    HW221681   3.662   0.766   0.552
 6928SOL     OW21682   5.328   5.295   0.614
 6928SOL    HW121683   5.357   5.340   0.699
 6928SOL    HW221684   5.401   5.301   0.546
 6929SOL     OW21685   4.902   4.932   1.615
 6929SOL    HW121686   4.954   4.981   1.684
 6929SOL    HW221687   4.963   4.899   1.543
 6930SOL     OW21688   0.752   0.834   0.256
 6930SOL    HW121689   0.819   0.769   0.292
 6930SOL    HW221690   0.678   0.844   0.322
 6931SOL     OW21691   2.458   2.315   1.202
 6931SOL    HW121692   2.398   2.236   1.199
 6931SOL    HW221693   2.410   2.392   1.245
 6932SOL     OW21694   5.087   4.979   6.836
 6932SOL    HW121695   5.150   4.988   6.913
 6932SOL    HW221696   4.993   4.981   6.870
 6933SOL     OW21697   3.167   6.172   6.300
 6933SOL    HW121698   3.231   6.158   6.225
 6933SOL    HW221699   3.188   6.258   6.347
 6934SOL     OW21700   4.630   4.058   6.656
 6934SOL    HW121701   4.575   4.079   6.575
 6934SOL    HW221702   4.710   4.004   6.629
 6935SOL     OW21703   5.211   5.192   2.133
 6935SOL    HW121704   5.205   5.222   2.038
 6935SOL    HW221705   5.192   5.094   2.139
 6936SOL     OW21706   0.593   2.214   4.533
 6936SOL    HW121707   0.693   2.207   4.536
 6936SOL    HW221708   0.558   2.233   4.625
 6937SOL     OW21709   5.698   6.593   0.085
 6937SOL    HW121710   5.781   6.563   0.131
 6937SOL    HW221711   5.672   6.527   0.014
 6938SOL     OW21712   0.187   1.202   4.359
 6938SOL    HW121713   0.194   1.137   4.284
 6938SOL    HW221714   0.162   1.292   4.323
 6939SOL     OW21715   6.359   4.564   3.391
 6939SOL    HW121716   6.337   4.535   3.485
 6939SOL    HW221717   6.338   4.662   3.381
 6940SOL     OW21718   4.855   6.808   0.756
 6940SOL    HW121719   4.850   6.851   0.846
 6940SOL    HW221720   4.941   6.832   0.712
 6941SOL     OW21721   2.957   3.742   2.549
 6941SOL    HW121722   3.028   3.799   2.590
 6941SOL    HW221723   2.956   3.757   2.450
 6942SOL     OW21724   6.278   6.388   1.840
 6942SOL    HW121725   6.333   6.327   1.783
 6942SOL    HW221726   6.238   6.460   1.784
 6943SOL     OW21727   3.625   4.627   0.010
 6943SOL    HW121728   3.591   4.660   0.098
 6943SOL    HW221729   3.645   4.529   0.017
 6944SOL     OW21730   1.153   3.813   6.094
 6944SOL    HW121731   1.235   3.759   6.078
 6944SOL    HW221732   1.111   3.836   6.006
 6945SOL     OW21733   6.225   2.275   0.793
 6945SOL    HW121734   6.270   2.253   0.880
 6945SOL    HW221735   6.132   2.236   0.793
 6946SOL     OW21736   3.697   5.804   2.424
 6946SOL    HW121737   3.725   5.861   2.501
 6946SOL    HW221738   3.625   5.741   2.453
 6947SOL     OW21739   4.654   4.892   6.184
 6947SOL    HW121740   4.749   4.909   6.155
 6947SOL    HW221741   4.609   4.979   6.202
 6948SOL     OW21742   0.136   6.089   0.761
 6948SOL    HW121743   0.162   6.105   0.857
 6948SOL    HW221744   0.080   6.165   0.729
 6949SOL     OW21745   2.756   2.300   3.443
 6949SOL    HW121746   2.850   2.309   3.409
 6949SOL    HW221747   2.692   2.329   3.372
 6950SOL     OW21748   0.896   6.565   4.671
 6950SOL    HW121749   0.970   6.612   4.719
 6950SOL    HW221750   0.909   6.575   4.572
 6951SOL     OW21751   6.909   5.180   6.828
 6951SOL    HW121752   6.983   5.162   6.764
 6951SOL    HW221753   6.838   5.235   6.783
 6952SOL     OW21754   3.152   5.120   2.709
 6952SOL    HW121755   3.208   5.185   2.658
 6952SOL    HW221756   3.062   5.113   2.666
 6953SOL     OW21757   5.213   0.105   0.569
 6953SOL    HW121758   5.275   0.150   0.633
 6953SOL    HW221759   5.157   0.173   0.524
 6954SOL     OW21760   0.630   3.625   1.093
 6954SOL    HW121761   0.657   3.570   1.172
 6954SOL    HW221762   0.530   3.633   1.090
 6955SOL     OW21763   5.247   0.275   2.452
 6955SOL    HW121764   5.150   0.256   2.467
 6955SOL    HW221765   5.301   0.229   2.523
 6956SOL     OW21766   5.736   5.859   2.116
 6956SOL    HW121767   5.689   5.801   2.183
 6956SOL    HW221768   5.737   5.954   2.148
 6957SOL     OW21769   5.431   5.784   6.346
 6957SOL    HW121770   5.342   5.810   6.309
 6957SOL    HW221771   5.450   5.838   6.429
 6958SOL     OW21772   3.219   3.489   3.992
 6958SOL    HW121773   3.186   3.500   3.899
 6958SOL    HW221774   3.210   3.393   4.020
 6959SOL     OW21775   1.418   4.122   2.934
 6959SOL    HW121776   1.332   4.111   2.985
 6959SOL    HW221777   1.458   4.032   2.916
 6960SOL     OW21778   1.615   4.983   0.743
 6960SOL    HW121779   1.572   5.001   0.832
 6960SOL    HW221780   1.561   4.914   0.694
 6961SOL     OW21781   4.110   1.563   4.719
 6961SOL    HW121782   4.202   1.527   4.736
 6961SOL    HW221783   4.044   1.512   4.775
 6962SOL     OW21784   3.760   6.816   6.797
 6962SOL    HW121785   3.701   6.797   6.719
 6962SOL    HW221786   3.839   6.870   6.766
 6963SOL     OW21787   5.145   6.449   0.537
 6963SOL    HW121788   5.052   6.484   0.524
 6963SOL    HW221789   5.147   6.390   0.617
 6964SOL     OW21790   2.578   0.133   5.730
 6964SOL    HW121791   2.525   0.191   5.668
 6964SOL    HW221792   2.663   0.180   5.755
 6965SOL     OW21793   1.003   2.041   0.490
 6965SOL    HW121794   0.937   2.081   0.426
 6965SOL    HW221795   1.052   1.967   0.444
 6966SOL     OW21796   0.941   0.360   2.010
 6966SOL    HW121797   0.977   0.365   2.103
 6966SOL    HW221798   1.002   0.408   1.948
 6967SOL     OW21799   4.108   1.895   5.959
 6967SOL    HW121800   4.170   1.852   5.893
 6967SOL    HW221801   4.016   1.860   5.945
 6968SOL     OW21802   3.449   6.715   3.158
 6968SOL    HW121803   3.430   6.800   3.207
 6968SOL    HW221804   3.394   6.712   3.074
 6969SOL     OW21805   2.575   1.689   1.324
 6969SOL    HW121806   2.590   1.611   1.385
 6969SOL    HW221807   2.622   1.769   1.360
 6970SOL     OW21808   3.252   4.633   6.129
 6970SOL    HW121809   3.191   4.647   6.051
 6970SOL    HW221810   3.212   4.675   6.210
 6971SOL     OW21811   5.402   4.461   0.844
 6971SOL    HW121812   5.502   4.450   0.844
 6971SOL    HW221813   5.377   4.534   0.780
 6972SOL     OW21814   4.917   3.376   3.150
 6972SOL    HW121815   4.932   3.391   3.053
 6972SOL    HW221816   4.898   3.279   3.167
 6973SOL     OW21817   1.157   1.707   2.487
 6973SOL    HW121818   1.100   1.629   2.461
 6973SOL    HW221819   1.127   1.788   2.437
 6974SOL     OW21820   2.912   3.651   2.823
 6974SOL    HW121821   2.981   3.611   2.763
 6974SOL    HW221822   2.877   3.735   2.782
 6975SOL     OW21823   2.864   5.844   4.987
 6975SOL    HW121824   2.858   5.800   4.897
 6975SOL    HW221825   2.788   5.908   4.998
 6976SOL     OW21826   5.037   4.399   5.261
 6976SOL    HW121827   5.003   4.307   5.283
 6976SOL    HW221828   5.124   4.414   5.307
 6977SOL     OW21829   4.073   4.527   1.618
 6977SOL    HW121830   3.977   4.547   1.640
 6977SOL    HW221831   4.090   4.429   1.632
 6978SOL     OW21832   5.909   3.355   1.329
 6978SOL    HW121833   5.884   3.282   1.393
 6978SOL    HW221834   5.863   3.341   1.242
 6979SOL     OW21835   1.042   4.029   1.519
 6979SOL    HW121836   0.999   4.086   1.449
 6979SOL    HW221837   1.119   3.980   1.480
 6980SOL     OW21838   1.400   0.069   2.647
 6980SOL    HW121839   1.492   0.029   2.655
 6980SOL    HW221840   1.332   7.018   2.665
 6981SOL     OW21841   3.747   3.475   6.739
 6981SOL    HW121842   3.670   3.485   6.802
 6981SOL    HW221843   3.832   3.501   6.785
 6982SOL     OW21844   0.778   1.355   4.182
 6982SOL    HW121845   0.849   1.414   4.144
 6982SOL    HW221846   0.820   1.284   4.238
 6983SOL     OW21847   4.839   1.238   4.456
 6983SOL    HW121848   4.770   1.310   4.449
 6983SOL    HW221849   4.796   1.151   4.478
 6984SOL     OW21850   0.847   2.427   2.662
 6984SOL    HW121851   0.897   2.378   2.591
 6984SOL    HW221852   0.854   2.377   2.749
 6985SOL     OW21853   0.093   4.288   0.012
 6985SOL    HW121854   0.080   4.363   6.966
 6985SOL    HW221855   0.005   4.247   0.033
 6986SOL     OW21856   4.498   5.514   5.887
 6986SOL    HW121857   4.478   5.454   5.965
 6986SOL    HW221858   4.490   5.461   5.803
 6987SOL     OW21859   0.197   1.690   5.936
 6987SOL    HW121860   0.145   1.622   5.988
 6987SOL    HW221861   0.202   1.662   5.840
 6988SOL     OW21862   3.012   0.578   6.052
 6988SOL    HW121863   2.958   0.632   5.986
 6988SOL    HW221864   2.952   0.514   6.100
 6989SOL     OW21865   0.070   4.530   2.250
 6989SOL    HW121866   0.100   4.623   2.271
 6989SOL    HW221867   0.093   4.470   2.327
 6990SOL     OW21868   3.695   2.965   2.316
 6990SOL    HW121869   3.617   2.934   2.261
 6990SOL    HW221870   3.779   2.956   2.263
 6991SOL     OW21871   5.115   4.558   2.759
 6991SOL    HW121872   5.157   4.474   2.791
 6991SOL    HW221873   5.159   4.637   2.803
 6992SOL     OW21874   0.777   0.074   6.568
 6992SOL    HW121875   0.800   0.160   6.523
 6992SOL    HW221876   0.799   7.018   6.506
 6993SOL     OW21877   6.038   1.162   1.997
 6993SOL    HW121878   5.990   1.177   1.911
 6993SOL    HW221879   6.137   1.167   1.981
 6994SOL     OW21880   1.706   0.102   3.643
 6994SOL    HW121881   1.678   0.045   3.721
 6994SOL    HW221882   1.740   0.190   3.677
 6995SOL     OW21883   0.432   3.466   0.353
 6995SOL    HW121884   0.414   3.372   0.326
 6995SOL    HW221885   0.438   3.473   0.452
 6996SOL     OW21886   1.832   0.394   6.880
 6996SOL    HW121887   1.804   0.455   6.953
 6996SOL    HW221888   1.796   0.302   6.897
 6997SOL     OW21889   6.862   5.121   5.333
 6997SOL    HW121890   6.778   5.079   5.368
 6997SOL    HW221891   6.850   5.143   5.236
 6998SOL     OW21892   0.957   1.429   1.666
 6998SOL    HW121893   0.967   1.329   1.671
 6998SOL    HW221894   0.977   1.459   1.572
 6999SOL     OW21895   0.545   2.691   6.785
 6999SOL    HW121896   0.527   2.607   6.835
 6999SOL    HW221897   0.610   2.747   6.838
 7000SOL     OW21898   6.278   0.354   2.842
 7000SOL    HW121899   6.237   0.387   2.927
 7000SOL    HW221900   6.213   0.295   2.795
 7001SOL     OW21901   0.973   1.617   4.705
 7001SOL    HW121902   0.929   1.553   4.642
 7001SOL    HW221903   0.914   1.632   4.784
 7002SOL     OW21904   0.513   5.807   3.601
 7002SOL    HW121905   0.520   5.904   3.578
 7002SOL    HW221906   0.598   5.760   3.577
 7003SOL     OW21907   6.099   4.038   1.119
 7003SOL    HW121908   6.160   4.044   1.198
 7003SOL    HW221909   6.094   3.943   1.087
 7004SOL     OW21910   1.838   6.167   0.385
 7004SOL    HW121911   1.742   6.149   0.365
 7004SOL    HW221912   1.874   6.094   0.444
 7005SOL     OW21913   1.613   6.958   6.833
 7005SOL    HW121914   1.681   6.971   6.905
 7005SOL    HW221915   1.524   6.992   6.864
 7006SOL     OW21916   6.947   6.958   3.469
 7006SOL    HW121917   6.915   6.882   3.412
 7006SOL    HW221918   6.869   7.014   3.497
 7007SOL     OW21919   4.349   0.915   5.842
 7007SOL    HW121920   4.256   0.925   5.878
 7007SOL    HW221921   4.345   0.905   5.742
 7008SOL     OW21922   6.799   4.097   3.309
 7008SOL    HW121923   6.779   4.186   3.350
 7008SOL    HW221924   6.880   4.105   3.251
 7009SOL     OW21925   4.245   6.240   2.036
 7009SOL    HW121926   4.274   6.288   1.953
 7009SOL    HW221927   4.227   6.144   2.014
 7010SOL     OW21928   5.133   3.860   2.597
 7010SOL    HW121929   5.161   3.803   2.521
 7010SOL    HW221930   5.143   3.957   2.572
 7011SOL     OW21931   3.789   6.410   0.289
 7011SOL    HW121932   3.852   6.335   0.271
 7011SOL    HW221933   3.715   6.378   0.349
 7012SOL     OW21934   1.074   2.897   0.978
 7012SOL    HW121935   1.098   2.991   1.004
 7012SOL    HW221936   1.131   2.869   0.900
 7013SOL     OW21937   2.383   1.411   6.836
 7013SOL    HW121938   2.449   1.420   6.911
 7013SOL    HW221939   2.291   1.430   6.870
 7014SOL     OW21940   6.106   3.623   1.937
 7014SOL    HW121941   6.109   3.582   1.846
 7014SOL    HW221942   6.200   3.638   1.970
 7015SOL     OW21943   5.637   4.352   1.920
 7015SOL    HW121944   5.663   4.439   1.962
 7015SOL    HW221945   5.566   4.308   1.975
 7016SOL     OW21946   3.315   4.882   0.974
 7016SOL    HW121947   3.248   4.911   1.042
 7016SOL    HW221948   3.348   4.961   0.923
 7017SOL     OW21949   4.117   4.784   3.818
 7017SOL    HW121950   4.063   4.823   3.744
 7017SOL    HW221951   4.213   4.777   3.791
 7018SOL     OW21952   4.853   2.833   4.278
 7018SOL    HW121953   4.840   2.898   4.353
 7018SOL    HW221954   4.915   2.760   4.308
 7019SOL     OW21955   5.208   4.923   2.208
 7019SOL    HW121956   5.136   4.854   2.202
 7019SOL    HW221957   5.250   4.920   2.299
 7020SOL     OW21958   0.871   3.267   0.168
 7020SOL    HW121959   0.776   3.262   0.137
 7020SOL    HW221960   0.877   3.233   0.262
 7021SOL     OW21961   1.094   2.733   4.723
 7021SOL    HW121962   1.022   2.776   4.668
 7021SOL    HW221963   1.176   2.721   4.668
 7022SOL     OW21964   3.827   0.989   0.370
 7022SOL    HW121965   3.916   0.993   0.416
 7022SOL    HW221966   3.783   1.078   0.374
 7023SOL     OW21967   0.729   1.578   1.745
 7023SOL    HW121968   0.818   1.533   1.748
 7023SOL    HW221969   0.691   1.582   1.837
 7024SOL     OW21970   3.955   3.039   3.796
 7024SOL    HW121971   3.865   2.995   3.793
 7024SOL    HW221972   4.005   3.017   3.713
 7025SOL     OW21973   2.808   0.147   0.153
 7025SOL    HW121974   2.762   0.214   0.212
 7025SOL    HW221975   2.902   0.176   0.136
 7026SOL     OW21976   3.123   1.655   0.985
 7026SOL    HW121977   3.189   1.631   1.057
 7026SOL    HW221978   3.068   1.733   1.014
 7027SOL     OW21979   2.471   5.479   2.690
 7027SOL    HW121980   2.490   5.577   2.699
 7027SOL    HW221981   2.373   5.464   2.701
 7028SOL     OW21982   2.871   0.808   3.807
 7028SOL    HW121983   2.879   0.826   3.709
 7028SOL    HW221984   2.960   0.784   3.844
 7029SOL     OW21985   2.933   3.439   5.617
 7029SOL    HW121986   2.891   3.352   5.642
 7029SOL    HW221987   3.008   3.423   5.554
 7030SOL     OW21988   6.989   1.576   4.665
 7030SOL    HW121989   0.022   1.493   4.647
 7030SOL    HW221990   6.898   1.567   4.626
 7031SOL     OW21991   4.593   5.717   1.100
 7031SOL    HW121992   4.507   5.757   1.131
 7031SOL    HW221993   4.598   5.722   1.000
 7032SOL     OW21994   4.095   0.159   3.809
 7032SOL    HW121995   4.044   0.245   3.803
 7032SOL    HW221996   4.052   0.090   3.751
 7033SOL     OW21997   1.859   2.594   5.271
 7033SOL    HW121998   1.901   2.524   5.329
 7033SOL    HW221999   1.802   2.654   5.328
 7034SOL     OW22000   6.709   1.659   3.616
 7034SOL    HW122001   6.697   1.608   3.531
 7034SOL    HW222002   6.739   1.752   3.596
 7035SOL     OW22003   2.113   0.219   1.502
 7035SOL    HW122004   2.040   0.286   1.488
 7035SOL    HW222005   2.100   0.174   1.590
 7036SOL     OW22006   0.250   1.473   2.126
 7036SOL    HW122007   0.161   1.429   2.119
 7036SOL    HW222008   0.237   1.571   2.145
 7037SOL     OW22009   0.505   0.145   5.893
 7037SOL    HW122010   0.494   0.217   5.962
 7037SOL    HW222011   0.441   0.071   5.912
 7038SOL     OW22012   2.175   3.746   6.286
 7038SOL    HW122013   2.135   3.817   6.343
 7038SOL    HW222014   2.121   3.735   6.203
 7039SOL     OW22015   0.720   5.346   2.766
 7039SOL    HW122016   0.750   5.279   2.697
 7039SOL    HW222017   0.676   5.423   2.720
 7040SOL     OW22018   4.388   2.121   5.465
 7040SOL    HW122019   4.358   2.213   5.486
 7040SOL    HW222020   4.471   2.124   5.410
 7041SOL     OW22021   1.252   0.897   3.804
 7041SOL    HW122022   1.158   0.908   3.773
 7041SOL    HW222023   1.308   0.863   3.728
 7042SOL     OW22024   4.073   5.837   4.993
 7042SOL    HW122025   4.120   5.844   4.905
 7042SOL    HW222026   4.042   5.927   5.023
 7043SOL     OW22027   2.757   4.664   3.244
 7043SOL    HW122028   2.829   4.717   3.290
 7043SOL    HW222029   2.727   4.712   3.162
 7044SOL     OW22030   5.607   6.402   4.007
 7044SOL    HW122031   5.542   6.345   4.057
 7044SOL    HW222032   5.562   6.442   3.927
 7045SOL     OW22033   6.067   5.721   2.039
 7045SOL    HW122034   6.055   5.785   1.963
 7045SOL    HW222035   6.107   5.769   2.117
 7046SOL     OW22036   2.989   2.237   4.368
 7046SOL    HW122037   2.932   2.179   4.426
 7046SOL    HW222038   2.934   2.311   4.329
 7047SOL     OW22039   0.521   6.920   1.054
 7047SOL    HW122040   0.457   6.870   0.996
 7047SOL    HW222041   0.593   6.857   1.086
 7048SOL     OW22042   6.625   5.513   4.949
 7048SOL    HW122043   6.533   5.551   4.951
 7048SOL    HW222044   6.671   5.530   5.037
 7049SOL     OW22045   3.583   1.376   1.676
 7049SOL    HW122046   3.606   1.447   1.743
 7049SOL    HW222047   3.662   1.360   1.616
 7050SOL     OW22048   3.981   4.918   0.953
 7050SOL    HW122049   4.014   4.979   1.025
 7050SOL    HW222050   3.912   4.966   0.898
 7051SOL     OW22051   6.938   0.142   1.786
 7051SOL    HW122052   7.018   0.154   1.727
 7051SOL    HW222053   6.899   0.051   1.773
 7052SOL     OW22054   5.964   6.984   2.897
 7052SOL    HW122055   5.916   6.969   2.811
 7052SOL    HW222056   5.955   6.903   2.955
 7053SOL     OW22057   1.465   3.250   3.570
 7053SOL    HW122058   1.547   3.284   3.523
 7053SOL    HW222059   1.398   3.219   3.503
 7054SOL     OW22060   6.936   0.401   0.750
 7054SOL    HW122061   0.006   0.436   0.723
 7054SOL    HW222062   6.928   0.406   0.850
 7055SOL     OW22063   1.987   0.532   6.543
 7055SOL    HW122064   2.044   0.572   6.614
 7055SOL    HW222065   1.945   0.448   6.576
 7056SOL     OW22066   6.855   5.737   1.264
 7056SOL    HW122067   6.904   5.717   1.349
 7056SOL    HW222068   6.905   5.698   1.186
 7057SOL     OW22069   2.512   4.881   4.684
 7057SOL    HW122070   2.543   4.929   4.602
 7057SOL    HW222071   2.586   4.823   4.719
 7058SOL     OW22072   5.003   2.448   6.926
 7058SOL    HW122073   5.044   2.498   6.850
 7058SOL    HW222074   4.947   2.373   6.891
 7059SOL     OW22075   2.172   1.128   4.589
 7059SOL    HW122076   2.124   1.040   4.594
 7059SOL    HW222077   2.268   1.112   4.567
 7060SOL     OW22078   3.286   6.992   2.655
 7060SOL    HW122079   3.372   6.956   2.691
 7060SOL    HW222080   3.269   0.062   2.695
 7061SOL     OW22081   1.352   1.807   2.975
 7061SOL    HW122082   1.292   1.886   2.985
 7061SOL    HW222083   1.391   1.807   2.883
 7062SOL     OW22084   4.620   1.719   3.571
 7062SOL    HW122085   4.522   1.721   3.592
 7062SOL    HW222086   4.651   1.624   3.568
 7063SOL     OW22087   0.790   0.090   2.221
 7063SOL    HW122088   0.734   0.049   2.293
 7063SOL    HW222089   0.884   0.099   2.253
 7064SOL     OW22090   4.997   1.961   5.101
 7064SOL    HW122091   4.996   2.045   5.155
 7064SOL    HW222092   4.993   1.983   5.003
 7065SOL     OW22093   3.371   4.438   5.318
 7065SOL    HW122094   3.306   4.512   5.339
 7065SOL    HW222095   3.458   4.457   5.364
 7066SOL     OW22096   3.897   0.885   0.137
 7066SOL    HW122097   3.890   0.927   0.227
 7066SOL    HW222098   3.940   0.795   0.145
 7067SOL     OW22099   2.016   3.134   0.086
 7067SOL    HW122100   1.968   3.180   0.162
 7067SOL    HW222101   2.008   3.190   0.004
 7068SOL     OW22102   5.509   3.779   4.313
 7068SOL    HW122103   5.490   3.747   4.220
 7068SOL    HW222104   5.588   3.729   4.349
 7069SOL     OW22105   6.173   0.312   5.963
 7069SOL    HW122106   6.238   0.377   6.002
 7069SOL    HW222107   6.215   0.264   5.886
 7070SOL     OW22108   0.261   0.040   4.726
 7070SOL    HW122109   0.267   6.960   4.732
 7070SOL    HW222110   0.166   0.069   4.738
 7071SOL     OW22111   5.100   0.091   6.413
 7071SOL    HW122112   5.155   0.007   6.414
 7071SOL    HW222113   5.030   0.085   6.343
 7072SOL     OW22114   0.921   4.205   6.685
 7072SOL    HW122115   0.967   4.260   6.755
 7072SOL    HW222116   0.985   4.138   6.648
 7073SOL     OW22117   4.702   0.573   3.412
 7073SOL    HW122118   4.658   0.661   3.401
 7073SOL    HW222119   4.637   0.508   3.452
 7074SOL     OW22120   6.062   3.992   3.034
 7074SOL    HW122121   5.992   4.063   3.038
 7074SOL    HW222122   6.126   4.012   2.960
 7075SOL     OW22123   3.265   5.088   4.804
 7075SOL    HW122124   3.261   5.011   4.868
 7075SOL    HW222125   3.182   5.142   4.811
 7076SOL     OW22126   5.685   3.379   2.525
 7076SOL    HW122127   5.661   3.287   2.495
 7076SOL    HW222128   5.753   3.374   2.598
 7077SOL     OW22129   2.578   5.048   2.183
 7077SOL    HW122130   2.614   4.962   2.145
 7077SOL    HW222131   2.508   5.084   2.122
 7078SOL     OW22132   5.468   6.748   0.399
 7078SOL    HW122133   5.533   6.783   0.332
 7078SOL    HW222134   5.390   6.811   0.406
 7079SOL     OW22135   1.014   6.608   4.086
 7079SOL    HW122136   1.033   6.567   4.175
 7079SOL    HW222137   1.075   6.569   4.017
 7080SOL     OW22138   3.724   1.974   5.125
 7080SOL    HW122139   3.648   2.022   5.080
 7080SOL    HW222140   3.691   1.887   5.160
 7081SOL     OW22141   1.587   0.765   6.751
 7081SOL    HW122142   1.686   0.765   6.740
 7081SOL    HW222143   1.564   0.792   6.844
 7082SOL     OW22144   6.623   3.933   2.277
 7082SOL    HW122145   6.536   3.975   2.303
 7082SOL    HW222146   6.688   3.940   2.353
 7083SOL     OW22147   6.642   2.518   2.281
 7083SOL    HW122148   6.618   2.604   2.237
 7083SOL    HW222149   6.586   2.444   2.242
 7084SOL     OW22150   0.858   5.770   0.193
 7084SOL    HW122151   0.905   5.857   0.181
 7084SOL    HW222152   0.873   5.736   0.286
 7085SOL     OW22153   0.311   2.879   2.457
 7085SOL    HW122154   0.250   2.959   2.456
 7085SOL    HW222155   0.340   2.860   2.550
 7086SOL     OW22156   5.703   0.749   6.196
 7086SOL    HW122157   5.716   0.848   6.204
 7086SOL    HW222158   5.694   0.709   6.287
 7087SOL     OW22159   5.695   2.884   3.086
 7087SOL    HW122160   5.632   2.952   3.123
 7087SOL    HW222161   5.777   2.879   3.144
 7088SOL     OW22162   5.707   1.627   5.393
 7088SOL    HW122163   5.784   1.566   5.408
 7088SOL    HW222164   5.688   1.679   5.476
 7089SOL     OW22165   3.948   5.689   1.791
 7089SOL    HW122166   3.900   5.684   1.879
 7089SOL    HW222167   4.019   5.619   1.787
 7090SOL     OW22168   3.798   1.608   1.077
 7090SOL    HW122169   3.731   1.535   1.092
 7090SOL    HW222170   3.815   1.657   1.163
 7091SOL     OW22171   0.742   6.592   0.418
 7091SOL    HW122172   0.833   6.610   0.382
 7091SOL    HW222173   0.683   6.672   0.403
 7092SOL     OW22174   4.482   2.118   6.482
 7092SOL    HW122175   4.395   2.101   6.528
 7092SOL    HW222176   4.534   2.185   6.535
 7093SOL     OW22177   3.289   3.970   0.523
 7093SOL    HW122178   3.314   3.874   0.508
 7093SOL    HW222179   3.335   4.027   0.455
 7094SOL     OW22180   2.117   6.722   5.755
 7094SOL    HW122181   2.217   6.727   5.758
 7094SOL    HW222182   2.078   6.812   5.774
 7095SOL     OW22183   2.941   4.557   5.735
 7095SOL    HW122184   3.009   4.505   5.683
 7095SOL    HW222185   2.861   4.499   5.752
 7096SOL     OW22186   0.008   0.869   0.851
 7096SOL    HW122187   6.948   0.809   0.853
 7096SOL    HW222188   6.999   0.964   0.839
 7097SOL     OW22189   5.692   0.269   1.804
 7097SOL    HW122190   5.685   0.180   1.760
 7097SOL    HW222191   5.603   0.314   1.804
 7098SOL     OW22192   0.981   6.661   4.432
 7098SOL    HW122193   0.893   6.667   4.385
 7098SOL    HW222194   1.045   6.609   4.377
 7099SOL     OW22195   3.159   2.194   3.941
 7099SOL    HW122196   3.066   2.230   3.950
 7099SOL    HW222197   3.178   2.176   3.844
 7100SOL     OW22198   0.131   3.508   0.984
 7100SOL    HW122199   0.203   3.459   0.935
 7100SOL    HW222200   0.112   3.461   1.070
 7101SOL     OW22201   1.845   6.588   5.358
 7101SOL    HW122202   1.810   6.537   5.435
 7101SOL    HW222203   1.937   6.555   5.334
 7102SOL     OW22204   5.248   0.714   0.637
 7102SOL    HW122205   5.284   0.645   0.699
 7102SOL    HW222206   5.281   0.804   0.665
 7103SOL     OW22207   5.122   5.187   2.808
 7103SOL    HW122208   5.086   5.277   2.831
 7103SOL    HW222209   5.049   5.131   2.768
 7104SOL     OW22210   5.095   2.981   3.713
 7104SOL    HW122211   5.128   3.054   3.773
 7104SOL    HW222212   5.000   2.961   3.734
 7105SOL     OW22213   3.163   4.026   3.905
 7105SOL    HW122214   3.214   3.948   3.943
 7105SOL    HW222215   3.154   4.097   3.975
 7106SOL     OW22216   3.534   3.008   1.387
 7106SOL    HW122217   3.439   2.984   1.368
 7106SOL    HW222218   3.551   3.000   1.485
 7107SOL     OW22219   3.870   0.428   6.882
 7107SOL    HW122220   3.888   0.331   6.899
 7107SOL    HW222221   3.955   0.480   6.893
 7108SOL     OW22222   3.256   6.664   2.666
 7108SOL    HW122223   3.190   6.602   2.625
 7108SOL    HW222224   3.220   6.700   2.752
 7109SOL     OW22225   2.046   6.967   5.827
 7109SOL    HW122226   2.105   6.956   5.907
 7109SOL    HW222227   2.053   0.041   5.793
 7110SOL     OW22228   3.065   6.344   4.876
 7110SOL    HW122229   3.035   6.308   4.964
 7110SOL    HW222230   3.092   6.268   4.817
 7111SOL     OW22231   1.037   0.405   3.734
 7111SOL    HW122232   1.088   0.445   3.659
 7111SOL    HW222233   0.953   0.457   3.750
 7112SOL     OW22234   1.998   4.771   4.428
 7112SOL    HW122235   1.902   4.745   4.420
 7112SOL    HW222236   2.052   4.721   4.360
 7113SOL     OW22237   3.298   4.874   4.976
 7113SOL    HW122238   3.336   4.784   5.000
 7113SOL    HW222239   3.206   4.862   4.938
 7114SOL     OW22240   4.812   4.976   0.685
 7114SOL    HW122241   4.867   4.973   0.601
 7114SOL    HW222242   4.715   4.977   0.662
 7115SOL     OW22243   6.474   4.361   6.870
 7115SOL    HW122244   6.419   4.445   6.871
 7115SOL    HW222245   6.567   4.381   6.839
 7116SOL     OW22246   6.876   3.514   4.127
 7116SOL    HW122247   6.933   3.470   4.196
 7116SOL    HW222248   6.933   3.551   4.055
 7117SOL     OW22249   6.253   0.036   3.516
 7117SOL    HW122250   6.177   0.050   3.579
 7117SOL    HW222251   6.337   0.022   3.569
 7118SOL     OW22252   4.155   4.374   5.471
 7118SOL    HW122253   4.185   4.469   5.481
 7118SOL    HW222254   4.220   4.325   5.412
 7119SOL     OW22255   4.765   0.213   4.982
 7119SOL    HW122256   4.688   0.273   4.956
 7119SOL    HW222257   4.851   0.255   4.954
 7120SOL     OW22258   4.924   1.455   1.103
 7120SOL    HW122259   4.858   1.488   1.036
 7120SOL    HW222260   4.962   1.533   1.154
 7121SOL     OW22261   0.569   6.596   3.578
 7121SOL    HW122262   0.492   6.610   3.640
 7121SOL    HW222263   0.655   6.608   3.629
 7122SOL     OW22264   2.867   6.932   5.937
 7122SOL    HW122265   2.784   6.877   5.921
 7122SOL    HW222266   2.940   6.901   5.877
 7123SOL     OW22267   5.610   5.318   5.386
 7123SOL    HW122268   5.599   5.362   5.475
 7123SOL    HW222269   5.698   5.271   5.383
 7124SOL     OW22270   0.723   2.190   1.400
 7124SOL    HW122271   0.734   2.130   1.321
 7124SOL    HW222272   0.774   2.275   1.385
 7125SOL     OW22273   0.708   0.239   1.518
 7125SOL    HW122274   0.789   0.220   1.573
 7125SOL    HW222275   0.655   0.155   1.507
 7126SOL     OW22276   4.300   6.252   1.576
 7126SOL    HW122277   4.220   6.304   1.546
 7126SOL    HW222278   4.323   6.278   1.670
 7127SOL     OW22279   3.257   6.369   5.188
 7127SOL    HW122280   3.177   6.365   5.247
 7127SOL    HW222281   3.263   6.284   5.135
 7128SOL     OW22282   3.547   4.363   6.311
 7128SOL    HW122283   3.571   4.289   6.248
 7128SOL    HW222284   3.592   4.448   6.283
 7129SOL     OW22285   0.166   0.305   0.962
 7129SOL    HW122286   0.227   0.256   1.024
 7129SOL    HW222287   0.089   0.247   0.938
 7130SOL     OW22288   3.226   6.112   4.051
 7130SOL    HW122289   3.287   6.191   4.059
 7130SOL    HW222290   3.166   6.125   3.972
 7131SOL     OW22291   4.118   0.962   2.018
 7131SOL    HW122292   4.042   0.985   2.078
 7131SOL    HW222293   4.100   0.875   1.973
 7132SOL     OW22294   5.271   3.839   0.048
 7132SOL    HW122295   5.196   3.798   0.100
 7132SOL    HW222296   5.309   3.916   0.100
 7133SOL     OW22297   3.438   5.685   3.476
 7133SOL    HW122298   3.354   5.716   3.521
 7133SOL    HW222299   3.435   5.586   3.463
 7134SOL     OW22300   5.822   5.450   1.441
 7134SOL    HW122301   5.839   5.462   1.539
 7134SOL    HW222302   5.908   5.459   1.392
 7135SOL     OW22303   2.249   2.986   1.720
 7135SOL    HW122304   2.159   2.942   1.723
 7135SOL    HW222305   2.240   3.083   1.740
 7136SOL     OW22306   2.975   1.644   1.592
 7136SOL    HW122307   3.034   1.592   1.654
 7136SOL    HW222308   3.009   1.738   1.584
 7137SOL     OW22309   2.649   1.907   1.757
 7137SOL    HW122310   2.652   1.908   1.657
 7137SOL    HW222311   2.723   1.965   1.792
 7138SOL     OW22312   1.613   1.872   0.532
 7138SOL    HW122313   1.576   1.779   0.533
 7138SOL    HW222314   1.560   1.931   0.593
 7139SOL     OW22315   6.331   5.822   1.567
 7139SOL    HW122316   6.388   5.781   1.638
 7139SOL    HW222317   6.296   5.750   1.506
 7140SOL     OW22318   6.542   3.321   0.568
 7140SOL    HW122319   6.533   3.419   0.555
 7140SOL    HW222320   6.505   3.273   0.488
 7141SOL     OW22321   4.202   6.688   1.246
 7141SOL    HW122322   4.156   6.759   1.193
 7141SOL    HW222323   4.173   6.695   1.342
 7142SOL     OW22324   3.330   0.372   4.972
 7142SOL    HW122325   3.296   0.448   5.027
 7142SOL    HW222326   3.256   0.336   4.915
 7143SOL     OW22327   2.365   4.802   6.577
 7143SOL    HW122328   2.445   4.862   6.566
 7143SOL    HW222329   2.396   4.708   6.590
 7144SOL     OW22330   6.519   0.913   4.138
 7144SOL    HW122331   6.544   0.918   4.235
 7144SOL    HW222332   6.496   1.004   4.105
 7145SOL     OW22333   4.781   2.106   0.006
 7145SOL    HW122334   4.693   2.148   0.032
 7145SOL    HW222335   4.838   2.096   0.088
 7146SOL     OW22336   2.470   1.071   5.198
 7146SOL    HW122337   2.496   1.165   5.217
 7146SOL    HW222338   2.488   1.050   5.102
 7147SOL     OW22339   5.622   5.103   2.143
 7147SOL    HW122340   5.556   5.035   2.114
 7147SOL    HW222341   5.714   5.064   2.141
 7148SOL     OW22342   6.515   6.244   0.941
 7148SOL    HW122343   6.516   6.152   0.980
 7148SOL    HW222344   6.593   6.296   0.975
 7149SOL     OW22345   6.696   5.278   3.628
 7149SOL    HW122346   6.602   5.245   3.628
 7149SOL    HW222347   6.701   5.366   3.580
 7150SOL     OW22348   3.877   3.537   0.017
 7150SOL    HW122349   3.871   3.597   0.096
 7150SOL    HW222350   3.930   3.582   6.965
 7151SOL     OW22351   3.646   0.690   0.856
 7151SOL    HW122352   3.592   0.754   0.910
 7151SOL    HW222353   3.646   0.719   0.760
 7152SOL     OW22354   0.430   1.785   6.511
 7152SOL    HW122355   0.395   1.773   6.418
 7152SOL    HW222356   0.527   1.762   6.513
 7153SOL     OW22357   3.828   6.260   1.085
 7153SOL    HW122358   3.880   6.340   1.117
 7153SOL    HW222359   3.891   6.196   1.041
 7154SOL     OW22360   4.151   1.342   1.977
 7154SOL    HW122361   4.226   1.277   1.962
 7154SOL    HW222362   4.187   1.435   1.982
 7155SOL     OW22363   2.911   1.886   2.590
 7155SOL    HW122364   2.856   1.927   2.518
 7155SOL    HW222365   2.942   1.795   2.560
 7156SOL     OW22366   6.309   3.911   0.286
 7156SOL    HW122367   6.351   3.989   0.239
 7156SOL    HW222368   6.302   3.834   0.223
 7157SOL     OW22369   5.978   4.362   6.435
 7157SOL    HW122370   5.997   4.455   6.405
 7157SOL    HW222371   6.030   4.297   6.380
 7158SOL     OW22372   5.009   6.649   3.676
 7158SOL    HW122373   5.009   6.692   3.585
 7158SOL    HW222374   5.084   6.583   3.681
 7159SOL     OW22375   0.763   6.045   3.560
 7159SOL    HW122376   0.709   6.107   3.617
 7159SOL    HW222377   0.771   6.083   3.468
 7160SOL     OW22378   5.624   6.679   2.784
 7160SOL    HW122379   5.607   6.661   2.881
 7160SOL    HW222380   5.552   6.737   2.747
 7161SOL     OW22381   4.104   3.472   3.603
 7161SOL    HW122382   4.090   3.562   3.644
 7161SOL    HW222383   4.076   3.401   3.668
 7162SOL     OW22384   0.265   5.067   2.121
 7162SOL    HW122385   0.319   5.049   2.203
 7162SOL    HW222386   0.212   5.151   2.135
 7163SOL     OW22387   1.434   1.128   1.845
 7163SOL    HW122388   1.473   1.036   1.851
 7163SOL    HW222389   1.462   1.171   1.759
 7164SOL     OW22390   1.806   1.176   6.130
 7164SOL    HW122391   1.759   1.137   6.051
 7164SOL    HW222392   1.902   1.190   6.108
 7165SOL     OW22393   6.887   0.728   0.309
 7165SOL    HW122394   6.843   0.775   0.385
 7165SOL    HW222395   6.849   0.636   0.300
 7166SOL     OW22396   5.193   6.571   5.974
 7166SOL    HW122397   5.272   6.627   5.999
 7166SOL    HW222398   5.199   6.546   5.878
 7167SOL     OW22399   5.749   2.225   5.023
 7167SOL    HW122400   5.669   2.263   4.976
 7167SOL    HW222401   5.758   2.128   5.001
 7168SOL     OW22402   2.749   1.148   2.061
 7168SOL    HW122403   2.766   1.196   1.975
 7168SOL    HW222404   2.671   1.190   2.108
 7169SOL     OW22405   1.830   4.275   6.083
 7169SOL    HW122406   1.839   4.224   5.997
 7169SOL    HW222407   1.789   4.364   6.065
 7170SOL     OW22408   4.265   1.111   1.650
 7170SOL    HW122409   4.283   1.080   1.743
 7170SOL    HW222410   4.232   1.205   1.651
 7171SOL     OW22411   5.970   4.872   0.702
 7171SOL    HW122412   5.899   4.889   0.633
 7171SOL    HW222413   5.936   4.898   0.792
 7172SOL     OW22414   1.060   1.181   4.054
 7172SOL    HW122415   1.076   1.280   4.056
 7172SOL    HW222416   1.148   1.133   4.062
 7173SOL     OW22417   4.969   6.143   6.756
 7173SOL    HW122418   4.967   6.203   6.835
 7173SOL    HW222419   5.056   6.154   6.708
 7174SOL     OW22420   5.891   4.517   1.722
 7174SOL    HW122421   5.886   4.604   1.673
 7174SOL    HW222422   5.986   4.492   1.738
 7175SOL     OW22423   6.134   3.650   5.942
 7175SOL    HW122424   6.071   3.574   5.960
 7175SOL    HW222425   6.110   3.693   5.855
 7176SOL     OW22426   0.246   1.241   4.869
 7176SOL    HW122427   0.320   1.304   4.893
 7176SOL    HW222428   0.282   1.149   4.859
 7177SOL     OW22429   1.768   5.256   4.550
 7177SOL    HW122430   1.780   5.160   4.576
 7177SOL    HW222431   1.685   5.291   4.592
 7178SOL     OW22432   1.317   1.316   5.448
 7178SOL    HW122433   1.265   1.272   5.375
 7178SOL    HW222434   1.414   1.314   5.426
 7179SOL     OW22435   3.757   5.696   6.408
 7179SOL    HW122436   3.782   5.600   6.398
 7179SOL    HW222437   3.827   5.743   6.461
 7180SOL     OW22438   0.946   4.692   1.393
 7180SOL    HW122439   0.983   4.600   1.407
 7180SOL    HW222440   1.010   4.745   1.337
 7181SOL     OW22441   2.439   1.252   5.905
 7181SOL    HW122442   2.507   1.326   5.911
 7181SOL    HW222443   2.374   1.274   5.832
 7182SOL     OW22444   1.131   3.444   4.340
 7182SOL    HW122445   1.172   3.382   4.274
 7182SOL    HW222446   1.198   3.513   4.367
 7183SOL     OW22447   0.763   6.344   1.846
 7183SOL    HW122448   0.728   6.383   1.761
 7183SOL    HW222449   0.821   6.265   1.825
 7184SOL     OW22450   6.588   0.091   3.275
 7184SOL    HW122451   6.548   0.013   3.323
 7184SOL    HW222452   6.526   0.122   3.203
 7185SOL     OW22453   4.856   0.559   4.891
 7185SOL    HW122454   4.854   0.573   4.792
 7185SOL    HW222455   4.813   0.637   4.937
 7186SOL     OW22456   0.024   0.036   6.484
 7186SOL    HW122457   0.019   0.053   6.582
 7186SOL    HW222458   0.096   0.093   6.444
 7187SOL     OW22459   2.905   3.479   4.976
 7187SOL    HW122460   2.809   3.465   4.951
 7187SOL    HW222461   2.964   3.421   4.921
 7188SOL     OW22462   4.297   5.142   6.904
 7188SOL    HW122463   4.312   5.175   6.811
 7188SOL    HW222464   4.283   5.043   6.902
 7189SOL     OW22465   6.200   2.367   5.168
 7189SOL    HW122466   6.104   2.389   5.152
 7189SOL    HW222467   6.215   2.355   5.266
 7190SOL     OW22468   5.787   5.277   1.099
 7190SOL    HW122469   5.791   5.232   1.188
 7190SOL    HW222470   5.725   5.227   1.039
 7191SOL     OW22471   0.512   4.016   3.165
 7191SOL    HW122472   0.500   3.939   3.102
 7191SOL    HW222473   0.549   4.095   3.115
 7192SOL     OW22474   1.800   4.660   6.498
 7192SOL    HW122475   1.710   4.677   6.458
 7192SOL    HW222476   1.790   4.627   6.592
 7193SOL     OW22477   2.291   2.478   2.229
 7193SOL    HW122478   2.259   2.399   2.281
 7193SOL    HW222479   2.369   2.452   2.173
 7194SOL     OW22480   3.232   2.629   6.007
 7194SOL    HW122481   3.151   2.677   5.975
 7194SOL    HW222482   3.245   2.648   6.104
 7195SOL     OW22483   0.021   3.534   6.298
 7195SOL    HW122484   6.993   3.527   6.211
 7195SOL    HW222485   0.117   3.507   6.285
 7196SOL     OW22486   2.931   3.642   2.263
 7196SOL    HW122487   3.009   3.581   2.279
 7196SOL    HW222488   2.962   3.723   2.213
 7197SOL     OW22489   1.761   3.705   5.530
 7197SOL    HW122490   1.762   3.606   5.517
 7197SOL    HW222491   1.852   3.742   5.510
 7198SOL     OW22492   6.368   1.379   1.085
 7198SOL    HW122493   6.368   1.477   1.068
 7198SOL    HW222494   6.422   1.333   1.013
 7199SOL     OW22495   1.151   0.814   2.208
 7199SOL    HW122496   1.145   0.878   2.131
 7199SOL    HW222497   1.062   0.805   2.251
 7200SOL     OW22498   1.439   1.991   0.682
 7200SOL    HW122499   1.429   2.062   0.752
 7200SOL    HW222500   1.354   1.939   0.674
 7201SOL     OW22501   5.933   5.835   4.148
 7201SOL    HW122502   6.031   5.834   4.128
 7201SOL    HW222503   5.887   5.904   4.092
 7202SOL     OW22504   4.709   0.547   5.726
 7202SOL    HW122505   4.794   0.526   5.774
 7202SOL    HW222506   4.654   0.609   5.783
 7203SOL     OW22507   0.328   1.903   2.006
 7203SOL    HW122508   0.256   1.857   2.058
 7203SOL    HW222509   0.396   1.940   2.069
 7204SOL     OW22510   6.823   1.139   1.479
 7204SOL    HW122511   6.874   1.089   1.549
 7204SOL    HW222512   6.800   1.230   1.513
 7205SOL     OW22513   2.301   2.433   5.232
 7205SOL    HW122514   2.321   2.426   5.330
 7205SOL    HW222515   2.236   2.362   5.206
 7206SOL     OW22516   1.940   2.197   1.299
 7206SOL    HW122517   1.922   2.264   1.227
 7206SOL    HW222518   1.928   2.240   1.389
 7207SOL     OW22519   1.933   1.908   4.103
 7207SOL    HW122520   1.957   1.987   4.160
 7207SOL    HW222521   1.843   1.923   4.061
 7208SOL     OW22522   3.163   0.889   4.394
 7208SOL    HW122523   3.169   0.895   4.294
 7208SOL    HW222524   3.072   0.918   4.423
 7209SOL     OW22525   2.850   1.907   2.106
 7209SOL    HW122526   2.927   1.971   2.102
 7209SOL    HW222527   2.793   1.919   2.025
 7210SOL     OW22528   2.412   1.558   3.271
 7210SOL    HW122529   2.321   1.577   3.309
 7210SOL    HW222530   2.405   1.482   3.206
 7211SOL     OW22531   2.910   5.724   5.977
 7211SOL    HW122532   2.839   5.712   6.046
 7211SOL    HW222533   2.897   5.813   5.932
 7212SOL     OW22534   5.774   4.740   5.777
 7212SOL    HW122535   5.807   4.789   5.858
 7212SOL    HW222536   5.718   4.803   5.722
 7213SOL     OW22537   3.280   1.267   0.618
 7213SOL    HW122538   3.341   1.188   0.617
 7213SOL    HW222539   3.246   1.282   0.711
 7214SOL     OW22540   0.602   1.385   6.515
 7214SOL    HW122541   0.578   1.342   6.428
 7214SOL    HW222542   0.701   1.404   6.516
 7215SOL     OW22543   6.913   2.773   3.055
 7215SOL    HW122544   6.944   2.814   3.141
 7215SOL    HW222545   6.814   2.781   3.048
 7216SOL     OW22546   3.110   6.021   3.082
 7216SOL    HW122547   3.033   6.012   3.018
 7216SOL    HW222548   3.193   6.040   3.031
 7217SOL     OW22549   1.334   4.338   3.570
 7217SOL    HW122550   1.297   4.425   3.605
 7217SOL    HW222551   1.283   4.262   3.610
 7218SOL     OW22552   6.173   3.604   4.738
 7218SOL    HW122553   6.113   3.572   4.665
 7218SOL    HW222554   6.128   3.593   4.827
 7219SOL     OW22555   3.238   6.131   1.822
 7219SOL    HW122556   3.244   6.050   1.764
 7219SOL    HW222557   3.167   6.192   1.788
 7220SOL     OW22558   6.546   4.444   4.177
 7220SOL    HW122559   6.610   4.508   4.133
 7220SOL    HW222560   6.537   4.362   4.121
 7221SOL     OW22561   3.485   5.874   4.989
 7221SOL    HW122562   3.486   5.909   5.083
 7221SOL    HW222563   3.400   5.823   4.973
 7222SOL     OW22564   6.929   6.731   3.319
 7222SOL    HW122565   6.921   6.645   3.370
 7222SOL    HW222566   6.849   6.743   3.261
 7223SOL     OW22567   1.538   2.172   0.872
 7223SOL    HW122568   1.497   2.262   0.885
 7223SOL    HW222569   1.626   2.183   0.824
 7224SOL     OW22570   4.175   2.145   3.435
 7224SOL    HW122571   4.094   2.117   3.383
 7224SOL    HW222572   4.237   2.067   3.446
 7225SOL     OW22573   1.864   6.775   1.089
 7225SOL    HW122574   1.857   6.709   1.014
 7225SOL    HW222575   1.943   6.834   1.074
 7226SOL     OW22576   6.566   0.689   6.774
 7226SOL    HW122577   6.572   0.596   6.738
 7226SOL    HW222578   6.554   0.686   6.873
 7227SOL     OW22579   2.819   0.884   2.070
 7227SOL    HW122580   2.775   0.973   2.073
 7227SOL    HW222581   2.896   0.883   2.135
 7228SOL     OW22582   0.630   2.217   2.299
 7228SOL    HW122583   0.693   2.269   2.242
 7228SOL    HW222584   0.544   2.268   2.308
 7229SOL     OW22585   6.563   0.104   4.498
 7229SOL    HW122586   6.513   0.018   4.507
 7229SOL    HW222587   6.502   0.181   4.519
 7230SOL     OW22588   2.612   5.064   4.343
 7230SOL    HW122589   2.553   4.983   4.339
 7230SOL    HW222590   2.631   5.087   4.438
 7231SOL     OW22591   4.354   1.296   6.781
 7231SOL    HW122592   4.263   1.287   6.740
 7231SOL    HW222593   4.412   1.221   6.749
 7232SOL     OW22594   5.308   0.128   2.681
 7232SOL    HW122595   5.251   0.200   2.722
 7232SOL    HW222596   5.402   0.137   2.716
 7233SOL     OW22597   6.539   0.905   5.302
 7233SOL    HW122598   6.468   0.836   5.311
 7233SOL    HW222599   6.503   0.984   5.251
 7234SOL     OW22600   4.862   3.800   3.434
 7234SOL    HW122601   4.906   3.711   3.422
 7234SOL    HW222602   4.829   3.808   3.528
 7235SOL     OW22603   6.676   5.730   1.595
 7235SOL    HW122604   6.597   5.696   1.647
 7235SOL    HW222605   6.678   5.686   1.505
 7236SOL     OW22606   2.329   2.316   3.110
 7236SOL    HW122607   2.368   2.224   3.107
 7236SOL    HW222608   2.357   2.366   3.028
 7237SOL     OW22609   5.169   0.521   6.722
 7237SOL    HW122610   5.236   0.594   6.735
 7237SOL    HW222611   5.123   0.534   6.634
 7238SOL     OW22612   4.531   2.517   6.843
 7238SOL    HW122613   4.623   2.529   6.881
 7238SOL    HW222614   4.474   2.594   6.869
 7239SOL     OW22615   0.558   3.649   2.569
 7239SOL    HW122616   0.559   3.708   2.650
 7239SOL    HW222617   0.547   3.706   2.487
 7240SOL     OW22618   6.807   1.870   6.071
 7240SOL    HW122619   6.813   1.799   6.001
 7240SOL    HW222620   6.894   1.917   6.079
 7241SOL     OW22621   2.376   0.626   1.410
 7241SOL    HW122622   2.349   0.634   1.314
 7241SOL    HW222623   2.468   0.586   1.416
 7242SOL     OW22624   0.593   5.651   4.113
 7242SOL    HW122625   0.689   5.641   4.137
 7242SOL    HW222626   0.542   5.684   4.193
 7243SOL     OW22627   6.555   4.048   6.453
 7243SOL    HW122628   6.642   4.006   6.429
 7243SOL    HW222629   6.495   3.980   6.495
 7244SOL     OW22630   0.117   6.253   0.136
 7244SOL    HW122631   0.019   6.268   0.120
 7244SOL    HW222632   0.157   6.337   0.173
 7245SOL     OW22633   1.505   2.897   6.758
 7245SOL    HW122634   1.545   2.909   6.666
 7245SOL    HW222635   1.433   2.828   6.753
 7246SOL     OW22636   2.834   0.577   4.342
 7246SOL    HW122637   2.899   0.642   4.302
 7246SOL    HW222638   2.761   0.559   4.276
 7247SOL     OW22639   2.957   2.537   5.564
 7247SOL    HW122640   2.926   2.484   5.485
 7247SOL    HW222641   2.950   2.481   5.646
 7248SOL     OW22642   3.335   0.735   4.549
 7248SOL    HW122643   3.270   0.782   4.488
 7248SOL    HW222644   3.426   0.739   4.509
 7249SOL     OW22645   3.919   4.920   2.087
 7249SOL    HW122646   3.933   4.867   2.171
 7249SOL    HW222647   3.832   4.968   2.092
 7250SOL     OW22648   5.328   5.032   5.332
 7250SOL    HW122649   5.321   4.938   5.299
 7250SOL    HW222650   5.280   5.093   5.268
 7251SOL     OW22651   0.367   6.487   5.488
 7251SOL    HW122652   0.423   6.551   5.434
 7251SOL    HW222653   0.400   6.394   5.472
 7252SOL     OW22654   3.051   3.867   2.171
 7252SOL    HW122655   2.984   3.940   2.156
 7252SOL    HW222656   3.142   3.900   2.147
 7253SOL     OW22657   1.437   5.873   5.883
 7253SOL    HW122658   1.456   5.819   5.802
 7253SOL    HW222659   1.470   5.967   5.870
 7254SOL     OW22660   5.657   4.228   3.591
 7254SOL    HW122661   5.626   4.157   3.655
 7254SOL    HW222662   5.756   4.235   3.594
 7255SOL     OW22663   4.979   3.432   6.572
 7255SOL    HW122664   5.074   3.454   6.550
 7255SOL    HW222665   4.925   3.428   6.487
 7256SOL     OW22666   3.269   6.772   5.776
 7256SOL    HW122667   3.174   6.772   5.744
 7256SOL    HW222668   3.270   6.788   5.875
 7257SOL     OW22669   0.076   1.766   4.500
 7257SOL    HW122670   0.037   1.693   4.556
 7257SOL    HW222671   0.172   1.780   4.524
 7258SOL     OW22672   6.191   2.636   2.139
 7258SOL    HW122673   6.164   2.704   2.207
 7258SOL    HW222674   6.138   2.648   2.055
 7259SOL     OW22675   1.208   3.851   3.111
 7259SOL    HW122676   1.295   3.847   3.160
 7259SOL    HW222677   1.184   3.760   3.077
 7260SOL     OW22678   5.615   2.468   0.990
 7260SOL    HW122679   5.518   2.463   0.967
 7260SOL    HW222680   5.628   2.528   1.069
 7261SOL     OW22681   0.191   4.113   0.423
 7261SOL    HW122682   0.217   4.187   0.484
 7261SOL    HW222683   0.203   4.025   0.470
 7262SOL     OW22684   5.253   1.817   5.831
 7262SOL    HW122685   5.159   1.820   5.798
 7262SOL    HW222686   5.281   1.907   5.862
 7263SOL     OW22687   6.924   6.503   0.447
 7263SOL    HW122688   6.992   6.429   0.443
 7263SOL    HW222689   6.961   6.580   0.500
 7264SOL     OW22690   5.620   1.514   0.345
 7264SOL    HW122691   5.657   1.494   0.254
 7264SOL    HW222692   5.693   1.549   0.403
 7265SOL     OW22693   5.236   5.882   4.649
 7265SOL    HW122694   5.295   5.957   4.620
 7265SOL    HW222695   5.278   5.833   4.725
 7266SOL     OW22696   6.830   0.762   3.808
 7266SOL    HW122697   6.930   0.756   3.804
 7266SOL    HW222698   6.800   0.763   3.903
 7267SOL     OW22699   6.566   5.866   5.086
 7267SOL    HW122700   6.665   5.851   5.095
 7267SOL    HW222701   6.537   5.838   4.995
 7268SOL     OW22702   6.620   5.843   4.214
 7268SOL    HW122703   6.596   5.788   4.133
 7268SOL    HW222704   6.552   5.914   4.227
 7269SOL     OW22705   1.984   4.949   5.563
 7269SOL    HW122706   1.886   4.935   5.578
 7269SOL    HW222707   2.008   4.918   5.471
 7270SOL     OW22708   0.361   2.008   4.314
 7270SOL    HW122709   0.356   2.098   4.358
 7270SOL    HW222710   0.289   2.000   4.246
 7271SOL     OW22711   1.376   5.219   4.061
 7271SOL    HW122712   1.430   5.157   4.004
 7271SOL    HW222713   1.373   5.310   4.019
 7272SOL     OW22714   6.405   6.269   2.051
 7272SOL    HW122715   6.346   6.203   2.098
 7272SOL    HW222716   6.349   6.328   1.992
 7273SOL     OW22717   5.606   2.618   6.353
 7273SOL    HW122718   5.549   2.682   6.405
 7273SOL    HW222719   5.591   2.633   6.255
 7274SOL     OW22720   0.787   4.491   6.604
 7274SOL    HW122721   0.745   4.420   6.660
 7274SOL    HW222722   0.778   4.468   6.507
 7275SOL     OW22723   6.816   6.729   2.529
 7275SOL    HW122724   6.789   6.793   2.457
 7275SOL    HW222725   6.742   6.720   2.595
 7276SOL     OW22726   5.545   0.255   3.560
 7276SOL    HW122727   5.544   0.279   3.463
 7276SOL    HW222728   5.452   0.248   3.594
 7277SOL     OW22729   4.657   0.729   5.909
 7277SOL    HW122730   4.639   0.825   5.931
 7277SOL    HW222731   4.590   0.671   5.956
 7278SOL     OW22732   3.108   4.038   1.850
 7278SOL    HW122733   3.206   4.038   1.829
 7278SOL    HW222734   3.072   4.130   1.837
 7279SOL     OW22735   4.182   6.157   0.203
 7279SOL    HW122736   4.279   6.134   0.195
 7279SOL    HW222737   4.172   6.256   0.214
 7280SOL     OW22738   5.356   6.930   5.138
 7280SOL    HW122739   5.396   6.937   5.047
 7280SOL    HW222740   5.271   6.877   5.132
 7281SOL     OW22741   3.134   1.754   6.578
 7281SOL    HW122742   3.103   1.708   6.661
 7281SOL    HW222743   3.097   1.707   6.497
 7282SOL     OW22744   5.587   4.773   2.326
 7282SOL    HW122745   5.571   4.708   2.401
 7282SOL    HW222746   5.682   4.768   2.297
 7283SOL     OW22747   2.392   1.393   3.040
 7283SOL    HW122748   2.441   1.307   3.054
 7283SOL    HW222749   2.297   1.373   3.017
 7284SOL     OW22750   0.254   4.043   5.571
 7284SOL    HW122751   0.349   4.039   5.539
 7284SOL    HW222752   0.199   4.096   5.506
 7285SOL     OW22753   4.933   4.884   2.420
 7285SOL    HW122754   4.997   4.809   2.406
 7285SOL    HW222755   4.839   4.852   2.403
 7286SOL     OW22756   2.248   2.125   1.170
 7286SOL    HW122757   2.181   2.110   1.242
 7286SOL    HW222758   2.264   2.040   1.120
 7287SOL     OW22759   0.711   1.713   6.538
 7287SOL    HW122760   0.731   1.615   6.534
 7287SOL    HW222761   0.750   1.759   6.459
 7288SOL     OW22762   4.106   0.961   6.166
 7288SOL    HW122763   4.012   0.934   6.185
 7288SOL    HW222764   4.120   1.056   6.196
 7289SOL     OW22765   5.966   1.529   3.261
 7289SOL    HW122766   5.901   1.544   3.336
 7289SOL    HW222767   6.014   1.614   3.240
 7290SOL     OW22768   2.760   5.784   5.727
 7290SOL    HW122769   2.808   5.711   5.775
 7290SOL    HW222770   2.671   5.799   5.771
 7291SOL     OW22771   2.366   0.277   1.431
 7291SOL    HW122772   2.274   0.264   1.469
 7291SOL    HW222773   2.434   0.271   1.504
 7292SOL     OW22774   2.459   0.149   3.873
 7292SOL    HW122775   2.362   0.161   3.895
 7292SOL    HW222776   2.488   0.219   3.808
 7293SOL     OW22777   1.912   1.463   4.975
 7293SOL    HW122778   1.974   1.526   4.930
 7293SOL    HW222779   1.933   1.369   4.948
 7294SOL     OW22780   2.672   5.056   0.526
 7294SOL    HW122781   2.588   5.094   0.564
 7294SOL    HW222782   2.703   4.980   0.583
 7295SOL     OW22783   0.676   1.923   0.597
 7295SOL    HW122784   0.758   1.967   0.632
 7295SOL    HW222785   0.615   1.992   0.556
 7296SOL     OW22786   2.889   4.819   1.172
 7296SOL    HW122787   2.915   4.862   1.086
 7296SOL    HW222788   2.801   4.856   1.202
 7297SOL     OW22789   4.172   5.938   0.605
 7297SOL    HW122790   4.239   5.935   0.531
 7297SOL    HW222791   4.119   5.854   0.606
 7298SOL     OW22792   5.417   4.133   5.281
 7298SOL    HW122793   5.491   4.093   5.227
 7298SOL    HW222794   5.439   4.127   5.378
 7299SOL     OW22795   0.593   2.295   6.575
 7299SOL    HW122796   0.673   2.349   6.549
 7299SOL    HW222797   0.516   2.355   6.595
 7300SOL     OW22798   5.404   5.524   1.651
 7300SOL    HW122799   5.482   5.538   1.712
 7300SOL    HW222800   5.402   5.596   1.582
 7301SOL     OW22801   6.607   0.781   5.041
 7301SOL    HW122802   6.585   0.833   5.124
 7301SOL    HW222803   6.576   0.833   4.961
 7302SOL     OW22804   0.391   1.452   0.499
 7302SOL    HW122805   0.387   1.514   0.421
 7302SOL    HW222806   0.304   1.404   0.508
 7303SOL     OW22807   4.816   0.652   6.643
 7303SOL    HW122808   4.876   0.682   6.718
 7303SOL    HW222809   4.811   0.552   6.643
 7304SOL     OW22810   3.595   4.149   6.739
 7304SOL    HW122811   3.669   4.091   6.703
 7304SOL    HW222812   3.603   4.241   6.700
 7305SOL     OW22813   4.930   1.779   0.800
 7305SOL    HW122814   4.851   1.841   0.797
 7305SOL    HW222815   4.993   1.801   0.726
 7306SOL     OW22816   5.020   3.649   1.815
 7306SOL    HW122817   4.925   3.630   1.790
 7306SOL    HW222818   5.076   3.568   1.796
 7307SOL     OW22819   2.899   6.641   1.458
 7307SOL    HW122820   2.803   6.662   1.475
 7307SOL    HW222821   2.913   6.617   1.362
 7308SOL     OW22822   6.899   3.887   5.516
 7308SOL    HW122823   6.907   3.795   5.554
 7308SOL    HW222824   6.824   3.889   5.450
 7309SOL     OW22825   5.445   6.066   0.402
 7309SOL    HW122826   5.534   6.064   0.355
 7309SOL    HW222827   5.410   6.160   0.402
 7310SOL     OW22828   2.133   4.283   1.267
 7310SOL    HW122829   2.200   4.355   1.245
 7310SOL    HW222830   2.110   4.232   1.185
 7311SOL     OW22831   2.950   1.779   2.348
 7311SOL    HW122832   2.936   1.826   2.261
 7311SOL    HW222833   3.047   1.757   2.357
 7312SOL     OW22834   0.243   2.712   5.490
 7312SOL    HW122835   0.324   2.768   5.474
 7312SOL    HW222836   0.228   2.701   5.588
 7313SOL     OW22837   4.574   2.851   6.318
 7313SOL    HW122838   4.562   2.915   6.394
 7313SOL    HW222839   4.487   2.803   6.302
 7314SOL     OW22840   6.787   4.145   5.178
 7314SOL    HW122841   6.696   4.154   5.217
 7314SOL    HW222842   6.788   4.186   5.087
 7315SOL     OW22843   6.267   0.549   3.438
 7315SOL    HW122844   6.319   0.505   3.365
 7315SOL    HW222845   6.330   0.597   3.499
 7316SOL     OW22846   3.167   3.357   6.039
 7316SOL    HW122847   3.168   3.277   5.979
 7316SOL    HW222848   3.111   3.338   6.120
 7317SOL     OW22849   4.668   0.839   1.744
 7317SOL    HW122850   4.718   0.910   1.695
 7317SOL    HW222851   4.661   0.757   1.687
 7318SOL     OW22852   0.803   1.392   1.211
 7318SOL    HW122853   0.750   1.467   1.250
 7318SOL    HW222854   0.895   1.424   1.188
 7319SOL     OW22855   6.134   4.447   6.656
 7319SOL    HW122856   6.077   4.388   6.599
 7319SOL    HW222857   6.197   4.390   6.710
 7320SOL     OW22858   6.614   3.652   2.143
 7320SOL    HW122859   6.690   3.677   2.083
 7320SOL    HW222860   6.584   3.731   2.196
 7321SOL     OW22861   2.628   0.376   5.396
 7321SOL    HW122862   2.679   0.290   5.398
 7321SOL    HW222863   2.691   0.452   5.407
 7322SOL     OW22864   0.863   3.107   2.510
 7322SOL    HW122865   0.788   3.046   2.485
 7322SOL    HW222866   0.909   3.140   2.427
 7323SOL     OW22867   1.943   2.274   1.878
 7323SOL    HW122868   1.848   2.303   1.886
 7323SOL    HW222869   1.947   2.176   1.858
 7324SOL     OW22870   5.411   6.797   2.618
 7324SOL    HW122871   5.321   6.836   2.637
 7324SOL    HW222872   5.405   6.697   2.618
 7325SOL     OW22873   3.968   0.519   5.957
 7325SOL    HW122874   3.974   0.430   5.912
 7325SOL    HW222875   4.054   0.567   5.947
 7326SOL     OW22876   2.084   6.499   5.295
 7326SOL    HW122877   2.142   6.539   5.366
 7326SOL    HW222878   2.135   6.493   5.209
 7327SOL     OW22879   6.792   2.991   5.412
 7327SOL    HW122880   6.729   2.972   5.487
 7327SOL    HW222881   6.879   2.943   5.429
 7328SOL     OW22882   3.647   0.138   6.598
 7328SOL    HW122883   3.663   0.192   6.515
 7328SOL    HW222884   3.568   0.078   6.583
 7329SOL     OW22885   4.066   3.892   1.524
 7329SOL    HW122886   4.129   3.946   1.578
 7329SOL    HW222887   4.093   3.796   1.527
 7330SOL     OW22888   2.804   2.162   0.145
 7330SOL    HW122889   2.706   2.179   0.159
 7330SOL    HW222890   2.857   2.230   0.195
 7331SOL     OW22891   5.761   0.549   1.433
 7331SOL    HW122892   5.828   0.541   1.359
 7331SOL    HW222893   5.808   0.576   1.517
 7332SOL     OW22894   2.793   5.671   0.525
 7332SOL    HW122895   2.721   5.604   0.506
 7332SOL    HW222896   2.805   5.731   0.445
 7333SOL     OW22897   0.264   3.489   3.541
 7333SOL    HW122898   0.349   3.489   3.488
 7333SOL    HW222899   0.271   3.423   3.616
 7334SOL     OW22900   4.444   6.208   6.629
 7334SOL    HW122901   4.418   6.215   6.532
 7334SOL    HW222902   4.390   6.273   6.682
 7335SOL     OW22903   1.951   2.836   2.361
 7335SOL    HW122904   1.933   2.909   2.426
 7335SOL    HW222905   1.899   2.754   2.386
 7336SOL     OW22906   1.591   6.015   3.282
 7336SOL    HW122907   1.597   5.941   3.349
 7336SOL    HW222908   1.494   6.036   3.264
 7337SOL     OW22909   0.559   3.045   2.455
 7337SOL    HW122910   0.610   2.966   2.424
 7337SOL    HW222911   0.464   3.019   2.472
 7338SOL     OW22912   6.319   2.573   1.270
 7338SOL    HW122913   6.228   2.605   1.244
 7338SOL    HW222914   6.348   2.619   1.355
 7339SOL     OW22915   5.245   6.251   3.756
 7339SOL    HW122916   5.228   6.167   3.704
 7339SOL    HW222917   5.194   6.247   3.842
 7340SOL     OW22918   2.109   0.605   0.045
 7340SOL    HW122919   2.113   0.694   0.091
 7340SOL    HW222920   2.182   0.547   0.080
 7341SOL     OW22921   6.610   2.182   7.013
 7341SOL    HW122922   6.656   2.096   6.990
 7341SOL    HW222923   6.549   2.166   0.071
 7342SOL     OW22924   6.329   0.472   2.482
 7342SOL    HW122925   6.255   0.414   2.448
 7342SOL    HW222926   6.292   0.563   2.502
 7343SOL     OW22927   4.161   2.923   0.150
 7343SOL    HW122928   4.113   2.915   0.062
 7343SOL    HW222929   4.100   2.965   0.217
 7344SOL     OW22930   1.303   7.008   5.764
 7344SOL    HW122931   1.376   6.948   5.730
 7344SOL    HW222932   1.262   0.036   5.687
 7345SOL     OW22933   3.562   3.222   5.483
 7345SOL    HW122934   3.618   3.271   5.550
 7345SOL    HW222935   3.555   3.275   5.399
 7346SOL     OW22936   4.167   6.716   2.781
 7346SOL    HW122937   4.156   6.629   2.830
 7346SOL    HW222938   4.078   6.761   2.772
 7347SOL     OW22939   0.228   2.093   6.852
 7347SOL    HW122940   0.318   2.051   6.843
 7347SOL    HW222941   0.212   2.155   6.775
 7348SOL     OW22942   1.739   3.719   4.044
 7348SOL    HW122943   1.672   3.788   4.070
 7348SOL    HW222944   1.693   3.641   4.001
 7349SOL     OW22945   4.606   0.355   1.124
 7349SOL    HW122946   4.553   0.271   1.114
 7349SOL    HW222947   4.703   0.333   1.134
 7350SOL     OW22948   2.747   0.759   5.459
 7350SOL    HW122949   2.695   0.844   5.449
 7350SOL    HW222950   2.824   0.773   5.520
 7351SOL     OW22951   5.312   4.976   4.026
 7351SOL    HW122952   5.364   5.044   3.973
 7351SOL    HW222953   5.316   4.999   4.123
 7352SOL     OW22954   1.173   1.988   2.984
 7352SOL    HW122955   1.145   2.084   2.981
 7352SOL    HW222956   1.098   1.933   3.020
 7353SOL     OW22957   0.011   0.633   6.483
 7353SOL    HW122958   6.948   0.660   6.532
 7353SOL    HW222959   0.083   0.700   6.499
 7354SOL     OW22960   1.756   0.476   4.165
 7354SOL    HW122961   1.766   0.377   4.162
 7354SOL    HW222962   1.679   0.500   4.224
 7355SOL     OW22963   6.893   2.108   6.349
 7355SOL    HW122964   6.823   2.081   6.414
 7355SOL    HW222965   6.983   2.104   6.393
 7356SOL     OW22966   3.742   4.047   6.336
 7356SOL    HW122967   3.787   4.024   6.249
 7356SOL    HW222968   3.656   3.995   6.343
 7357SOL     OW22969   3.729   5.817   2.150
 7357SOL    HW122970   3.765   5.803   2.243
 7357SOL    HW222971   3.799   5.860   2.094
 7358SOL     OW22972   5.709   2.743   2.241
 7358SOL    HW122973   5.624   2.692   2.246
 7358SOL    HW222974   5.753   2.726   2.152
 7359SOL     OW22975   4.493   2.046   6.015
 7359SOL    HW122976   4.479   2.063   5.917
 7359SOL    HW222977   4.446   2.117   6.068
 7360SOL     OW22978   2.207   3.418   5.194
 7360SOL    HW122979   2.254   3.344   5.242
 7360SOL    HW222980   2.240   3.506   5.229
 7361SOL     OW22981   5.160   0.588   2.680
 7361SOL    HW122982   5.082   0.608   2.740
 7361SOL    HW222983   5.211   0.672   2.662
 7362SOL     OW22984   4.063   5.337   6.093
 7362SOL    HW122985   4.123   5.412   6.121
 7362SOL    HW222986   3.974   5.374   6.066
 7363SOL     OW22987   3.992   1.099   1.559
 7363SOL    HW122988   4.091   1.103   1.572
 7363SOL    HW222989   3.951   1.046   1.633
 7364SOL     OW22990   4.220   0.009   1.664
 7364SOL    HW122991   4.198   7.017   1.567
 7364SOL    HW222992   4.137   0.004   1.718
 7365SOL     OW22993   6.219   5.998   2.495
 7365SOL    HW122994   6.152   6.061   2.454
 7365SOL    HW222995   6.311   6.036   2.484
 7366SOL     OW22996   2.310   0.333   4.497
 7366SOL    HW122997   2.219   0.361   4.467
 7366SOL    HW222998   2.306   0.240   4.534
 7367SOL     OW22999   4.622   2.180   0.591
 7367SOL    HW123000   4.651   2.273   0.568
 7367SOL    HW223001   4.533   2.182   0.635
 7368SOL     OW23002   3.585   3.352   2.538
 7368SOL    HW123003   3.535   3.358   2.624
 7368SOL    HW223004   3.563   3.432   2.481
 7369SOL     OW23005   3.766   2.405   1.143
 7369SOL    HW123006   3.793   2.438   1.234
 7369SOL    HW223007   3.670   2.427   1.127
 7370SOL     OW23008   2.419   2.435   5.500
 7370SOL    HW123009   2.447   2.530   5.487
 7370SOL    HW223010   2.495   2.374   5.476
 7371SOL     OW23011   3.111   6.519   3.927
 7371SOL    HW123012   3.205   6.490   3.947
 7371SOL    HW223013   3.078   6.470   3.846
 7372SOL     OW23014   3.901   6.644   4.673
 7372SOL    HW123015   3.831   6.584   4.634
 7372SOL    HW223016   3.916   6.619   4.769
 7373SOL     OW23017   4.696   1.963   4.651
 7373SOL    HW123018   4.719   1.912   4.735
 7373SOL    HW223019   4.703   2.061   4.669
 7374SOL     OW23020   1.424   1.688   5.344
 7374SOL    HW123021   1.394   1.759   5.407
 7374SOL    HW223022   1.347   1.628   5.321
 7375SOL     OW23023   2.234   2.816   2.406
 7375SOL    HW123024   2.137   2.811   2.429
 7375SOL    HW223025   2.249   2.780   2.315
 7376SOL     OW23026   1.311   3.540   1.176
 7376SOL    HW123027   1.238   3.474   1.161
 7376SOL    HW223028   1.389   3.518   1.116
 7377SOL     OW23029   3.399   5.212   0.181
 7377SOL    HW123030   3.494   5.240   0.173
 7377SOL    HW223031   3.393   5.115   0.203
 7378SOL     OW23032   1.605   6.830   4.217
 7378SOL    HW123033   1.674   6.775   4.170
 7378SOL    HW223034   1.649   6.909   4.260
 7379SOL     OW23035   3.298   7.013   1.370
 7379SOL    HW123036   3.202   7.010   1.398
 7379SOL    HW223037   3.320   0.085   1.338
 7380SOL     OW23038   6.557   4.293   3.615
 7380SOL    HW123039   6.472   4.347   3.617
 7380SOL    HW223040   6.547   4.213   3.675
 7381SOL     OW23041   4.092   2.402   0.979
 7381SOL    HW123042   4.002   2.378   0.944
 7381SOL    HW223043   4.159   2.400   0.905
 7382SOL     OW23044   6.141   2.031   5.765
 7382SOL    HW123045   6.159   2.036   5.667
 7382SOL    HW223046   6.211   1.975   5.809
 7383SOL     OW23047   1.506   6.167   2.189
 7383SOL    HW123048   1.440   6.230   2.148
 7383SOL    HW223049   1.503   6.080   2.140
 7384SOL     OW23050   6.862   6.568   1.151
 7384SOL    HW123051   6.843   6.663   1.175
 7384SOL    HW223052   6.953   6.561   1.112
 7385SOL     OW23053   3.231   4.856   2.525
 7385SOL    HW123054   3.319   4.833   2.485
 7385SOL    HW223055   3.235   4.948   2.565
 7386SOL     OW23056   6.913   3.172   6.711
 7386SOL    HW123057   6.946   3.220   6.792
 7386SOL    HW223058   6.919   3.234   6.632
 7387SOL     OW23059   5.904   4.645   5.530
 7387SOL    HW123060   5.952   4.698   5.599
 7387SOL    HW223061   5.955   4.562   5.510
 7388SOL     OW23062   1.219   5.678   2.503
 7388SOL    HW123063   1.238   5.701   2.598
 7388SOL    HW223064   1.144   5.734   2.468
 7389SOL     OW23065   0.025   3.269   0.203
 7389SOL    HW123066   0.033   3.347   0.265
 7389SOL    HW223067   7.011   3.190   0.254
 7390SOL     OW23068   3.061   2.156   2.474
 7390SOL    HW123069   3.071   2.057   2.463
 7390SOL    HW223070   3.002   2.175   2.553
 7391SOL     OW23071   4.014   3.596   2.370
 7391SOL    HW123072   4.060   3.601   2.458
 7391SOL    HW223073   3.943   3.526   2.372
 7392SOL     OW23074   4.226   6.475   6.577
 7392SOL    HW123075   4.217   6.441   6.670
 7392SOL    HW223076   4.323   6.485   6.555
 7393SOL     OW23077   6.154   4.739   3.642
 7393SOL    HW123078   6.120   4.831   3.662
 7393SOL    HW223079   6.253   4.742   3.628
 7394SOL     OW23080   2.283   2.816   6.431
 7394SOL    HW123081   2.228   2.761   6.494
 7394SOL    HW223082   2.265   2.913   6.448
 7395SOL     OW23083   2.125   3.154   1.272
 7395SOL    HW123084   2.096   3.192   1.360
 7395SOL    HW223085   2.221   3.175   1.257
 7396SOL     OW23086   2.404   5.971   1.718
 7396SOL    HW123087   2.410   5.996   1.815
 7396SOL    HW223088   2.340   5.895   1.707
 7397SOL     OW23089   5.243   4.057   4.646
 7397SOL    HW123090   5.273   4.152   4.636
 7397SOL    HW223091   5.277   4.021   4.733
 7398SOL     OW23092   1.300   4.820   3.324
 7398SOL    HW123093   1.391   4.851   3.352
 7398SOL    HW223094   1.250   4.788   3.404
 7399SOL     OW23095   6.177   3.075   4.457
 7399SOL    HW123096   6.163   2.981   4.487
 7399SOL    HW223097   6.125   3.137   4.516
 7400SOL     OW23098   5.313   1.868   5.260
 7400SOL    HW123099   5.307   1.966   5.275
 7400SOL    HW223100   5.386   1.847   5.195
 7401SOL     OW23101   1.473   3.048   3.057
 7401SOL    HW123102   1.558   3.053   3.003
 7401SOL    HW223103   1.399   3.014   3.000
 7402SOL     OW23104   2.642   5.460   5.210
 7402SOL    HW123105   2.609   5.438   5.119
 7402SOL    HW223106   2.697   5.544   5.207
 7403SOL     OW23107   2.203   2.951   3.385
 7403SOL    HW123108   2.290   2.901   3.379
 7403SOL    HW223109   2.174   2.980   3.294
 7404SOL     OW23110   3.293   4.285   1.354
 7404SOL    HW123111   3.294   4.282   1.454
 7404SOL    HW223112   3.322   4.376   1.323
 7405SOL     OW23113   3.033   5.509   5.226
 7405SOL    HW123114   3.018   5.457   5.141
 7405SOL    HW223115   2.966   5.583   5.232
 7406SOL     OW23116   0.270   1.662   5.215
 7406SOL    HW123117   0.177   1.643   5.186
 7406SOL    HW223118   0.319   1.576   5.231
 7407SOL     OW23119   0.536   6.329   6.675
 7407SOL    HW123120   0.497   6.249   6.631
 7407SOL    HW223121   0.478   6.358   6.751
 7408SOL     OW23122   3.479   4.199   5.366
 7408SOL    HW123123   3.405   4.259   5.333
 7408SOL    HW223124   3.532   4.165   5.289
 7409SOL     OW23125   5.360   4.165   6.981
 7409SOL    HW123126   5.323   4.178   6.889
 7409SOL    HW223127   5.460   4.160   6.976
 7410SOL     OW23128   0.195   0.468   0.736
 7410SOL    HW123129   0.282   0.451   0.691
 7410SOL    HW223130   0.183   0.402   0.811
 7411SOL     OW23131   1.123   2.051   5.948
 7411SOL    HW123132   1.052   2.112   5.984
 7411SOL    HW223133   1.111   1.960   5.987
 7412SOL     OW23134   3.727   6.888   0.303
 7412SOL    HW123135   3.726   6.928   0.211
 7412SOL    HW223136   3.790   6.939   0.361
 7413SOL     OW23137   4.740   4.992   3.372
 7413SOL    HW123138   4.754   5.089   3.390
 7413SOL    HW223139   4.645   4.968   3.392
 7414SOL     OW23140   2.322   1.861   4.038
 7414SOL    HW123141   2.355   1.789   4.100
 7414SOL    HW223142   2.305   1.822   3.948
 7415SOL     OW23143   3.880   6.553   6.322
 7415SOL    HW123144   3.823   6.480   6.284
 7415SOL    HW223145   3.951   6.577   6.257
 7416SOL     OW23146   1.083   1.261   2.446
 7416SOL    HW123147   1.079   1.303   2.536
 7416SOL    HW223148   1.145   1.314   2.388
 7417SOL     OW23149   1.197   2.840   3.480
 7417SOL    HW123150   1.293   2.824   3.455
 7417SOL    HW223151   1.146   2.755   3.473
 7418SOL     OW23152   1.886   4.536   6.269
 7418SOL    HW123153   1.871   4.591   6.352
 7418SOL    HW223154   1.971   4.485   6.278
 7419SOL     OW23155   6.171   3.806   3.629
 7419SOL    HW123156   6.140   3.820   3.535
 7419SOL    HW223157   6.252   3.747   3.628
 7420SOL     OW23158   7.018   6.202   1.959
 7420SOL    HW123159   6.970   6.247   2.034
 7420SOL    HW223160   0.044   6.271   1.903
 7421SOL     OW23161   4.524   3.432   1.694
 7421SOL    HW123162   4.454   3.363   1.708
 7421SOL    HW223163   4.497   3.494   1.621
 7422SOL     OW23164   5.877   3.019   1.879
 7422SOL    HW123165   5.869   3.114   1.850
 7422SOL    HW223166   5.959   2.979   1.839
 7423SOL     OW23167   5.994   1.958   5.992
 7423SOL    HW123168   5.895   1.943   5.987
 7423SOL    HW223169   6.029   1.979   5.901
 7424SOL     OW23170   6.945   1.196   5.484
 7424SOL    HW123171   6.964   1.255   5.407
 7424SOL    HW223172   6.892   1.117   5.453
 7425SOL     OW23173   5.243   0.214   0.150
 7425SOL    HW123174   5.289   0.286   0.203
 7425SOL    HW223175   5.204   0.147   0.213
 7426SOL     OW23176   3.747   2.723   6.227
 7426SOL    HW123177   3.828   2.689   6.276
 7426SOL    HW223178   3.769   2.731   6.130
 7427SOL     OW23179   3.673   1.102   3.879
 7427SOL    HW123180   3.579   1.080   3.906
 7427SOL    HW223181   3.729   1.019   3.883
 7428SOL     OW23182   3.819   6.285   5.932
 7428SOL    HW123183   3.786   6.292   5.837
 7428SOL    HW223184   3.750   6.323   5.994
 7429SOL     OW23185   1.147   6.906   2.714
 7429SOL    HW123186   1.145   6.886   2.617
 7429SOL    HW223187   1.118   6.826   2.766
 7430SOL     OW23188   6.924   4.595   2.701
 7430SOL    HW123189   6.906   4.499   2.721
 7430SOL    HW223190   6.839   4.640   2.676
 7431SOL     OW23191   2.244   2.469   4.634
 7431SOL    HW123192   2.147   2.475   4.612
 7431SOL    HW223193   2.274   2.374   4.629
 7432SOL     OW23194   1.950   0.516   3.295
 7432SOL    HW123195   1.958   0.503   3.196
 7432SOL    HW223196   1.979   0.609   3.318
 7433SOL     OW23197   3.412   6.666   6.611
 7433SOL    HW123198   3.476   6.600   6.649
 7433SOL    HW223199   3.336   6.681   6.675
 7434SOL     OW23200   4.687   6.295   5.920
 7434SOL    HW123201   4.641   6.359   5.858
 7434SOL    HW223202   4.673   6.324   6.015
 7435SOL     OW23203   4.791   6.447   2.150
 7435SOL    HW123204   4.696   6.475   2.167
 7435SOL    HW223205   4.830   6.407   2.233
 7436SOL     OW23206   5.308   3.985   6.416
 7436SOL    HW123207   5.303   4.061   6.482
 7436SOL    HW223208   5.239   3.917   6.439
 7437SOL     OW23209   3.151   5.538   1.402
 7437SOL    HW123210   3.104   5.536   1.490
 7437SOL    HW223211   3.084   5.547   1.328
 7438SOL     OW23212   2.295   0.879   0.398
 7438SOL    HW123213   2.231   0.884   0.322
 7438SOL    HW223214   2.369   0.945   0.384
 7439SOL     OW23215   1.798   5.151   6.441
 7439SOL    HW123216   1.823   5.180   6.349
 7439SOL    HW223217   1.831   5.058   6.458
 7440SOL     OW23218   4.954   3.158   4.223
 7440SOL    HW123219   4.911   3.244   4.252
 7440SOL    HW223220   5.029   3.136   4.285
 7441SOL     OW23221   5.623   6.384   2.331
 7441SOL    HW123222   5.661   6.454   2.391
 7441SOL    HW223223   5.692   6.356   2.264
 7442SOL     OW23224   5.534   0.546   6.073
 7442SOL    HW123225   5.613   0.597   6.107
 7442SOL    HW223226   5.557   0.449   6.067
 7443SOL     OW23227   0.106   5.833   1.939
 7443SOL    HW123228   0.066   5.748   1.905
 7443SOL    HW223229   0.204   5.820   1.954
 7444SOL     OW23230   0.243   0.471   5.961
 7444SOL    HW123231   0.160   0.444   6.010
 7444SOL    HW223232   0.233   0.449   5.864
 7445SOL     OW23233   4.093   6.904   2.283
 7445SOL    HW123234   4.171   6.897   2.345
 7445SOL    HW223235   4.031   6.976   2.314
 7446SOL     OW23236   4.790   2.933   0.406
 7446SOL    HW123237   4.877   2.982   0.402
 7446SOL    HW223238   4.773   2.889   0.318
 7447SOL     OW23239   0.982   4.261   0.323
 7447SOL    HW123240   0.905   4.219   0.274
 7447SOL    HW223241   0.949   4.296   0.411
 7448SOL     OW23242   5.174   5.988   6.557
 7448SOL    HW123243   5.138   6.004   6.465
 7448SOL    HW223244   5.128   5.909   6.598
 7449SOL     OW23245   0.798   4.555   0.399
 7449SOL    HW123246   0.752   4.521   0.481
 7449SOL    HW223247   0.745   4.528   0.318
 7450SOL     OW23248   5.304   2.079   5.566
 7450SOL    HW123249   5.330   2.144   5.638
 7450SOL    HW223250   5.222   2.029   5.595
 7451SOL     OW23251   5.672   5.290   2.348
 7451SOL    HW123252   5.772   5.288   2.357
 7451SOL    HW223253   5.643   5.225   2.278
 7452SOL     OW23254   5.560   6.312   5.041
 7452SOL    HW123255   5.647   6.340   5.002
 7452SOL    HW223256   5.507   6.393   5.067
 7453SOL     OW23257   4.903   5.417   6.463
 7453SOL    HW123258   5.002   5.420   6.451
 7453SOL    HW223259   4.866   5.509   6.458
 7454SOL     OW23260   3.315   1.804   0.607
 7454SOL    HW123261   3.332   1.857   0.690
 7454SOL    HW223262   3.289   1.710   0.633
 7455SOL     OW23263   6.531   2.941   2.647
 7455SOL    HW123264   6.614   2.996   2.656
 7455SOL    HW223265   6.548   2.850   2.685
 7456SOL     OW23266   2.614   2.450   5.013
 7456SOL    HW123267   2.593   2.546   5.030
 7456SOL    HW223268   2.657   2.410   5.094
 7457SOL     OW23269   2.186   6.779   3.760
 7457SOL    HW123270   2.224   6.699   3.714
 7457SOL    HW223271   2.259   6.843   3.782
 7458SOL     OW23272   0.697   6.584   4.409
 7458SOL    HW123273   0.619   6.599   4.470
 7458SOL    HW223274   0.666   6.584   4.314
 7459SOL     OW23275   6.692   1.387   2.772
 7459SOL    HW123276   6.730   1.396   2.680
 7459SOL    HW223277   6.625   1.460   2.788
 7460SOL     OW23278   1.537   6.693   0.353
 7460SOL    HW123279   1.597   6.614   0.367
 7460SOL    HW223280   1.451   6.662   0.311
 7461SOL     OW23281   0.567   5.621   6.115
 7461SOL    HW123282   0.595   5.712   6.082
 7461SOL    HW223283   0.588   5.614   6.212
 7462SOL     OW23284   1.260   5.697   1.067
 7462SOL    HW123285   1.318   5.671   0.990
 7462SOL    HW223286   1.295   5.655   1.151
 7463SOL     OW23287   3.962   4.747   6.995
 7463SOL    HW123288   3.891   4.713   0.037
 7463SOL    HW223289   3.981   4.678   6.926
 7464SOL     OW23290   6.979   5.083   4.706
 7464SOL    HW123291   6.998   5.171   4.663
 7464SOL    HW223292   0.010   5.076   4.792
 7465SOL     OW23293   2.419   4.992   0.084
 7465SOL    HW123294   2.440   4.983   7.007
 7465SOL    HW223295   2.504   4.992   0.137
 7466SOL     OW23296   0.604   0.506   5.184
 7466SOL    HW123297   0.599   0.562   5.267
 7466SOL    HW223298   0.673   0.544   5.122
 7467SOL     OW23299   0.286   3.099   5.992
 7467SOL    HW123300   0.247   3.156   5.920
 7467SOL    HW223301   0.376   3.135   6.018
 7468SOL     OW23302   5.664   2.538   5.182
 7468SOL    HW123303   5.678   2.489   5.268
 7468SOL    HW223304   5.653   2.636   5.200
 7469SOL     OW23305   6.627   2.032   0.512
 7469SOL    HW123306   6.685   1.953   0.531
 7469SOL    HW223307   6.648   2.105   0.577
 7470SOL     OW23308   5.972   3.672   3.784
 7470SOL    HW123309   6.017   3.742   3.729
 7470SOL    HW223310   6.038   3.601   3.808
 7471SOL     OW23311   5.569   5.782   6.110
 7471SOL    HW123312   5.604   5.692   6.084
 7471SOL    HW223313   5.531   5.777   6.202
 7472SOL     OW23314   6.624   0.154   5.098
 7472SOL    HW123315   6.700   0.089   5.094
 7472SOL    HW223316   6.549   0.122   5.042
 7473SOL     OW23317   4.340   6.954   3.658
 7473SOL    HW123318   4.343   7.005   3.572
 7473SOL    HW223319   4.316   7.016   3.733
 7474SOL     OW23320   5.878   2.653   6.359
 7474SOL    HW123321   5.940   2.576   6.348
 7474SOL    HW223322   5.785   2.624   6.337
 7475SOL     OW23323   4.548   1.849   1.888
 7475SOL    HW123324   4.481   1.890   1.950
 7475SOL    HW223325   4.622   1.913   1.872
 7476SOL     OW23326   2.202   1.896   2.735
 7476SOL    HW123327   2.157   1.965   2.792
 7476SOL    HW223328   2.285   1.864   2.781
 7477SOL     OW23329   0.494   3.881   5.035
 7477SOL    HW123330   0.517   3.979   5.037
 7477SOL    HW223331   0.408   3.868   4.987
 7478SOL     OW23332   6.376   2.101   5.091
 7478SOL    HW123333   6.325   2.187   5.084
 7478SOL    HW223334   6.356   2.058   5.179
 7479SOL     OW23335   5.639   3.247   6.743
 7479SOL    HW123336   5.625   3.160   6.790
 7479SOL    HW223337   5.662   3.318   6.809
 7480SOL     OW23338   3.169   5.283   2.052
 7480SOL    HW123339   3.218   5.245   2.130
 7480SOL    HW223340   3.119   5.365   2.081
 7481SOL     OW23341   6.379   4.238   6.329
 7481SOL    HW123342   6.431   4.173   6.385
 7481SOL    HW223343   6.418   4.329   6.339
 7482SOL     OW23344   4.160   2.258   2.773
 7482SOL    HW123345   4.130   2.219   2.685
 7482SOL    HW223346   4.236   2.321   2.757
 7483SOL     OW23347   4.716   2.314   5.136
 7483SOL    HW123348   4.732   2.301   5.038
 7483SOL    HW223349   4.621   2.289   5.157
 7484SOL     OW23350   2.639   6.277   4.485
 7484SOL    HW123351   2.565   6.283   4.419
 7484SOL    HW223352   2.692   6.362   4.483
 7485SOL     OW23353   2.932   6.905   3.894
 7485SOL    HW123354   2.939   6.984   3.833
 7485SOL    HW223355   2.932   6.936   3.989
 7486SOL     OW23356   0.789   6.136   0.495
 7486SOL    HW123357   0.772   6.145   0.397
 7486SOL    HW223358   0.825   6.045   0.515
 7487SOL     OW23359   4.783   0.007   3.452
 7487SOL    HW123360   4.877   7.003   3.425
 7487SOL    HW223361   4.775   0.106   3.461
 7488SOL     OW23362   0.623   5.974   4.260
 7488SOL    HW123363   0.689   5.947   4.190
 7488SOL    HW223364   0.622   6.073   4.268
 7489SOL     OW23365   6.308   4.180   0.173
 7489SOL    HW123366   6.394   4.226   0.152
 7489SOL    HW223367   6.257   4.163   0.088
 7490SOL     OW23368   1.170   2.271   2.782
 7490SOL    HW123369   1.075   2.251   2.803
 7490SOL    HW223370   1.179   2.290   2.684
 7491SOL     OW23371   4.408   2.898   0.822
 7491SOL    HW123372   4.377   2.886   0.728
 7491SOL    HW223373   4.471   2.823   0.845
 7492SOL     OW23374   1.337   0.595   4.151
 7492SOL    HW123375   1.388   0.517   4.188
 7492SOL    HW223376   1.371   0.679   4.193
 7493SOL     OW23377   6.594   3.930   5.691
 7493SOL    HW123378   6.661   3.988   5.738
 7493SOL    HW223379   6.617   3.926   5.594
 7494SOL     OW23380   6.254   0.893   3.160
 7494SOL    HW123381   6.337   0.926   3.115
 7494SOL    HW223382   6.258   0.915   3.257
 7495SOL     OW23383   2.254   2.752   4.973
 7495SOL    HW123384   2.267   2.850   4.988
 7495SOL    HW223385   2.156   2.732   4.971
 7496SOL     OW23386   6.047   3.882   3.393
 7496SOL    HW123387   6.070   3.960   3.335
 7496SOL    HW223388   5.948   3.878   3.405
 7497SOL     OW23389   0.846   6.383   0.642
 7497SOL    HW123390   0.753   6.414   0.660
 7497SOL    HW223391   0.852   6.351   0.547
 7498SOL     OW23392   3.342   0.247   3.365
 7498SOL    HW123393   3.371   0.328   3.314
 7498SOL    HW223394   3.270   0.271   3.429
 7499SOL     OW23395   3.643   2.060   3.872
 7499SOL    HW123396   3.670   2.114   3.952
 7499SOL    HW223397   3.578   1.990   3.900
 7500SOL     OW23398   4.340   0.123   3.451
 7500SOL    HW123399   4.356   0.222   3.460
 7500SOL    HW223400   4.366   0.094   3.359
 7501SOL     OW23401   5.995   2.671   4.229
 7501SOL    HW123402   6.094   2.668   4.240
 7501SOL    HW223403   5.973   2.671   4.131
 7502SOL     OW23404   3.103   0.254   4.874
 7502SOL    HW123405   3.158   0.171   4.864
 7502SOL    HW223406   3.058   0.276   4.788
 7503SOL     OW23407   2.264   5.898   1.095
 7503SOL    HW123408   2.274   5.800   1.112
 7503SOL    HW223409   2.221   5.942   1.174
 7504SOL     OW23410   7.011   6.357   2.835
 7504SOL    HW123411   0.084   6.363   2.872
 7504SOL    HW223412   6.956   6.296   2.893
 7505SOL     OW23413   6.862   0.664   5.070
 7505SOL    HW123414   6.923   0.664   4.991
 7505SOL    HW223415   6.777   0.712   5.047
 7506SOL     OW23416   3.420   1.807   3.050
 7506SOL    HW123417   3.495   1.775   3.108
 7506SOL    HW223418   3.396   1.901   3.075
 7507SOL     OW23419   6.572   3.371   4.392
 7507SOL    HW123420   6.529   3.290   4.432
 7507SOL    HW223421   6.637   3.344   4.321
 7508SOL     OW23422   1.533   6.079   0.230
 7508SOL    HW123423   1.552   5.981   0.233
 7508SOL    HW223424   1.581   6.120   0.153
 7509SOL     OW23425   5.073   3.747   0.210
 7509SOL    HW123426   5.026   3.815   0.266
 7509SOL    HW223427   5.004   3.693   0.160
 7510SOL     OW23428   4.105   3.522   4.035
 7510SOL    HW123429   4.088   3.573   4.119
 7510SOL    HW223430   4.069   3.574   3.957
 7511SOL     OW23431   3.469   5.716   2.801
 7511SOL    HW123432   3.505   5.647   2.739
 7511SOL    HW223433   3.369   5.711   2.802
 7512SOL     OW23434   3.222   6.950   0.110
 7512SOL    HW123435   3.221   6.851   0.094
 7512SOL    HW223436   3.197   6.968   0.205
 7513SOL     OW23437   1.860   2.560   3.596
 7513SOL    HW123438   1.893   2.479   3.644
 7513SOL    HW223439   1.762   2.573   3.615
 7514SOL     OW23440   2.311   4.835   3.177
 7514SOL    HW123441   2.290   4.755   3.120
 7514SOL    HW223442   2.265   4.916   3.140
 7515SOL     OW23443   6.855   4.446   4.996
 7515SOL    HW123444   6.871   4.469   5.092
 7515SOL    HW223445   6.764   4.477   4.970
 7516SOL     OW23446   1.228   5.217   5.588
 7516SOL    HW123447   1.163   5.143   5.571
 7516SOL    HW223448   1.183   5.305   5.572
 7517SOL     OW23449   1.085   2.203   0.162
 7517SOL    HW123450   1.149   2.277   0.180
 7517SOL    HW223451   1.025   2.228   0.086
 7518SOL     OW23452   4.686   2.804   4.075
 7518SOL    HW123453   4.745   2.815   4.155
 7518SOL    HW223454   4.675   2.892   4.029
 7519SOL     OW23455   4.212   6.970   4.491
 7519SOL    HW123456   4.236   6.939   4.399
 7519SOL    HW223457   4.289   6.955   4.553
 7520SOL     OW23458   1.608   1.534   2.181
 7520SOL    HW123459   1.580   1.439   2.195
 7520SOL    HW223460   1.583   1.589   2.261
 7521SOL     OW23461   5.376   1.299   4.572
 7521SOL    HW123462   5.386   1.207   4.609
 7521SOL    HW223463   5.298   1.302   4.510
 7522SOL     OW23464   1.361   5.979   3.573
 7522SOL    HW123465   1.383   6.063   3.621
 7522SOL    HW223466   1.446   5.933   3.546
 7523SOL     OW23467   5.515   1.397   6.190
 7523SOL    HW123468   5.615   1.395   6.189
 7523SOL    HW223469   5.480   1.331   6.122
 7524SOL     OW23470   0.189   2.509   4.432
 7524SOL    HW123471   0.129   2.496   4.353
 7524SOL    HW223472   0.252   2.585   4.413
 7525SOL     OW23473   4.647   6.503   6.365
 7525SOL    HW123474   4.735   6.543   6.341
 7525SOL    HW223475   4.574   6.547   6.313
 7526SOL     OW23476   1.925   3.509   2.028
 7526SOL    HW123477   1.873   3.443   1.974
 7526SOL    HW223478   2.022   3.501   2.005
 7527SOL     OW23479   4.348   5.765   3.743
 7527SOL    HW123480   4.308   5.855   3.726
 7527SOL    HW223481   4.367   5.720   3.656
 7528SOL     OW23482   5.937   2.701   6.836
 7528SOL    HW123483   5.918   2.629   6.769
 7528SOL    HW223484   5.979   2.660   6.917
 7529SOL     OW23485   5.987   1.756   3.595
 7529SOL    HW123486   5.908   1.811   3.624
 7529SOL    HW223487   6.070   1.810   3.607
 7530SOL     OW23488   7.012   1.425   2.195
 7530SOL    HW123489   6.986   1.511   2.153
 7530SOL    HW223490   6.996   1.350   2.130
 7531SOL     OW23491   4.222   2.248   3.714
 7531SOL    HW123492   4.222   2.234   3.615
 7531SOL    HW223493   4.128   2.250   3.748
 7532SOL     OW23494   4.918   5.886   6.877
 7532SOL    HW123495   4.939   5.971   6.828
 7532SOL    HW223496   4.975   5.812   6.841
 7533SOL     OW23497   4.342   3.189   1.712
 7533SOL    HW123498   4.403   3.135   1.770
 7533SOL    HW223499   4.265   3.133   1.682
 7534SOL     OW23500   5.037   6.911   4.546
 7534SOL    HW123501   5.081   6.850   4.611
 7534SOL    HW223502   5.085   6.907   4.458
 7535SOL     OW23503   1.297   6.311   4.116
 7535SOL    HW123504   1.370   6.277   4.057
 7535SOL    HW223505   1.300   6.265   4.204
 7536SOL     OW23506   4.924   6.120   4.842
 7536SOL    HW123507   4.989   6.195   4.831
 7536SOL    HW223508   4.866   6.136   4.922
 7537SOL     OW23509   2.275   5.805   2.088
 7537SOL    HW123510   2.191   5.830   2.136
 7537SOL    HW223511   2.256   5.733   2.022
 7538SOL     OW23512   0.747   3.296   1.759
 7538SOL    HW123513   0.816   3.228   1.784
 7538SOL    HW223514   0.787   3.387   1.764
 7539SOL     OW23515   1.186   5.539   3.936
 7539SOL    HW123516   1.224   5.593   3.860
 7539SOL    HW223517   1.261   5.509   3.995
 7540SOL     OW23518   5.347   5.674   4.488
 7540SOL    HW123519   5.313   5.713   4.573
 7540SOL    HW223520   5.310   5.726   4.410
 7541SOL     OW23521   1.134   3.597   6.578
 7541SOL    HW123522   1.074   3.517   6.582
 7541SOL    HW223523   1.104   3.664   6.646
 7542SOL     OW23524   6.079   6.307   6.360
 7542SOL    HW123525   6.097   6.336   6.266
 7542SOL    HW223526   5.982   6.290   6.371
 7543SOL     OW23527   2.853   0.575   5.294
 7543SOL    HW123528   2.916   0.555   5.369
 7543SOL    HW223529   2.786   0.643   5.325
 7544SOL     OW23530   6.996   3.024   3.852
 7544SOL    HW123531   6.973   3.121   3.865
 7544SOL    HW223532   6.957   2.992   3.765
 7545SOL     OW23533   0.760   5.846   6.626
 7545SOL    HW123534   0.753   5.933   6.675
 7545SOL    HW223535   0.668   5.810   6.609
 7546SOL     OW23536   3.199   2.845   1.846
 7546SOL    HW123537   3.207   2.841   1.945
 7546SOL    HW223538   3.239   2.763   1.805
 7547SOL     OW23539   4.648   0.314   1.794
 7547SOL    HW123540   4.716   0.385   1.811
 7547SOL    HW223541   4.694   0.225   1.788
 7548SOL     OW23542   4.723   2.316   6.194
 7548SOL    HW123543   4.725   2.396   6.135
 7548SOL    HW223544   4.636   2.267   6.181
 7549SOL     OW23545   4.551   2.393   5.878
 7549SOL    HW123546   4.474   2.360   5.824
 7549SOL    HW223547   4.636   2.375   5.828
 7550SOL     OW23548   1.656   4.149   3.887
 7550SOL    HW123549   1.744   4.160   3.841
 7550SOL    HW223550   1.664   4.180   3.982
 7551SOL     OW23551   5.277   2.120   5.067
 7551SOL    HW123552   5.270   2.036   5.013
 7551SOL    HW223553   5.292   2.097   5.163
 7552SOL     OW23554   2.001   6.365   4.344
 7552SOL    HW123555   1.958   6.452   4.368
 7552SOL    HW223556   1.931   6.295   4.333
 7553SOL     OW23557   5.661   6.055   6.148
 7553SOL    HW123558   5.632   5.959   6.139
 7553SOL    HW223559   5.662   6.097   6.058
 7554SOL     OW23560   5.364   1.340   0.169
 7554SOL    HW123561   5.367   1.438   0.191
 7554SOL    HW223562   5.347   1.287   0.252
 7555SOL     OW23563   3.188   6.754   6.438
 7555SOL    HW123564   3.118   6.692   6.404
 7555SOL    HW223565   3.254   6.702   6.494
 7556SOL     OW23566   1.187   0.954   0.227
 7556SOL    HW123567   1.243   0.992   0.154
 7556SOL    HW223568   1.092   0.947   0.196
 7557SOL     OW23569   5.086   0.541   0.129
 7557SOL    HW123570   5.050   0.507   0.216
 7557SOL    HW223571   5.184   0.561   0.139
 7558SOL     OW23572   1.429   2.796   4.205
 7558SOL    HW123573   1.333   2.815   4.184
 7558SOL    HW223574   1.484   2.878   4.188
 7559SOL     OW23575   3.566   2.066   4.834
 7559SOL    HW123576   3.508   2.053   4.914
 7559SOL    HW223577   3.607   1.978   4.808
 7560SOL     OW23578   6.762   0.403   6.220
 7560SOL    HW123579   6.709   0.424   6.138
 7560SOL    HW223580   6.723   0.323   6.266
 7561SOL     OW23581   4.995   1.838   5.361
 7561SOL    HW123582   5.012   1.740   5.350
 7561SOL    HW223583   5.020   1.885   5.276
 7562SOL     OW23584   1.062   5.481   4.944
 7562SOL    HW123585   1.018   5.425   5.014
 7562SOL    HW223586   1.125   5.546   4.987
 7563SOL     OW23587   2.886   6.905   2.435
 7563SOL    HW123588   2.866   6.821   2.386
 7563SOL    HW223589   2.800   6.950   2.461
 7564SOL     OW23590   4.544   0.922   4.648
 7564SOL    HW123591   4.511   0.860   4.719
 7564SOL    HW223592   4.600   0.994   4.690
 7565SOL     OW23593   5.550   3.401   6.277
 7565SOL    HW123594   5.637   3.395   6.228
 7565SOL    HW223595   5.498   3.317   6.263
 7566SOL     OW23596   4.650   4.742   1.939
 7566SOL    HW123597   4.741   4.703   1.955
 7566SOL    HW223598   4.613   4.776   2.025
 7567SOL     OW23599   0.305   0.723   4.461
 7567SOL    HW123600   0.335   0.729   4.366
 7567SOL    HW223601   0.260   0.635   4.476
 7568SOL     OW23602   6.206   5.617   1.436
 7568SOL    HW123603   6.174   5.533   1.392
 7568SOL    HW223604   6.129   5.668   1.473
 7569SOL     OW23605   3.917   4.277   6.451
 7569SOL    HW123606   3.847   4.215   6.414
 7569SOL    HW223607   3.880   4.370   6.456
 7570SOL     OW23608   6.946   3.119   3.314
 7570SOL    HW123609   7.018   3.176   3.276
 7570SOL    HW223610   6.976   3.023   3.315
 7571SOL     OW23611   5.269   3.567   2.840
 7571SOL    HW123612   5.353   3.609   2.807
 7571SOL    HW223613   5.218   3.633   2.895
 7572SOL     OW23614   5.071   6.661   2.610
 7572SOL    HW123615   5.093   6.758   2.621
 7572SOL    HW223616   5.003   6.651   2.538
 7573SOL     OW23617   5.583   6.615   5.891
 7573SOL    HW123618   5.534   6.675   5.954
 7573SOL    HW223619   5.666   6.581   5.935
 7574SOL     OW23620   6.356   0.792   3.926
 7574SOL    HW123621   6.375   0.824   4.019
 7574SOL    HW223622   6.421   0.835   3.863
 7575SOL     OW23623   6.264   6.355   0.842
 7575SOL    HW123624   6.358   6.327   0.864
 7575SOL    HW223625   6.230   6.301   0.765
 7576SOL     OW23626   5.635   3.038   0.937
 7576SOL    HW123627   5.582   2.978   0.877
 7576SOL    HW223628   5.647   2.995   1.026
 7577SOL     OW23629   0.658   0.050   0.237
 7577SOL    HW123630   0.569   0.067   0.280
 7577SOL    HW223631   0.681   0.127   0.177
 7578SOL     OW23632   0.390   5.766   3.340
 7578SOL    HW123633   0.399   5.857   3.381
 7578SOL    HW223634   0.381   5.698   3.412
 7579SOL     OW23635   6.691   1.922   1.311
 7579SOL    HW123636   6.775   1.915   1.365
 7579SOL    HW223637   6.700   1.867   1.228
 7580SOL     OW23638   2.088   4.395   3.426
 7580SOL    HW123639   2.131   4.402   3.336
 7580SOL    HW223640   1.991   4.374   3.415
 7581SOL     OW23641   0.520   0.809   1.428
 7581SOL    HW123642   0.457   0.836   1.500
 7581SOL    HW223643   0.605   0.862   1.437
 7582SOL     OW23644   3.731   1.598   4.222
 7582SOL    HW123645   3.725   1.698   4.221
 7582SOL    HW223646   3.663   1.561   4.285
 7583SOL     OW23647   4.880   3.272   3.558
 7583SOL    HW123648   4.977   3.294   3.549
 7583SOL    HW223649   4.861   3.188   3.508
 7584SOL     OW23650   1.186   1.059   2.792
 7584SOL    HW123651   1.115   1.058   2.722
 7584SOL    HW223652   1.264   1.111   2.760
 7585SOL     OW23653   0.996   2.448   6.350
 7585SOL    HW123654   0.973   2.536   6.308
 7585SOL    HW223655   1.086   2.418   6.317
 7586SOL     OW23656   1.385   0.849   2.344
 7586SOL    HW123657   1.300   0.833   2.294
 7586SOL    HW223658   1.462   0.817   2.289
 7587SOL     OW23659   3.356   1.021   0.707
 7587SOL    HW123660   3.352   0.964   0.625
 7587SOL    HW223661   3.432   0.992   0.765
 7588SOL     OW23662   1.302   3.015   4.541
 7588SOL    HW123663   1.284   2.917   4.537
 7588SOL    HW223664   1.395   3.031   4.573
 7589SOL     OW23665   0.715   0.734   2.900
 7589SOL    HW123666   0.805   0.776   2.912
 7589SOL    HW223667   0.656   0.795   2.847
 7590SOL     OW23668   0.381   1.622   0.276
 7590SOL    HW123669   0.377   1.592   0.181
 7590SOL    HW223670   0.468   1.669   0.292
 7591SOL     OW23671   4.775   3.364   6.902
 7591SOL    HW123672   4.834   3.285   6.884
 7591SOL    HW223673   4.694   3.358   6.844
 7592SOL     OW23674   6.174   5.830   5.013
 7592SOL    HW123675   6.201   5.905   5.074
 7592SOL    HW223676   6.086   5.793   5.043
 7593SOL     OW23677   0.008   1.866   5.594
 7593SOL    HW123678   0.067   1.937   5.554
 7593SOL    HW223679   0.064   1.786   5.616
 7594SOL     OW23680   0.332   4.366   1.247
 7594SOL    HW123681   0.387   4.423   1.308
 7594SOL    HW223682   0.271   4.309   1.302
 7595SOL     OW23683   6.107   2.850   6.146
 7595SOL    HW123684   6.188   2.796   6.170
 7595SOL    HW223685   6.075   2.899   6.227
 7596SOL     OW23686   3.254   0.683   5.032
 7596SOL    HW123687   3.351   0.693   5.051
 7596SOL    HW223688   3.236   0.705   4.936
 7597SOL     OW23689   2.198   5.499   2.624
 7597SOL    HW123690   2.098   5.489   2.624
 7597SOL    HW223691   2.225   5.563   2.553
 7598SOL     OW23692   5.914   0.468   2.794
 7598SOL    HW123693   5.935   0.566   2.794
 7598SOL    HW223694   5.967   0.422   2.866
 7599SOL     OW23695   4.018   3.627   0.583
 7599SOL    HW123696   3.960   3.570   0.642
 7599SOL    HW223697   4.114   3.599   0.595
 7600SOL     OW23698   1.387   1.110   3.896
 7600SOL    HW123699   1.349   1.200   3.873
 7600SOL    HW223700   1.321   1.039   3.873
 7601SOL     OW23701   4.094   5.615   2.199
 7601SOL    HW123702   4.157   5.538   2.210
 7601SOL    HW223703   4.127   5.675   2.126
 7602SOL     OW23704   0.251   2.074   0.428
 7602SOL    HW123705   0.268   1.976   0.438
 7602SOL    HW223706   0.258   2.118   0.517
 7603SOL     OW23707   2.411   6.950   5.848
 7603SOL    HW123708   2.393   6.983   5.941
 7603SOL    HW223709   2.469   7.016   5.800
 7604SOL     OW23710   1.287   2.262   4.961
 7604SOL    HW123711   1.284   2.351   4.915
 7604SOL    HW223712   1.268   2.190   4.896
 7605SOL     OW23713   2.362   0.135   7.001
 7605SOL    HW123714   2.311   0.207   6.953
 7605SOL    HW223715   2.460   0.155   6.995
 7606SOL     OW23716   6.254   1.504   4.426
 7606SOL    HW123717   6.192   1.542   4.495
 7606SOL    HW223718   6.274   1.573   4.357
 7607SOL     OW23719   3.408   6.528   6.349
 7607SOL    HW123720   3.417   6.578   6.434
 7607SOL    HW223721   3.487   6.468   6.336
 7608SOL     OW23722   5.436   2.396   6.291
 7608SOL    HW123723   5.444   2.314   6.348
 7608SOL    HW223724   5.493   2.468   6.330
 7609SOL     OW23725   0.777   2.784   3.839
 7609SOL    HW123726   0.804   2.803   3.934
 7609SOL    HW223727   0.818   2.698   3.809
 7610SOL     OW23728   3.501   5.155   6.396
 7610SOL    HW123729   3.577   5.093   6.377
 7610SOL    HW223730   3.506   5.234   6.335
 7611SOL     OW23731   4.781   3.240   1.122
 7611SOL    HW123732   4.739   3.329   1.141
 7611SOL    HW223733   4.715   3.167   1.144
 7612SOL     OW23734   3.215   1.927   3.237
 7612SOL    HW123735   3.159   1.874   3.174
 7612SOL    HW223736   3.246   1.868   3.312
 7613SOL     OW23737   1.242   1.456   2.349
 7613SOL    HW123738   1.321   1.500   2.392
 7613SOL    HW223739   1.265   1.431   2.255
 7614SOL     OW23740   5.163   3.273   1.035
 7614SOL    HW123741   5.252   3.244   1.000
 7614SOL    HW223742   5.112   3.319   0.963
 7615SOL     OW23743   5.270   3.087   4.924
 7615SOL    HW123744   5.203   3.116   4.992
 7615SOL    HW223745   5.361   3.085   4.966
 7616SOL     OW23746   5.821   6.689   3.351
 7616SOL    HW123747   5.920   6.693   3.357
 7616SOL    HW223748   5.794   6.618   3.286
 7617SOL     OW23749   5.019   5.349   3.301
 7617SOL    HW123750   5.090   5.279   3.311
 7617SOL    HW223751   5.053   5.436   3.335
 7618SOL     OW23752   2.557   2.197   0.243
 7618SOL    HW123753   2.509   2.123   0.289
 7618SOL    HW223754   2.491   2.264   0.208
 7619SOL     OW23755   1.065   1.881   4.228
 7619SOL    HW123756   1.129   1.910   4.300
 7619SOL    HW223757   1.033   1.961   4.178
 7620SOL     OW23758   3.576   4.490   1.263
 7620SOL    HW123759   3.554   4.453   1.173
 7620SOL    HW223760   3.644   4.431   1.307
 7621SOL     OW23761   0.399   5.897   0.970
 7621SOL    HW123762   0.376   5.990   0.941
 7621SOL    HW223763   0.316   5.842   0.974
 7622SOL     OW23764   4.394   4.598   0.749
 7622SOL    HW123765   4.374   4.525   0.684
 7622SOL    HW223766   4.345   4.681   0.723
 7623SOL     OW23767   4.430   4.828   1.484
 7623SOL    HW123768   4.519   4.863   1.456
 7623SOL    HW223769   4.440   4.772   1.566
 7624SOL     OW23770   0.314   2.328   1.932
 7624SOL    HW123771   0.252   2.349   2.007
 7624SOL    HW223772   0.314   2.229   1.915
 7625SOL     OW23773   5.111   1.815   0.301
 7625SOL    HW123774   5.024   1.862   0.287
 7625SOL    HW223775   5.102   1.752   0.378
 7626SOL     OW23776   5.308   0.413   5.524
 7626SOL    HW123777   5.361   0.490   5.559
 7626SOL    HW223778   5.284   0.352   5.599
 7627SOL     OW23779   2.977   2.377   0.288
 7627SOL    HW123780   3.037   2.379   0.208
 7627SOL    HW223781   2.962   2.470   0.321
 7628SOL     OW23782   3.308   2.105   0.485
 7628SOL    HW123783   3.221   2.148   0.462
 7628SOL    HW223784   3.318   2.019   0.433
 7629SOL     OW23785   5.659   3.104   3.890
 7629SOL    HW123786   5.731   3.172   3.878
 7629SOL    HW223787   5.600   3.102   3.810
 7630SOL     OW23788   1.432   0.544   4.978
 7630SOL    HW123789   1.369   0.466   4.978
 7630SOL    HW223790   1.462   0.563   4.885
 7631SOL     OW23791   1.769   0.281   5.358
 7631SOL    HW123792   1.739   0.316   5.269
 7631SOL    HW223793   1.715   0.324   5.430
 7632SOL     OW23794   4.928   5.798   0.860
 7632SOL    HW123795   4.953   5.894   0.872
 7632SOL    HW223796   4.829   5.790   0.849
 7633SOL     OW23797   5.853   0.758   0.897
 7633SOL    HW123798   5.822   0.663   0.910
 7633SOL    HW223799   5.864   0.801   0.987
 7634SOL     OW23800   1.343   2.142   1.100
 7634SOL    HW123801   1.411   2.140   1.027
 7634SOL    HW223802   1.341   2.054   1.146
 7635SOL     OW23803   2.690   5.073   5.011
 7635SOL    HW123804   2.596   5.078   4.980
 7635SOL    HW223805   2.694   5.023   5.098
 7636SOL     OW23806   0.687   4.790   4.758
 7636SOL    HW123807   0.747   4.833   4.825
 7636SOL    HW223808   0.740   4.766   4.676
 7637SOL     OW23809   0.441   6.622   4.274
 7637SOL    HW123810   0.390   6.539   4.253
 7637SOL    HW223811   0.457   6.674   4.190
 7638SOL     OW23812   0.718   5.139   1.753
 7638SOL    HW123813   0.624   5.166   1.772
 7638SOL    HW223814   0.768   5.132   1.839
 7639SOL     OW23815   0.929   0.942   0.074
 7639SOL    HW123816   0.848   0.902   0.116
 7639SOL    HW223817   0.902   0.996   7.014
 7640SOL     OW23818   2.945   0.850   6.450
 7640SOL    HW123819   2.885   0.772   6.430
 7640SOL    HW223820   2.904   0.906   6.521
 7641SOL     OW23821   6.808   4.072   2.776
 7641SOL    HW123822   6.825   4.131   2.696
 7641SOL    HW223823   6.727   4.016   2.759
 7642SOL     OW23824   5.663   1.564   3.411
 7642SOL    HW123825   5.569   1.595   3.403
 7642SOL    HW223826   5.722   1.619   3.352
 7643SOL     OW23827   5.067   2.609   3.167
 7643SOL    HW123828   5.067   2.659   3.080
 7643SOL    HW223829   5.129   2.531   3.162
 7644SOL     OW23830   4.518   3.033   1.451
 7644SOL    HW123831   4.572   3.109   1.487
 7644SOL    HW223832   4.524   2.956   1.514
 7645SOL     OW23833   3.450   3.702   6.061
 7645SOL    HW123834   3.366   3.685   6.010
 7645SOL    HW223835   3.430   3.703   6.159
 7646SOL     OW23836   1.080   2.619   2.797
 7646SOL    HW123837   1.034   2.550   2.852
 7646SOL    HW223838   1.016   2.659   2.732
 7647SOL     OW23839   6.942   3.336   4.944
 7647SOL    HW123840   6.930   3.402   5.018
 7647SOL    HW223841   6.856   3.326   4.894
 7648SOL     OW23842   1.984   2.456   3.129
 7648SOL    HW123843   1.996   2.361   3.157
 7648SOL    HW223844   1.931   2.505   3.198
 7649SOL     OW23845   6.553   0.887   4.447
 7649SOL    HW123846   6.552   0.987   4.455
 7649SOL    HW223847   6.613   0.849   4.517
 7650SOL     OW23848   4.285   0.699   1.497
 7650SOL    HW123849   4.281   0.672   1.401
 7650SOL    HW223850   4.202   0.667   1.544
 7651SOL     OW23851   2.392   5.189   4.724
 7651SOL    HW123852   2.349   5.122   4.784
 7651SOL    HW223853   2.475   5.149   4.684
 7652SOL     OW23854   6.296   1.712   4.660
 7652SOL    HW123855   6.394   1.727   4.656
 7652SOL    HW223856   6.276   1.639   4.726
 7653SOL     OW23857   0.457   2.046   6.655
 7653SOL    HW123858   0.503   2.116   6.599
 7653SOL    HW223859   0.395   1.993   6.597
 7654SOL     OW23860   6.245   3.390   5.110
 7654SOL    HW123861   6.214   3.477   5.073
 7654SOL    HW223862   6.278   3.404   5.204
 7655SOL     OW23863   2.788   0.894   3.525
 7655SOL    HW123864   2.732   0.816   3.496
 7655SOL    HW223865   2.744   0.979   3.494
 7656SOL     OW23866   6.770   3.934   6.364
 7656SOL    HW123867   6.771   3.969   6.270
 7656SOL    HW223868   6.836   3.859   6.372
 7657SOL     OW23869   1.453   4.040   4.836
 7657SOL    HW123870   1.492   4.062   4.925
 7657SOL    HW223871   1.469   4.117   4.773
 7658SOL     OW23872   2.559   0.517   0.658
 7658SOL    HW123873   2.598   0.427   0.640
 7658SOL    HW223874   2.486   0.535   0.592
 7659SOL     OW23875   4.937   3.999   5.233
 7659SOL    HW123876   4.921   3.906   5.266
 7659SOL    HW223877   4.888   4.013   5.147
 7660SOL     OW23878   6.880   4.938   4.271
 7660SOL    HW123879   6.880   5.038   4.270
 7660SOL    HW223880   6.906   4.905   4.361
 7661SOL     OW23881   4.749   2.348   5.680
 7661SOL    HW123882   4.785   2.414   5.613
 7661SOL    HW223883   4.823   2.288   5.710
 7662SOL     OW23884   1.125   1.953   2.282
 7662SOL    HW123885   1.200   1.904   2.237
 7662SOL    HW223886   1.039   1.932   2.235
 7663SOL     OW23887   6.016   4.850   5.678
 7663SOL    HW123888   5.965   4.924   5.635
 7663SOL    HW223889   6.033   4.873   5.774
 7664SOL     OW23890   4.047   1.369   3.107
 7664SOL    HW123891   4.086   1.453   3.143
 7664SOL    HW223892   3.956   1.388   3.069
 7665SOL     OW23893   4.195   2.234   4.113
 7665SOL    HW123894   4.210   2.150   4.165
 7665SOL    HW223895   4.266   2.301   4.136
 7666SOL     OW23896   6.190   5.260   3.510
 7666SOL    HW123897   6.240   5.196   3.451
 7666SOL    HW223898   6.092   5.247   3.498
 7667SOL     OW23899   4.996   5.718   2.129
 7667SOL    HW123900   5.052   5.702   2.211
 7667SOL    HW223901   4.899   5.723   2.156
 7668SOL     OW23902   2.223   5.432   0.971
 7668SOL    HW123903   2.295   5.363   0.970
 7668SOL    HW223904   2.148   5.401   1.030
 7669SOL     OW23905   3.262   6.349   6.050
 7669SOL    HW123906   3.222   6.372   5.962
 7669SOL    HW223907   3.254   6.427   6.112
 7670SOL     OW23908   0.173   6.578   7.001
 7670SOL    HW123909   0.110   6.637   6.951
 7670SOL    HW223910   0.132   6.550   0.068
 7671SOL     OW23911   5.475   0.456   1.813
 7671SOL    HW123912   5.462   0.525   1.742
 7671SOL    HW223913   5.437   0.489   1.899
 7672SOL     OW23914   5.282   4.761   3.151
 7672SOL    HW123915   5.254   4.832   3.216
 7672SOL    HW223916   5.316   4.681   3.200
 7673SOL     OW23917   0.941   5.534   3.840
 7673SOL    HW123918   1.019   5.549   3.900
 7673SOL    HW223919   0.948   5.444   3.797
 7674SOL     OW23920   3.548   0.137   4.324
 7674SOL    HW123921   3.610   0.203   4.281
 7674SOL    HW223922   3.456   0.177   4.329
 7675SOL     OW23923   3.729   6.760   2.845
 7675SOL    HW123924   3.666   6.732   2.773
 7675SOL    HW223925   3.822   6.735   2.819
 7676SOL     OW23926   2.847   3.299   5.859
 7676SOL    HW123927   2.922   3.243   5.892
 7676SOL    HW223928   2.882   3.387   5.826
 7677SOL     OW23929   5.880   4.359   1.495
 7677SOL    HW123930   5.885   4.401   1.586
 7677SOL    HW223931   5.802   4.296   1.492
 7678SOL     OW23932   1.596   1.818   5.720
 7678SOL    HW123933   1.613   1.787   5.814
 7678SOL    HW223934   1.561   1.742   5.666
 7679SOL     OW23935   2.126   5.567   4.906
 7679SOL    HW123936   2.120   5.664   4.930
 7679SOL    HW223937   2.049   5.542   4.847
 7680SOL     OW23938   1.886   0.821   5.200
 7680SOL    HW123939   1.852   0.728   5.193
 7680SOL    HW223940   1.962   0.835   5.137
 7681SOL     OW23941   3.138   2.913   6.224
 7681SOL    HW123942   3.214   2.965   6.185
 7681SOL    HW223943   3.172   2.824   6.256
 7682SOL     OW23944   2.593   1.778   3.216
 7682SOL    HW123945   2.606   1.842   3.293
 7682SOL    HW223946   2.514   1.720   3.234
 7683SOL     OW23947   0.163   1.376   4.640
 7683SOL    HW123948   0.194   1.323   4.720
 7683SOL    HW223949   0.100   1.320   4.586
 7684SOL     OW23950   4.032   2.585   1.641
 7684SOL    HW123951   3.995   2.496   1.669
 7684SOL    HW223952   3.970   2.657   1.672
 7685SOL     OW23953   2.951   0.751   0.271
 7685SOL    HW123954   2.970   0.665   0.317
 7685SOL    HW223955   3.022   0.818   0.294
 7686SOL     OW23956   4.929   0.245   4.382
 7686SOL    HW123957   4.949   0.342   4.379
 7686SOL    HW223958   4.884   0.217   4.297
 7687SOL     OW23959   5.662   5.138   4.451
 7687SOL    HW123960   5.753   5.151   4.490
 7687SOL    HW223961   5.622   5.227   4.429
 7688SOL     OW23962   0.687   5.034   6.188
 7688SOL    HW123963   0.743   5.060   6.267
 7688SOL    HW223964   0.672   4.935   6.188
 7689SOL     OW23965   4.983   0.514   1.649
 7689SOL    HW123966   4.947   0.588   1.591
 7689SOL    HW223967   4.941   0.520   1.739
 7690SOL     OW23968   6.462   4.984   0.575
 7690SOL    HW123969   6.515   4.977   0.660
 7690SOL    HW223970   6.380   4.928   0.582
 7691SOL     OW23971   4.414   4.547   3.592
 7691SOL    HW123972   4.401   4.612   3.666
 7691SOL    HW223973   4.473   4.472   3.623
 7692SOL     OW23974   1.016   6.337   2.361
 7692SOL    HW123975   0.952   6.298   2.294
 7692SOL    HW223976   0.971   6.342   2.450
 7693SOL     OW23977   2.390   0.969   1.170
 7693SOL    HW123978   2.474   0.999   1.124
 7693SOL    HW223979   2.339   1.050   1.200
 7694SOL     OW23980   6.165   2.647   4.515
 7694SOL    HW123981   6.195   2.710   4.587
 7694SOL    HW223982   6.185   2.686   4.426
 7695SOL     OW23983   6.466   0.492   3.189
 7695SOL    HW123984   6.563   0.510   3.170
 7695SOL    HW223985   6.409   0.544   3.125
 7696SOL     OW23986   0.475   2.585   6.520
 7696SOL    HW123987   0.534   2.628   6.588
 7696SOL    HW223988   0.385   2.568   6.560
 7697SOL     OW23989   4.001   0.085   2.912
 7697SOL    HW123990   4.005   0.180   2.942
 7697SOL    HW223991   4.092   0.044   2.915
 7698SOL     OW23992   6.491   1.925   6.839
 7698SOL    HW123993   6.580   1.970   6.846
 7698SOL    HW223994   6.503   1.826   6.843
 7699SOL     OW23995   3.485   5.472   6.531
 7699SOL    HW123996   3.436   5.498   6.614
 7699SOL    HW223997   3.582   5.493   6.543
 7700SOL     OW23998   4.816   5.912   2.610
 7700SOL    HW123999   4.780   5.891   2.701
 7700SOL    HW224000   4.750   5.970   2.561
 7701SOL     OW24001   0.319   2.742   5.952
 7701SOL    HW124002   0.278   2.692   5.876
 7701SOL    HW224003   0.258   2.815   5.980
 7702SOL     OW24004   4.339   7.012   4.776
 7702SOL    HW124005   4.280   0.068   4.747
 7702SOL    HW224006   4.422   7.011   4.721
 7703SOL     OW24007   6.377   6.449   4.238
 7703SOL    HW124008   6.359   6.518   4.308
 7703SOL    HW224009   6.293   6.428   4.189
 7704SOL     OW24010   6.169   1.419   4.086
 7704SOL    HW124011   6.215   1.496   4.131
 7704SOL    HW224012   6.116   1.368   4.153
 7705SOL     OW24013   2.101   4.788   0.434
 7705SOL    HW124014   2.115   4.689   0.434
 7705SOL    HW224015   2.016   4.810   0.481
 7706SOL     OW24016   3.573   2.901   2.770
 7706SOL    HW124017   3.588   2.959   2.689
 7706SOL    HW224018   3.642   2.829   2.773
 7707SOL     OW24019   6.727   5.693   6.873
 7707SOL    HW124020   6.745   5.612   6.927
 7707SOL    HW224021   6.814   5.739   6.852
 7708SOL     OW24022   2.438   6.613   4.433
 7708SOL    HW124023   2.348   6.649   4.457
 7708SOL    HW224024   2.480   6.571   4.514
 7709SOL     OW24025   6.828   4.439   1.042
 7709SOL    HW124026   6.838   4.494   1.125
 7709SOL    HW224027   6.912   4.445   0.987
 7710SOL     OW24028   1.626   3.275   0.792
 7710SOL    HW124029   1.708   3.242   0.838
 7710SOL    HW224030   1.648   3.303   0.698
 7711SOL     OW24031   6.299   4.597   5.385
 7711SOL    HW124032   6.385   4.564   5.347
 7711SOL    HW224033   6.308   4.608   5.484
 7712SOL     OW24034   6.512   4.966   6.311
 7712SOL    HW124035   6.578   5.014   6.254
 7712SOL    HW224036   6.424   4.962   6.263
 7713SOL     OW24037   1.885   4.934   0.650
 7713SOL    HW124038   1.792   4.945   0.685
 7713SOL    HW224039   1.936   4.873   0.711
 7714SOL     OW24040   6.722   0.714   4.060
 7714SOL    HW124041   6.648   0.779   4.076
 7714SOL    HW224042   6.767   0.693   4.146
 7715SOL     OW24043   1.793   2.763   6.264
 7715SOL    HW124044   1.776   2.857   6.235
 7715SOL    HW224045   1.831   2.763   6.356
 7716SOL     OW24046   0.699   5.600   6.391
 7716SOL    HW124047   0.786   5.649   6.398
 7716SOL    HW224048   0.710   5.521   6.330
 7717SOL     OW24049   1.325   2.050   6.720
 7717SOL    HW124050   1.394   2.058   6.791
 7717SOL    HW224051   1.235   2.071   6.759
 7718SOL     OW24052   1.610   4.290   2.700
 7718SOL    HW124053   1.690   4.279   2.759
 7718SOL    HW224054   1.538   4.227   2.730
 7719SOL     OW24055   1.901   4.015   4.488
 7719SOL    HW124056   1.839   3.948   4.529
 7719SOL    HW224057   1.992   3.975   4.477
 7720SOL     OW24058   6.413   1.681   6.461
 7720SOL    HW124059   6.503   1.651   6.428
 7720SOL    HW224060   6.419   1.706   6.557
 7721SOL     OW24061   1.039   0.108   2.844
 7721SOL    HW124062   1.068   0.182   2.784
 7721SOL    HW224063   1.065   0.020   2.805
 7722SOL     OW24064   2.510   5.537   4.070
 7722SOL    HW124065   2.511   5.455   4.128
 7722SOL    HW224066   2.453   5.519   3.990
 7723SOL     OW24067   4.963   3.353   0.252
 7723SOL    HW124068   5.060   3.328   0.248
 7723SOL    HW224069   4.913   3.303   0.181
 7724SOL     OW24070   2.814   4.128   1.579
 7724SOL    HW124071   2.812   4.139   1.480
 7724SOL    HW224072   2.795   4.033   1.603
 7725SOL     OW24073   5.670   2.702   2.704
 7725SOL    HW124074   5.738   2.673   2.636
 7725SOL    HW224075   5.717   2.742   2.783
 7726SOL     OW24076   0.428   3.271   6.224
 7726SOL    HW124077   0.505   3.306   6.276
 7726SOL    HW224078   0.360   3.232   6.286
 7727SOL     OW24079   4.742   2.515   2.038
 7727SOL    HW124080   4.773   2.604   2.072
 7727SOL    HW224081   4.682   2.473   2.105
 7728SOL     OW24082   2.223   3.112   4.834
 7728SOL    HW124083   2.286   3.169   4.782
 7728SOL    HW224084   2.270   3.073   4.913
 7729SOL     OW24085   6.078   2.356   3.226
 7729SOL    HW124086   6.122   2.306   3.301
 7729SOL    HW224087   6.117   2.448   3.220
 7730SOL     OW24088   5.974   4.935   5.189
 7730SOL    HW124089   6.066   4.950   5.223
 7730SOL    HW224090   5.931   4.860   5.240
 7731SOL     OW24091   5.470   0.138   0.385
 7731SOL    HW124092   5.447   0.043   0.362
 7731SOL    HW224093   5.521   0.179   0.310
 7732SOL     OW24094   4.484   0.492   6.494
 7732SOL    HW124095   4.531   0.458   6.413
 7732SOL    HW224096   4.386   0.480   6.483
 7733SOL     OW24097   6.450   5.989   2.271
 7733SOL    HW124098   6.519   5.962   2.204
 7733SOL    HW224099   6.489   6.058   2.333
 7734SOL     OW24100   2.797   4.223   5.303
 7734SOL    HW124101   2.779   4.126   5.286
 7734SOL    HW224102   2.877   4.252   5.252
 7735SOL     OW24103   6.417   6.442   0.013
 7735SOL    HW124104   6.338   6.424   0.071
 7735SOL    HW224105   6.458   6.356   7.003
 7736SOL     OW24106   3.070   2.834   0.518
 7736SOL    HW124107   3.162   2.817   0.555
 7736SOL    HW224108   3.072   2.915   0.460
 7737SOL     OW24109   4.085   5.145   1.091
 7737SOL    HW124110   4.164   5.136   1.152
 7737SOL    HW224111   4.001   5.143   1.146
 7738SOL     OW24112   2.832   6.136   6.851
 7738SOL    HW124113   2.755   6.080   6.881
 7738SOL    HW224114   2.843   6.214   6.913
 7739SOL     OW24115   1.236   2.616   1.578
 7739SOL    HW124116   1.215   2.706   1.615
 7739SOL    HW224117   1.239   2.620   1.478
 7740SOL     OW24118   0.969   0.875   3.997
 7740SOL    HW124119   1.006   0.967   4.010
 7740SOL    HW224120   1.044   0.809   3.991
 7741SOL     OW24121   1.615   4.828   6.182
 7741SOL    HW124122   1.612   4.749   6.122
 7741SOL    HW224123   1.707   4.868   6.179
 7742SOL     OW24124   3.762   1.477   3.976
 7742SOL    HW124125   3.742   1.526   4.060
 7742SOL    HW224126   3.837   1.413   3.992
 7743SOL     OW24127   5.197   1.030   6.749
 7743SOL    HW124128   5.218   1.112   6.803
 7743SOL    HW224129   5.145   0.966   6.805
 7744SOL     OW24130   0.445   5.687   4.702
 7744SOL    HW124131   0.516   5.730   4.645
 7744SOL    HW224132   0.440   5.590   4.681
 7745SOL     OW24133   1.625   6.410   0.005
 7745SOL    HW124134   1.674   6.453   0.081
 7745SOL    HW224135   1.556   6.474   6.990
 7746SOL     OW24136   1.162   6.405   1.080
 7746SOL    HW124137   1.136   6.311   1.056
 7746SOL    HW224138   1.084   6.452   1.122
 7747SOL     OW24139   0.135   6.337   0.957
 7747SOL    HW124140   0.208   6.398   0.989
 7747SOL    HW224141   0.075   6.388   0.896
 7748SOL     OW24142   4.073   2.594   6.050
 7748SOL    HW124143   4.043   2.534   5.976
 7748SOL    HW224144   4.046   2.688   6.030
 7749SOL     OW24145   3.246   3.778   4.052
 7749SOL    HW124146   3.310   3.765   4.128
 7749SOL    HW224147   3.218   3.690   4.016
 7750SOL     OW24148   5.916   4.324   5.737
 7750SOL    HW124149   6.010   4.343   5.766
 7750SOL    HW224150   5.868   4.275   5.810
 7751SOL     OW24151   6.988   1.713   4.990
 7751SOL    HW124152   0.034   1.681   4.922
 7751SOL    HW224153   6.994   1.654   5.071
 7752SOL     OW24154   5.724   5.490   5.053
 7752SOL    HW124155   5.641   5.454   5.010
 7752SOL    HW224156   5.804   5.447   5.010
 7753SOL     OW24157   2.393   0.489   4.040
 7753SOL    HW124158   2.322   0.418   4.046
 7753SOL    HW224159   2.349   0.579   4.034
 7754SOL     OW24160   5.911   0.523   1.203
 7754SOL    HW124161   5.841   0.500   1.135
 7754SOL    HW224162   5.986   0.572   1.158
 7755SOL     OW24163   0.206   6.061   5.530
 7755SOL    HW124164   0.236   6.077   5.624
 7755SOL    HW224165   0.131   6.123   5.508
 7756SOL     OW24166   2.717   4.756   2.497
 7756SOL    HW124167   2.706   4.684   2.429
 7756SOL    HW224168   2.809   4.795   2.490
 7757SOL     OW24169   4.467   6.305   5.495
 7757SOL    HW124170   4.385   6.356   5.468
 7757SOL    HW224171   4.496   6.335   5.586
 7758SOL     OW24172   2.313   2.683   6.191
 7758SOL    HW124173   2.310   2.677   6.291
 7758SOL    HW224174   2.408   2.695   6.161
 7759SOL     OW24175   2.039   0.353   4.350
 7759SOL    HW124176   2.005   0.444   4.372
 7759SOL    HW224177   2.072   0.352   4.256
 7760SOL     OW24178   5.436   3.084   2.049
 7760SOL    HW124179   5.471   2.997   2.013
 7760SOL    HW224180   5.500   3.119   2.118
 7761SOL     OW24181   3.317   6.961   6.278
 7761SOL    HW124182   3.414   6.984   6.271
 7761SOL    HW224183   3.306   6.871   6.320
 7762SOL     OW24184   4.157   1.435   0.619
 7762SOL    HW124185   4.066   1.465   0.589
 7762SOL    HW224186   4.164   1.336   0.607
 7763SOL     OW24187   1.409   1.426   0.913
 7763SOL    HW124188   1.469   1.501   0.887
 7763SOL    HW224189   1.455   1.368   0.980
 7764SOL     OW24190   4.054   3.093   2.484
 7764SOL    HW124191   3.991   3.034   2.536
 7764SOL    HW224192   4.085   3.044   2.403
 7765SOL     OW24193   6.191   3.326   3.330
 7765SOL    HW124194   6.199   3.425   3.314
 7765SOL    HW224195   6.279   3.282   3.312
 7766SOL     OW24196   6.295   1.521   0.099
 7766SOL    HW124197   6.262   1.566   0.182
 7766SOL    HW224198   6.315   1.589   0.029
 7767SOL     OW24199   4.056   6.205   3.819
 7767SOL    HW124200   4.128   6.177   3.881
 7767SOL    HW224201   4.003   6.125   3.791
 7768SOL     OW24202   3.380   4.927   2.296
 7768SOL    HW124203   3.455   4.914   2.232
 7768SOL    HW224204   3.293   4.916   2.248
 7769SOL     OW24205   4.736   2.177   0.864
 7769SOL    HW124206   4.689   2.184   0.776
 7769SOL    HW224207   4.701   2.098   0.914
 7770SOL     OW24208   2.935   4.916   1.765
 7770SOL    HW124209   3.013   4.977   1.782
 7770SOL    HW224210   2.890   4.942   1.680
 7771SOL     OW24211   2.660   1.986   4.928
 7771SOL    HW124212   2.666   1.954   4.834
 7771SOL    HW224213   2.713   2.071   4.938
 7772SOL     OW24214   4.712   0.920   4.199
 7772SOL    HW124215   4.776   0.996   4.190
 7772SOL    HW224216   4.762   0.833   4.203
 7773SOL     OW24217   4.299   3.867   6.058
 7773SOL    HW124218   4.237   3.809   6.111
 7773SOL    HW224219   4.381   3.886   6.112
 7774SOL     OW24220   5.480   1.254   5.971
 7774SOL    HW124221   5.395   1.271   5.922
 7774SOL    HW224222   5.556   1.297   5.922
 7775SOL     OW24223   3.709   6.680   3.124
 7775SOL    HW124224   3.615   6.697   3.155
 7775SOL    HW224225   3.717   6.705   3.027
 7776SOL     OW24226   3.744   3.223   6.083
 7776SOL    HW124227   3.717   3.154   6.017
 7776SOL    HW224228   3.666   3.282   6.104
 7777SOL     OW24229   1.971   1.047   6.673
 7777SOL    HW124230   1.928   1.019   6.587
 7777SOL    HW224231   1.949   0.980   6.744
 7778SOL     OW24232   5.379   0.458   0.285
 7778SOL    HW124233   5.402   0.492   0.193
 7778SOL    HW224234   5.463   0.448   0.338
 7779SOL     OW24235   3.520   2.095   1.139
 7779SOL    HW124236   3.593   2.146   1.093
 7779SOL    HW224237   3.437   2.099   1.084
 7780SOL     OW24238   1.069   6.171   4.016
 7780SOL    HW124239   1.074   6.097   4.082
 7780SOL    HW224240   1.146   6.233   4.029
 7781SOL     OW24241   1.639   3.530   5.791
 7781SOL    HW124242   1.677   3.584   5.715
 7781SOL    HW224243   1.571   3.585   5.840
 7782SOL     OW24244   2.402   4.127   6.613
 7782SOL    HW124245   2.478   4.151   6.553
 7782SOL    HW224246   2.316   4.149   6.568
 7783SOL     OW24247   2.583   6.376   6.703
 7783SOL    HW124248   2.553   6.469   6.680
 7783SOL    HW224249   2.513   6.310   6.674
 7784SOL     OW24250   0.562   2.517   7.015
 7784SOL    HW124251   0.547   2.419   7.006
 7784SOL    HW224252   0.637   2.534   0.060
 7785SOL     OW24253   2.314   6.542   3.626
 7785SOL    HW124254   2.254   6.474   3.584
 7785SOL    HW224255   2.407   6.531   3.590
 7786SOL     OW24256   3.141   4.693   5.310
 7786SOL    HW124257   3.094   4.762   5.366
 7786SOL    HW224258   3.075   4.648   5.250
 7787SOL     OW24259   2.272   2.852   5.254
 7787SOL    HW124260   2.323   2.904   5.185
 7787SOL    HW224261   2.318   2.765   5.272
 7788SOL     OW24262   1.326   1.803   1.665
 7788SOL    HW124263   1.287   1.717   1.695
 7788SOL    HW224264   1.411   1.786   1.615
 7789SOL     OW24265   2.955   0.525   0.917
 7789SOL    HW124266   2.951   0.458   0.843
 7789SOL    HW224267   2.880   0.590   0.909
 7790SOL     OW24268   6.674   4.122   3.030
 7790SOL    HW124269   6.741   4.103   2.958
 7790SOL    HW224270   6.675   4.048   3.097
 7791SOL     OW24271   2.655   5.950   4.631
 7791SOL    HW124272   2.614   5.991   4.549
 7791SOL    HW224273   2.743   5.992   4.650
 7792SOL     OW24274   1.946   5.950   6.311
 7792SOL    HW124275   1.914   5.969   6.218
 7792SOL    HW224276   2.039   5.913   6.307
 7793SOL     OW24277   1.617   1.246   5.660
 7793SOL    HW124278   1.606   1.283   5.568
 7793SOL    HW224279   1.689   1.296   5.708
 7794SOL     OW24280   4.954   5.339   4.309
 7794SOL    HW124281   4.937   5.279   4.387
 7794SOL    HW224282   5.006   5.419   4.339
 7795SOL     OW24283   1.960   4.104   5.601
 7795SOL    HW124284   1.967   4.013   5.559
 7795SOL    HW224285   1.901   4.162   5.545
 7796SOL     OW24286   3.800   3.958   3.730
 7796SOL    HW124287   3.725   3.934   3.792
 7796SOL    HW224288   3.885   3.969   3.782
 7797SOL     OW24289   0.304   6.348   3.075
 7797SOL    HW124290   0.238   6.421   3.092
 7797SOL    HW224291   0.395   6.377   3.107
 7798SOL     OW24292   3.046   5.627   7.015
 7798SOL    HW124293   3.071   5.554   6.951
 7798SOL    HW224294   2.975   5.684   6.974
 7799SOL     OW24295   6.722   5.391   0.943
 7799SOL    HW124296   6.735   5.485   0.913
 7799SOL    HW224297   6.677   5.338   0.871
 7800SOL     OW24298   0.327   4.998   1.578
 7800SOL    HW124299   0.285   4.913   1.610
 7800SOL    HW224300   0.426   4.995   1.596
 7801SOL     OW24301   2.355   1.220   0.099
 7801SOL    HW124302   2.263   1.235   0.134
 7801SOL    HW224303   2.351   1.192   0.003
 7802SOL     OW24304   5.808   2.671   1.997
 7802SOL    HW124305   5.828   2.742   1.929
 7802SOL    HW224306   5.754   2.599   1.954
 7803SOL     OW24307   4.277   3.814   5.777
 7803SOL    HW124308   4.269   3.888   5.710
 7803SOL    HW224309   4.276   3.853   5.869
 7804SOL     OW24310   5.630   1.337   4.596
 7804SOL    HW124311   5.535   1.331   4.568
 7804SOL    HW224312   5.638   1.398   4.675
 7805SOL     OW24313   5.433   2.009   1.902
 7805SOL    HW124314   5.469   1.916   1.910
 7805SOL    HW224315   5.438   2.054   1.991
 7806SOL     OW24316   5.469   2.888   6.163
 7806SOL    HW124317   5.399   2.933   6.109
 7806SOL    HW224318   5.496   2.803   6.117
 7807SOL     OW24319   0.281   4.658   6.311
 7807SOL    HW124320   0.280   4.665   6.212
 7807SOL    HW224321   0.375   4.662   6.344
 7808SOL     OW24322   0.632   1.576   5.020
 7808SOL    HW124323   0.681   1.650   4.973
 7808SOL    HW224324   0.659   1.574   5.116
 7809SOL     OW24325   2.019   5.582   4.461
 7809SOL    HW124326   2.112   5.563   4.432
 7809SOL    HW224327   2.020   5.652   4.533
 7810SOL     OW24328   2.955   0.750   5.638
 7810SOL    HW124329   3.028   0.814   5.659
 7810SOL    HW224330   2.915   0.715   5.723
 7811SOL     OW24331   5.586   4.902   3.829
 7811SOL    HW124332   5.591   4.977   3.763
 7811SOL    HW224333   5.611   4.817   3.784
 7812SOL     OW24334   1.602   1.768   4.711
 7812SOL    HW124335   1.517   1.734   4.751
 7812SOL    HW224336   1.593   1.866   4.691
 7813SOL     OW24337   5.407   2.884   7.015
 7813SOL    HW124338   5.327   2.925   0.039
 7813SOL    HW224339   5.482   2.950   7.012
 7814SOL     OW24340   7.003   2.790   3.605
 7814SOL    HW124341   6.935   2.757   3.670
 7814SOL    HW224342   0.071   2.748   3.625
 7815SOL     OW24343   5.473   1.594   6.958
 7815SOL    HW124344   5.499   1.676   7.008
 7815SOL    HW224345   5.497   1.605   6.861
 7816SOL     OW24346   0.546   3.624   5.755
 7816SOL    HW124347   0.582   3.709   5.794
 7816SOL    HW224348   0.606   3.594   5.681
 7817SOL     OW24349   5.790   4.096   4.306
 7817SOL    HW124350   5.694   4.065   4.305
 7817SOL    HW224351   5.792   4.195   4.322
 7818SOL     OW24352   6.163   6.684   1.083
 7818SOL    HW124353   6.159   6.671   1.182
 7818SOL    HW224354   6.246   6.641   1.047
 7819SOL     OW24355   6.835   2.667   0.982
 7819SOL    HW124356   6.745   2.696   0.949
 7819SOL    HW224357   6.885   2.623   0.908
 7820SOL     OW24358   2.163   1.796   5.511
 7820SOL    HW124359   2.242   1.853   5.533
 7820SOL    HW224360   2.091   1.854   5.472
 7821SOL     OW24361   3.848   5.712   1.053
 7821SOL    HW124362   3.920   5.778   1.032
 7821SOL    HW224363   3.769   5.760   1.091
 7822SOL     OW24364   0.554   6.175   5.104
 7822SOL    HW124365   0.552   6.231   5.022
 7822SOL    HW224366   0.592   6.228   5.180
 7823SOL     OW24367   2.266   4.220   4.792
 7823SOL    HW124368   2.334   4.171   4.847
 7823SOL    HW224369   2.288   4.317   4.792
 7824SOL     OW24370   6.964   2.485   5.010
 7824SOL    HW124371   6.978   2.441   4.921
 7824SOL    HW224372   6.944   2.415   5.078
 7825SOL     OW24373   2.164   2.679   6.641
 7825SOL    HW124374   2.147   2.700   6.737
 7825SOL    HW224375   2.133   2.586   6.620
 7826SOL     OW24376   6.735   2.119   0.268
 7826SOL    HW124377   6.659   2.071   0.313
 7826SOL    HW224378   6.801   2.052   0.234
 7827SOL     OW24379   0.161   5.945   2.786
 7827SOL    HW124380   0.142   6.009   2.712
 7827SOL    HW224381   0.174   5.853   2.749
 7828SOL     OW24382   6.963   3.749   6.430
 7828SOL    HW124383   6.983   3.671   6.371
 7828SOL    HW224384   0.010   3.753   6.504
 7829SOL     OW24385   3.237   2.987   1.436
 7829SOL    HW124386   3.174   3.064   1.425
 7829SOL    HW224387   3.218   2.918   1.366
 7830SOL     OW24388   3.225   5.396   4.646
 7830SOL    HW124389   3.281   5.371   4.568
 7830SOL    HW224390   3.131   5.367   4.631
 7831SOL     OW24391   1.799   1.711   1.231
 7831SOL    HW124392   1.852   1.793   1.255
 7831SOL    HW224393   1.702   1.735   1.224
 7832SOL     OW24394   5.697   0.705   5.066
 7832SOL    HW124395   5.660   0.780   5.121
 7832SOL    HW224396   5.657   0.708   4.975
 7833SOL     OW24397   1.434   0.091   4.013
 7833SOL    HW124398   1.372   0.036   4.070
 7833SOL    HW224399   1.389   0.177   3.988
 7834SOL     OW24400   6.545   2.392   4.323
 7834SOL    HW124401   6.518   2.347   4.238
 7834SOL    HW224402   6.467   2.397   4.384
 7835SOL     OW24403   4.284   1.721   5.473
 7835SOL    HW124404   4.343   1.784   5.422
 7835SOL    HW224405   4.289   1.630   5.432
 7836SOL     OW24406   3.902   4.142   5.214
 7836SOL    HW124407   3.988   4.125   5.262
 7836SOL    HW224408   3.915   4.122   5.116
 7837SOL     OW24409   5.955   6.471   0.326
 7837SOL    HW124410   5.891   6.400   0.355
 7837SOL    HW224411   5.978   6.529   0.404
 7838SOL     OW24412   5.588   5.504   1.323
 7838SOL    HW124413   5.595   5.473   1.228
 7838SOL    HW224414   5.675   5.489   1.369
 7839SOL     OW24415   6.334   4.435   4.360
 7839SOL    HW124416   6.428   4.411   4.339
 7839SOL    HW224417   6.328   4.534   4.377
 7840SOL     OW24418   1.602   4.384   3.554
 7840SOL    HW124419   1.640   4.460   3.606
 7840SOL    HW224420   1.503   4.379   3.569
 7841SOL     OW24421   5.104   1.990   6.519
 7841SOL    HW124422   5.063   1.944   6.597
 7841SOL    HW224423   5.031   2.026   6.460
 7842SOL     OW24424   2.149   1.349   2.909
 7842SOL    HW124425   2.064   1.303   2.934
 7842SOL    HW224426   2.132   1.447   2.897
 7843SOL     OW24427   6.859   6.645   4.122
 7843SOL    HW124428   6.784   6.593   4.162
 7843SOL    HW224429   6.946   6.599   4.139
 7844SOL     OW24430   3.515   1.393   2.569
 7844SOL    HW124431   3.578   1.337   2.623
 7844SOL    HW224432   3.424   1.391   2.611
 7845SOL     OW24433   5.922   1.429   2.096
 7845SOL    HW124434   5.927   1.329   2.098
 7845SOL    HW224435   5.838   1.459   2.139
 7846SOL     OW24436   1.374   2.729   0.326
 7846SOL    HW124437   1.422   2.814   0.345
 7846SOL    HW224438   1.276   2.742   0.341
 7847SOL     OW24439   6.208   2.508   3.933
 7847SOL    HW124440   6.296   2.530   3.890
 7847SOL    HW224441   6.220   2.433   3.997
 7848SOL     OW24442   2.646   4.488   0.880
 7848SOL    HW124443   2.671   4.418   0.946
 7848SOL    HW224444   2.549   4.481   0.858
 7849SOL     OW24445   5.498   3.401   5.873
 7849SOL    HW124446   5.409   3.435   5.903
 7849SOL    HW224447   5.499   3.391   5.774
 7850SOL     OW24448   7.017   1.312   3.552
 7850SOL    HW124449   0.067   1.367   3.597
 7850SOL    HW224450   6.948   1.285   3.619
 7851SOL     OW24451   1.238   3.930   1.350
 7851SOL    HW124452   1.208   3.916   1.256
 7851SOL    HW224453   1.301   4.008   1.353
 7852SOL     OW24454   2.593   1.791   0.158
 7852SOL    HW124455   2.577   1.854   0.233
 7852SOL    HW224456   2.613   1.700   0.195
 7853SOL     OW24457   3.785   3.249   1.603
 7853SOL    HW124458   3.724   3.171   1.614
 7853SOL    HW224459   3.826   3.246   1.512
 7854SOL     OW24460   4.584   1.812   6.144
 7854SOL    HW124461   4.551   1.891   6.092
 7854SOL    HW224462   4.544   1.728   6.106
 7855SOL     OW24463   5.171   6.717   4.692
 7855SOL    HW124464   5.187   6.648   4.622
 7855SOL    HW224465   5.239   6.706   4.765
 7856SOL     OW24466   1.815   4.985   4.637
 7856SOL    HW124467   1.888   4.992   4.704
 7856SOL    HW224468   1.842   4.921   4.565
 7857SOL     OW24469   5.461   3.860   0.262
 7857SOL    HW124470   5.452   3.842   0.360
 7857SOL    HW224471   5.504   3.950   0.248
 7858SOL     OW24472   0.317   5.554   5.840
 7858SOL    HW124473   0.300   5.570   5.938
 7858SOL    HW224474   0.231   5.525   5.796
 7859SOL     OW24475   5.167   2.981   6.488
 7859SOL    HW124476   5.077   3.025   6.496
 7859SOL    HW224477   5.225   3.010   6.563
 7860SOL     OW24478   2.975   1.122   4.681
 7860SOL    HW124479   2.939   1.043   4.631
 7860SOL    HW224480   2.962   1.108   4.779
 7861SOL     OW24481   2.593   5.819   1.501
 7861SOL    HW124482   2.522   5.860   1.558
 7861SOL    HW224483   2.591   5.860   1.410
 7862SOL     OW24484   3.003   5.776   1.681
 7862SOL    HW124485   2.966   5.683   1.673
 7862SOL    HW224486   2.930   5.842   1.663
 7863SOL     OW24487   6.774   4.310   3.470
 7863SOL    HW124488   6.828   4.385   3.506
 7863SOL    HW224489   6.684   4.308   3.515
 7864SOL     OW24490   2.236   5.855   6.157
 7864SOL    HW124491   2.255   5.781   6.093
 7864SOL    HW224492   2.202   5.934   6.107
 7865SOL     OW24493   6.430   6.311   3.894
 7865SOL    HW124494   6.508   6.280   3.949
 7865SOL    HW224495   6.423   6.256   3.811
 7866SOL     OW24496   2.039   0.401   6.030
 7866SOL    HW124497   1.939   0.396   6.029
 7866SOL    HW224498   2.070   0.434   6.119
 7867SOL     OW24499   5.516   0.531   3.944
 7867SOL    HW124500   5.613   0.513   3.932
 7867SOL    HW224501   5.503   0.596   4.019
 7868SOL     OW24502   4.407   5.928   1.031
 7868SOL    HW124503   4.403   5.966   1.123
 7868SOL    HW224504   4.331   5.963   0.977
 7869SOL     OW24505   5.902   4.159   5.527
 7869SOL    HW124506   5.903   4.209   5.613
 7869SOL    HW224507   5.832   4.196   5.467
 7870SOL     OW24508   4.278   6.235   5.098
 7870SOL    HW124509   4.308   6.270   5.009
 7870SOL    HW224510   4.274   6.310   5.164
 7871SOL     OW24511   5.307   1.382   2.211
 7871SOL    HW124512   5.352   1.310   2.265
 7871SOL    HW224513   5.319   1.470   2.257
 7872SOL     OW24514   1.701   4.993   2.588
 7872SOL    HW124515   1.784   4.951   2.549
 7872SOL    HW224516   1.724   5.084   2.623
 7873SOL     OW24517   0.105   1.195   0.664
 7873SOL    HW124518   0.147   1.225   0.750
 7873SOL    HW224519   0.177   1.164   0.602
 7874SOL     OW24520   5.704   2.607   1.231
 7874SOL    HW124521   5.803   2.595   1.242
 7874SOL    HW224522   5.656   2.556   1.302
 7875SOL     OW24523   3.713   4.102   6.979
 7875SOL    HW124524   3.656   4.084   6.899
 7875SOL    HW224525   3.809   4.091   6.955
 7876SOL     OW24526   0.447   0.102   2.529
 7876SOL    HW124527   0.510   0.156   2.584
 7876SOL    HW224528   0.375   0.065   2.588
 7877SOL     OW24529   6.581   1.830   3.052
 7877SOL    HW124530   6.645   1.812   3.126
 7877SOL    HW224531   6.610   1.912   3.002
 7878SOL     OW24532   4.759   4.524   3.578
 7878SOL    HW124533   4.821   4.546   3.653
 7878SOL    HW224534   4.666   4.512   3.613
 7879SOL     OW24535   2.920   5.057   3.627
 7879SOL    HW124536   3.000   5.016   3.584
 7879SOL    HW224537   2.837   5.019   3.587
 7880SOL     OW24538   2.307   3.962   1.678
 7880SOL    HW124539   2.252   3.932   1.756
 7880SOL    HW224540   2.287   3.906   1.598
 7881SOL     OW24541   4.936   3.638   4.591
 7881SOL    HW124542   4.948   3.737   4.579
 7881SOL    HW224543   4.912   3.618   4.686
 7882SOL     OW24544   2.370   3.539   1.241
 7882SOL    HW124545   2.401   3.447   1.266
 7882SOL    HW224546   2.443   3.605   1.259
 7883SOL     OW24547   0.789   1.161   5.360
 7883SOL    HW124548   0.864   1.190   5.420
 7883SOL    HW224549   0.812   1.185   5.265
 7884SOL     OW24550   0.613   3.124   4.802
 7884SOL    HW124551   0.680   3.198   4.794
 7884SOL    HW224552   0.637   3.066   4.881
 7885SOL     OW24553   6.018   5.310   0.693
 7885SOL    HW124554   6.029   5.401   0.735
 7885SOL    HW224555   6.097   5.253   0.717
 7886SOL     OW24556   4.859   5.107   0.288
 7886SOL    HW124557   4.892   5.168   0.361
 7886SOL    HW224558   4.778   5.148   0.246
 7887SOL     OW24559   4.827   1.801   6.960
 7887SOL    HW124560   4.797   1.896   6.952
 7887SOL    HW224561   4.750   1.740   6.940
 7888SOL     OW24562   5.008   0.489   4.530
 7888SOL    HW124563   5.097   0.534   4.537
 7888SOL    HW224564   4.937   0.549   4.567
 7889SOL     OW24565   0.347   5.546   2.274
 7889SOL    HW124566   0.444   5.524   2.279
 7889SOL    HW224567   0.335   5.645   2.276
 7890SOL     OW24568   2.142   3.790   2.357
 7890SOL    HW124569   2.228   3.828   2.324
 7890SOL    HW224570   2.088   3.862   2.400
 7891SOL     OW24571   2.679   4.603   2.276
 7891SOL    HW124572   2.634   4.647   2.199
 7891SOL    HW224573   2.770   4.572   2.249
 7892SOL     OW24574   2.083   2.678   5.816
 7892SOL    HW124575   2.141   2.754   5.847
 7892SOL    HW224576   2.139   2.613   5.765
 7893SOL     OW24577   5.558   6.611   0.613
 7893SOL    HW124578   5.649   6.646   0.632
 7893SOL    HW224579   5.521   6.654   0.531
 7894SOL     OW24580   2.399   6.276   2.294
 7894SOL    HW124581   2.494   6.302   2.313
 7894SOL    HW224582   2.390   6.254   2.196
 7895SOL     OW24583   6.251   0.913   4.791
 7895SOL    HW124584   6.216   0.820   4.783
 7895SOL    HW224585   6.212   0.970   4.719
 7896SOL     OW24586   5.219   4.026   5.656
 7896SOL    HW124587   5.172   4.048   5.571
 7896SOL    HW224588   5.160   4.050   5.734
 7897SOL     OW24589   2.190   3.728   7.004
 7897SOL    HW124590   2.253   3.665   6.959
 7897SOL    HW224591   2.219   3.822   6.985
 7898SOL     OW24592   3.981   2.198   3.927
 7898SOL    HW124593   4.064   2.199   3.983
 7898SOL    HW224594   3.949   2.292   3.913
 7899SOL     OW24595   5.821   2.366   2.433
 7899SOL    HW124596   5.839   2.283   2.486
 7899SOL    HW224597   5.773   2.342   2.349
 7900SOL     OW24598   1.665   5.866   1.187
 7900SOL    HW124599   1.699   5.921   1.110
 7900SOL    HW224600   1.577   5.902   1.217
 7901SOL     OW24601   6.666   6.354   6.293
 7901SOL    HW124602   6.763   6.332   6.283
 7901SOL    HW224603   6.619   6.336   6.207
 7902SOL     OW24604   4.640   4.588   0.883
 7902SOL    HW124605   4.540   4.588   0.873
 7902SOL    HW224606   4.664   4.583   0.979
 7903SOL     OW24607   6.620   1.745   0.241
 7903SOL    HW124608   6.713   1.777   0.253
 7903SOL    HW224609   6.563   1.780   0.315
 7904SOL     OW24610   0.355   1.557   2.431
 7904SOL    HW124611   0.321   1.633   2.486
 7904SOL    HW224612   0.281   1.492   2.413
 7905SOL     OW24613   4.316   0.858   1.109
 7905SOL    HW124614   4.370   0.898   1.183
 7905SOL    HW224615   4.344   0.899   1.022
 7906SOL     OW24616   5.703   5.664   6.511
 7906SOL    HW124617   5.776   5.607   6.471
 7906SOL    HW224618   5.711   5.757   6.476
 7907SOL     OW24619   6.814   2.758   3.816
 7907SOL    HW124620   6.735   2.705   3.784
 7907SOL    HW224621   6.785   2.821   3.888
 7908SOL     OW24622   6.925   1.231   4.129
 7908SOL    HW124623   6.946   1.199   4.037
 7908SOL    HW224624   6.874   1.317   4.123
 7909SOL     OW24625   4.833   4.471   4.740
 7909SOL    HW124626   4.852   4.453   4.836
 7909SOL    HW224627   4.753   4.530   4.733
 7910SOL     OW24628   4.596   3.489   5.616
 7910SOL    HW124629   4.523   3.557   5.622
 7910SOL    HW224630   4.608   3.447   5.706
 7911SOL     OW24631   6.422   4.501   0.646
 7911SOL    HW124632   6.484   4.427   0.621
 7911SOL    HW224633   6.336   4.491   0.597
 7912SOL     OW24634   6.121   4.346   6.046
 7912SOL    HW124635   6.175   4.372   5.966
 7912SOL    HW224636   6.116   4.424   6.109
 7913SOL     OW24637   6.982   5.485   6.783
 7913SOL    HW124638   6.988   5.476   6.882
 7913SOL    HW224639   0.035   5.431   6.740
 7914SOL     OW24640   6.126   3.759   1.124
 7914SOL    HW124641   6.208   3.738   1.178
 7914SOL    HW224642   6.151   3.768   1.028
 7915SOL     OW24643   4.033   1.704   3.396
 7915SOL    HW124644   4.066   1.624   3.445
 7915SOL    HW224645   3.959   1.747   3.448
 7916SOL     OW24646   5.337   3.063   5.772
 7916SOL    HW124647   5.414   3.037   5.714
 7916SOL    HW224648   5.256   3.076   5.716
 7917SOL     OW24649   4.071   3.372   4.858
 7917SOL    HW124650   4.163   3.336   4.843
 7917SOL    HW224651   4.073   3.438   4.933
 7918SOL     OW24652   6.435   1.134   2.733
 7918SOL    HW124653   6.363   1.086   2.782
 7918SOL    HW224654   6.523   1.092   2.755
 7919SOL     OW24655   5.423   4.959   2.016
 7919SOL    HW124656   5.359   4.902   2.069
 7919SOL    HW224657   5.383   4.981   1.927
 7920SOL     OW24658   0.173   5.004   1.367
 7920SOL    HW124659   0.219   4.945   1.301
 7920SOL    HW224660   0.231   5.015   1.448
 7921SOL     OW24661   2.683   6.957   1.675
 7921SOL    HW124662   2.644   0.010   1.731
 7921SOL    HW224663   2.745   6.902   1.730
 7922SOL     OW24664   1.139   5.505   6.723
 7922SOL    HW124665   1.077   5.573   6.762
 7922SOL    HW224666   1.230   5.515   6.763
 7923SOL     OW24667   1.248   1.083   3.451
 7923SOL    HW124668   1.238   1.009   3.384
 7923SOL    HW224669   1.191   1.160   3.423
 7924SOL     OW24670   2.989   0.175   3.642
 7924SOL    HW124671   2.907   0.174   3.699
 7924SOL    HW224672   2.994   0.091   3.589
 7925SOL     OW24673   6.210   1.484   6.494
 7925SOL    HW124674   6.248   1.450   6.580
 7925SOL    HW224675   6.281   1.530   6.442
 7926SOL     OW24676   3.080   0.508   2.589
 7926SOL    HW124677   2.985   0.527   2.613
 7926SOL    HW224678   3.101   0.548   2.500
 7927SOL     OW24679   3.827   5.242   5.217
 7927SOL    HW124680   3.850   5.338   5.201
 7927SOL    HW224681   3.907   5.185   5.195
 7928SOL     OW24682   2.220   5.403   2.969
 7928SOL    HW124683   2.252   5.321   3.017
 7928SOL    HW224684   2.156   5.376   2.897
 7929SOL     OW24685   3.935   3.426   4.625
 7929SOL    HW124686   3.988   3.387   4.550
 7929SOL    HW224687   3.976   3.397   4.712
 7930SOL     OW24688   4.152   5.437   3.544
 7930SOL    HW124689   4.122   5.349   3.507
 7930SOL    HW224690   4.186   5.495   3.470
 7931SOL     OW24691   2.061   2.455   0.483
 7931SOL    HW124692   2.076   2.496   0.393
 7931SOL    HW224693   2.117   2.373   0.492
 7932SOL     OW24694   2.010   6.914   6.947
 7932SOL    HW124695   1.914   6.919   6.973
 7932SOL    HW224696   2.055   6.839   6.996
 7933SOL     OW24697   1.170   6.985   6.785
 7933SOL    HW124698   1.160   6.928   6.703
 7933SOL    HW224699   1.106   0.041   6.782
 7934SOL     OW24700   2.987   4.133   0.447
 7934SOL    HW124701   2.956   4.124   0.541
 7934SOL    HW224702   3.079   4.096   0.438
 7935SOL     OW24703   4.989   6.052   0.939
 7935SOL    HW124704   4.904   6.098   0.962
 7935SOL    HW224705   5.059   6.074   1.007
 7936SOL     OW24706   4.204   6.332   3.075
 7936SOL    HW124707   4.186   6.406   3.011
 7936SOL    HW224708   4.295   6.344   3.115
 7937SOL     OW24709   5.769   6.376   5.554
 7937SOL    HW124710   5.707   6.303   5.526
 7937SOL    HW224711   5.814   6.351   5.640
 7938SOL     OW24712   4.188   5.483   4.727
 7938SOL    HW124713   4.281   5.459   4.757
 7938SOL    HW224714   4.129   5.491   4.808
 7939SOL     OW24715   0.315   1.392   5.562
 7939SOL    HW124716   0.339   1.410   5.467
 7939SOL    HW224717   0.398   1.385   5.617
 7940SOL     OW24718   2.194   5.358   1.662
 7940SOL    HW124719   2.223   5.263   1.668
 7940SOL    HW224720   2.273   5.415   1.637
 7941SOL     OW24721   0.562   0.946   0.694
 7941SOL    HW124722   0.464   0.927   0.707
 7941SOL    HW224723   0.579   1.043   0.712
 7942SOL     OW24724   0.167   0.053   1.965
 7942SOL    HW124725   0.258   0.055   2.006
 7942SOL    HW224726   0.114   6.998   2.005
 7943SOL     OW24727   5.333   2.406   0.848
 7943SOL    HW124728   5.257   2.413   0.913
 7943SOL    HW224729   5.334   2.486   0.788
 7944SOL     OW24730   0.350   3.716   1.152
 7944SOL    HW124731   0.417   3.790   1.164
 7944SOL    HW224732   0.280   3.745   1.088
 7945SOL     OW24733   5.342   6.581   2.931
 7945SOL    HW124734   5.294   6.530   2.859
 7945SOL    HW224735   5.276   6.639   2.980
 7946SOL     OW24736   1.867   2.533   6.136
 7946SOL    HW124737   1.847   2.613   6.193
 7946SOL    HW224738   1.889   2.562   6.044
 7947SOL     OW24739   4.007   2.829   6.555
 7947SOL    HW124740   4.076   2.785   6.612
 7947SOL    HW224741   3.980   2.766   6.482
 7948SOL     OW24742   6.515   6.895   0.650
 7948SOL    HW124743   6.532   6.981   0.698
 7948SOL    HW224744   6.590   6.832   0.668
 7949SOL     OW24745   5.500   5.145   3.429
 7949SOL    HW124746   5.524   5.229   3.380
 7949SOL    HW224747   5.556   5.137   3.512
 7950SOL     OW24748   4.302   4.638   4.285
 7950SOL    HW124749   4.269   4.694   4.361
 7950SOL    HW224750   4.247   4.657   4.204
 7951SOL     OW24751   3.107   3.507   0.522
 7951SOL    HW124752   3.167   3.440   0.480
 7951SOL    HW224753   3.013   3.473   0.522
 7952SOL     OW24754   6.246   2.519   0.442
 7952SOL    HW124755   6.281   2.594   0.385
 7952SOL    HW224756   6.318   2.451   0.456
 7953SOL     OW24757   2.500   2.434   3.305
 7953SOL    HW124758   2.468   2.527   3.286
 7953SOL    HW224759   2.447   2.369   3.250
 7954SOL     OW24760   4.110   5.206   5.122
 7954SOL    HW124761   4.148   5.298   5.110
 7954SOL    HW224762   4.158   5.159   5.196
 7955SOL     OW24763   6.987   6.167   6.818
 7955SOL    HW124764   0.050   6.162   6.874
 7955SOL    HW224765   6.989   6.096   6.748
 7956SOL     OW24766   6.999   6.133   3.587
 7956SOL    HW124767   0.004   6.122   3.684
 7956SOL    HW224768   0.025   6.213   3.550
 7957SOL     OW24769   1.141   1.387   0.504
 7957SOL    HW124770   1.075   1.321   0.469
 7957SOL    HW224771   1.224   1.340   0.533
 7958SOL     OW24772   2.927   5.454   3.937
 7958SOL    HW124773   3.008   5.498   3.977
 7958SOL    HW224774   2.955   5.400   3.857
 7959SOL     OW24775   6.219   4.855   0.609
 7959SOL    HW124776   6.237   4.764   0.573
 7959SOL    HW224777   6.129   4.857   0.653
 7960SOL     OW24778   2.607   0.945   1.358
 7960SOL    HW124779   2.549   0.949   1.277
 7960SOL    HW224780   2.621   1.037   1.393
 7961SOL     OW24781   1.345   5.793   6.120
 7961SOL    HW124782   1.308   5.873   6.167
 7961SOL    HW224783   1.403   5.822   6.044
 7962SOL     OW24784   2.230   1.102   1.767
 7962SOL    HW124785   2.303   1.170   1.761
 7962SOL    HW224786   2.230   1.046   1.684
 7963SOL     OW24787   0.631   1.027   5.601
 7963SOL    HW124788   0.663   0.992   5.512
 7963SOL    HW224789   0.643   0.956   5.670
 7964SOL     OW24790   5.638   5.069   3.023
 7964SOL    HW124791   5.701   5.146   3.028
 7964SOL    HW224792   5.547   5.102   3.000
 7965SOL     OW24793   5.044   2.750   0.634
 7965SOL    HW124794   4.948   2.732   0.612
 7965SOL    HW224795   5.092   2.664   0.648
 7966SOL     OW24796   0.738   5.259   4.182
 7966SOL    HW124797   0.689   5.174   4.163
 7966SOL    HW224798   0.694   5.307   4.258
 7967SOL     OW24799   3.330   6.212   2.604
 7967SOL    HW124800   3.367   6.119   2.606
 7967SOL    HW224801   3.238   6.210   2.565
 7968SOL     OW24802   2.090   2.480   3.883
 7968SOL    HW124803   2.156   2.544   3.844
 7968SOL    HW224804   2.100   2.479   3.982
 7969SOL     OW24805   3.951   1.088   3.420
 7969SOL    HW124806   3.911   0.999   3.399
 7969SOL    HW224807   4.019   1.112   3.351
 7970SOL     OW24808   0.371   4.288   3.055
 7970SOL    HW124809   0.362   4.387   3.054
 7970SOL    HW224810   0.347   4.253   3.146
 7971SOL     OW24811   3.552   0.630   1.739
 7971SOL    HW124812   3.588   0.550   1.786
 7971SOL    HW224813   3.452   0.630   1.745
 7972SOL     OW24814   6.802   4.224   1.532
 7972SOL    HW124815   6.765   4.238   1.624
 7972SOL    HW224816   6.745   4.272   1.466
 7973SOL     OW24817   4.837   3.317   3.834
 7973SOL    HW124818   4.793   3.322   3.744
 7973SOL    HW224819   4.933   3.292   3.823
 7974SOL     OW24820   5.104   0.882   4.435
 7974SOL    HW124821   5.130   0.786   4.443
 7974SOL    HW224822   5.186   0.938   4.421
 7975SOL     OW24823   3.321   1.069   4.815
 7975SOL    HW124824   3.260   1.131   4.865
 7975SOL    HW224825   3.332   1.101   4.721
 7976SOL     OW24826   1.073   6.309   4.787
 7976SOL    HW124827   1.121   6.241   4.842
 7976SOL    HW224828   0.991   6.268   4.747
 7977SOL     OW24829   5.133   6.120   1.938
 7977SOL    HW124830   5.043   6.151   1.968
 7977SOL    HW224831   5.147   6.025   1.967
 7978SOL     OW24832   4.626   3.415   5.905
 7978SOL    HW124833   4.722   3.426   5.932
 7978SOL    HW224834   4.574   3.496   5.932
 7979SOL     OW24835   2.724   0.273   4.551
 7979SOL    HW124836   2.748   0.370   4.549
 7979SOL    HW224837   2.662   0.253   4.475
 7980SOL     OW24838   3.923   6.101   0.528
 7980SOL    HW124839   4.014   6.063   0.542
 7980SOL    HW224840   3.911   6.122   0.431
 7981SOL     OW24841   1.286   5.231   2.058
 7981SOL    HW124842   1.339   5.199   1.979
 7981SOL    HW224843   1.271   5.156   2.121
 7982SOL     OW24844   6.355   2.547   0.955
 7982SOL    HW124845   6.342   2.522   1.051
 7982SOL    HW224846   6.268   2.539   0.907
 7983SOL     OW24847   5.330   1.519   2.677
 7983SOL    HW124848   5.249   1.570   2.705
 7983SOL    HW224849   5.303   1.447   2.613
 7984SOL     OW24850   0.426   2.695   2.227
 7984SOL    HW124851   0.419   2.734   2.319
 7984SOL    HW224852   0.488   2.617   2.228
 7985SOL     OW24853   1.229   0.540   2.250
 7985SOL    HW124854   1.243   0.495   2.162
 7985SOL    HW224855   1.237   0.639   2.239
 7986SOL     OW24856   3.861   1.402   6.303
 7986SOL    HW124857   3.880   1.458   6.224
 7986SOL    HW224858   3.906   1.313   6.293
 7987SOL     OW24859   0.777   2.864   5.206
 7987SOL    HW124860   0.812   2.831   5.118
 7987SOL    HW224861   0.683   2.833   5.217
 7988SOL     OW24862   2.922   1.956   4.161
 7988SOL    HW124863   2.928   2.051   4.190
 7988SOL    HW224864   3.010   1.926   4.124
 7989SOL     OW24865   3.260   2.259   5.616
 7989SOL    HW124866   3.350   2.220   5.637
 7989SOL    HW224867   3.270   2.328   5.545
 7990SOL     OW24868   1.085   2.841   4.253
 7990SOL    HW124869   1.077   2.913   4.321
 7990SOL    HW224870   1.138   2.875   4.175
 7991SOL     OW24871   0.533   2.638   5.516
 7991SOL    HW124872   0.508   2.734   5.506
 7991SOL    HW224873   0.617   2.620   5.464
 7992SOL     OW24874   1.665   0.002   0.817
 7992SOL    HW124875   1.675   7.005   0.719
 7992SOL    HW224876   1.609   6.950   0.858
 7993SOL     OW24877   1.811   5.383   6.839
 7993SOL    HW124878   1.883   5.401   6.772
 7993SOL    HW224879   1.730   5.349   6.792
 7994SOL     OW24880   4.683   0.709   3.828
 7994SOL    HW124881   4.627   0.667   3.756
 7994SOL    HW224882   4.776   0.723   3.793
 7995SOL     OW24883   3.405   5.233   3.706
 7995SOL    HW124884   3.505   5.242   3.699
 7995SOL    HW224885   3.373   5.281   3.787
 7996SOL     OW24886   3.360   0.258   4.635
 7996SOL    HW124887   3.338   0.253   4.537
 7996SOL    HW224888   3.297   0.199   4.686
 7997SOL     OW24889   6.424   2.290   1.240
 7997SOL    HW124890   6.407   2.387   1.255
 7997SOL    HW224891   6.379   2.236   1.312
 7998SOL     OW24892   5.925   4.650   0.515
 7998SOL    HW124893   5.932   4.705   0.432
 7998SOL    HW224894   5.907   4.709   0.593
 7999SOL     OW24895   1.418   0.264   5.356
 7999SOL    HW124896   1.444   0.302   5.267
 7999SOL    HW224897   1.443   0.329   5.428
 8000SOL     OW24898   6.590   0.159   5.617
 8000SOL    HW124899   6.639   0.242   5.591
 8000SOL    HW224900   6.574   0.102   5.536
 8001SOL     OW24901   1.498   6.588   1.663
 8001SOL    HW124902   1.542   6.677   1.676
 8001SOL    HW224903   1.533   6.523   1.729
 8002SOL     OW24904   6.521   3.866   5.105
 8002SOL    HW124905   6.503   3.877   5.007
 8002SOL    HW224906   6.619   3.853   5.119
 8003SOL     OW24907   3.539   4.941   3.189
 8003SOL    HW124908   3.632   4.906   3.196
 8003SOL    HW224909   3.483   4.901   3.261
 8004SOL     OW24910   2.519   4.492   3.204
 8004SOL    HW124911   2.555   4.422   3.265
 8004SOL    HW224912   2.586   4.565   3.193
 8005SOL     OW24913   3.509   0.173   1.760
 8005SOL    HW124914   3.441   0.117   1.807
 8005SOL    HW224915   3.499   0.269   1.788
 8006SOL     OW24916   2.692   6.165   0.580
 8006SOL    HW124917   2.605   6.121   0.560
 8006SOL    HW224918   2.700   6.179   0.679
 8007SOL     OW24919   0.119   0.589   4.270
 8007SOL    HW124920   0.103   0.683   4.239
 8007SOL    HW224921   0.197   0.550   4.222
 8008SOL     OW24922   6.504   6.679   6.881
 8008SOL    HW124923   6.493   6.599   6.941
 8008SOL    HW224924   6.429   6.744   6.897
 8009SOL     OW24925   0.023   0.581   3.152
 8009SOL    HW124926   0.119   0.553   3.151
 8009SOL    HW224927   7.001   0.549   3.237
 8010SOL     OW24928   2.099   1.866   0.314
 8010SOL    HW124929   2.191   1.825   0.307
 8010SOL    HW224930   2.052   1.828   0.393
 8011SOL     OW24931   2.796   2.258   1.245
 8011SOL    HW124932   2.892   2.229   1.241
 8011SOL    HW224933   2.792   2.356   1.265
 8012SOL     OW24934   1.998   6.641   1.730
 8012SOL    HW124935   2.056   6.716   1.760
 8012SOL    HW224936   2.031   6.555   1.770
 8013SOL     OW24937   6.216   5.132   3.986
 8013SOL    HW124938   6.245   5.073   3.911
 8013SOL    HW224939   6.155   5.081   4.047
 8014SOL     OW24940   1.967   6.221   6.342
 8014SOL    HW124941   1.977   6.122   6.353
 8014SOL    HW224942   1.871   6.243   6.325
 8015SOL     OW24943   2.404   2.743   0.885
 8015SOL    HW124944   2.464   2.735   0.964
 8015SOL    HW224945   2.432   2.677   0.815
 8016SOL     OW24946   4.478   0.092   0.765
 8016SOL    HW124947   4.505   0.018   0.703
 8016SOL    HW224948   4.493   0.180   0.722
 8017SOL     OW24949   6.845   4.639   4.768
 8017SOL    HW124950   6.882   4.580   4.840
 8017SOL    HW224951   6.749   4.659   4.787
 8018SOL     OW24952   4.709   1.865   5.685
 8018SOL    HW124953   4.741   1.772   5.698
 8018SOL    HW224954   4.723   1.917   5.770
 8019SOL     OW24955   1.645   5.838   0.179
 8019SOL    HW124956   1.653   5.808   0.275
 8019SOL    HW224957   1.719   5.797   0.125
 8020SOL     OW24958   5.554   5.497   6.984
 8020SOL    HW124959   5.557   5.414   6.928
 8020SOL    HW224960   5.520   5.474   0.056
 8021SOL     OW24961   1.074   1.468   1.164
 8021SOL    HW124962   1.088   1.371   1.142
 8021SOL    HW224963   1.106   1.524   1.088
 8022SOL     OW24964   4.621   6.527   2.942
 8022SOL    HW124965   4.633   6.556   3.037
 8022SOL    HW224966   4.526   6.500   2.927
 8023SOL     OW24967   6.213   6.057   2.141
 8023SOL    HW124968   6.300   6.031   2.183
 8023SOL    HW224969   6.140   6.002   2.180
 8024SOL     OW24970   4.594   5.396   5.639
 8024SOL    HW124971   4.624   5.341   5.562
 8024SOL    HW224972   4.673   5.424   5.693
 8025SOL     OW24973   3.518   6.174   6.720
 8025SOL    HW124974   3.494   6.111   6.794
 8025SOL    HW224975   3.496   6.132   6.632
 8026SOL     OW24976   1.406   3.636   6.615
 8026SOL    HW124977   1.436   3.718   6.567
 8026SOL    HW224978   1.311   3.615   6.590
 8027SOL     OW24979   4.667   2.014   5.204
 8027SOL    HW124980   4.750   2.067   5.224
 8027SOL    HW224981   4.601   2.073   5.157
 8028SOL     OW24982   4.888   4.934   6.062
 8028SOL    HW124983   4.915   5.015   6.010
 8028SOL    HW224984   4.955   4.917   6.134
 8029SOL     OW24985   4.301   4.695   0.323
 8029SOL    HW124986   4.299   4.752   0.241
 8029SOL    HW224987   4.278   4.601   0.298
 8030SOL     OW24988   5.756   4.332   5.335
 8030SOL    HW124989   5.767   4.371   5.426
 8030SOL    HW224990   5.697   4.392   5.280
 8031SOL     OW24991   4.179   5.529   1.788
 8031SOL    HW124992   4.249   5.533   1.717
 8031SOL    HW224993   4.154   5.434   1.805
 8032SOL     OW24994   5.653   4.058   5.007
 8032SOL    HW124995   5.658   4.010   4.919
 8032SOL    HW224996   5.614   3.997   5.076
 8033SOL     OW24997   5.591   2.682   6.938
 8033SOL    HW124998   5.679   2.729   6.945
 8033SOL    HW224999   5.517   2.749   6.937
 8034SOL     OW25000   5.000   6.838   4.932
 8034SOL    HW125001   5.074   6.896   4.898
 8034SOL    HW225002   4.914   6.867   4.890
 8035SOL     OW25003   5.767   6.094   6.589
 8035SOL    HW125004   5.783   6.016   6.528
 8035SOL    HW225005   5.669   6.108   6.600
 8036SOL     OW25006   2.150   3.858   1.904
 8036SOL    HW125007   2.052   3.871   1.916
 8036SOL    HW225008   2.199   3.922   1.963
 8037SOL     OW25009   1.875   3.243   0.876
 8037SOL    HW125010   1.872   3.240   0.976
 8037SOL    HW225011   1.907   3.154   0.842
 8038SOL     OW25012   6.840   1.896   3.538
 8038SOL    HW125013   6.907   1.849   3.481
 8038SOL    HW225014   6.866   1.887   3.635
 8039SOL     OW25015   2.201   0.248   3.157
 8039SOL    HW125016   2.201   0.192   3.074
 8039SOL    HW225017   2.198   0.345   3.133
 8040SOL     OW25018   0.288   5.364   1.304
 8040SOL    HW125019   0.268   5.459   1.278
 8040SOL    HW225020   0.380   5.359   1.341
 8041SOL     OW25021   3.917   1.435   0.862
 8041SOL    HW125022   3.850   1.428   0.789
 8041SOL    HW225023   3.873   1.476   0.943
 8042SOL     OW25024   3.285   3.129   2.601
 8042SOL    HW125025   3.307   3.096   2.509
 8042SOL    HW225026   3.357   3.191   2.632
 8043SOL     OW25027   2.554   0.237   1.176
 8043SOL    HW125028   2.551   0.323   1.123
 8043SOL    HW225029   2.532   0.256   1.271
 8044SOL     OW25030   3.072   3.164   1.254
 8044SOL    HW125031   3.023   3.197   1.335
 8044SOL    HW225032   3.152   3.221   1.238
 8045SOL     OW25033   6.409   2.444   2.741
 8045SOL    HW125034   6.475   2.403   2.679
 8045SOL    HW225035   6.338   2.377   2.764
 8046SOL     OW25036   5.609   4.487   5.162
 8046SOL    HW125037   5.579   4.577   5.130
 8046SOL    HW225038   5.637   4.431   5.084
 8047SOL     OW25039   3.672   5.891   4.794
 8047SOL    HW125040   3.598   5.876   4.729
 8047SOL    HW225041   3.634   5.912   4.884
 8048SOL     OW25042   6.627   0.410   5.497
 8048SOL    HW125043   6.644   0.484   5.432
 8048SOL    HW225044   6.553   0.437   5.559
 8049SOL     OW25045   1.039   6.424   1.531
 8049SOL    HW125046   1.067   6.432   1.626
 8049SOL    HW225047   1.098   6.481   1.474
 8050SOL     OW25048   1.615   3.693   0.692
 8050SOL    HW125049   1.523   3.654   0.696
 8050SOL    HW225050   1.681   3.628   0.732
 8051SOL     OW25051   4.168   0.989   2.931
 8051SOL    HW125052   4.069   0.982   2.944
 8051SOL    HW225053   4.189   1.073   2.880
 8052SOL     OW25054   2.742   1.510   3.138
 8052SOL    HW125055   2.822   1.526   3.080
 8052SOL    HW225056   2.716   1.596   3.182
 8053SOL     OW25057   3.573   4.091   3.156
 8053SOL    HW125058   3.657   4.053   3.195
 8053SOL    HW225059   3.533   4.157   3.220
 8054SOL     OW25060   5.198   6.532   4.511
 8054SOL    HW125061   5.101   6.507   4.508
 8054SOL    HW225062   5.253   6.454   4.481
 8055SOL     OW25063   1.284   0.203   5.945
 8055SOL    HW125064   1.314   0.114   5.910
 8055SOL    HW225065   1.242   0.191   6.034
 8056SOL     OW25066   4.902   1.759   2.881
 8056SOL    HW125067   4.958   1.758   2.798
 8056SOL    HW225068   4.909   1.671   2.927
 8057SOL     OW25069   2.721   6.898   3.250
 8057SOL    HW125070   2.632   6.943   3.236
 8057SOL    HW225071   2.790   6.944   3.193
 8058SOL     OW25072   2.661   0.669   2.307
 8058SOL    HW125073   2.605   0.586   2.303
 8058SOL    HW225074   2.608   0.746   2.270
 8059SOL     OW25075   3.211   2.148   4.797
 8059SOL    HW125076   3.284   2.082   4.813
 8059SOL    HW225077   3.211   2.216   4.871
 8060SOL     OW25078   6.713   1.090   4.910
 8060SOL    HW125079   6.651   1.022   4.871
 8060SOL    HW225080   6.807   1.058   4.900
 8061SOL     OW25081   6.407   5.725   2.415
 8061SOL    HW125082   6.506   5.710   2.415
 8061SOL    HW225083   6.387   5.815   2.375
 8062SOL     OW25084   1.580   3.959   4.125
 8062SOL    HW125085   1.520   3.944   4.204
 8062SOL    HW225086   1.605   4.055   4.120
 8063SOL     OW25087   3.284   3.223   6.741
 8063SOL    HW125088   3.218   3.160   6.782
 8063SOL    HW225089   3.325   3.279   6.813
 8064SOL     OW25090   0.645   4.049   0.352
 8064SOL    HW125091   0.689   4.012   0.270
 8064SOL    HW225092   0.563   4.100   0.325
 8065SOL     OW25093   4.814   0.047   4.518
 8065SOL    HW125094   4.881   6.993   4.523
 8065SOL    HW225095   4.854   0.125   4.470
 8066SOL     OW25096   1.638   1.181   0.781
 8066SOL    HW125097   1.606   1.202   0.873
 8066SOL    HW225098   1.563   1.142   0.728
 8067SOL     OW25099   4.067   2.989   1.591
 8067SOL    HW125100   4.131   2.916   1.568
 8067SOL    HW225101   4.027   3.027   1.508
 8068SOL     OW25102   0.683   4.464   4.418
 8068SOL    HW125103   0.673   4.394   4.489
 8068SOL    HW225104   0.593   4.487   4.381
 8069SOL     OW25105   1.429   6.383   1.003
 8069SOL    HW125106   1.470   6.400   1.093
 8069SOL    HW225107   1.330   6.377   1.012
 8070SOL     OW25108   3.834   6.180   1.943
 8070SOL    HW125109   3.904   6.137   1.886
 8070SOL    HW225110   3.755   6.205   1.886
 8071SOL     OW25111   3.638   6.692   5.653
 8071SOL    HW125112   3.707   6.743   5.705
 8071SOL    HW225113   3.683   6.624   5.596
 8072SOL     OW25114   4.572   1.271   0.604
 8072SOL    HW125115   4.631   1.227   0.537
 8072SOL    HW225116   4.522   1.346   0.560
 8073SOL     OW25117   4.358   6.313   5.922
 8073SOL    HW125118   4.269   6.360   5.922
 8073SOL    HW225119   4.350   6.227   5.971
 8074SOL     OW25120   3.276   3.708   0.560
 8074SOL    HW125121   3.293   3.724   0.657
 8074SOL    HW225122   3.214   3.630   0.549
 8075SOL     OW25123   0.054   1.118   2.617
 8075SOL    HW125124   0.011   1.172   2.689
 8075SOL    HW225125   7.005   1.061   2.572
 8076SOL     OW25126   5.475   2.370   5.036
 8076SOL    HW125127   5.430   2.282   5.053
 8076SOL    HW225128   5.544   2.386   5.106
 8077SOL     OW25129   0.667   0.036   1.281
 8077SOL    HW125130   0.598   7.019   1.343
 8077SOL    HW225131   0.707   6.981   1.227
 8078SOL     OW25132   6.512   2.578   0.699
 8078SOL    HW125133   6.478   2.662   0.658
 8078SOL    HW225134   6.443   2.540   0.761
 8079SOL     OW25135   6.841   2.354   3.030
 8079SOL    HW125136   6.782   2.305   3.093
 8079SOL    HW225137   6.789   2.425   2.982
 8080SOL     OW25138   2.566   4.208   0.654
 8080SOL    HW125139   2.607   4.190   0.564
 8080SOL    HW225140   2.563   4.123   0.706
 8081SOL     OW25141   6.210   0.946   5.042
 8081SOL    HW125142   6.229   0.963   4.945
 8081SOL    HW225143   6.160   0.860   5.051
 8082SOL     OW25144   6.636   2.465   3.520
 8082SOL    HW125145   6.596   2.556   3.524
 8082SOL    HW225146   6.735   2.471   3.536
 8083SOL     OW25147   4.620   2.580   2.674
 8083SOL    HW125148   4.647   2.604   2.581
 8083SOL    HW225149   4.649   2.653   2.736
 8084SOL     OW25150   6.424   6.264   1.299
 8084SOL    HW125151   6.495   6.304   1.241
 8084SOL    HW225152   6.455   6.176   1.333
 8085SOL     OW25153   5.571   0.455   0.727
 8085SOL    HW125154   5.514   0.524   0.771
 8085SOL    HW225155   5.517   0.373   0.708
 8086SOL     OW25156   3.914   0.349   4.739
 8086SOL    HW125157   3.889   0.254   4.757
 8086SOL    HW225158   3.904   0.402   4.824
 8087SOL     OW25159   2.619   2.334   0.987
 8087SOL    HW125160   2.580   2.330   1.079
 8087SOL    HW225161   2.713   2.299   0.989
 8088SOL     OW25162   5.858   1.083   2.314
 8088SOL    HW125163   5.926   1.072   2.241
 8088SOL    HW225164   5.772   1.115   2.275
 8089SOL     OW25165   5.225   2.965   0.627
 8089SOL    HW125166   5.161   2.896   0.660
 8089SOL    HW225167   5.316   2.924   0.615
 8090SOL     OW25168   5.164   1.948   6.081
 8090SOL    HW125169   5.131   1.952   6.175
 8090SOL    HW225170   5.221   1.866   6.069
 8091SOL     OW25171   3.364   4.763   6.710
 8091SOL    HW125172   3.334   4.681   6.758
 8091SOL    HW225173   3.436   4.808   6.763
 8092SOL     OW25174   1.551   1.365   5.134
 8092SOL    HW125175   1.627   1.381   5.071
 8092SOL    HW225176   1.522   1.270   5.128
 8093SOL     OW25177   6.045   5.968   1.382
 8093SOL    HW125178   6.057   6.053   1.433
 8093SOL    HW225179   6.127   5.949   1.328
 8094SOL     OW25180   1.508   3.892   6.496
 8094SOL    HW125181   1.492   3.895   6.398
 8094SOL    HW225182   1.584   3.953   6.519
 8095SOL     OW25183   5.725   3.430   4.842
 8095SOL    HW125184   5.781   3.348   4.858
 8095SOL    HW225185   5.769   3.487   4.772
 8096SOL     OW25186   3.279   5.920   1.649
 8096SOL    HW125187   3.253   5.972   1.568
 8096SOL    HW225188   3.260   5.823   1.634
 8097SOL     OW25189   4.945   1.018   3.578
 8097SOL    HW125190   5.002   0.972   3.510
 8097SOL    HW225191   4.930   1.113   3.550
 8098SOL     OW25192   3.216   5.986   4.285
 8098SOL    HW125193   3.214   6.023   4.192
 8098SOL    HW225194   3.183   5.892   4.285
 8099SOL     OW25195   5.134   6.312   4.807
 8099SOL    HW125196   5.216   6.266   4.842
 8099SOL    HW225197   5.140   6.410   4.826
 8100SOL     OW25198   6.838   6.792   0.639
 8100SOL    HW125199   6.841   6.848   0.722
 8100SOL    HW225200   6.799   6.702   0.661
 8101SOL     OW25201   1.483   6.274   3.874
 8101SOL    HW125202   1.499   6.264   3.775
 8101SOL    HW225203   1.473   6.371   3.896
 8102SOL     OW25204   0.049   5.519   5.671
 8102SOL    HW125205   7.014   5.463   5.733
 8102SOL    HW225206   0.047   5.614   5.701
 8103SOL     OW25207   3.592   1.623   2.437
 8103SOL    HW125208   3.547   1.541   2.473
 8103SOL    HW225209   3.537   1.662   2.364
 8104SOL     OW25210   2.728   6.985   5.559
 8104SOL    HW125211   2.660   0.005   5.620
 8104SOL    HW225212   2.809   6.958   5.611
 8105SOL     OW25213   2.343   2.207   3.554
 8105SOL    HW125214   2.282   2.163   3.620
 8105SOL    HW225215   2.289   2.252   3.483
 8106SOL     OW25216   1.188   4.073   3.298
 8106SOL    HW125217   1.194   4.006   3.224
 8106SOL    HW225218   1.127   4.039   3.369
 8107SOL     OW25219   1.800   6.280   5.823
 8107SOL    HW125220   1.860   6.335   5.880
 8107SOL    HW225221   1.849   6.200   5.789
 8108SOL     OW25222   0.494   3.805   4.525
 8108SOL    HW125223   0.504   3.883   4.586
 8108SOL    HW225224   0.479   3.836   4.432
 8109SOL     OW25225   1.714   4.482   4.754
 8109SOL    HW125226   1.663   4.527   4.680
 8109SOL    HW225227   1.754   4.397   4.719
 8110SOL     OW25228   1.892   6.211   0.809
 8110SOL    HW125229   1.807   6.255   0.841
 8110SOL    HW225230   1.957   6.207   0.884
 8111SOL     OW25231   2.892   5.719   4.729
 8111SOL    HW125232   2.958   5.751   4.660
 8111SOL    HW225233   2.812   5.681   4.683
 8112SOL     OW25234   2.412   0.277   5.571
 8112SOL    HW125235   2.317   0.275   5.540
 8112SOL    HW225236   2.468   0.326   5.504
 8113SOL     OW25237   4.025   2.480   6.512
 8113SOL    HW125238   3.950   2.499   6.575
 8113SOL    HW225239   4.105   2.447   6.563
 8114SOL     OW25240   2.318   2.745   2.648
 8114SOL    HW125241   2.401   2.693   2.665
 8114SOL    HW225242   2.313   2.770   2.551
 8115SOL     OW25243   3.227   1.349   1.218
 8115SOL    HW125244   3.160   1.280   1.244
 8115SOL    HW225245   3.313   1.332   1.266
 8116SOL     OW25246   5.988   6.594   5.043
 8116SOL    HW125247   6.071   6.543   5.022
 8116SOL    HW225248   5.983   6.612   5.141
 8117SOL     OW25249   1.356   1.717   4.873
 8117SOL    HW125250   1.336   1.632   4.923
 8117SOL    HW225251   1.425   1.769   4.923
 8118SOL     OW25252   1.110   4.099   5.501
 8118SOL    HW125253   1.078   4.019   5.450
 8118SOL    HW225254   1.209   4.093   5.514
 8119SOL     OW25255   0.849   6.053   3.068
 8119SOL    HW125256   0.786   5.983   3.102
 8119SOL    HW225257   0.853   6.048   2.968
 8120SOL     OW25258   4.011   4.326   1.063
 8120SOL    HW125259   4.039   4.252   1.001
 8120SOL    HW225260   4.055   4.313   1.152
 8121SOL     OW25261   6.862   0.760   2.451
 8121SOL    HW125262   6.792   0.762   2.522
 8121SOL    HW225263   6.843   0.685   2.387
 8122SOL     OW25264   6.847   6.331   2.122
 8122SOL    HW125265   6.797   6.373   2.198
 8122SOL    HW225266   6.783   6.307   2.049
 8123SOL     OW25267   1.319   6.319   6.138
 8123SOL    HW125268   1.346   6.415   6.147
 8123SOL    HW225269   1.226   6.307   6.173
 8124SOL     OW25270   0.856   5.517   1.881
 8124SOL    HW125271   0.863   5.494   1.784
 8124SOL    HW225272   0.942   5.559   1.912
 8125SOL     OW25273   6.029   4.259   3.002
 8125SOL    HW125274   5.987   4.345   2.972
 8125SOL    HW225275   6.128   4.269   3.003
 8126SOL     OW25276   5.777   4.103   2.709
 8126SOL    HW125277   5.721   4.127   2.788
 8126SOL    HW225278   5.718   4.092   2.629
 8127SOL     OW25279   2.059   5.085   0.191
 8127SOL    HW125280   1.971   5.104   0.235
 8127SOL    HW225281   2.049   5.092   0.092
 8128SOL     OW25282   3.473   2.719   5.864
 8128SOL    HW125283   3.396   2.673   5.910
 8128SOL    HW225284   3.526   2.651   5.813
 8129SOL     OW25285   5.541   0.679   6.432
 8129SOL    HW125286   5.555   0.629   6.518
 8129SOL    HW225287   5.453   0.653   6.393
 8130SOL     OW25288   1.252   5.250   6.833
 8130SOL    HW125289   1.278   5.187   6.760
 8130SOL    HW225290   1.191   5.320   6.796
 8131SOL     OW25291   2.838   0.525   0.511
 8131SOL    HW125292   2.794   0.614   0.502
 8131SOL    HW225293   2.933   0.538   0.541
 8132SOL     OW25294   5.881   5.556   4.106
 8132SOL    HW125295   5.910   5.652   4.112
 8132SOL    HW225296   5.962   5.497   4.108
 8133SOL     OW25297   2.688   5.278   2.803
 8133SOL    HW125298   2.719   5.285   2.898
 8133SOL    HW225299   2.626   5.353   2.782
 8134SOL     OW25300   1.960   2.299   3.701
 8134SOL    HW125301   2.016   2.361   3.755
 8134SOL    HW225302   2.019   2.240   3.645
 8135SOL     OW25303   4.007   5.366   2.590
 8135SOL    HW125304   3.964   5.288   2.546
 8135SOL    HW225305   3.991   5.448   2.535
 8136SOL     OW25306   4.305   5.768   2.747
 8136SOL    HW125307   4.237   5.777   2.674
 8136SOL    HW225308   4.294   5.679   2.791
 8137SOL     OW25309   2.110   3.923   4.873
 8137SOL    HW125310   2.116   3.971   4.785
 8137SOL    HW225311   2.181   3.956   4.935
 8138SOL     OW25312   5.472   1.192   2.340
 8138SOL    HW125313   5.440   1.099   2.359
 8138SOL    HW225314   5.493   1.239   2.426
 8139SOL     OW25315   1.674   3.042   2.870
 8139SOL    HW125316   1.617   3.029   2.789
 8139SOL    HW225317   1.771   3.032   2.845
 8140SOL     OW25318   4.979   0.634   0.728
 8140SOL    HW125319   5.003   0.537   0.728
 8140SOL    HW225320   5.063   0.689   0.722
 8141SOL     OW25321   4.793   1.605   5.756
 8141SOL    HW125322   4.709   1.580   5.803
 8141SOL    HW225323   4.861   1.533   5.770
 8142SOL     OW25324   2.042   6.157   0.196
 8142SOL    HW125325   1.972   6.168   0.267
 8142SOL    HW225326   2.051   6.243   0.145
 8143SOL     OW25327   5.702   4.859   0.547
 8143SOL    HW125328   5.655   4.939   0.585
 8143SOL    HW225329   5.636   4.786   0.532
 8144SOL     OW25330   6.868   5.014   5.967
 8144SOL    HW125331   6.835   4.920   5.976
 8144SOL    HW225332   6.967   5.017   5.982
 8145SOL     OW25333   5.750   5.640   6.779
 8145SOL    HW125334   5.707   5.565   6.829
 8145SOL    HW225335   5.716   5.641   6.685
 8146SOL     OW25336   5.948   0.494   4.525
 8146SOL    HW125337   5.942   0.491   4.625
 8146SOL    HW225338   5.973   0.587   4.497
 8147SOL     OW25339   0.985   0.853   5.567
 8147SOL    HW125340   0.962   0.937   5.617
 8147SOL    HW225341   1.009   0.781   5.633
 8148SOL     OW25342   3.998   4.823   0.248
 8148SOL    HW125343   4.011   4.740   0.301
 8148SOL    HW225344   4.004   4.802   0.151
 8149SOL     OW25345   1.614   6.219   4.155
 8149SOL    HW125346   1.601   6.166   4.072
 8149SOL    HW225347   1.589   6.315   4.138
 8150SOL     OW25348   1.508   3.031   1.137
 8150SOL    HW125349   1.489   3.126   1.111
 8150SOL    HW225350   1.440   3.000   1.204
 8151SOL     OW25351   5.925   4.448   3.983
 8151SOL    HW125352   5.905   4.545   3.997
 8151SOL    HW225353   5.845   4.404   3.941
 8152SOL     OW25354   4.718   2.095   3.107
 8152SOL    HW125355   4.788   2.024   3.101
 8152SOL    HW225356   4.634   2.063   3.063
 8153SOL     OW25357   0.089   1.902   3.663
 8153SOL    HW125358   0.096   1.983   3.605
 8153SOL    HW225359   0.016   1.915   3.730
 8154SOL     OW25360   1.696   1.645   3.696
 8154SOL    HW125361   1.648   1.558   3.689
 8154SOL    HW225362   1.795   1.630   3.685
 8155SOL     OW25363   1.705   5.071   1.676
 8155SOL    HW125364   1.642   5.148   1.671
 8155SOL    HW225365   1.682   5.014   1.755
 8156SOL     OW25366   5.930   5.005   1.768
 8156SOL    HW125367   5.842   5.040   1.799
 8156SOL    HW225368   5.984   5.080   1.729
 8157SOL     OW25369   6.779   2.972   6.523
 8157SOL    HW125370   6.818   2.992   6.434
 8157SOL    HW225371   6.836   3.012   6.595
 8158SOL     OW25372   5.644   4.542   5.966
 8158SOL    HW125373   5.583   4.592   6.028
 8158SOL    HW225374   5.699   4.608   5.914
 8159SOL     OW25375   3.605   6.027   5.703
 8159SOL    HW125376   3.685   5.998   5.755
 8159SOL    HW225377   3.605   6.126   5.694
 8160SOL     OW25378   5.361   1.294   3.292
 8160SOL    HW125379   5.329   1.215   3.345
 8160SOL    HW225380   5.425   1.347   3.347
 8161SOL     OW25381   5.844   3.227   0.890
 8161SOL    HW125382   5.773   3.179   0.942
 8161SOL    HW225383   5.807   3.258   0.803
 8162SOL     OW25384   0.446   4.992   6.460
 8162SOL    HW125385   0.487   4.903   6.444
 8162SOL    HW225386   0.510   5.050   6.511
 8163SOL     OW25387   4.551   4.813   5.296
 8163SOL    HW125388   4.551   4.897   5.243
 8163SOL    HW225389   4.618   4.820   5.370
 8164SOL     OW25390   5.713   1.084   0.117
 8164SOL    HW125391   5.680   1.176   0.097
 8164SOL    HW225392   5.652   1.017   0.074
 8165SOL     OW25393   0.022   1.842   6.288
 8165SOL    HW125394   6.946   1.870   6.294
 8165SOL    HW225395   0.068   1.898   6.220
 8166SOL     OW25396   1.759   2.312   4.502
 8166SOL    HW125397   1.715   2.402   4.497
 8166SOL    HW225398   1.745   2.273   4.593
 8167SOL     OW25399   6.756   2.586   4.228
 8167SOL    HW125400   6.791   2.578   4.321
 8167SOL    HW225401   6.736   2.494   4.193
 8168SOL     OW25402   2.615   0.618   1.679
 8168SOL    HW125403   2.696   0.632   1.736
 8168SOL    HW225404   2.552   0.556   1.726
 8169SOL     OW25405   5.360   2.027   0.997
 8169SOL    HW125406   5.362   2.086   0.917
 8169SOL    HW225407   5.385   1.934   0.971
 8170SOL     OW25408   6.340   4.508   2.435
 8170SOL    HW125409   6.345   4.448   2.355
 8170SOL    HW225410   6.403   4.474   2.505
 8171SOL     OW25411   1.933   1.421   0.302
 8171SOL    HW125412   1.880   1.341   0.275
 8171SOL    HW225413   1.870   1.496   0.324
 8172SOL     OW25414   0.775   2.899   1.628
 8172SOL    HW125415   0.724   2.939   1.552
 8172SOL    HW225416   0.780   2.964   1.704
 8173SOL     OW25417   5.363   1.935   2.175
 8173SOL    HW125418   5.422   1.942   2.256
 8173SOL    HW225419   5.377   1.845   2.132
 8174SOL     OW25420   1.942   5.270   2.593
 8174SOL    HW125421   1.950   5.347   2.529
 8174SOL    HW225422   1.852   5.271   2.636
 8175SOL     OW25423   0.640   2.567   4.710
 8175SOL    HW125424   0.647   2.524   4.800
 8175SOL    HW225425   0.543   2.576   4.685
 8176SOL     OW25426   1.920   4.568   1.024
 8176SOL    HW125427   2.016   4.552   1.047
 8176SOL    HW225428   1.880   4.483   0.988
 8177SOL     OW25429   3.163   1.577   2.820
 8177SOL    HW125430   3.212   1.655   2.782
 8177SOL    HW225431   3.220   1.495   2.812
 8178SOL     OW25432   1.996   6.226   1.411
 8178SOL    HW125433   1.909   6.179   1.402
 8178SOL    HW225434   1.993   6.313   1.361
 8179SOL     OW25435   5.498   0.995   3.538
 8179SOL    HW125436   5.549   1.050   3.604
 8179SOL    HW225437   5.478   0.905   3.578
 8180SOL     OW25438   5.209   6.501   0.072
 8180SOL    HW125439   5.279   6.431   0.092
 8180SOL    HW225440   5.253   6.580   0.030
 8181SOL     OW25441   0.788   1.173   1.368
 8181SOL    HW125442   0.776   1.258   1.317
 8181SOL    HW225443   0.877   1.133   1.347
 8182SOL     OW25444   2.948   3.752   4.659
 8182SOL    HW125445   2.928   3.655   4.671
 8182SOL    HW225446   2.969   3.770   4.563
 8183SOL     OW25447   6.854   0.265   4.835
 8183SOL    HW125448   6.831   0.307   4.923
 8183SOL    HW225449   6.772   0.257   4.779
 8184SOL     OW25450   0.375   6.455   6.873
 8184SOL    HW125451   0.406   6.519   6.803
 8184SOL    HW225452   0.301   6.496   6.926
 8185SOL     OW25453   0.763   0.248   0.074
 8185SOL    HW125454   0.774   0.188   7.014
 8185SOL    HW225455   0.726   0.336   0.045
 8186SOL     OW25456   1.164   5.011   6.371
 8186SOL    HW125457   1.189   5.045   6.462
 8186SOL    HW225458   1.247   4.990   6.320
 8187SOL     OW25459   1.562   1.594   5.566
 8187SOL    HW125460   1.521   1.630   5.482
 8187SOL    HW225461   1.651   1.553   5.545
 8188SOL     OW25462   3.168   1.788   3.772
 8188SOL    HW125463   3.191   1.878   3.734
 8188SOL    HW225464   3.079   1.759   3.739
 8189SOL     OW25465   4.658   4.732   4.209
 8189SOL    HW125466   4.631   4.822   4.243
 8189SOL    HW225467   4.701   4.680   4.283
 8190SOL     OW25468   5.450   3.555   3.102
 8190SOL    HW125469   5.424   3.458   3.103
 8190SOL    HW225470   5.476   3.581   3.009
 8191SOL     OW25471   4.005   5.227   1.692
 8191SOL    HW125472   4.036   5.155   1.632
 8191SOL    HW225473   3.977   5.307   1.638
 8192SOL     OW25474   1.630   5.161   3.719
 8192SOL    HW125475   1.696   5.100   3.677
 8192SOL    HW225476   1.624   5.141   3.817
 8193SOL     OW25477   6.866   4.862   5.129
 8193SOL    HW125478   6.950   4.810   5.140
 8193SOL    HW225479   6.838   4.861   5.033
 8194SOL     OW25480   4.779   6.880   1.886
 8194SOL    HW125481   4.715   6.805   1.900
 8194SOL    HW225482   4.868   6.844   1.858
 8195SOL     OW25483   5.526   6.813   3.318
 8195SOL    HW125484   5.435   6.800   3.358
 8195SOL    HW225485   5.593   6.821   3.391
 8196SOL     OW25486   4.579   0.229   7.020
 8196SOL    HW125487   4.551   0.280   0.081
 8196SOL    HW225488   4.657   0.276   6.977
 8197SOL     OW25489   5.394   1.928   1.413
 8197SOL    HW125490   5.398   2.011   1.357
 8197SOL    HW225491   5.361   1.951   1.504
 8198SOL     OW25492   2.049   6.916   2.146
 8198SOL    HW125493   2.120   6.850   2.170
 8198SOL    HW225494   1.962   6.888   2.188
 8199SOL     OW25495   5.589   2.647   6.066
 8199SOL    HW125496   5.558   2.552   6.053
 8199SOL    HW225497   5.591   2.693   5.978
 8200SOL     OW25498   4.875   3.352   1.405
 8200SOL    HW125499   4.839   3.426   1.348
 8200SOL    HW225500   4.799   3.293   1.434
 8201SOL     OW25501   0.065   0.015   5.236
 8201SOL    HW125502   0.082   0.059   5.324
 8201SOL    HW225503   0.152   7.007   5.195
 8202SOL     OW25504   0.344   6.538   2.533
 8202SOL    HW125505   0.343   6.585   2.444
 8202SOL    HW225506   0.256   6.493   2.548
 8203SOL     OW25507   1.803   2.954   0.841
 8203SOL    HW125508   1.866   2.917   0.772
 8203SOL    HW225509   1.734   2.885   0.863
 8204SOL     OW25510   4.461   3.504   1.201
 8204SOL    HW125511   4.444   3.412   1.166
 8204SOL    HW225512   4.442   3.571   1.130
 8205SOL     OW25513   1.138   3.331   0.623
 8205SOL    HW125514   1.129   3.382   0.537
 8205SOL    HW225515   1.155   3.234   0.603
 8206SOL     OW25516   4.113   1.459   6.972
 8206SOL    HW125517   4.026   1.475   7.018
 8206SOL    HW225518   4.106   1.483   6.875
 8207SOL     OW25519   3.749   2.969   4.249
 8207SOL    HW125520   3.730   2.875   4.220
 8207SOL    HW225521   3.665   3.012   4.279
 8208SOL     OW25522   0.951   0.977   0.455
 8208SOL    HW125523   0.961   0.889   0.408
 8208SOL    HW225524   1.040   1.022   0.459
 8209SOL     OW25525   6.393   1.280   5.340
 8209SOL    HW125526   6.418   1.371   5.307
 8209SOL    HW225527   6.427   1.211   5.276
 8210SOL     OW25528   1.767   2.844   0.424
 8210SOL    HW125529   1.850   2.814   0.470
 8210SOL    HW225530   1.774   2.826   0.326
 8211SOL     OW25531   3.064   3.610   1.349
 8211SOL    HW125532   3.133   3.677   1.379
 8211SOL    HW225533   3.071   3.596   1.250
 8212SOL     OW25534   1.863   2.403   2.887
 8212SOL    HW125535   1.805   2.326   2.914
 8212SOL    HW225536   1.871   2.467   2.964
 8213SOL     OW25537   0.519   5.192   1.494
 8213SOL    HW125538   0.497   5.204   1.591
 8213SOL    HW225539   0.553   5.099   1.479
 8214SOL     OW25540   5.976   4.313   3.455
 8214SOL    HW125541   6.054   4.257   3.428
 8214SOL    HW225542   5.956   4.380   3.384
 8215SOL     OW25543   3.834   4.918   4.877
 8215SOL    HW125544   3.910   4.975   4.909
 8215SOL    HW225545   3.761   4.919   4.945
 8216SOL     OW25546   5.265   4.290   3.955
 8216SOL    HW125547   5.289   4.256   4.046
 8216SOL    HW225548   5.185   4.350   3.963
 8217SOL     OW25549   1.589   5.975   0.617
 8217SOL    HW125550   1.554   5.998   0.708
 8217SOL    HW225551   1.689   5.976   0.619
 8218SOL     OW25552   0.575   1.795   0.002
 8218SOL    HW125553   0.613   1.708   0.035
 8218SOL    HW225554   0.602   1.807   6.926
 8219SOL     OW25555   4.849   1.899   0.215
 8219SOL    HW125556   4.884   1.872   0.125
 8219SOL    HW225557   4.795   1.824   0.253
 8220SOL     OW25558   3.432   3.687   2.474
 8220SOL    HW125559   3.498   3.644   2.412
 8220SOL    HW225560   3.371   3.617   2.511
 8221SOL     OW25561   4.882   6.297   4.161
 8221SOL    HW125562   4.792   6.255   4.156
 8221SOL    HW225563   4.881   6.386   4.115
 8222SOL     OW25564   5.786   1.862   2.206
 8222SOL    HW125565   5.724   1.797   2.250
 8222SOL    HW225566   5.767   1.865   2.108
 8223SOL     OW25567   0.551   4.489   6.018
 8223SOL    HW125568   0.606   4.468   6.099
 8223SOL    HW225569   0.591   4.445   5.938
 8224SOL     OW25570   0.701   2.658   2.625
 8224SOL    HW125571   0.769   2.590   2.653
 8224SOL    HW225572   0.609   2.622   2.639
 8225SOL     OW25573   4.793   1.109   6.502
 8225SOL    HW125574   4.717   1.069   6.452
 8225SOL    HW225575   4.841   1.175   6.443
 8226SOL     OW25576   5.515   0.966   1.455
 8226SOL    HW125577   5.542   0.903   1.381
 8226SOL    HW225578   5.558   1.055   1.440
 8227SOL     OW25579   6.674   3.156   3.931
 8227SOL    HW125580   6.582   3.170   3.894
 8227SOL    HW225581   6.736   3.223   3.891
 8228SOL     OW25582   0.291   2.466   5.143
 8228SOL    HW125583   0.237   2.533   5.194
 8228SOL    HW225584   0.263   2.374   5.170
 8229SOL     OW25585   2.899   5.822   0.305
 8229SOL    HW125586   2.951   5.906   0.322
 8229SOL    HW225587   2.961   5.752   0.269
 8230SOL     OW25588   5.260   0.579   5.276
 8230SOL    HW125589   5.193   0.575   5.203
 8230SOL    HW225590   5.232   0.519   5.351
 8231SOL     OW25591   4.925   5.762   1.845
 8231SOL    HW125592   5.013   5.715   1.854
 8231SOL    HW225593   4.910   5.786   1.749
 8232SOL     OW25594   3.935   1.552   0.240
 8232SOL    HW125595   3.915   1.463   0.199
 8232SOL    HW225596   4.034   1.566   0.241
 8233SOL     OW25597   0.257   5.333   6.070
 8233SOL    HW125598   0.315   5.269   6.119
 8233SOL    HW225599   0.168   5.338   6.115
 8234SOL     OW25600   3.119   2.790   0.169
 8234SOL    HW125601   3.055   2.724   0.132
 8234SOL    HW225602   3.089   2.883   0.145
 8235SOL     OW25603   2.727   3.682   0.861
 8235SOL    HW125604   2.771   3.593   0.856
 8235SOL    HW225605   2.769   3.743   0.793
 8236SOL     OW25606   6.927   3.310   6.959
 8236SOL    HW125607   6.829   3.319   6.971
 8236SOL    HW225608   6.972   3.309   0.028
 8237SOL     OW25609   4.580   5.700   5.437
 8237SOL    HW125610   4.663   5.685   5.490
 8237SOL    HW225611   4.584   5.790   5.394
 8238SOL     OW25612   1.724   3.989   6.843
 8238SOL    HW125613   1.738   3.894   6.871
 8238SOL    HW225614   1.668   4.036   6.910
 8239SOL     OW25615   6.252   2.031   5.513
 8239SOL    HW125616   6.165   2.065   5.478
 8239SOL    HW225617   6.314   2.012   5.437
 8240SOL     OW25618   3.326   3.756   2.947
 8240SOL    HW125619   3.396   3.820   2.914
 8240SOL    HW225620   3.238   3.803   2.950
 8241SOL     OW25621   3.544   6.816   1.032
 8241SOL    HW125622   3.456   6.843   1.072
 8241SOL    HW225623   3.554   6.717   1.038
 8242SOL     OW25624   0.606   4.334   5.776
 8242SOL    HW125625   0.593   4.235   5.780
 8242SOL    HW225626   0.521   4.378   5.748
 8243SOL     OW25627   0.150   3.250   5.802
 8243SOL    HW125628   0.091   3.191   5.747
 8243SOL    HW225629   0.204   3.308   5.741
 8244SOL     OW25630   0.256   0.151   3.969
 8244SOL    HW125631   0.319   0.210   3.918
 8244SOL    HW225632   0.208   0.091   3.905
 8245SOL     OW25633   4.808   1.675   1.511
 8245SOL    HW125634   4.835   1.611   1.583
 8245SOL    HW225635   4.708   1.677   1.505
 8246SOL     OW25636   6.466   4.181   6.022
 8246SOL    HW125637   6.407   4.208   6.098
 8246SOL    HW225638   6.410   4.151   5.945
 8247SOL     OW25639   0.721   0.673   1.583
 8247SOL    HW125640   0.697   0.753   1.529
 8247SOL    HW225641   0.640   0.637   1.629
 8248SOL     OW25642   5.842   4.792   3.627
 8248SOL    HW125643   5.749   4.755   3.633
 8248SOL    HW225644   5.907   4.717   3.636
 8249SOL     OW25645   2.187   4.647   4.214
 8249SOL    HW125646   2.133   4.581   4.162
 8249SOL    HW225647   2.225   4.715   4.152
 8250SOL     OW25648   3.502   3.957   2.911
 8250SOL    HW125649   3.537   4.008   2.990
 8250SOL    HW225650   3.570   3.956   2.838
 8251SOL     OW25651   4.991   2.017   4.816
 8251SOL    HW125652   5.072   2.071   4.795
 8251SOL    HW225653   4.914   2.050   4.763
 8252SOL     OW25654   3.322   3.694   6.313
 8252SOL    HW125655   3.317   3.595   6.329
 8252SOL    HW225656   3.265   3.741   6.379
 8253SOL     OW25657   3.590   2.823   5.198
 8253SOL    HW125658   3.519   2.824   5.128
 8253SOL    HW225659   3.666   2.882   5.170
 8254SOL     OW25660   4.313   4.727   4.697
 8254SOL    HW125661   4.334   4.672   4.778
 8254SOL    HW225662   4.357   4.687   4.617
 8255SOL     OW25663   4.025   6.276   4.249
 8255SOL    HW125664   4.022   6.358   4.192
 8255SOL    HW225665   3.934   6.237   4.257
 8256SOL     OW25666   5.996   0.665   3.775
 8256SOL    HW125667   6.042   0.744   3.733
 8256SOL    HW225668   6.026   0.581   3.728
 8257SOL     OW25669   5.989   4.890   2.991
 8257SOL    HW125670   6.082   4.854   3.003
 8257SOL    HW225671   5.990   4.965   2.925
 8258SOL     OW25672   4.736   1.236   0.372
 8258SOL    HW125673   4.788   1.316   0.343
 8258SOL    HW225674   4.703   1.186   0.291
 8259SOL     OW25675   4.437   1.470   3.391
 8259SOL    HW125676   4.431   1.483   3.292
 8259SOL    HW225677   4.350   1.492   3.433
 8260SOL     OW25678   2.527   6.887   2.062
 8260SOL    HW125679   2.608   6.849   2.018
 8260SOL    HW225680   2.477   6.945   1.997
 8261SOL     OW25681   5.686   1.138   1.265
 8261SOL    HW125682   5.675   1.087   1.180
 8261SOL    HW225683   5.773   1.187   1.264
 8262SOL     OW25684   1.132   2.417   1.348
 8262SOL    HW125685   1.134   2.385   1.442
 8262SOL    HW225686   1.094   2.510   1.344
 8263SOL     OW25687   0.302   1.450   1.330
 8263SOL    HW125688   0.307   1.418   1.424
 8263SOL    HW225689   0.343   1.383   1.269
 8264SOL     OW25690   1.235   5.935   2.257
 8264SOL    HW125691   1.294   5.855   2.257
 8264SOL    HW225692   1.163   5.923   2.325
 8265SOL     OW25693   1.864   0.360   1.483
 8265SOL    HW125694   1.860   0.455   1.453
 8265SOL    HW225695   1.836   0.354   1.579
 8266SOL     OW25696   1.846   6.696   2.657
 8266SOL    HW125697   1.927   6.689   2.715
 8266SOL    HW225698   1.777   6.631   2.689
 8267SOL     OW25699   1.960   3.638   1.000
 8267SOL    HW125700   1.919   3.596   0.919
 8267SOL    HW225701   1.921   3.729   1.015
 8268SOL     OW25702   1.990   6.417   5.961
 8268SOL    HW125703   2.064   6.391   6.023
 8268SOL    HW225704   1.977   6.516   5.964
 8269SOL     OW25705   5.886   1.686   1.120
 8269SOL    HW125706   5.980   1.705   1.095
 8269SOL    HW225707   5.833   1.771   1.120
 8270SOL     OW25708   2.790   6.680   4.255
 8270SOL    HW125709   2.814   6.644   4.165
 8270SOL    HW225710   2.726   6.756   4.244
 8271SOL     OW25711   6.957   1.294   2.805
 8271SOL    HW125712   6.859   1.309   2.806
 8271SOL    HW225713   6.993   1.300   2.898
 8272SOL     OW25714   5.104   0.933   1.914
 8272SOL    HW125715   5.037   0.919   1.987
 8272SOL    HW225716   5.063   0.989   1.842
 8273SOL     OW25717   1.831   6.404   1.126
 8273SOL    HW125718   1.901   6.418   1.197
 8273SOL    HW225719   1.866   6.439   1.039
 8274SOL     OW25720   4.437   4.879   2.931
 8274SOL    HW125721   4.393   4.821   2.862
 8274SOL    HW225722   4.480   4.820   3.000
 8275SOL     OW25723   4.757   2.015   5.899
 8275SOL    HW125724   4.692   2.030   5.973
 8275SOL    HW225725   4.849   2.038   5.929
 8276SOL     OW25726   0.967   2.016   3.865
 8276SOL    HW125727   0.969   1.941   3.799
 8276SOL    HW225728   1.045   2.076   3.850
 8277SOL     OW25729   0.172   1.010   6.401
 8277SOL    HW125730   0.243   0.949   6.437
 8277SOL    HW225731   0.093   1.008   6.462
 8278SOL     OW25732   2.063   2.389   6.576
 8278SOL    HW125733   2.108   2.348   6.497
 8278SOL    HW225734   1.964   2.387   6.564
 8279SOL     OW25735   0.590   6.056   4.585
 8279SOL    HW125736   0.570   5.975   4.640
 8279SOL    HW225737   0.684   6.050   4.551
 8280SOL     OW25738   2.800   2.908   6.978
 8280SOL    HW125739   2.847   2.984   0.004
 8280SOL    HW225740   2.816   2.913   6.880
 8281SOL     OW25741   0.933   5.504   1.619
 8281SOL    HW125742   1.007   5.524   1.556
 8281SOL    HW225743   0.845   5.527   1.577
 8282SOL     OW25744   5.893   2.947   6.327
 8282SOL    HW125745   5.881   2.855   6.364
 8282SOL    HW225746   5.828   2.962   6.252
 8283SOL     OW25747   1.381   4.647   5.994
 8283SOL    HW125748   1.371   4.581   6.068
 8283SOL    HW225749   1.294   4.655   5.945
 8284SOL     OW25750   0.434   4.337   1.862
 8284SOL    HW125751   0.412   4.343   1.765
 8284SOL    HW225752   0.351   4.347   1.916
 8285SOL     OW25753   4.020   3.181   5.169
 8285SOL    HW125754   3.936   3.126   5.172
 8285SOL    HW225755   4.094   3.131   5.215
 8286SOL     OW25756   5.761   2.379   5.744
 8286SOL    HW125757   5.853   2.403   5.774
 8286SOL    HW225758   5.746   2.281   5.758
 8287SOL     OW25759   1.252   5.801   4.896
 8287SOL    HW125760   1.154   5.815   4.883
 8287SOL    HW225761   1.295   5.777   4.809
 8288SOL     OW25762   2.619   2.412   2.916
 8288SOL    HW125763   2.696   2.418   2.980
 8288SOL    HW225764   2.653   2.419   2.822
 8289SOL     OW25765   0.538   6.890   0.721
 8289SOL    HW125766   0.588   6.810   0.689
 8289SOL    HW225767   0.552   6.901   0.820
 8290SOL     OW25768   6.703   1.469   0.298
 8290SOL    HW125769   6.638   1.416   0.243
 8290SOL    HW225770   6.694   1.566   0.275
 8291SOL     OW25771   4.953   6.919   6.780
 8291SOL    HW125772   4.880   6.860   6.745
 8291SOL    HW225773   5.011   6.867   6.843
 8292SOL     OW25774   2.945   6.279   0.498
 8292SOL    HW125775   2.851   6.252   0.517
 8292SOL    HW225776   2.949   6.329   0.411
 8293SOL     OW25777   3.916   6.917   6.541
 8293SOL    HW125778   3.840   6.865   6.502
 8293SOL    HW225779   3.997   6.859   6.545
 8294SOL     OW25780   6.207   3.400   6.142
 8294SOL    HW125781   6.144   3.333   6.102
 8294SOL    HW225782   6.184   3.413   6.239
 8295SOL     OW25783   5.519   4.912   1.687
 8295SOL    HW125784   5.546   4.831   1.738
 8295SOL    HW225785   5.421   4.928   1.700
 8296SOL     OW25786   1.457   6.577   6.112
 8296SOL    HW125787   1.476   6.666   6.153
 8296SOL    HW225788   1.543   6.530   6.094
 8297SOL     OW25789   6.409   2.745   3.169
 8297SOL    HW125790   6.461   2.673   3.216
 8297SOL    HW225791   6.376   2.710   3.081
 8298SOL     OW25792   5.473   1.480   1.462
 8298SOL    HW125793   5.425   1.404   1.419
 8298SOL    HW225794   5.565   1.451   1.488
 8299SOL     OW25795   0.336   2.581   1.856
 8299SOL    HW125796   0.312   2.656   1.917
 8299SOL    HW225797   0.321   2.494   1.902
 8300SOL     OW25798   0.418   5.082   5.423
 8300SOL    HW125799   0.466   5.090   5.336
 8300SOL    HW225800   0.401   5.172   5.461
 8301SOL     OW25801   4.567   1.733   1.392
 8301SOL    HW125802   4.578   1.679   1.308
 8301SOL    HW225803   4.472   1.765   1.399
 8302SOL     OW25804   5.957   6.001   6.157
 8302SOL    HW125805   5.889   6.060   6.200
 8302SOL    HW225806   6.025   6.057   6.110
 8303SOL     OW25807   6.809   0.591   4.337
 8303SOL    HW125808   6.791   0.500   4.302
 8303SOL    HW225809   6.858   0.584   4.424
 8304SOL     OW25810   1.507   3.413   6.476
 8304SOL    HW125811   1.483   3.475   6.551
 8304SOL    HW225812   1.430   3.403   6.414
 8305SOL     OW25813   3.849   5.093   3.906
 8305SOL    HW125814   3.827   5.180   3.950
 8305SOL    HW225815   3.878   5.027   3.975
 8306SOL     OW25816   0.355   3.105   4.753
 8306SOL    HW125817   0.452   3.096   4.732
 8306SOL    HW225818   0.343   3.172   4.827
 8307SOL     OW25819   3.820   5.317   1.492
 8307SOL    HW125820   3.752   5.333   1.564
 8307SOL    HW225821   3.795   5.236   1.440
 8308SOL     OW25822   4.590   6.708   1.743
 8308SOL    HW125823   4.646   6.743   1.667
 8308SOL    HW225824   4.494   6.732   1.727
 8309SOL     OW25825   5.508   5.591   3.108
 8309SOL    HW125826   5.461   5.512   3.148
 8309SOL    HW225827   5.512   5.580   3.008
 8310SOL     OW25828   0.998   4.615   0.602
 8310SOL    HW125829   0.992   4.517   0.622
 8310SOL    HW225830   0.934   4.637   0.528
 8311SOL     OW25831   0.264   0.960   5.785
 8311SOL    HW125832   0.173   0.995   5.805
 8311SOL    HW225833   0.328   1.037   5.778
 8312SOL     OW25834   5.138   6.334   1.757
 8312SOL    HW125835   5.140   6.250   1.813
 8312SOL    HW225836   5.081   6.318   1.677
 8313SOL     OW25837   3.772   1.775   2.551
 8313SOL    HW125838   3.854   1.737   2.593
 8313SOL    HW225839   3.723   1.703   2.502
 8314SOL     OW25840   4.893   6.399   0.880
 8314SOL    HW125841   4.941   6.484   0.859
 8314SOL    HW225842   4.798   6.407   0.850
 8315SOL     OW25843   4.140   3.317   1.073
 8315SOL    HW125844   4.138   3.230   1.122
 8315SOL    HW225845   4.235   3.346   1.060
 8316SOL     OW25846   0.474   3.488   1.403
 8316SOL    HW125847   0.428   3.567   1.444
 8316SOL    HW225848   0.417   3.407   1.414
 8317SOL     OW25849   2.177   3.097   2.432
 8317SOL    HW125850   2.224   3.022   2.387
 8317SOL    HW225851   2.167   3.174   2.369
 8318SOL     OW25852   4.535   2.050   4.898
 8318SOL    HW125853   4.581   1.961   4.901
 8318SOL    HW225854   4.538   2.086   4.805
 8319SOL     OW25855   3.272   1.649   5.857
 8319SOL    HW125856   3.363   1.686   5.874
 8319SOL    HW225857   3.240   1.678   5.767
 8320SOL     OW25858   3.434   4.735   1.204
 8320SOL    HW125859   3.468   4.641   1.203
 8320SOL    HW225860   3.391   4.756   1.116
 8321SOL     OW25861   0.789   1.081   6.051
 8321SOL    HW125862   0.732   1.021   6.108
 8321SOL    HW225863   0.741   1.167   6.035
 8322SOL     OW25864   0.006   0.213   0.024
 8322SOL    HW125865   6.929   0.190   0.034
 8322SOL    HW225866   0.062   0.133   0.048
 8323SOL     OW25867   0.034   6.915   2.210
 8323SOL    HW125868   7.009   6.892   2.124
 8323SOL    HW225869   0.103   6.845   2.231
 8324SOL     OW25870   6.595   0.387   2.422
 8324SOL    HW125871   6.638   0.429   2.502
 8324SOL    HW225872   6.503   0.424   2.411
 8325SOL     OW25873   3.895   3.065   4.532
 8325SOL    HW125874   3.949   3.134   4.483
 8325SOL    HW225875   3.924   2.974   4.502
 8326SOL     OW25876   4.367   3.684   5.556
 8326SOL    HW125877   4.419   3.738   5.490
 8326SOL    HW225878   4.346   3.740   5.636
 8327SOL     OW25879   4.979   2.204   5.721
 8327SOL    HW125880   4.999   2.122   5.669
 8327SOL    HW225881   4.973   2.182   5.819
 8328SOL     OW25882   2.408   3.780   6.111
 8328SOL    HW125883   2.340   3.797   6.183
 8328SOL    HW225884   2.479   3.850   6.115
 8329SOL     OW25885   6.980   3.355   5.534
 8329SOL    HW125886   6.900   3.343   5.475
 8329SOL    HW225887   6.978   3.285   5.606
 8330SOL     OW25888   2.068   6.940   0.569
 8330SOL    HW125889   2.058   6.950   0.668
 8330SOL    HW225890   2.138   7.003   0.536
 8331SOL     OW25891   3.140   6.814   0.916
 8331SOL    HW125892   3.214   6.829   0.982
 8331SOL    HW225893   3.180   6.796   0.826
 8332SOL     OW25894   4.492   5.239   2.666
 8332SOL    HW125895   4.398   5.206   2.681
 8332SOL    HW225896   4.490   5.337   2.646
 8333SOL     OW25897   0.034   5.800   6.982
 8333SOL    HW125898   0.023   5.770   0.057
 8333SOL    HW225899   6.991   5.876   6.964
 8334SOL     OW25900   5.805   1.259   4.184
 8334SOL    HW125901   5.807   1.302   4.094
 8334SOL    HW225902   5.834   1.325   4.254
 8335SOL     OW25903   6.225   5.251   5.641
 8335SOL    HW125904   6.266   5.307   5.569
 8335SOL    HW225905   6.148   5.300   5.682
 8336SOL     OW25906   6.698   1.037   2.729
 8336SOL    HW125907   6.763   1.065   2.658
 8336SOL    HW225908   6.712   0.940   2.750
 8337SOL     OW25909   0.504   6.882   3.850
 8337SOL    HW125910   0.587   6.913   3.804
 8337SOL    HW225911   0.428   6.942   3.827
 8338SOL     OW25912   2.300   4.980   1.905
 8338SOL    HW125913   2.298   4.885   1.938
 8338SOL    HW225914   2.390   5.019   1.922
 8339SOL     OW25915   6.675   1.152   2.236
 8339SOL    HW125916   6.596   1.159   2.296
 8339SOL    HW225917   6.644   1.144   2.141
 8340SOL     OW25918   4.871   3.718   1.045
 8340SOL    HW125919   4.844   3.811   1.020
 8340SOL    HW225920   4.959   3.720   1.092
 8341SOL     OW25921   2.141   6.720   0.071
 8341SOL    HW125922   2.239   6.743   0.076
 8341SOL    HW225923   2.107   6.699   0.162
 8342SOL     OW25924   3.820   6.654   1.068
 8342SOL    HW125925   3.892   6.716   1.039
 8342SOL    HW225926   3.860   6.576   1.118
 8343SOL     OW25927   1.540   5.212   5.856
 8343SOL    HW125928   1.607   5.275   5.894
 8343SOL    HW225929   1.463   5.203   5.919
 8344SOL     OW25930   4.530   6.420   5.730
 8344SOL    HW125931   4.525   6.514   5.696
 8344SOL    HW225932   4.446   6.398   5.780
 8345SOL     OW25933   5.510   1.930   3.473
 8345SOL    HW125934   5.470   1.853   3.422
 8345SOL    HW225935   5.451   1.953   3.550
 8346SOL     OW25936   2.434   4.916   0.439
 8346SOL    HW125937   2.423   4.939   0.536
 8346SOL    HW225938   2.510   4.851   0.428
 8347SOL     OW25939   2.629   6.919   4.977
 8347SOL    HW125940   2.702   6.947   5.039
 8347SOL    HW225941   2.632   6.976   4.895
 8348SOL     OW25942   1.432   0.042   1.441
 8348SOL    HW125943   1.443   0.088   1.353
 8348SOL    HW225944   1.415   0.110   1.512
 8349SOL     OW25945   5.743   3.845   1.198
 8349SOL    HW125946   5.749   3.747   1.217
 8349SOL    HW225947   5.819   3.893   1.242
 8350SOL     OW25948   5.589   0.727   4.797
 8350SOL    HW125949   5.491   0.729   4.777
 8350SOL    HW225950   5.640   0.753   4.714
 8351SOL     OW25951   3.645   5.367   4.154
 8351SOL    HW125952   3.640   5.315   4.240
 8351SOL    HW225953   3.586   5.324   4.086
 8352SOL     OW25954   6.436   0.168   1.642
 8352SOL    HW125955   6.372   0.244   1.650
 8352SOL    HW225956   6.460   0.135   1.733
 8353SOL     OW25957   5.580   3.791   2.489
 8353SOL    HW125958   5.518   3.814   2.415
 8353SOL    HW225959   5.607   3.874   2.539
 8354SOL     OW25960   3.152   1.337   6.359
 8354SOL    HW125961   3.112   1.286   6.283
 8354SOL    HW225962   3.250   1.352   6.342
 8355SOL     OW25963   2.619   0.710   6.906
 8355SOL    HW125964   2.699   0.758   6.870
 8355SOL    HW225965   2.562   0.772   6.959
 8356SOL     OW25966   1.091   6.543   0.604
 8356SOL    HW125967   0.991   6.549   0.602
 8356SOL    HW225968   1.119   6.448   0.587
 8357SOL     OW25969   3.900   5.474   5.467
 8357SOL    HW125970   3.997   5.451   5.472
 8357SOL    HW225971   3.855   5.446   5.551
 8358SOL     OW25972   2.272   2.863   5.828
 8358SOL    HW125973   2.277   2.884   5.925
 8358SOL    HW225974   2.323   2.930   5.775
 8359SOL     OW25975   3.893   6.072   4.770
 8359SOL    HW125976   3.836   5.990   4.770
 8359SOL    HW225977   3.989   6.047   4.755
 8360SOL     OW25978   3.712   0.255   2.839
 8360SOL    HW125979   3.742   0.160   2.832
 8360SOL    HW225980   3.786   0.316   2.811
 8361SOL     OW25981   1.676   1.063   2.066
 8361SOL    HW125982   1.759   1.062   2.122
 8361SOL    HW225983   1.615   1.134   2.100
 8362SOL     OW25984   2.695   2.294   0.445
 8362SOL    HW125985   2.689   2.392   0.466
 8362SOL    HW225986   2.639   2.274   0.364
 8363SOL     OW25987   0.932   2.912   0.512
 8363SOL    HW125988   0.879   2.913   0.427
 8363SOL    HW225989   0.874   2.945   0.587
 8364SOL     OW25990   0.435   3.444   2.778
 8364SOL    HW125991   0.456   3.375   2.710
 8364SOL    HW225992   0.497   3.522   2.768
 8365SOL     OW25993   1.696   3.970   0.913
 8365SOL    HW125994   1.699   3.918   0.828
 8365SOL    HW225995   1.767   3.937   0.976
 8366SOL     OW25996   4.540   5.876   1.944
 8366SOL    HW125997   4.460   5.936   1.936
 8366SOL    HW225998   4.579   5.860   1.854
 8367SOL     OW25999   4.680   6.488   4.261
 8367SOL    HW126000   4.665   6.391   4.241
 8367SOL    HW226001   4.659   6.542   4.180
 8368SOL     OW26002   2.738   5.896   6.385
 8368SOL    HW126003   2.814   5.960   6.391
 8368SOL    HW226004   2.657   5.936   6.428
 8369SOL     OW26005   1.787   0.932   6.924
 8369SOL    HW126006   1.797   0.873   6.843
 8369SOL    HW226007   1.706   0.989   6.912
 8370SOL     OW26008   2.985   2.318   5.748
 8370SOL    HW126009   3.067   2.298   5.695
 8370SOL    HW226010   2.983   2.261   5.830
 8371SOL     OW26011   1.449   3.610   0.292
 8371SOL    HW126012   1.431   3.539   0.361
 8371SOL    HW226013   1.362   3.642   0.254
 8372SOL     OW26014   0.828   6.655   2.649
 8372SOL    HW126015   0.734   6.624   2.665
 8372SOL    HW226016   0.828   6.754   2.637
 8373SOL     OW26017   0.754   6.604   5.321
 8373SOL    HW126018   0.793   6.522   5.279
 8373SOL    HW226019   0.796   6.618   5.411
 8374SOL     OW26020   0.267   1.165   7.010
 8374SOL    HW126021   0.364   1.191   7.009
 8374SOL    HW226022   0.257   1.078   0.038
 8375SOL     OW26023   3.367   6.032   5.842
 8375SOL    HW126024   3.328   5.940   5.846
 8375SOL    HW226025   3.454   6.029   5.793
 8376SOL     OW26026   2.327   0.525   4.765
 8376SOL    HW126027   2.340   0.466   4.845
 8376SOL    HW226028   2.363   0.478   4.684
 8377SOL     OW26029   5.963   5.749   1.525
 8377SOL    HW126030   5.865   5.766   1.518
 8377SOL    HW226031   6.012   5.827   1.485
 8378SOL     OW26032   4.791   4.043   3.283
 8378SOL    HW126033   4.768   3.958   3.329
 8378SOL    HW226034   4.855   4.095   3.339
 8379SOL     OW26035   6.800   3.665   1.637
 8379SOL    HW126036   6.789   3.647   1.539
 8379SOL    HW226037   6.891   3.636   1.666
 8380SOL     OW26038   6.335   1.076   2.148
 8380SOL    HW126039   6.376   1.004   2.204
 8380SOL    HW226040   6.254   1.112   2.194
 8381SOL     OW26041   0.857   5.315   4.823
 8381SOL    HW126042   0.772   5.361   4.849
 8381SOL    HW226043   0.879   5.245   4.891
 8382SOL     OW26044   1.323   1.458   2.073
 8382SOL    HW126045   1.404   1.495   2.028
 8382SOL    HW226046   1.305   1.365   2.039
 8383SOL     OW26047   2.862   1.948   6.576
 8383SOL    HW126048   2.775   1.959   6.625
 8383SOL    HW226049   2.850   1.979   6.481
 8384SOL     OW26050   0.027   6.722   0.954
 8384SOL    HW126051   7.015   6.812   0.925
 8384SOL    HW226052   7.009   6.652   0.893
 8385SOL     OW26053   5.716   2.448   1.848
 8385SOL    HW126054   5.618   2.428   1.850
 8385SOL    HW226055   5.765   2.381   1.903
 8386SOL     OW26056   1.074   4.147   2.363
 8386SOL    HW126057   1.021   4.098   2.432
 8386SOL    HW226058   1.081   4.090   2.281
 8387SOL     OW26059   1.373   1.095   0.674
 8387SOL    HW126060   1.389   0.997   0.660
 8387SOL    HW226061   1.345   1.112   0.768
 8388SOL     OW26062   2.634   6.139   1.755
 8388SOL    HW126063   2.696   6.071   1.716
 8388SOL    HW226064   2.541   6.104   1.757
 8389SOL     OW26065   5.317   3.629   2.066
 8389SOL    HW126066   5.253   3.555   2.085
 8389SOL    HW226067   5.315   3.651   1.968
 8390SOL     OW26068   3.916   1.970   6.537
 8390SOL    HW126069   3.884   2.054   6.582
 8390SOL    HW226070   3.953   1.993   6.447
 8391SOL     OW26071   5.823   6.672   0.656
 8391SOL    HW126072   5.888   6.639   0.587
 8391SOL    HW226073   5.867   6.671   0.746
 8392SOL     OW26074   6.316   3.612   3.960
 8392SOL    HW126075   6.283   3.693   4.009
 8392SOL    HW226076   6.401   3.580   4.003
 8393SOL     OW26077   5.178   0.541   2.397
 8393SOL    HW126078   5.224   0.452   2.404
 8393SOL    HW226079   5.174   0.583   2.488
 8394SOL     OW26080   5.805   3.609   2.473
 8394SOL    HW126081   5.771   3.524   2.514
 8394SOL    HW226082   5.730   3.674   2.463
 8395SOL     OW26083   2.202   0.222   5.236
 8395SOL    HW126084   2.136   0.155   5.270
 8395SOL    HW226085   2.168   0.314   5.252
 8396SOL     OW26086   4.039   4.891   4.329
 8396SOL    HW126087   4.122   4.948   4.329
 8396SOL    HW226088   4.027   4.850   4.419
 8397SOL     OW26089   6.769   1.458   4.124
 8397SOL    HW126090   6.791   1.530   4.189
 8397SOL    HW226091   6.770   1.495   4.031
 8398SOL     OW26092   4.863   1.834   6.205
 8398SOL    HW126093   4.875   1.921   6.253
 8398SOL    HW226094   4.769   1.827   6.172
 8399SOL     OW26095   0.016   5.732   6.531
 8399SOL    HW126096   0.097   5.696   6.577
 8399SOL    HW226097   0.004   5.828   6.557
 8400SOL     OW26098   1.535   2.309   4.322
 8400SOL    HW126099   1.626   2.289   4.359
 8400SOL    HW226100   1.544   2.331   4.224
 8401SOL     OW26101   2.335   0.294   5.014
 8401SOL    HW126102   2.423   0.330   5.046
 8401SOL    HW226103   2.288   0.248   5.090
 8402SOL     OW26104   4.645   0.736   6.458
 8402SOL    HW126105   4.734   0.734   6.504
 8402SOL    HW226106   4.598   0.649   6.471
 8403SOL     OW26107   6.793   4.851   3.767
 8403SOL    HW126108   6.766   4.865   3.862
 8403SOL    HW226109   6.740   4.776   3.728
 8404SOL     OW26110   2.648   1.889   6.056
 8404SOL    HW126111   2.630   1.793   6.077
 8404SOL    HW226112   2.743   1.911   6.078
 8405SOL     OW26113   3.856   1.816   5.880
 8405SOL    HW126114   3.772   1.763   5.887
 8405SOL    HW226115   3.851   1.875   5.800
 8406SOL     OW26116   4.761   0.750   0.051
 8406SOL    HW126117   4.808   0.808   0.118
 8406SOL    HW226118   4.815   0.668   0.034
 8407SOL     OW26119   4.208   6.292   3.492
 8407SOL    HW126120   4.198   6.351   3.572
 8407SOL    HW226121   4.304   6.265   3.483
 8408SOL     OW26122   5.467   6.819   0.887
 8408SOL    HW126123   5.507   6.910   0.876
 8408SOL    HW226124   5.530   6.761   0.937
 8409SOL     OW26125   4.247   2.344   1.951
 8409SOL    HW126126   4.250   2.432   1.903
 8409SOL    HW226127   4.154   2.326   1.982
 8410SOL     OW26128   6.778   1.968   1.735
 8410SOL    HW126129   6.796   1.879   1.778
 8410SOL    HW226130   6.859   1.997   1.685
 8411SOL     OW26131   0.300   6.037   1.507
 8411SOL    HW126132   0.318   6.133   1.483
 8411SOL    HW226133   0.203   6.026   1.529
 8412SOL     OW26134   3.272   3.225   0.759
 8412SOL    HW126135   3.290   3.136   0.801
 8412SOL    HW226136   3.338   3.292   0.794
 8413SOL     OW26137   4.240   5.548   6.349
 8413SOL    HW126138   4.319   5.588   6.303
 8413SOL    HW226139   4.265   5.526   6.444
 8414SOL     OW26140   1.799   1.093   2.728
 8414SOL    HW126141   1.843   1.114   2.815
 8414SOL    HW226142   1.797   0.994   2.715
 8415SOL     OW26143   2.901   0.016   4.134
 8415SOL    HW126144   2.914   0.115   4.127
 8415SOL    HW226145   2.975   6.996   4.188
 8416SOL     OW26146   5.596   1.616   4.884
 8416SOL    HW126147   5.499   1.624   4.861
 8416SOL    HW226148   5.606   1.562   4.968
 8417SOL     OW26149   1.462   3.330   5.255
 8417SOL    HW126150   1.406   3.299   5.332
 8417SOL    HW226151   1.553   3.288   5.261
 8418SOL     OW26152   0.917   5.478   2.299
 8418SOL    HW126153   0.904   5.386   2.261
 8418SOL    HW226154   0.938   5.472   2.396
 8419SOL     OW26155   5.572   1.013   2.988
 8419SOL    HW126156   5.578   1.008   3.087
 8419SOL    HW226157   5.663   1.007   2.948
 8420SOL     OW26158   3.714   6.945   2.198
 8420SOL    HW126159   3.617   6.924   2.210
 8420SOL    HW226160   3.731   0.019   2.226
 8421SOL     OW26161   3.667   6.396   6.202
 8421SOL    HW126162   3.662   6.296   6.202
 8421SOL    HW226163   3.583   6.434   6.164
 8422SOL     OW26164   4.726   2.665   2.408
 8422SOL    HW126165   4.694   2.579   2.369
 8422SOL    HW226166   4.760   2.724   2.334
 8423SOL     OW26167   5.110   4.446   5.514
 8423SOL    HW126168   5.208   4.433   5.500
 8423SOL    HW226169   5.090   4.446   5.612
 8424SOL     OW26170   2.205   0.365   3.451
 8424SOL    HW126171   2.198   0.386   3.548
 8424SOL    HW226172   2.129   0.406   3.401
 8425SOL     OW26173   3.260   4.108   3.656
 8425SOL    HW126174   3.204   4.081   3.577
 8425SOL    HW226175   3.212   4.082   3.740
 8426SOL     OW26176   3.881   3.353   2.439
 8426SOL    HW126177   3.787   3.347   2.473
 8426SOL    HW226178   3.944   3.327   2.511
 8427SOL     OW26179   3.012   3.265   3.467
 8427SOL    HW126180   2.940   3.320   3.426
 8427SOL    HW226181   3.000   3.263   3.566
 8428SOL     OW26182   0.040   0.104   0.779
 8428SOL    HW126183   0.139   0.101   0.785
 8428SOL    HW226184   0.012   0.131   0.687
 8429SOL     OW26185   2.012   5.518   6.286
 8429SOL    HW126186   1.978   5.424   6.277
 8429SOL    HW226187   1.937   5.577   6.317
 8430SOL     OW26188   3.994   5.342   4.501
 8430SOL    HW126189   4.086   5.313   4.471
 8430SOL    HW226190   3.987   5.441   4.494
 8431SOL     OW26191   2.939   3.291   6.773
 8431SOL    HW126192   2.956   3.195   6.753
 8431SOL    HW226193   2.843   3.313   6.753
 8432SOL     OW26194   6.695   5.388   6.333
 8432SOL    HW126195   6.739   5.450   6.397
 8432SOL    HW226196   6.747   5.387   6.247
 8433SOL     OW26197   4.425   2.568   1.158
 8433SOL    HW126198   4.439   2.473   1.129
 8433SOL    HW226199   4.336   2.600   1.124
 8434SOL     OW26200   1.949   5.449   4.710
 8434SOL    HW126201   1.940   5.432   4.612
 8434SOL    HW226202   1.861   5.431   4.754
 8435SOL     OW26203   5.251   1.071   2.569
 8435SOL    HW126204   5.172   1.048   2.512
 8435SOL    HW226205   5.304   0.988   2.588
 8436SOL     OW26206   2.846   6.201   3.493
 8436SOL    HW126207   2.912   6.198   3.568
 8436SOL    HW226208   2.874   6.137   3.421
 8437SOL     OW26209   2.176   3.009   2.706
 8437SOL    HW126210   2.183   3.054   2.617
 8437SOL    HW226211   2.241   2.933   2.711
 8438SOL     OW26212   1.722   3.663   3.222
 8438SOL    HW126213   1.702   3.715   3.305
 8438SOL    HW226214   1.753   3.726   3.151
 8439SOL     OW26215   6.074   5.323   3.835
 8439SOL    HW126216   6.110   5.292   3.924
 8439SOL    HW226217   6.098   5.256   3.765
 8440SOL     OW26218   2.164   1.623   3.509
 8440SOL    HW126219   2.095   1.616   3.581
 8440SOL    HW226220   2.118   1.629   3.420
 8441SOL     OW26221   5.387   6.018   5.474
 8441SOL    HW126222   5.288   6.006   5.478
 8441SOL    HW226223   5.431   5.929   5.480
 8442SOL     OW26224   3.785   1.062   5.508
 8442SOL    HW126225   3.804   1.094   5.415
 8442SOL    HW226226   3.862   1.085   5.568
 8443SOL     OW26227   1.785   4.980   3.492
 8443SOL    HW126228   1.827   4.956   3.405
 8443SOL    HW226229   1.821   4.922   3.565
 8444SOL     OW26230   4.680   6.641   2.695
 8444SOL    HW126231   4.675   6.597   2.785
 8444SOL    HW226232   4.774   6.640   2.662
 8445SOL     OW26233   2.808   6.894   0.050
 8445SOL    HW126234   2.741   6.962   0.078
 8445SOL    HW226235   2.816   6.823   0.121
 8446SOL     OW26236   0.036   6.403   5.190
 8446SOL    HW126237   0.128   6.364   5.183
 8446SOL    HW226238   0.040   6.502   5.174
 8447SOL     OW26239   4.399   1.502   2.771
 8447SOL    HW126240   4.389   1.444   2.852
 8447SOL    HW226241   4.485   1.482   2.725
 8448SOL     OW26242   4.945   6.507   3.369
 8448SOL    HW126243   4.989   6.592   3.401
 8448SOL    HW226244   4.856   6.498   3.412
 8449SOL     OW26245   1.753   2.935   3.210
 8449SOL    HW126246   1.689   2.982   3.148
 8449SOL    HW226247   1.735   2.964   3.304
 8450SOL     OW26248   0.399   0.653   6.728
 8450SOL    HW126249   0.337   0.621   6.656
 8450SOL    HW226250   0.469   0.713   6.688
 8451SOL     OW26251   3.667   1.130   0.973
 8451SOL    HW126252   3.701   1.080   1.053
 8451SOL    HW226253   3.719   1.215   0.963
 8452SOL     OW26254   5.499   1.751   4.543
 8452SOL    HW126255   5.443   1.808   4.482
 8452SOL    HW226256   5.440   1.688   4.593
 8453SOL     OW26257   0.917   5.517   0.033
 8453SOL    HW126258   0.944   5.526   6.957
 8453SOL    HW226259   0.894   5.607   0.070
 8454SOL     OW26260   1.037   4.302   6.924
 8454SOL    HW126261   0.953   4.278   6.972
 8454SOL    HW226262   1.113   4.247   6.959
 8455SOL     OW26263   0.828   0.291   2.480
 8455SOL    HW126264   0.741   0.337   2.464
 8455SOL    HW226265   0.900   0.338   2.430
 8456SOL     OW26266   5.139   0.288   3.274
 8456SOL    HW126267   5.066   0.353   3.250
 8456SOL    HW226268   5.211   0.336   3.324
 8457SOL     OW26269   6.119   6.667   4.587
 8457SOL    HW126270   6.150   6.758   4.613
 8457SOL    HW226271   6.129   6.605   4.665
 8458SOL     OW26272   0.572   6.810   0.374
 8458SOL    HW126273   0.601   6.904   0.355
 8458SOL    HW226274   0.476   6.798   0.349
 8459SOL     OW26275   1.222   5.505   3.258
 8459SOL    HW126276   1.143   5.460   3.300
 8459SOL    HW226277   1.194   5.551   3.174
 8460SOL     OW26278   4.146   4.094   5.329
 8460SOL    HW126279   4.178   4.000   5.342
 8460SOL    HW226280   4.224   4.154   5.313
 8461SOL     OW26281   6.836   3.030   4.640
 8461SOL    HW126282   6.899   2.961   4.673
 8461SOL    HW226283   6.829   3.024   4.540
 8462SOL     OW26284   2.603   1.782   1.031
 8462SOL    HW126285   2.654   1.860   1.066
 8462SOL    HW226286   2.616   1.704   1.092
 8463SOL     OW26287   5.985   0.560   2.166
 8463SOL    HW126288   6.057   0.598   2.224
 8463SOL    HW226289   6.006   0.577   2.070
 8464SOL     OW26290   5.970   3.246   4.555
 8464SOL    HW126291   5.871   3.261   4.548
 8464SOL    HW226292   6.017   3.334   4.561
 8465SOL     OW26293   1.169   1.978   0.706
 8465SOL    HW126294   1.115   1.989   0.623
 8465SOL    HW226295   1.119   1.923   0.772
 8466SOL     OW26296   1.012   5.840   3.351
 8466SOL    HW126297   1.024   5.772   3.424
 8466SOL    HW226298   1.003   5.792   3.264
 8467SOL     OW26299   2.943   5.618   0.945
 8467SOL    HW126300   2.987   5.620   1.035
 8467SOL    HW226301   3.010   5.595   0.875
 8468SOL     OW26302   4.039   2.157   0.140
 8468SOL    HW126303   3.951   2.128   0.102
 8468SOL    HW226304   4.080   2.082   0.192
 8469SOL     OW26305   3.191   2.845   6.619
 8469SOL    HW126306   3.284   2.878   6.603
 8469SOL    HW226307   3.133   2.870   6.543
 8470SOL     OW26308   2.115   2.447   1.112
 8470SOL    HW126309   2.141   2.449   1.015
 8470SOL    HW226310   2.105   2.353   1.142
 8471SOL     OW26311   3.105   0.493   4.404
 8471SOL    HW126312   3.067   0.490   4.497
 8471SOL    HW226313   3.030   0.485   4.338
 8472SOL     OW26314   0.438   6.799   4.481
 8472SOL    HW126315   0.457   6.722   4.420
 8472SOL    HW226316   0.365   6.854   4.442
 8473SOL     OW26317   6.658   5.059   0.209
 8473SOL    HW126318   6.723   5.112   0.154
 8473SOL    HW226319   6.577   5.115   0.228
 8474SOL     OW26320   3.314   3.030   1.690
 8474SOL    HW126321   3.298   3.007   1.594
 8474SOL    HW226322   3.273   2.961   1.749
 8475SOL     OW26323   6.057   1.861   2.771
 8475SOL    HW126324   6.122   1.908   2.831
 8475SOL    HW226325   6.006   1.793   2.824
 8476SOL     OW26326   5.491   0.162   2.092
 8476SOL    HW126327   5.496   0.062   2.092
 8476SOL    HW226328   5.412   0.191   2.039
 8477SOL     OW26329   2.685   6.821   1.088
 8477SOL    HW126330   2.767   6.801   1.035
 8477SOL    HW226331   2.658   6.740   1.140
 8478SOL     OW26332   1.895   0.889   5.485
 8478SOL    HW126333   1.801   0.881   5.519
 8478SOL    HW226334   1.905   0.833   5.402
 8479SOL     OW26335   6.190   1.091   0.291
 8479SOL    HW126336   6.275   1.039   0.280
 8479SOL    HW226337   6.181   1.120   0.386
 8480SOL     OW26338   3.306   0.352   1.256
 8480SOL    HW126339   3.352   0.328   1.342
 8480SOL    HW226340   3.304   0.452   1.247
 8481SOL     OW26341   3.740   1.580   4.603
 8481SOL    HW126342   3.723   1.483   4.587
 8481SOL    HW226343   3.673   1.635   4.553
 8482SOL     OW26344   1.475   0.244   2.200
 8482SOL    HW126345   1.400   0.230   2.266
 8482SOL    HW226346   1.539   0.312   2.237
 8483SOL     OW26347   3.452   5.767   2.256
 8483SOL    HW126348   3.403   5.837   2.203
 8483SOL    HW226349   3.549   5.770   2.232
 8484SOL     OW26350   0.567   4.701   4.133
 8484SOL    HW126351   0.571   4.783   4.189
 8484SOL    HW226352   0.581   4.725   4.037
 8485SOL     OW26353   2.422   4.083   0.334
 8485SOL    HW126354   2.413   4.146   0.257
 8485SOL    HW226355   2.519   4.064   0.351
 8486SOL     OW26356   5.976   0.921   2.497
 8486SOL    HW126357   5.922   0.838   2.510
 8486SOL    HW226358   5.932   0.979   2.428
 8487SOL     OW26359   5.693   0.280   1.381
 8487SOL    HW126360   5.704   0.379   1.385
 8487SOL    HW226361   5.687   0.251   1.286
 8488SOL     OW26362   5.273   4.434   4.341
 8488SOL    HW126363   5.275   4.464   4.437
 8488SOL    HW226364   5.233   4.505   4.284
 8489SOL     OW26365   5.249   4.372   1.352
 8489SOL    HW126366   5.266   4.321   1.437
 8489SOL    HW226367   5.165   4.425   1.363
 8490SOL     OW26368   4.205   5.505   2.881
 8490SOL    HW126369   4.302   5.482   2.880
 8490SOL    HW226370   4.181   5.546   2.969
 8491SOL     OW26371   2.529   0.873   2.126
 8491SOL    HW126372   2.622   0.873   2.091
 8491SOL    HW226373   2.472   0.935   2.072
 8492SOL     OW26374   5.913   3.109   5.675
 8492SOL    HW126375   5.915   3.107   5.775
 8492SOL    HW226376   5.878   3.198   5.644
 8493SOL     OW26377   4.237   1.868   0.121
 8493SOL    HW126378   4.315   1.866   0.184
 8493SOL    HW226379   4.249   1.943   0.056
 8494SOL     OW26380   2.681   5.952   7.018
 8494SOL    HW126381   2.610   5.887   6.990
 8494SOL    HW226382   2.659   5.989   0.089
 8495SOL     OW26383   6.641   2.239   0.713
 8495SOL    HW126384   6.643   2.188   0.798
 8495SOL    HW226385   6.714   2.307   0.713
 8496SOL     OW26386   0.303   2.336   3.282
 8496SOL    HW126387   0.208   2.342   3.310
 8496SOL    HW226388   0.342   2.428   3.278
 8497SOL     OW26389   5.966   5.246   4.203
 8497SOL    HW126390   6.044   5.309   4.195
 8497SOL    HW226391   6.000   5.152   4.211
 8498SOL     OW26392   0.212   0.205   1.340
 8498SOL    HW126393   0.245   0.153   1.261
 8498SOL    HW226394   0.260   0.292   1.346
 8499SOL     OW26395   3.061   5.007   6.324
 8499SOL    HW126396   3.103   5.047   6.243
 8499SOL    HW226397   3.129   4.999   6.397
 8500SOL     OW26398   2.230   6.606   6.036
 8500SOL    HW126399   2.237   6.620   5.937
 8500SOL    HW226400   2.297   6.538   6.065
 8501SOL     OW26401   1.841   3.641   6.587
 8501SOL    HW126402   1.795   3.606   6.506
 8501SOL    HW226403   1.938   3.655   6.567
 8502SOL     OW26404   6.930   6.191   1.370
 8502SOL    HW126405   6.882   6.276   1.392
 8502SOL    HW226406   7.009   6.212   1.311
 8503SOL     OW26407   2.266   5.031   3.526
 8503SOL    HW126408   2.236   5.099   3.459
 8503SOL    HW226409   2.351   5.062   3.569
 8504SOL     OW26410   2.029   6.073   3.372
 8504SOL    HW126411   1.977   6.158   3.362
 8504SOL    HW226412   2.089   6.062   3.293
 8505SOL     OW26413   5.581   4.135   4.027
 8505SOL    HW126414   5.571   4.099   4.120
 8505SOL    HW226415   5.523   4.216   4.016
 8506SOL     OW26416   1.184   6.263   0.572
 8506SOL    HW126417   1.231   6.203   0.507
 8506SOL    HW226418   1.125   6.208   0.631
 8507SOL     OW26419   2.188   0.897   6.216
 8507SOL    HW126420   2.171   0.942   6.303
 8507SOL    HW226421   2.227   0.806   6.232
 8508SOL     OW26422   6.799   2.620   5.414
 8508SOL    HW126423   6.705   2.617   5.450
 8508SOL    HW226424   6.809   2.553   5.341
 8509SOL     OW26425   5.974   1.328   4.688
 8509SOL    HW126426   5.936   1.379   4.611
 8509SOL    HW226427   5.916   1.340   4.768
 8510SOL     OW26428   5.780   5.561   3.120
 8510SOL    HW126429   5.684   5.572   3.144
 8510SOL    HW226430   5.800   5.612   3.036
 8511SOL     OW26431   6.702   4.231   0.963
 8511SOL    HW126432   6.609   4.255   0.937
 8511SOL    HW226433   6.747   4.312   1.000
 8512SOL     OW26434   4.212   2.423   6.938
 8512SOL    HW126435   4.126   2.373   6.924
 8512SOL    HW226436   4.260   2.384   7.017
 8513SOL     OW26437   5.756   3.773   0.909
 8513SOL    HW126438   5.666   3.743   0.878
 8513SOL    HW226439   5.745   3.840   0.983
 8514SOL     OW26440   2.475   1.658   4.549
 8514SOL    HW126441   2.420   1.577   4.530
 8514SOL    HW226442   2.440   1.702   4.632
 8515SOL     OW26443   0.327   1.502   6.573
 8515SOL    HW126444   0.333   1.600   6.552
 8515SOL    HW226445   0.419   1.463   6.576
 8516SOL     OW26446   5.908   2.830   2.422
 8516SOL    HW126447   5.845   2.782   2.360
 8516SOL    HW226448   6.001   2.800   2.405
 8517SOL     OW26449   2.559   2.516   5.731
 8517SOL    HW126450   2.500   2.452   5.681
 8517SOL    HW226451   2.506   2.559   5.805
 8518SOL     OW26452   4.904   4.798   6.491
 8518SOL    HW126453   4.934   4.764   6.581
 8518SOL    HW226454   4.954   4.883   6.470
 8519SOL     OW26455   1.489   4.730   0.698
 8519SOL    HW126456   1.515   4.681   0.781
 8519SOL    HW226457   1.415   4.681   0.652
 8520SOL     OW26458   4.165   3.689   5.099
 8520SOL    HW126459   4.134   3.711   5.007
 8520SOL    HW226460   4.189   3.593   5.104
 8521SOL     OW26461   1.143   6.422   5.460
 8521SOL    HW126462   1.192   6.492   5.409
 8521SOL    HW226463   1.095   6.362   5.397
 8522SOL     OW26464   0.895   6.900   0.245
 8522SOL    HW126465   0.931   6.872   0.156
 8522SOL    HW226466   0.841   6.983   0.235
 8523SOL     OW26467   2.721   6.712   6.392
 8523SOL    HW126468   2.762   6.800   6.370
 8523SOL    HW226469   2.786   6.639   6.373
 8524SOL     OW26470   1.243   5.144   4.978
 8524SOL    HW126471   1.255   5.159   4.880
 8524SOL    HW226472   1.329   5.164   5.025
 8525SOL     OW26473   6.385   4.537   0.913
 8525SOL    HW126474   6.388   4.635   0.933
 8525SOL    HW226475   6.414   4.521   0.819
 8526SOL     OW26476   2.510   6.529   0.747
 8526SOL    HW126477   2.416   6.558   0.768
 8526SOL    HW226478   2.519   6.431   0.762
 8527SOL     OW26479   3.235   0.321   6.781
 8527SOL    HW126480   3.284   0.408   6.775
 8527SOL    HW226481   3.176   0.311   6.700
 8528SOL     OW26482   4.750   1.906   1.203
 8528SOL    HW126483   4.849   1.922   1.200
 8528SOL    HW226484   4.732   1.817   1.244
 8529SOL     OW26485   0.730   6.514   6.603
 8529SOL    HW126486   0.802   6.464   6.554
 8529SOL    HW226487   0.656   6.451   6.627
 8530SOL     OW26488   2.966   3.302   4.003
 8530SOL    HW126489   2.918   3.389   3.989
 8530SOL    HW226490   2.977   3.255   3.915
 8531SOL     OW26491   6.630   5.626   3.525
 8531SOL    HW126492   6.699   5.564   3.488
 8531SOL    HW226493   6.620   5.705   3.464
 8532SOL     OW26494   3.395   6.342   4.030
 8532SOL    HW126495   3.442   6.333   3.942
 8532SOL    HW226496   3.419   6.429   4.072
 8533SOL     OW26497   0.667   6.203   7.005
 8533SOL    HW126498   0.644   6.300   7.012
 8533SOL    HW226499   0.596   6.156   6.952
 8534SOL     OW26500   4.594   2.168   4.088
 8534SOL    HW126501   4.516   2.210   4.134
 8534SOL    HW226502   4.591   2.190   3.991
 8535SOL     OW26503   5.433   0.826   3.737
 8535SOL    HW126504   5.515   0.769   3.741
 8535SOL    HW226505   5.357   0.780   3.785
 8536SOL     OW26506   0.562   1.553   4.671
 8536SOL    HW126507   0.571   1.651   4.685
 8536SOL    HW226508   0.645   1.506   4.702
 8537SOL     OW26509   5.897   1.237   3.457
 8537SOL    HW126510   5.812   1.268   3.414
 8537SOL    HW226511   5.975   1.270   3.404
 8538SOL     OW26512   1.357   1.422   0.190
 8538SOL    HW126513   1.280   1.421   0.125
 8538SOL    HW226514   1.418   1.498   0.168
 8539SOL     OW26515   6.377   2.702   2.806
 8539SOL    HW126516   6.279   2.717   2.808
 8539SOL    HW226517   6.396   2.605   2.787
 8540SOL     OW26518   4.524   7.010   6.875
 8540SOL    HW126519   4.425   7.014   6.863
 8540SOL    HW226520   4.553   0.062   6.937
 8541SOL     OW26521   2.754   2.281   4.229
 8541SOL    HW126522   2.703   2.195   4.219
 8541SOL    HW226523   2.689   2.356   4.239
 8542SOL     OW26524   3.616   4.384   6.605
 8542SOL    HW126525   3.623   4.482   6.618
 8542SOL    HW226526   3.587   4.364   6.511
 8543SOL     OW26527   1.976   2.361   0.129
 8543SOL    HW126528   1.958   2.276   0.177
 8543SOL    HW226529   2.026   2.423   0.188
 8544SOL     OW26530   5.317   2.592   4.468
 8544SOL    HW126531   5.341   2.688   4.483
 8544SOL    HW226532   5.369   2.535   4.532
 8545SOL     OW26533   4.827   6.434   5.629
 8545SOL    HW126534   4.895   6.499   5.662
 8545SOL    HW226535   4.752   6.428   5.696
 8546SOL     OW26536   5.969   1.511   3.730
 8546SOL    HW126537   6.062   1.476   3.742
 8546SOL    HW226538   5.971   1.596   3.678
 8547SOL     OW26539   1.650   5.548   4.731
 8547SOL    HW126540   1.684   5.478   4.794
 8547SOL    HW226541   1.570   5.514   4.683
 8548SOL     OW26542   5.751   1.677   5.828
 8548SOL    HW126543   5.818   1.629   5.771
 8548SOL    HW226544   5.692   1.733   5.769
 8549SOL     OW26545   6.430   4.044   3.776
 8549SOL    HW126546   6.463   3.952   3.757
 8549SOL    HW226547   6.341   4.058   3.732
 8550SOL     OW26548   1.398   5.376   6.568
 8550SOL    HW126549   1.460   5.315   6.520
 8550SOL    HW226550   1.311   5.380   6.519
 8551SOL     OW26551   3.336   4.195   6.685
 8551SOL    HW126552   3.428   4.180   6.722
 8551SOL    HW226553   3.302   4.284   6.715
 8552SOL     OW26554   3.325   5.600   3.127
 8552SOL    HW126555   3.394   5.671   3.123
 8552SOL    HW226556   3.237   5.640   3.155
 8553SOL     OW26557   5.320   6.728   7.008
 8553SOL    HW126558   5.374   6.812   7.007
 8553SOL    HW226559   5.270   6.719   6.922
 8554SOL     OW26560   0.636   4.353   0.193
 8554SOL    HW126561   0.564   4.304   0.241
 8554SOL    HW226562   0.596   4.408   0.119
 8555SOL     OW26563   0.758   0.795   3.360
 8555SOL    HW126564   0.670   0.775   3.403
 8555SOL    HW226565   0.828   0.801   3.431
 8556SOL     OW26566   0.166   0.753   3.537
 8556SOL    HW126567   0.075   0.793   3.526
 8556SOL    HW226568   0.236   0.823   3.524
 8557SOL     OW26569   6.999   6.460   1.597
 8557SOL    HW126570   6.904   6.443   1.620
 8557SOL    HW226571   7.012   6.558   1.579
 8558SOL     OW26572   2.269   5.680   2.428
 8558SOL    HW126573   2.225   5.697   2.340
 8558SOL    HW226574   2.364   5.713   2.425
 8559SOL     OW26575   0.716   0.956   1.541
 8559SOL    HW126576   0.710   0.997   1.632
 8559SOL    HW226577   0.765   1.017   1.479
 8560SOL     OW26578   0.003   1.429   0.574
 8560SOL    HW126579   0.029   1.335   0.597
 8560SOL    HW226580   0.052   1.493   0.633
 8561SOL     OW26581   4.482   6.076   2.231
 8561SOL    HW126582   4.441   6.013   2.165
 8561SOL    HW226583   4.426   6.159   2.237
 8562SOL     OW26584   3.665   6.688   4.295
 8562SOL    HW126585   3.601   6.756   4.332
 8562SOL    HW226586   3.688   6.621   4.366
 8563SOL     OW26587   2.621   3.122   0.054
 8563SOL    HW126588   2.528   3.111   0.089
 8563SOL    HW226589   2.654   3.034   0.019
 8564SOL     OW26590   1.044   0.155   3.824
 8564SOL    HW126591   1.030   0.248   3.791
 8564SOL    HW226592   1.112   0.109   3.768
 8565SOL     OW26593   4.152   7.006   0.798
 8565SOL    HW126594   4.223   0.034   0.746
 8565SOL    HW226595   4.089   6.961   0.736
 8566SOL     OW26596   0.900   2.485   2.965
 8566SOL    HW126597   0.848   2.571   2.958
 8566SOL    HW226598   0.878   2.440   3.052
 8567SOL     OW26599   5.663   1.674   0.964
 8567SOL    HW126600   5.715   1.674   1.050
 8567SOL    HW226601   5.650   1.580   0.933
 8568SOL     OW26602   4.801   1.978   0.615
 8568SOL    HW126603   4.884   2.033   0.622
 8568SOL    HW226604   4.723   2.037   0.592
 8569SOL     OW26605   4.844   0.905   4.641
 8569SOL    HW126606   4.812   0.991   4.682
 8569SOL    HW226607   4.920   0.924   4.578
 8570SOL     OW26608   1.096   4.020   6.538
 8570SOL    HW126609   1.188   4.007   6.575
 8570SOL    HW226610   1.098   4.012   6.439
 8571SOL     OW26611   7.008   4.337   4.511
 8571SOL    HW126612   0.048   4.313   4.434
 8571SOL    HW226613   6.928   4.386   4.477
 8572SOL     OW26614   1.969   4.911   5.248
 8572SOL    HW126615   1.969   5.010   5.239
 8572SOL    HW226616   1.950   4.869   5.159
 8573SOL     OW26617   4.828   6.451   6.670
 8573SOL    HW126618   4.888   6.499   6.606
 8573SOL    HW226619   4.841   6.352   6.660
 8574SOL     OW26620   0.449   3.897   6.170
 8574SOL    HW126621   0.392   3.864   6.095
 8574SOL    HW226622   0.396   3.904   6.254
 8575SOL     OW26623   2.763   2.985   0.280
 8575SOL    HW126624   2.841   2.988   0.342
 8575SOL    HW226625   2.681   3.015   0.330
 8576SOL     OW26626   1.099   6.975   1.742
 8576SOL    HW126627   1.025   6.934   1.795
 8576SOL    HW226628   1.177   6.913   1.739
 8577SOL     OW26629   6.445   5.558   3.018
 8577SOL    HW126630   6.386   5.586   3.094
 8577SOL    HW226631   6.402   5.583   2.932
 8578SOL     OW26632   4.803   0.208   3.960
 8578SOL    HW126633   4.764   0.283   4.013
 8578SOL    HW226634   4.843   0.141   4.023
 8579SOL     OW26635   1.143   5.038   3.284
 8579SOL    HW126636   1.185   5.125   3.309
 8579SOL    HW226637   1.200   4.962   3.317
 8580SOL     OW26638   1.325   6.277   2.043
 8580SOL    HW126639   1.366   6.246   1.957
 8580SOL    HW226640   1.250   6.339   2.024
 8581SOL     OW26641   3.109   1.858   1.293
 8581SOL    HW126642   3.096   1.760   1.305
 8581SOL    HW226643   3.065   1.888   1.208
 8582SOL     OW26644   4.196   4.687   2.220
 8582SOL    HW126645   4.174   4.784   2.218
 8582SOL    HW226646   4.210   4.654   2.126
 8583SOL     OW26647   6.634   0.149   5.878
 8583SOL    HW126648   6.623   0.139   5.779
 8583SOL    HW226649   6.656   0.060   5.918
 8584SOL     OW26650   6.893   4.477   0.570
 8584SOL    HW126651   6.952   4.403   0.602
 8584SOL    HW226652   6.803   4.469   0.611
 8585SOL     OW26653   0.373   0.638   0.528
 8585SOL    HW126654   0.308   0.696   0.578
 8585SOL    HW226655   0.434   0.696   0.474
 8586SOL     OW26656   3.925   6.151   3.173
 8586SOL    HW126657   3.946   6.111   3.085
 8586SOL    HW226658   3.994   6.122   3.240
 8587SOL     OW26659   0.069   1.932   2.431
 8587SOL    HW126660   0.090   1.988   2.510
 8587SOL    HW226661   0.070   1.988   2.348
 8588SOL     OW26662   3.725   2.551   0.676
 8588SOL    HW126663   3.779   2.484   0.726
 8588SOL    HW226664   3.724   2.638   0.725
 8589SOL     OW26665   3.551   0.942   4.914
 8589SOL    HW126666   3.461   0.970   4.882
 8589SOL    HW226667   3.588   1.012   4.974
 8590SOL     OW26668   6.331   5.363   4.061
 8590SOL    HW126669   6.290   5.271   4.057
 8590SOL    HW226670   6.419   5.358   4.108
 8591SOL     OW26671   1.386   3.432   6.240
 8591SOL    HW126672   1.360   3.468   6.150
 8591SOL    HW226673   1.462   3.368   6.229
 8592SOL     OW26674   6.914   4.207   1.280
 8592SOL    HW126675   6.866   4.158   1.207
 8592SOL    HW226676   6.863   4.196   1.365
 8593SOL     OW26677   1.549   6.814   2.302
 8593SOL    HW126678   1.473   6.880   2.298
 8593SOL    HW226679   1.546   6.756   2.220
 8594SOL     OW26680   2.969   3.854   4.095
 8594SOL    HW126681   3.067   3.847   4.077
 8594SOL    HW226682   2.933   3.936   4.052
 8595SOL     OW26683   1.675   1.983   2.298
 8595SOL    HW126684   1.734   1.921   2.247
 8595SOL    HW226685   1.715   2.001   2.388
 8596SOL     OW26686   5.562   4.806   1.413
 8596SOL    HW126687   5.564   4.836   1.508
 8596SOL    HW226688   5.536   4.710   1.408
 8597SOL     OW26689   2.874   1.434   0.673
 8597SOL    HW126690   2.921   1.515   0.708
 8597SOL    HW226691   2.824   1.459   0.590
 8598SOL     OW26692   6.410   3.609   0.746
 8598SOL    HW126693   6.507   3.587   0.735
 8598SOL    HW226694   6.394   3.705   0.726
 8599SOL     OW26695   1.010   2.653   3.564
 8599SOL    HW126696   0.962   2.617   3.644
 8599SOL    HW226697   0.988   2.597   3.484
 8600SOL     OW26698   6.663   4.847   6.555
 8600SOL    HW126699   6.601   4.880   6.483
 8600SOL    HW226700   6.621   4.770   6.603
 8601SOL     OW26701   0.075   0.842   4.112
 8601SOL    HW126702   6.999   0.853   4.139
 8601SOL    HW226703   0.119   0.932   4.109
 8602SOL     OW26704   2.935   5.948   2.574
 8602SOL    HW126705   2.892   6.012   2.637
 8602SOL    HW226706   2.867   5.882   2.541
 8603SOL     OW26707   3.727   3.570   0.414
 8603SOL    HW126708   3.753   3.602   0.322
 8603SOL    HW226709   3.801   3.591   0.478
 8604SOL     OW26710   5.477   2.980   3.418
 8604SOL    HW126711   5.400   2.917   3.412
 8604SOL    HW226712   5.498   3.016   3.327
 8605SOL     OW26713   3.373   5.560   4.019
 8605SOL    HW126714   3.355   5.537   4.114
 8605SOL    HW226715   3.381   5.660   4.010
 8606SOL     OW26716   2.935   4.918   5.889
 8606SOL    HW126717   3.024   4.964   5.882
 8606SOL    HW226718   2.918   4.867   5.806
 8607SOL     OW26719   3.970   5.884   2.008
 8607SOL    HW126720   3.982   5.956   2.077
 8607SOL    HW226721   3.971   5.926   1.917
 8608SOL     OW26722   4.051   4.758   2.920
 8608SOL    HW126723   4.046   4.858   2.920
 8608SOL    HW226724   4.108   4.728   2.996
 8609SOL     OW26725   3.603   0.406   4.958
 8609SOL    HW126726   3.505   0.388   4.957
 8609SOL    HW226727   3.645   0.366   4.876
 8610SOL     OW26728   0.844   6.764   3.336
 8610SOL    HW126729   0.832   6.672   3.372
 8610SOL    HW226730   0.920   6.764   3.271
 8611SOL     OW26731   1.627   2.052   4.648
 8611SOL    HW126732   1.538   2.040   4.604
 8611SOL    HW226733   1.616   2.108   4.730
 8612SOL     OW26734   3.308   2.797   6.872
 8612SOL    HW126735   3.260   2.796   6.784
 8612SOL    HW226736   3.333   2.703   6.897
 8613SOL     OW26737   1.904   1.545   1.038
 8613SOL    HW126738   1.849   1.464   1.021
 8613SOL    HW226739   1.858   1.603   1.105
 8614SOL     OW26740   0.940   3.817   3.141
 8614SOL    HW126741   0.903   3.819   3.234
 8614SOL    HW226742   1.035   3.846   3.143
 8615SOL     OW26743   4.167   2.162   5.974
 8615SOL    HW126744   4.119   2.207   6.049
 8615SOL    HW226745   4.151   2.063   5.978
 8616SOL     OW26746   1.149   4.920   6.926
 8616SOL    HW126747   1.224   4.859   6.953
 8616SOL    HW226748   1.186   5.003   6.884
 8617SOL     OW26749   6.392   2.194   0.988
 8617SOL    HW126750   6.414   2.242   1.073
 8617SOL    HW226751   6.474   2.149   0.952
 8618SOL     OW26752   4.779   0.450   2.731
 8618SOL    HW126753   4.823   0.535   2.760
 8618SOL    HW226754   4.714   0.420   2.801
 8619SOL     OW26755   4.598   4.997   6.822
 8619SOL    HW126756   4.563   4.903   6.831
 8619SOL    HW226757   4.587   5.028   6.728
 8620SOL     OW26758   5.575   6.981   2.487
 8620SOL    HW126759   5.514   6.916   2.532
 8620SOL    HW226760   5.561   0.052   2.526
 8621SOL     OW26761   6.203   1.114   3.873
 8621SOL    HW126762   6.165   1.042   3.815
 8621SOL    HW226763   6.182   1.203   3.832
 8622SOL     OW26764   5.059   4.946   0.232
 8622SOL    HW126765   4.974   4.998   0.230
 8622SOL    HW226766   5.115   4.977   0.308
 8623SOL     OW26767   1.127   4.003   2.818
 8623SOL    HW126768   1.094   4.019   2.911
 8623SOL    HW226769   1.099   3.911   2.789
 8624SOL     OW26770   1.337   4.300   3.277
 8624SOL    HW126771   1.299   4.208   3.269
 8624SOL    HW226772   1.363   4.317   3.372
 8625SOL     OW26773   4.795   0.628   4.625
 8625SOL    HW126774   4.797   0.728   4.634
 8625SOL    HW226775   4.701   0.596   4.636
 8626SOL     OW26776   3.329   3.242   4.107
 8626SOL    HW126777   3.426   3.240   4.132
 8626SOL    HW226778   3.308   3.164   4.049
 8627SOL     OW26779   1.022   0.471   1.171
 8627SOL    HW126780   1.106   0.415   1.170
 8627SOL    HW226781   0.955   0.428   1.232
 8628SOL     OW26782   6.641   1.089   7.003
 8628SOL    HW126783   6.561   1.063   6.949
 8628SOL    HW226784   6.720   1.036   6.974
 8629SOL     OW26785   0.796   4.895   3.996
 8629SOL    HW126786   0.845   4.865   3.914
 8629SOL    HW226787   0.740   4.975   3.975
 8630SOL     OW26788   5.708   3.494   4.129
 8630SOL    HW126789   5.613   3.520   4.108
 8630SOL    HW226790   5.770   3.561   4.089
 8631SOL     OW26791   3.948   5.496   5.193
 8631SOL    HW126792   3.934   5.498   5.292
 8631SOL    HW226793   4.034   5.541   5.171
 8632SOL     OW26794   3.691   0.272   3.729
 8632SOL    HW126795   3.687   0.271   3.629
 8632SOL    HW226796   3.682   0.178   3.763
 8633SOL     OW26797   5.756   1.213   3.887
 8633SOL    HW126798   5.776   1.306   3.917
 8633SOL    HW226799   5.666   1.211   3.843
 8634SOL     OW26800   6.334   4.264   1.977
 8634SOL    HW126801   6.369   4.256   1.884
 8634SOL    HW226802   6.285   4.180   2.002
 8635SOL     OW26803   6.166   3.876   6.109
 8635SOL    HW126804   6.193   3.796   6.057
 8635SOL    HW226805   6.237   3.897   6.176
 8636SOL     OW26806   6.160   5.807   0.617
 8636SOL    HW126807   6.129   5.888   0.665
 8636SOL    HW226808   6.217   5.834   0.539
 8637SOL     OW26809   1.829   0.797   0.265
 8637SOL    HW126810   1.785   0.734   0.329
 8637SOL    HW226811   1.927   0.801   0.285
 8638SOL     OW26812   2.386   4.502   0.101
 8638SOL    HW126813   2.420   4.552   0.021
 8638SOL    HW226814   2.328   4.427   0.070
 8639SOL     OW26815   5.193   2.974   2.142
 8639SOL    HW126816   5.115   3.030   2.115
 8639SOL    HW226817   5.276   3.009   2.098
 8640SOL     OW26818   4.614   4.223   0.722
 8640SOL    HW126819   4.672   4.304   0.711
 8640SOL    HW226820   4.639   4.175   0.806
 8641SOL     OW26821   0.477   4.351   3.457
 8641SOL    HW126822   0.440   4.385   3.544
 8641SOL    HW226823   0.575   4.369   3.454
 8642SOL     OW26824   5.093   1.126   1.680
 8642SOL    HW126825   5.179   1.127   1.629
 8642SOL    HW226826   5.019   1.098   1.618
 8643SOL     OW26827   4.231   0.294   6.862
 8643SOL    HW126828   4.202   0.227   6.794
 8643SOL    HW226829   4.331   0.298   6.864
 8644SOL     OW26830   5.635   2.397   4.829
 8644SOL    HW126831   5.572   2.421   4.902
 8644SOL    HW226832   5.726   2.431   4.851
 8645SOL     OW26833   6.470   3.809   1.001
 8645SOL    HW126834   6.455   3.877   0.929
 8645SOL    HW226835   6.540   3.744   0.971
 8646SOL     OW26836   5.165   1.381   0.694
 8646SOL    HW126837   5.158   1.428   0.606
 8646SOL    HW226838   5.130   1.440   0.767
 8647SOL     OW26839   3.948   5.023   6.900
 8647SOL    HW126840   3.981   4.939   6.943
 8647SOL    HW226841   3.864   5.003   6.850
 8648SOL     OW26842   5.492   0.506   4.518
 8648SOL    HW126843   5.439   0.421   4.519
 8648SOL    HW226844   5.589   0.484   4.511
 8649SOL     OW26845   6.263   4.253   5.307
 8649SOL    HW126846   6.256   4.154   5.304
 8649SOL    HW226847   6.201   4.293   5.240
 8650SOL     OW26848   2.027   5.183   4.209
 8650SOL    HW126849   1.988   5.261   4.258
 8650SOL    HW226850   2.048   5.110   4.275
 8651SOL     OW26851   3.551   1.922   0.349
 8651SOL    HW126852   3.458   1.893   0.323
 8651SOL    HW226853   3.613   1.907   0.272
 8652SOL     OW26854   2.226   4.034   3.385
 8652SOL    HW126855   2.222   4.070   3.292
 8652SOL    HW226856   2.143   4.059   3.434
 8653SOL     OW26857   0.192   2.180   6.147
 8653SOL    HW126858   0.177   2.244   6.223
 8653SOL    HW226859   0.113   2.119   6.139
 8654SOL     OW26860   0.084   6.875   3.184
 8654SOL    HW126861   0.008   6.906   3.126
 8654SOL    HW226862   0.051   6.808   3.249
 8655SOL     OW26863   5.974   6.869   3.956
 8655SOL    HW126864   5.915   6.818   3.893
 8655SOL    HW226865   5.979   6.964   3.927
 8656SOL     OW26866   6.221   0.905   1.063
 8656SOL    HW126867   6.258   0.946   0.980
 8656SOL    HW226868   6.182   0.977   1.121
 8657SOL     OW26869   5.152   4.921   6.174
 8657SOL    HW126870   5.187   4.841   6.223
 8657SOL    HW226871   5.159   4.905   6.075
 8658SOL     OW26872   5.216   4.666   0.385
 8658SOL    HW126873   5.128   4.655   0.338
 8658SOL    HW226874   5.209   4.739   0.453
 8659SOL     OW26875   4.456   0.806   3.525
 8659SOL    HW126876   4.455   0.891   3.577
 8659SOL    HW226877   4.500   0.823   3.437
 8660SOL     OW26878   6.657   4.175   0.342
 8660SOL    HW126879   6.698   4.238   0.276
 8660SOL    HW226880   6.558   4.173   0.328
 8661SOL     OW26881   6.169   4.072   2.080
 8661SOL    HW126882   6.127   4.000   2.024
 8661SOL    HW226883   6.115   4.084   2.163
 8662SOL     OW26884   5.838   6.359   0.934
 8662SOL    HW126885   5.891   6.441   0.955
 8662SOL    HW226886   5.757   6.384   0.882
 8663SOL     OW26887   2.109   5.492   0.703
 8663SOL    HW126888   2.120   5.541   0.617
 8663SOL    HW226889   2.198   5.485   0.749
 8664SOL     OW26890   4.683   5.713   0.258
 8664SOL    HW126891   4.621   5.791   0.251
 8664SOL    HW226892   4.756   5.722   0.190
 8665SOL     OW26893   4.801   5.771   5.658
 8665SOL    HW126894   4.740   5.851   5.658
 8665SOL    HW226895   4.887   5.796   5.613
 8666SOL     OW26896   4.926   2.125   5.293
 8666SOL    HW126897   4.925   2.217   5.334
 8666SOL    HW226898   4.911   2.057   5.364
 8667SOL     OW26899   5.191   1.727   3.141
 8667SOL    HW126900   5.236   1.660   3.082
 8667SOL    HW226901   5.228   1.818   3.122
 8668SOL     OW26902   5.457   2.626   4.159
 8668SOL    HW126903   5.368   2.672   4.164
 8668SOL    HW226904   5.519   2.668   4.225
 8669SOL     OW26905   4.138   1.228   6.215
 8669SOL    HW126906   4.183   1.256   6.300
 8669SOL    HW226907   4.174   1.281   6.139
 8670SOL     OW26908   3.805   5.643   4.808
 8670SOL    HW126909   3.775   5.738   4.812
 8670SOL    HW226910   3.763   5.598   4.729
 8671SOL     OW26911   5.839   6.668   3.788
 8671SOL    HW126912   5.788   6.627   3.713
 8671SOL    HW226913   5.910   6.604   3.819
 8672SOL     OW26914   2.658   5.418   4.449
 8672SOL    HW126915   2.719   5.420   4.370
 8672SOL    HW226916   2.662   5.506   4.497
 8673SOL     OW26917   0.349   2.123   0.160
 8673SOL    HW126918   0.359   2.097   0.256
 8673SOL    HW226919   0.253   2.121   0.135
 8674SOL     OW26920   0.039   6.801   2.849
 8674SOL    HW126921   6.998   6.854   2.907
 8674SOL    HW226922   0.093   6.863   2.792
 8675SOL     OW26923   2.775   1.856   3.960
 8675SOL    HW126924   2.808   1.911   4.038
 8675SOL    HW226925   2.814   1.892   3.876
 8676SOL     OW26926   3.539   0.593   2.451
 8676SOL    HW126927   3.471   0.626   2.516
 8676SOL    HW226928   3.501   0.596   2.359
 8677SOL     OW26929   2.792   5.346   6.398
 8677SOL    HW126930   2.735   5.409   6.345
 8677SOL    HW226931   2.809   5.263   6.344
 8678SOL     OW26932   1.495   0.322   6.890
 8678SOL    HW126933   1.549   0.337   6.973
 8678SOL    HW226934   1.482   0.224   6.875
 8679SOL     OW26935   5.759   1.967   4.950
 8679SOL    HW126936   5.736   1.907   4.873
 8679SOL    HW226937   5.837   1.930   5.000
 8680SOL     OW26938   1.718   3.936   0.623
 8680SOL    HW126939   1.711   3.976   0.532
 8680SOL    HW226940   1.672   3.847   0.624
 8681SOL     OW26941   4.639   4.393   0.277
 8681SOL    HW126942   4.612   4.375   0.182
 8681SOL    HW226943   4.575   4.346   0.339
 8682SOL     OW26944   3.015   6.829   2.761
 8682SOL    HW126945   2.977   6.890   2.691
 8682SOL    HW226946   3.082   6.878   2.816
 8683SOL     OW26947   1.143   3.264   1.572
 8683SOL    HW126948   1.182   3.208   1.646
 8683SOL    HW226949   1.121   3.355   1.608
 8684SOL     OW26950   6.262   2.968   5.102
 8684SOL    HW126951   6.342   2.989   5.047
 8684SOL    HW226952   6.290   2.941   5.194
 8685SOL     OW26953   1.247   2.136   6.223
 8685SOL    HW126954   1.250   2.205   6.150
 8685SOL    HW226955   1.335   2.135   6.271
 8686SOL     OW26956   6.882   1.983   2.064
 8686SOL    HW126957   6.934   2.026   1.991
 8686SOL    HW226958   6.861   2.051   2.135
 8687SOL     OW26959   3.541   6.689   2.654
 8687SOL    HW126960   3.546   6.703   2.555
 8687SOL    HW226961   3.447   6.698   2.685
 8688SOL     OW26962   2.898   6.956   0.837
 8688SOL    HW126963   2.889   0.010   0.904
 8688SOL    HW226964   2.983   6.907   0.853
 8689SOL     OW26965   4.414   5.765   0.057
 8689SOL    HW126966   4.373   5.852   0.030
 8689SOL    HW226967   4.402   5.753   0.156
 8690SOL     OW26968   1.367   1.577   3.744
 8690SOL    HW126969   1.283   1.630   3.737
 8690SOL    HW226970   1.380   1.524   3.660
 8691SOL     OW26971   4.705   2.904   6.676
 8691SOL    HW126972   4.696   2.805   6.680
 8691SOL    HW226973   4.639   2.941   6.610
 8692SOL     OW26974   3.238   2.061   3.693
 8692SOL    HW126975   3.173   2.101   3.629
 8692SOL    HW226976   3.318   2.027   3.643
 8693SOL     OW26977   5.810   2.527   0.822
 8693SOL    HW126978   5.732   2.496   0.876
 8693SOL    HW226979   5.882   2.560   0.883
 8694SOL     OW26980   4.851   0.258   6.361
 8694SOL    HW126981   4.939   0.298   6.335
 8694SOL    HW226982   4.826   0.289   6.453
 8695SOL     OW26983   4.703   2.876   5.944
 8695SOL    HW126984   4.635   2.867   5.871
 8695SOL    HW226985   4.678   2.950   6.005
 8696SOL     OW26986   3.395   5.592   0.833
 8696SOL    HW126987   3.347   5.669   0.791
 8696SOL    HW226988   3.344   5.561   0.913
 8697SOL     OW26989   6.518   3.567   0.438
 8697SOL    HW126990   6.433   3.527   0.404
 8697SOL    HW226991   6.497   3.639   0.503
 8698SOL     OW26992   5.452   5.966   4.246
 8698SOL    HW126993   5.387   5.889   4.244
 8698SOL    HW226994   5.543   5.931   4.267
 8699SOL     OW26995   1.319   2.701   5.247
 8699SOL    HW126996   1.298   2.756   5.166
 8699SOL    HW226997   1.252   2.627   5.254
 8700SOL     OW26998   2.052   0.884   4.616
 8700SOL    HW126999   2.068   0.864   4.520
 8700SOL    HW227000   2.134   0.862   4.669
 8701SOL     OW27001   0.811   1.323   5.779
 8701SOL    HW127002   0.881   1.371   5.726
 8701SOL    HW227003   0.850   1.293   5.866
 8702SOL     OW27004   5.439   4.566   0.264
 8702SOL    HW127005   5.341   4.579   0.281
 8702SOL    HW227006   5.457   4.469   0.247
 8703SOL     OW27007   3.028   5.806   1.170
 8703SOL    HW127008   3.041   5.844   1.261
 8703SOL    HW227009   2.985   5.874   1.111
 8704SOL     OW27010   6.508   4.427   2.635
 8704SOL    HW127011   6.449   4.349   2.657
 8704SOL    HW227012   6.484   4.505   2.694
 8705SOL     OW27013   5.036   0.946   6.530
 8705SOL    HW127014   5.098   1.016   6.563
 8705SOL    HW227015   4.945   0.960   6.570
 8706SOL     OW27016   4.543   2.167   6.830
 8706SOL    HW127017   4.558   2.235   6.757
 8706SOL    HW227018   4.604   2.188   6.907
 8707SOL     OW27019   3.851   3.104   0.176
 8707SOL    HW127020   3.921   3.171   0.151
 8707SOL    HW227021   3.891   3.037   0.240
 8708SOL     OW27022   3.535   0.411   1.905
 8708SOL    HW127023   3.484   0.429   1.989
 8708SOL    HW227024   3.606   0.343   1.923
 8709SOL     OW27025   0.316   4.460   0.181
 8709SOL    HW127026   0.244   4.392   0.167
 8709SOL    HW227027   0.379   4.458   0.104
 8710SOL     OW27028   1.188   3.204   3.109
 8710SOL    HW127029   1.256   3.236   3.174
 8710SOL    HW227030   1.129   3.280   3.082
 8711SOL     OW27031   0.370   0.441   2.502
 8711SOL    HW127032   0.281   0.412   2.538
 8711SOL    HW227033   0.374   0.541   2.497
 8712SOL     OW27034   3.790   1.877   4.196
 8712SOL    HW127035   3.872   1.869   4.252
 8712SOL    HW227036   3.775   1.974   4.174
 8713SOL     OW27037   6.911   4.280   3.761
 8713SOL    HW127038   6.910   4.205   3.695
 8713SOL    HW227039   6.878   4.364   3.718
 8714SOL     OW27040   1.805   0.930   5.903
 8714SOL    HW127041   1.901   0.903   5.910
 8714SOL    HW227042   1.785   0.961   5.810
 8715SOL     OW27043   5.917   0.546   0.580
 8715SOL    HW127044   5.830   0.582   0.547
 8715SOL    HW227045   5.933   0.456   0.540
 8716SOL     OW27046   0.636   1.384   1.548
 8716SOL    HW127047   0.648   1.414   1.454
 8716SOL    HW227048   0.693   1.440   1.608
 8717SOL     OW27049   4.133   3.657   2.094
 8717SOL    HW127050   4.230   3.675   2.107
 8717SOL    HW227051   4.090   3.639   2.183
 8718SOL     OW27052   6.999   2.806   4.711
 8718SOL    HW127053   0.021   2.741   4.774
 8718SOL    HW227054   0.050   2.865   4.671
 8719SOL     OW27055   1.442   0.849   5.675
 8719SOL    HW127056   1.453   0.755   5.641
 8719SOL    HW227057   1.384   0.900   5.613
 8720SOL     OW27058   6.369   5.080   4.871
 8720SOL    HW127059   6.414   5.054   4.956
 8720SOL    HW227060   6.398   5.172   4.844
 8721SOL     OW27061   6.286   2.386   4.487
 8721SOL    HW127062   6.295   2.368   4.585
 8721SOL    HW227063   6.254   2.480   4.474
 8722SOL     OW27064   3.436   1.667   0.180
 8722SOL    HW127065   3.372   1.743   0.175
 8722SOL    HW227066   3.474   1.661   0.272
 8723SOL     OW27067   6.284   5.702   0.852
 8723SOL    HW127068   6.243   5.742   0.770
 8723SOL    HW227069   6.376   5.739   0.864
 8724SOL     OW27070   5.867   0.295   5.721
 8724SOL    HW127071   5.862   0.217   5.784
 8724SOL    HW227072   5.775   0.328   5.701
 8725SOL     OW27073   2.111   0.210   0.560
 8725SOL    HW127074   2.162   0.174   0.482
 8725SOL    HW227075   2.173   0.265   0.617
 8726SOL     OW27076   6.017   0.158   1.155
 8726SOL    HW127077   6.004   0.156   1.254
 8726SOL    HW227078   6.084   0.229   1.132
 8727SOL     OW27079   6.454   6.575   2.006
 8727SOL    HW127080   6.434   6.505   1.937
 8727SOL    HW227081   6.388   6.650   1.997
 8728SOL     OW27082   3.160   7.018   5.174
 8728SOL    HW127083   3.143   0.051   5.091
 8728SOL    HW227084   3.259   7.015   5.192
 8729SOL     OW27085   4.683   5.616   2.926
 8729SOL    HW127086   4.598   5.567   2.943
 8729SOL    HW227087   4.760   5.560   2.955
 8730SOL     OW27088   0.164   5.678   2.744
 8730SOL    HW127089   0.181   5.631   2.831
 8730SOL    HW227090   0.163   5.611   2.670
 8731SOL     OW27091   1.641   2.111   3.164
 8731SOL    HW127092   1.617   2.026   3.211
 8731SOL    HW227093   1.608   2.189   3.218
 8732SOL     OW27094   4.823   4.444   2.254
 8732SOL    HW127095   4.775   4.374   2.307
 8732SOL    HW227096   4.798   4.436   2.158
 8733SOL     OW27097   0.817   6.070   2.797
 8733SOL    HW127098   0.741   6.135   2.799
 8733SOL    HW227099   0.829   6.035   2.704
 8734SOL     OW27100   0.643   4.952   1.532
 8734SOL    HW127101   0.732   4.913   1.554
 8734SOL    HW227102   0.574   4.879   1.530
 8735SOL     OW27103   0.762   1.958   0.148
 8735SOL    HW127104   0.827   1.888   0.178
 8735SOL    HW227105   0.680   1.914   0.111
 8736SOL     OW27106   0.796   6.141   0.216
 8736SOL    HW127107   0.894   6.124   0.206
 8736SOL    HW227108   0.754   6.147   0.126
 8737SOL     OW27109   3.884   5.949   6.235
 8737SOL    HW127110   3.922   5.940   6.327
 8737SOL    HW227111   3.947   5.908   6.169
 8738SOL     OW27112   1.459   3.896   4.358
 8738SOL    HW127113   1.384   3.831   4.348
 8738SOL    HW227114   1.526   3.860   4.422
 8739SOL     OW27115   6.837   4.275   6.218
 8739SOL    HW127116   6.804   4.189   6.179
 8739SOL    HW227117   6.864   4.337   6.145
 8740SOL     OW27118   3.468   0.485   5.909
 8740SOL    HW127119   3.496   0.573   5.869
 8740SOL    HW227120   3.545   0.445   5.958
 8741SOL     OW27121   1.298   2.328   2.346
 8741SOL    HW127122   1.297   2.382   2.429
 8741SOL    HW227123   1.315   2.232   2.369
 8742SOL     OW27124   4.910   6.102   1.271
 8742SOL    HW127125   4.925   6.008   1.303
 8742SOL    HW227126   4.812   6.117   1.259
 8743SOL     OW27127   2.183   5.452   2.244
 8743SOL    HW127128   2.281   5.469   2.251
 8743SOL    HW227129   2.134   5.518   2.301
 8744SOL     OW27130   4.375   2.579   6.448
 8744SOL    HW127131   4.357   2.482   6.430
 8744SOL    HW227132   4.369   2.630   6.363
 8745SOL     OW27133   6.113   1.900   5.201
 8745SOL    HW127134   6.031   1.842   5.204
 8745SOL    HW227135   6.093   1.987   5.246
 8746SOL     OW27136   4.546   4.316   5.700
 8746SOL    HW127137   4.583   4.380   5.767
 8746SOL    HW227138   4.451   4.297   5.722
 8747SOL     OW27139   0.892   2.607   3.300
 8747SOL    HW127140   0.844   2.679   3.350
 8747SOL    HW227141   0.827   2.536   3.273
 8748SOL     OW27142   1.032   0.196   6.683
 8748SOL    HW127143   0.969   0.261   6.641
 8748SOL    HW227144   1.099   0.245   6.738
 8749SOL     OW27145   3.159   0.781   4.110
 8749SOL    HW127146   3.242   0.758   4.160
 8749SOL    HW227147   3.174   0.767   4.012
 8750SOL     OW27148   2.157   2.539   5.596
 8750SOL    HW127149   2.091   2.467   5.575
 8750SOL    HW227150   2.246   2.515   5.556
 8751SOL     OW27151   6.986   0.342   2.444
 8751SOL    HW127152   6.989   0.243   2.431
 8751SOL    HW227153   6.998   0.388   2.356
 8752SOL     OW27154   2.629   3.887   6.676
 8752SOL    HW127155   2.668   3.972   6.641
 8752SOL    HW227156   2.532   3.883   6.651
 8753SOL     OW27157   5.107   1.838   4.506
 8753SOL    HW127158   5.200   1.847   4.470
 8753SOL    HW227159   5.110   1.807   4.601
 8754SOL     OW27160   0.616   2.062   5.595
 8754SOL    HW127161   0.665   2.027   5.675
 8754SOL    HW227162   0.648   2.155   5.574
 8755SOL     OW27163   2.129   0.876   0.170
 8755SOL    HW127164   2.194   0.880   0.094
 8755SOL    HW227165   2.061   0.948   0.160
 8756SOL     OW27166   2.294   2.871   3.650
 8756SOL    HW127167   2.359   2.929   3.600
 8756SOL    HW227168   2.201   2.901   3.630
 8757SOL     OW27169   4.549   6.387   5.235
 8757SOL    HW127170   4.512   6.453   5.170
 8757SOL    HW227171   4.476   6.357   5.296
 8758SOL     OW27172   5.483   6.655   1.889
 8758SOL    HW127173   5.398   6.629   1.935
 8758SOL    HW227174   5.537   6.574   1.869
 8759SOL     OW27175   4.970   1.050   5.855
 8759SOL    HW127176   4.963   1.129   5.915
 8759SOL    HW227177   4.973   1.080   5.760
 8760SOL     OW27178   2.113   1.453   4.618
 8760SOL    HW127179   2.092   1.512   4.695
 8760SOL    HW227180   2.038   1.458   4.551
 8761SOL     OW27181   5.156   0.544   0.426
 8761SOL    HW127182   5.166   0.624   0.486
 8761SOL    HW227183   5.244   0.521   0.386
 8762SOL     OW27184   1.397   3.248   2.357
 8762SOL    HW127185   1.417   3.192   2.276
 8762SOL    HW227186   1.443   3.209   2.437
 8763SOL     OW27187   6.458   6.002   5.316
 8763SOL    HW127188   6.510   5.965   5.239
 8763SOL    HW227189   6.519   6.015   5.394
 8764SOL     OW27190   5.111   1.550   3.744
 8764SOL    HW127191   5.016   1.579   3.733
 8764SOL    HW227192   5.156   1.606   3.814
 8765SOL     OW27193   5.505   6.739   4.927
 8765SOL    HW127194   5.515   6.799   4.848
 8765SOL    HW227195   5.592   6.735   4.977
 8766SOL     OW27196   3.128   4.897   3.539
 8766SOL    HW127197   3.162   4.973   3.484
 8766SOL    HW227198   3.195   4.875   3.610
 8767SOL     OW27199   4.458   0.901   3.046
 8767SOL    HW127200   4.428   0.812   3.010
 8767SOL    HW227201   4.389   0.970   3.025
 8768SOL     OW27202   1.525   2.933   0.374
 8768SOL    HW127203   1.528   3.010   0.311
 8768SOL    HW227204   1.618   2.910   0.403
 8769SOL     OW27205   0.546   0.189   5.366
 8769SOL    HW127206   0.552   0.090   5.359
 8769SOL    HW227207   0.505   0.214   5.453
 8770SOL     OW27208   5.139   4.061   1.953
 8770SOL    HW127209   5.135   4.154   1.915
 8770SOL    HW227210   5.122   4.065   2.052
 8771SOL     OW27211   1.660   1.700   6.709
 8771SOL    HW127212   1.603   1.700   6.792
 8771SOL    HW227213   1.614   1.648   6.637
 8772SOL     OW27214   6.539   1.104   6.722
 8772SOL    HW127215   6.533   1.006   6.706
 8772SOL    HW227216   6.602   1.146   6.657
 8773SOL     OW27217   3.537   2.116   3.274
 8773SOL    HW127218   3.500   2.070   3.354
 8773SOL    HW227219   3.637   2.115   3.278
 8774SOL     OW27220   0.766   1.320   0.918
 8774SOL    HW127221   0.741   1.366   1.003
 8774SOL    HW227222   0.824   1.380   0.864
 8775SOL     OW27223   5.736   6.581   3.103
 8775SOL    HW127224   5.687   6.497   3.079
 8775SOL    HW227225   5.678   6.660   3.085
 8776SOL     OW27226   3.146   3.368   5.060
 8776SOL    HW127227   3.150   3.465   5.035
 8776SOL    HW227228   3.130   3.314   4.978
 8777SOL     OW27229   6.459   4.841   1.345
 8777SOL    HW127230   6.449   4.912   1.415
 8777SOL    HW227231   6.511   4.765   1.383
 8778SOL     OW27232   0.283   2.333   2.969
 8778SOL    HW127233   0.199   2.353   2.919
 8778SOL    HW227234   0.268   2.349   3.067
 8779SOL     OW27235   1.687   4.538   1.806
 8779SOL    HW127236   1.600   4.533   1.755
 8779SOL    HW227237   1.675   4.599   1.885
 8780SOL     OW27238   1.278   5.841   4.326
 8780SOL    HW127239   1.323   5.786   4.256
 8780SOL    HW227240   1.336   5.918   4.351
 8781SOL     OW27241   0.585   1.403   2.938
 8781SOL    HW127242   0.565   1.448   3.025
 8781SOL    HW227243   0.616   1.471   2.872
 8782SOL     OW27244   4.694   1.302   2.442
 8782SOL    HW127245   4.689   1.387   2.494
 8782SOL    HW227246   4.601   1.272   2.417
 8783SOL     OW27247   5.952   3.700   4.259
 8783SOL    HW127248   6.050   3.699   4.275
 8783SOL    HW227249   5.905   3.742   4.337
 8784SOL     OW27250   5.481   5.731   5.728
 8784SOL    HW127251   5.388   5.762   5.750
 8784SOL    HW227252   5.503   5.756   5.634
 8785SOL     OW27253   5.616   4.124   6.857
 8785SOL    HW127254   5.659   4.211   6.832
 8785SOL    HW227255   5.671   4.049   6.820
 8786SOL     OW27256   1.223   6.272   6.493
 8786SOL    HW127257   1.305   6.235   6.450
 8786SOL    HW227258   1.229   6.372   6.495
 8787SOL     OW27259   2.176   3.251   1.812
 8787SOL    HW127260   2.246   3.315   1.780
 8787SOL    HW227261   2.150   3.274   1.906
 8788SOL     OW27262   6.614   2.124   5.300
 8788SOL    HW127263   6.681   2.065   5.345
 8788SOL    HW227264   6.656   2.168   5.221
 8789SOL     OW27265   6.657   0.434   5.955
 8789SOL    HW127266   6.656   0.520   5.902
 8789SOL    HW227267   6.656   0.357   5.892
 8790SOL     OW27268   0.038   1.647   0.114
 8790SOL    HW127269   0.074   1.596   0.192
 8790SOL    HW227270   7.009   1.585   0.054
 8791SOL     OW27271   5.017   6.990   5.448
 8791SOL    HW127272   5.072   7.009   5.366
 8791SOL    HW227273   4.962   0.050   5.470
 8792SOL     OW27274   4.530   6.913   3.196
 8792SOL    HW127275   4.547   6.889   3.291
 8792SOL    HW227276   4.432   6.929   3.182
 8793SOL     OW27277   2.983   6.096   3.918
 8793SOL    HW127278   2.945   6.006   3.941
 8793SOL    HW227279   2.988   6.151   4.001
 8794SOL     OW27280   2.347   6.917   2.739
 8794SOL    HW127281   2.441   6.883   2.745
 8794SOL    HW227282   2.317   6.915   2.644
 8795SOL     OW27283   1.520   6.690   5.564
 8795SOL    HW127284   1.597   6.633   5.592
 8795SOL    HW227285   1.441   6.670   5.621
 8796SOL     OW27286   4.548   1.860   5.442
 8796SOL    HW127287   4.618   1.931   5.430
 8796SOL    HW227288   4.592   1.774   5.468
 8797SOL     OW27289   0.904   6.969   6.023
 8797SOL    HW127290   0.920   6.875   5.994
 8797SOL    HW227291   0.849   6.970   6.106
 8798SOL     OW27292   6.149   3.654   5.053
 8798SOL    HW127293   6.223   3.705   5.098
 8798SOL    HW227294   6.063   3.702   5.065
 8799SOL     OW27295   2.675   4.779   3.000
 8799SOL    HW127296   2.772   4.769   2.981
 8799SOL    HW227297   2.621   4.740   2.925
 8800SOL     OW27298   4.282   4.615   5.885
 8800SOL    HW127299   4.193   4.636   5.926
 8800SOL    HW227300   4.316   4.695   5.836
 8801SOL     OW27301   2.077   1.290   4.345
 8801SOL    HW127302   2.136   1.263   4.420
 8801SOL    HW227303   1.981   1.275   4.371
 8802SOL     OW27304   1.435   6.433   2.448
 8802SOL    HW127305   1.388   6.497   2.508
 8802SOL    HW227306   1.384   6.347   2.445
 8803SOL     OW27307   2.238   5.487   7.007
 8803SOL    HW127308   2.185   5.557   6.958
 8803SOL    HW227309   2.254   5.409   6.947
 8804SOL     OW27310   4.008   0.524   1.202
 8804SOL    HW127311   3.948   0.602   1.220
 8804SOL    HW227312   4.013   0.508   1.104
 8805SOL     OW27313   1.191   6.889   3.390
 8805SOL    HW127314   1.286   6.866   3.369
 8805SOL    HW227315   1.129   6.826   3.343
 8806SOL     OW27316   1.373   5.384   0.339
 8806SOL    HW127317   1.379   5.322   0.417
 8806SOL    HW227318   1.309   5.347   0.271
 8807SOL     OW27319   6.422   6.352   5.895
 8807SOL    HW127320   6.458   6.352   5.802
 8807SOL    HW227321   6.491   6.315   5.957
 8808SOL     OW27322   5.410   1.412   0.496
 8808SOL    HW127323   5.476   1.447   0.430
 8808SOL    HW227324   5.448   1.331   0.541
 8809SOL     OW27325   5.395   3.666   1.720
 8809SOL    HW127326   5.466   3.668   1.790
 8809SOL    HW227327   5.378   3.572   1.692
 8810SOL     OW27328   5.167   1.736   3.944
 8810SOL    HW127329   5.226   1.782   4.011
 8810SOL    HW227330   5.083   1.789   3.931
 8811SOL     OW27331   1.984   1.608   3.709
 8811SOL    HW127332   2.007   1.670   3.784
 8811SOL    HW227333   1.948   1.522   3.747
 8812SOL     OW27334   0.836   0.924   0.702
 8812SOL    HW127335   0.873   0.933   0.609
 8812SOL    HW227336   0.738   0.904   0.697
 8813SOL     OW27337   0.932   6.146   1.838
 8813SOL    HW127338   0.909   6.049   1.841
 8813SOL    HW227339   0.950   6.178   1.930
 8814SOL     OW27340   6.818   0.739   6.643
 8814SOL    HW127341   6.760   0.663   6.670
 8814SOL    HW227342   6.891   0.751   6.711
 8815SOL     OW27343   6.879   5.479   1.511
 8815SOL    HW127344   6.938   5.488   1.431
 8815SOL    HW227345   6.783   5.483   1.482
 8816SOL     OW27346   1.075   6.125   1.071
 8816SOL    HW127347   1.009   6.109   0.998
 8816SOL    HW227348   1.153   6.065   1.059
 8817SOL     OW27349   1.557   5.644   5.163
 8817SOL    HW127350   1.531   5.559   5.210
 8817SOL    HW227351   1.656   5.655   5.167
 8818SOL     OW27352   0.035   4.010   3.911
 8818SOL    HW127353   0.037   4.056   3.822
 8818SOL    HW227354   0.054   4.075   3.984
 8819SOL     OW27355   4.826   6.626   4.446
 8819SOL    HW127356   4.775   6.561   4.390
 8819SOL    HW227357   4.894   6.672   4.390
 8820SOL     OW27358   1.897   2.812   4.267
 8820SOL    HW127359   1.863   2.883   4.327
 8820SOL    HW227360   1.821   2.766   4.221
 8821SOL     OW27361   2.130   0.141   6.248
 8821SOL    HW127362   2.109   0.230   6.287
 8821SOL    HW227363   2.148   0.075   6.321
 8822SOL     OW27364   0.958   1.114   3.428
 8822SOL    HW127365   0.994   1.023   3.408
 8822SOL    HW227366   0.928   1.157   3.343
 8823SOL     OW27367   2.106   0.045   0.808
 8823SOL    HW127368   2.020   0.085   0.838
 8823SOL    HW227369   2.172   0.117   0.789
 8824SOL     OW27370   2.489   3.684   0.995
 8824SOL    HW127371   2.578   3.679   0.951
 8824SOL    HW227372   2.499   3.681   1.094
 8825SOL     OW27373   1.901   1.053   2.241
 8825SOL    HW127374   1.946   1.134   2.279
 8825SOL    HW227375   1.970   0.987   2.212
 8826SOL     OW27376   5.890   0.748   6.770
 8826SOL    HW127377   5.880   0.804   6.852
 8826SOL    HW227378   5.980   0.763   6.730
 8827SOL     OW27379   2.391   1.733   2.945
 8827SOL    HW127380   2.447   1.659   2.908
 8827SOL    HW227381   2.450   1.802   2.986
 8828SOL     OW27382   3.222   6.097   3.622
 8828SOL    HW127383   3.205   6.000   3.608
 8828SOL    HW227384   3.315   6.110   3.657
 8829SOL     OW27385   0.385   3.102   6.592
 8829SOL    HW127386   0.480   3.084   6.566
 8829SOL    HW227387   0.354   3.031   6.655
 8830SOL     OW27388   0.547   1.166   6.998
 8830SOL    HW127389   0.545   1.196   6.903
 8830SOL    HW227390   0.566   1.068   7.001
 8831SOL     OW27391   6.119   0.444   3.049
 8831SOL    HW127392   6.067   0.360   3.064
 8831SOL    HW227393   6.102   0.507   3.125
 8832SOL     OW27394   0.376   0.091   2.126
 8832SOL    HW127395   0.393   0.187   2.149
 8832SOL    HW227396   0.427   0.032   2.189
 8833SOL     OW27397   2.690   5.700   4.520
 8833SOL    HW127398   2.746   5.695   4.437
 8833SOL    HW227399   2.675   5.795   4.545
 8834SOL     OW27400   6.107   3.017   4.739
 8834SOL    HW127401   6.126   3.110   4.770
 8834SOL    HW227402   6.013   3.012   4.705
 8835SOL     OW27403   6.575   0.062   5.360
 8835SOL    HW127404   6.492   0.008   5.374
 8835SOL    HW227405   6.618   0.035   5.274
 8836SOL     OW27406   4.149   1.159   0.699
 8836SOL    HW127407   4.102   1.095   0.759
 8836SOL    HW227408   4.184   1.235   0.753
 8837SOL     OW27409   0.335   0.872   1.656
 8837SOL    HW127410   0.237   0.854   1.662
 8837SOL    HW227411   0.383   0.823   1.729
 8838SOL     OW27412   2.670   4.943   3.496
 8838SOL    HW127413   2.689   4.851   3.528
 8838SOL    HW227414   2.594   4.983   3.548
 8839SOL     OW27415   6.430   6.333   3.017
 8839SOL    HW127416   6.464   6.244   3.047
 8839SOL    HW227417   6.332   6.339   3.034
 8840SOL     OW27418   5.385   2.285   2.398
 8840SOL    HW127419   5.384   2.359   2.465
 8840SOL    HW227420   5.293   2.276   2.358
 8841SOL     OW27421   1.079   2.081   5.378
 8841SOL    HW127422   1.064   2.144   5.454
 8841SOL    HW227423   1.071   2.130   5.292
 8842SOL     OW27424   2.655   2.794   1.518
 8842SOL    HW127425   2.598   2.809   1.599
 8842SOL    HW227426   2.688   2.882   1.485
 8843SOL     OW27427   1.393   3.026   4.953
 8843SOL    HW127428   1.449   2.953   4.994
 8843SOL    HW227429   1.389   3.104   5.016
 8844SOL     OW27430   6.086   1.317   6.187
 8844SOL    HW127431   6.089   1.257   6.267
 8844SOL    HW227432   6.179   1.347   6.164
 8845SOL     OW27433   4.562   3.595   0.193
 8845SOL    HW127434   4.593   3.681   0.234
 8845SOL    HW227435   4.640   3.548   0.152
 8846SOL     OW27436   1.879   4.990   4.035
 8846SOL    HW127437   1.939   5.051   4.086
 8846SOL    HW227438   1.933   4.919   3.991
 8847SOL     OW27439   2.830   0.240   2.796
 8847SOL    HW127440   2.870   0.196   2.715
 8847SOL    HW227441   2.802   0.333   2.772
 8848SOL     OW27442   1.877   0.832   1.652
 8848SOL    HW127443   1.812   0.887   1.704
 8848SOL    HW227444   1.935   0.893   1.597
 8849SOL     OW27445   1.701   6.299   2.332
 8849SOL    HW127446   1.663   6.390   2.345
 8849SOL    HW227447   1.629   6.237   2.302
 8850SOL     OW27448   3.092   2.456   6.827
 8850SOL    HW127449   3.083   2.516   6.747
 8850SOL    HW227450   3.002   2.441   6.868
 8851SOL     OW27451   1.606   4.674   2.336
 8851SOL    HW127452   1.583   4.612   2.411
 8851SOL    HW227453   1.597   4.626   2.249
 8852SOL     OW27454   1.400   1.586   5.828
 8852SOL    HW127455   1.308   1.621   5.808
 8852SOL    HW227456   1.450   1.573   5.742
 8853SOL     OW27457   3.267   1.050   1.136
 8853SOL    HW127458   3.206   1.064   1.058
 8853SOL    HW227459   3.243   1.115   1.209
 8854SOL     OW27460   1.656   3.264   4.822
 8854SOL    HW127461   1.576   3.307   4.863
 8854SOL    HW227462   1.696   3.200   4.888
 8855SOL     OW27463   5.870   5.165   1.340
 8855SOL    HW127464   5.810   5.234   1.381
 8855SOL    HW227465   5.846   5.074   1.375
 8856SOL     OW27466   0.372   5.452   6.482
 8856SOL    HW127467   0.281   5.437   6.519
 8856SOL    HW227468   0.391   5.384   6.411
 8857SOL     OW27469   6.457   1.550   5.310
 8857SOL    HW127470   6.447   1.618   5.382
 8857SOL    HW227471   6.429   1.589   5.222
 8858SOL     OW27472   6.213   4.864   5.309
 8858SOL    HW127473   6.259   4.932   5.367
 8858SOL    HW227474   6.235   4.772   5.341
 8859SOL     OW27475   0.701   1.130   3.559
 8859SOL    HW127476   0.684   1.166   3.467
 8859SOL    HW227477   0.796   1.098   3.565
 8860SOL     OW27478   6.481   2.647   1.526
 8860SOL    HW127479   6.499   2.699   1.442
 8860SOL    HW227480   6.519   2.698   1.604
 8861SOL     OW27481   4.172   1.639   1.430
 8861SOL    HW127482   4.247   1.654   1.366
 8861SOL    HW227483   4.136   1.727   1.462
 8862SOL     OW27484   4.569   5.485   5.274
 8862SOL    HW127485   4.605   5.415   5.336
 8862SOL    HW227486   4.542   5.565   5.327
 8863SOL     OW27487   2.246   4.403   3.666
 8863SOL    HW127488   2.250   4.498   3.697
 8863SOL    HW227489   2.180   4.396   3.591
 8864SOL     OW27490   5.455   2.206   6.468
 8864SOL    HW127491   5.480   2.226   6.563
 8864SOL    HW227492   5.425   2.112   6.461
 8865SOL     OW27493   2.480   1.675   6.408
 8865SOL    HW127494   2.494   1.654   6.504
 8865SOL    HW227495   2.524   1.762   6.386
 8866SOL     OW27496   5.677   6.107   2.209
 8866SOL    HW127497   5.589   6.083   2.168
 8866SOL    HW227498   5.734   6.155   2.141
 8867SOL     OW27499   6.432   3.608   2.737
 8867SOL    HW127500   6.373   3.675   2.782
 8867SOL    HW227501   6.450   3.637   2.643
 8868SOL     OW27502   6.900   3.651   3.263
 8868SOL    HW127503   6.806   3.641   3.229
 8868SOL    HW227504   6.952   3.708   3.200
 8869SOL     OW27505   3.490   6.111   3.628
 8869SOL    HW127506   3.506   6.040   3.696
 8869SOL    HW227507   3.573   6.122   3.572
 8870SOL     OW27508   1.680   0.301   1.776
 8870SOL    HW127509   1.593   0.299   1.726
 8870SOL    HW227510   1.663   0.335   1.869
 8871SOL     OW27511   1.409   0.740   2.588
 8871SOL    HW127512   1.414   0.764   2.491
 8871SOL    HW227513   1.344   0.801   2.634
 8872SOL     OW27514   0.415   4.294   5.409
 8872SOL    HW127515   0.476   4.345   5.349
 8872SOL    HW227516   0.332   4.267   5.359
 8873SOL     OW27517   1.374   0.651   1.960
 8873SOL    HW127518   1.428   0.683   2.038
 8873SOL    HW227519   1.374   0.551   1.959
 8874SOL     OW27520   2.168   5.525   0.445
 8874SOL    HW127521   2.143   5.466   0.369
 8874SOL    HW227522   2.257   5.497   0.481
 8875SOL     OW27523   0.338   2.997   3.426
 8875SOL    HW127524   0.395   3.063   3.376
 8875SOL    HW227525   0.358   3.004   3.524
 8876SOL     OW27526   3.703   0.402   6.029
 8876SOL    HW127527   3.793   0.435   6.002
 8876SOL    HW227528   3.693   0.409   6.128
 8877SOL     OW27529   1.820   3.845   1.146
 8877SOL    HW127530   1.882   3.915   1.183
 8877SOL    HW227531   1.746   3.829   1.211
 8878SOL     OW27532   3.961   4.792   0.680
 8878SOL    HW127533   3.946   4.865   0.614
 8878SOL    HW227534   3.987   4.831   0.768
 8879SOL     OW27535   6.195   4.434   3.174
 8879SOL    HW127536   6.106   4.470   3.203
 8879SOL    HW227537   6.265   4.463   3.240
 8880SOL     OW27538   4.766   6.509   3.773
 8880SOL    HW127539   4.840   6.569   3.746
 8880SOL    HW227540   4.695   6.562   3.820
 8881SOL     OW27541   3.841   4.920   4.149
 8881SOL    HW127542   3.784   4.984   4.200
 8881SOL    HW227543   3.908   4.878   4.211
 8882SOL     OW27544   3.933   0.717   0.907
 8882SOL    HW127545   3.998   0.642   0.893
 8882SOL    HW227546   3.842   0.688   0.877
 8883SOL     OW27547   0.300   5.956   5.280
 8883SOL    HW127548   0.399   5.963   5.271
 8883SOL    HW227549   0.273   5.979   5.374
 8884SOL     OW27550   5.514   3.724   4.920
 8884SOL    HW127551   5.510   3.706   5.018
 8884SOL    HW227552   5.506   3.637   4.870
 8885SOL     OW27553   5.751   5.401   0.302
 8885SOL    HW127554   5.835   5.351   0.322
 8885SOL    HW227555   5.723   5.384   0.208
 8886SOL     OW27556   3.030   6.028   0.411
 8886SOL    HW127557   3.075   6.052   0.325
 8886SOL    HW227558   3.010   6.111   0.462
 8887SOL     OW27559   4.671   1.920   0.954
 8887SOL    HW127560   4.714   1.927   1.044
 8887SOL    HW227561   4.572   1.911   0.965
 8888SOL     OW27562   2.032   1.988   3.433
 8888SOL    HW127563   2.093   1.994   3.354
 8888SOL    HW227564   1.956   1.928   3.411
 8889SOL     OW27565   6.978   6.355   6.608
 8889SOL    HW127566   6.893   6.342   6.556
 8889SOL    HW227567   6.985   6.285   6.678
 8890SOL     OW27568   0.303   0.001   6.900
 8890SOL    HW127569   0.347   6.984   6.982
 8890SOL    HW227570   0.369   0.003   6.825
 8891SOL     OW27571   6.030   4.647   6.797
 8891SOL    HW127572   6.006   4.639   6.894
 8891SOL    HW227573   6.084   4.567   6.770
 8892SOL     OW27574   3.216   5.125   3.400
 8892SOL    HW127575   3.140   5.186   3.419
 8892SOL    HW227576   3.251   5.143   3.308
 8893SOL     OW27577   1.199   5.356   4.744
 8893SOL    HW127578   1.135   5.393   4.812
 8893SOL    HW227579   1.149   5.310   4.671
 8894SOL     OW27580   4.009   2.596   0.380
 8894SOL    HW127581   3.994   2.552   0.291
 8894SOL    HW227582   4.020   2.525   0.450
 8895SOL     OW27583   0.811   3.783   0.952
 8895SOL    HW127584   0.751   3.715   0.993
 8895SOL    HW227585   0.759   3.840   0.888
 8896SOL     OW27586   0.352   2.333   4.106
 8896SOL    HW127587   0.361   2.304   4.201
 8896SOL    HW227588   0.273   2.288   4.064
 8897SOL     OW27589   2.173   3.838   3.786
 8897SOL    HW127590   2.191   3.934   3.767
 8897SOL    HW227591   2.076   3.826   3.809
 8898SOL     OW27592   4.910   3.519   2.901
 8898SOL    HW127593   4.846   3.510   2.824
 8898SOL    HW227594   4.969   3.598   2.886
 8899SOL     OW27595   0.084   3.761   6.125
 8899SOL    HW127596   0.078   3.843   6.182
 8899SOL    HW227597   7.018   3.711   6.130
 8900SOL     OW27598   5.763   2.433   3.887
 8900SOL    HW127599   5.675   2.478   3.904
 8900SOL    HW227600   5.837   2.495   3.913
 8901SOL     OW27601   1.338   2.051   4.040
 8901SOL    HW127602   1.404   1.980   4.018
 8901SOL    HW227603   1.304   2.093   3.956
 8902SOL     OW27604   1.170   4.538   6.839
 8902SOL    HW127605   1.128   4.459   6.885
 8902SOL    HW227606   1.139   4.541   6.744
 8903SOL     OW27607   1.615   1.114   4.806
 8903SOL    HW127608   1.524   1.111   4.848
 8903SOL    HW227609   1.651   1.207   4.810
 8904SOL     OW27610   0.881   0.982   3.178
 8904SOL    HW127611   0.842   0.905   3.228
 8904SOL    HW227612   0.856   0.975   3.081
 8905SOL     OW27613   1.461   3.514   2.194
 8905SOL    HW127614   1.437   3.460   2.275
 8905SOL    HW227615   1.480   3.453   2.117
 8906SOL     OW27616   6.954   0.207   0.542
 8906SOL    HW127617   6.954   0.234   0.446
 8906SOL    HW227618   6.898   0.270   0.595
 8907SOL     OW27619   3.556   3.226   4.998
 8907SOL    HW127620   3.499   3.242   5.078
 8907SOL    HW227621   3.557   3.128   4.977
 8908SOL     OW27622   1.289   6.127   0.366
 8908SOL    HW127623   1.381   6.106   0.333
 8908SOL    HW227624   1.251   6.202   0.313
 8909SOL     OW27625   2.812   1.000   6.638
 8909SOL    HW127626   2.871   1.078   6.618
 8909SOL    HW227627   2.718   1.031   6.650
 8910SOL     OW27628   1.318   2.758   4.565
 8910SOL    HW127629   1.388   2.743   4.636
 8910SOL    HW227630   1.342   2.707   4.483
 8911SOL     OW27631   4.738   1.956   3.914
 8911SOL    HW127632   4.668   1.952   3.843
 8911SOL    HW227633   4.697   1.982   4.001
 8912SOL     OW27634   3.821   3.869   5.024
 8912SOL    HW127635   3.823   3.869   5.124
 8912SOL    HW227636   3.843   3.960   4.990
 8913SOL     OW27637   5.188   5.687   6.824
 8913SOL    HW127638   5.219   5.733   6.907
 8913SOL    HW227639   5.267   5.654   6.773
 8914SOL     OW27640   5.064   6.288   5.596
 8914SOL    HW127641   4.974   6.327   5.579
 8914SOL    HW227642   5.101   6.250   5.511
 8915SOL     OW27643   0.644   1.516   3.504
 8915SOL    HW127644   0.551   1.499   3.472
 8915SOL    HW227645   0.660   1.467   3.589
 8916SOL     OW27646   5.213   1.493   6.933
 8916SOL    HW127647   5.290   1.554   6.952
 8916SOL    HW227648   5.226   1.408   6.984
 8917SOL     OW27649   5.834   1.606   0.477
 8917SOL    HW127650   5.832   1.668   0.555
 8917SOL    HW227651   5.923   1.559   0.474
 8918SOL     OW27652   1.393   4.871   1.478
 8918SOL    HW127653   1.319   4.936   1.464
 8918SOL    HW227654   1.376   4.819   1.562
 8919SOL     OW27655   5.763   4.313   6.767
 8919SOL    HW127656   5.792   4.272   6.681
 8919SOL    HW227657   5.773   4.413   6.761
 8920SOL     OW27658   0.147   1.295   6.644
 8920SOL    HW127659   0.072   1.291   6.579
 8920SOL    HW227660   0.224   1.344   6.604
 8921SOL     OW27661   1.490   2.838   0.952
 8921SOL    HW127662   1.502   2.909   1.022
 8921SOL    HW227663   1.465   2.752   0.995
 8922SOL     OW27664   3.498   0.406   3.866
 8922SOL    HW127665   3.542   0.367   3.785
 8922SOL    HW227666   3.495   0.338   3.939
 8923SOL     OW27667   2.210   2.020   5.890
 8923SOL    HW127668   2.130   1.997   5.834
 8923SOL    HW227669   2.188   2.098   5.949
 8924SOL     OW27670   5.083   4.881   4.775
 8924SOL    HW127671   5.105   4.969   4.817
 8924SOL    HW227672   5.080   4.810   4.846
 8925SOL     OW27673   0.941   0.891   2.922
 8925SOL    HW127674   1.009   0.837   2.972
 8925SOL    HW227675   0.985   0.940   2.847
 8926SOL     OW27676   6.639   3.903   5.420
 8926SOL    HW127677   6.614   3.983   5.366
 8926SOL    HW227678   6.592   3.822   5.383
 8927SOL     OW27679   6.722   2.152   6.082
 8927SOL    HW127680   6.669   2.165   6.166
 8927SOL    HW227681   6.741   2.054   6.069
 8928SOL     OW27682   2.304   6.847   5.241
 8928SOL    HW127683   2.385   6.895   5.276
 8928SOL    HW227684   2.225   6.868   5.299
 8929SOL     OW27685   6.703   2.304   5.091
 8929SOL    HW127686   6.653   2.384   5.125
 8929SOL    HW227687   6.691   2.297   4.992
 8930SOL     OW27688   1.503   3.977   3.383
 8930SOL    HW127689   1.495   3.879   3.401
 8930SOL    HW227690   1.420   4.023   3.416
 8931SOL     OW27691   3.591   3.052   1.671
 8931SOL    HW127692   3.630   3.006   1.751
 8931SOL    HW227693   3.493   3.065   1.684
 8932SOL     OW27694   0.061   2.408   2.849
 8932SOL    HW127695   0.057   2.390   2.751
 8932SOL    HW227696   6.993   2.388   2.891
 8933SOL     OW27697   3.546   1.996   6.120
 8933SOL    HW127698   3.517   2.091   6.132
 8933SOL    HW227699   3.526   1.944   6.203
 8934SOL     OW27700   3.559   5.658   3.793
 8934SOL    HW127701   3.517   5.597   3.860
 8934SOL    HW227702   3.650   5.623   3.769
 8935SOL     OW27703   6.796   5.052   0.986
 8935SOL    HW127704   6.790   4.998   1.069
 8935SOL    HW227705   6.757   5.001   0.910
 8936SOL     OW27706   1.832   3.533   0.370
 8936SOL    HW127707   1.900   3.570   0.433
 8936SOL    HW227708   1.784   3.608   0.325
 8937SOL     OW27709   0.010   6.262   5.485
 8937SOL    HW127710   6.961   6.265   5.412
 8937SOL    HW227711   0.046   6.354   5.499
 8938SOL     OW27712   6.305   5.185   1.499
 8938SOL    HW127713   6.306   5.093   1.540
 8938SOL    HW227714   6.249   5.183   1.416
 8939SOL     OW27715   5.248   2.170   4.539
 8939SOL    HW127716   5.249   2.217   4.628
 8939SOL    HW227717   5.268   2.235   4.466
 8940SOL     OW27718   6.376   0.627   3.678
 8940SOL    HW127719   6.294   0.635   3.735
 8940SOL    HW227720   6.437   0.704   3.697
 8941SOL     OW27721   5.650   1.931   5.951
 8941SOL    HW127722   5.550   1.937   5.950
 8941SOL    HW227723   5.678   1.837   5.934
 8942SOL     OW27724   0.527   2.757   5.217
 8942SOL    HW127725   0.465   2.747   5.295
 8942SOL    HW227726   0.533   2.671   5.168
 8943SOL     OW27727   4.735   3.532   1.221
 8943SOL    HW127728   4.637   3.522   1.203
 8943SOL    HW227729   4.772   3.606   1.166
 8944SOL     OW27730   5.129   5.622   0.140
 8944SOL    HW127731   5.159   5.600   0.233
 8944SOL    HW227732   5.193   5.687   0.099
 8945SOL     OW27733   2.582   0.736   4.898
 8945SOL    HW127734   2.632   0.773   4.820
 8945SOL    HW227735   2.632   0.657   4.935
 8946SOL     OW27736   3.524   1.798   5.214
 8946SOL    HW127737   3.502   1.727   5.147
 8946SOL    HW227738   3.464   1.877   5.199
 8947SOL     OW27739   3.581   3.627   5.620
 8947SOL    HW127740   3.525   3.590   5.545
 8947SOL    HW227741   3.624   3.712   5.591
 8948SOL     OW27742   5.395   4.860   3.411
 8948SOL    HW127743   5.393   4.766   3.445
 8948SOL    HW227744   5.490   4.891   3.405
 8949SOL     OW27745   1.896   6.329   6.908
 8949SOL    HW127746   1.902   6.325   6.809
 8949SOL    HW227747   1.802   6.349   6.936
 8950SOL     OW27748   5.101   3.036   5.146
 8950SOL    HW127749   5.027   3.025   5.213
 8950SOL    HW227750   5.135   2.946   5.120
 8951SOL     OW27751   1.870   2.755   5.491
 8951SOL    HW127752   1.931   2.704   5.552
 8951SOL    HW227753   1.889   2.853   5.499
 8952SOL     OW27754   1.414   1.369   3.179
 8952SOL    HW127755   1.450   1.455   3.143
 8952SOL    HW227756   1.480   1.329   3.243
 8953SOL     OW27757   1.718   3.348   0.110
 8953SOL    HW127758   1.727   3.385   0.018
 8953SOL    HW227759   1.649   3.400   0.161
 8954SOL     OW27760   0.794   5.981   6.373
 8954SOL    HW127761   0.849   5.990   6.289
 8954SOL    HW227762   0.843   5.925   6.439
 8955SOL     OW27763   6.887   4.530   3.631
 8955SOL    HW127764   6.860   4.620   3.597
 8955SOL    HW227765   6.986   4.520   3.625
 8956SOL     OW27766   0.931   0.912   5.882
 8956SOL    HW127767   0.888   0.987   5.933
 8956SOL    HW227768   0.862   0.863   5.829
 8957SOL     OW27769   2.746   4.693   1.691
 8957SOL    HW127770   2.754   4.681   1.790
 8957SOL    HW227771   2.754   4.604   1.646
 8958SOL     OW27772   0.910   0.068   4.086
 8958SOL    HW127773   0.823   0.019   4.082
 8958SOL    HW227774   0.941   0.089   3.993
 8959SOL     OW27775   1.321   4.925   0.594
 8959SOL    HW127776   1.393   4.860   0.620
 8959SOL    HW227777   1.272   4.954   0.676
 8960SOL     OW27778   4.325   5.633   2.452
 8960SOL    HW127779   4.241   5.674   2.488
 8960SOL    HW227780   4.302   5.563   2.385
 8961SOL     OW27781   1.121   1.384   4.263
 8961SOL    HW127782   1.153   1.468   4.219
 8961SOL    HW227783   1.200   1.329   4.291
 8962SOL     OW27784   5.594   0.243   2.769
 8962SOL    HW127785   5.600   0.144   2.785
 8962SOL    HW227786   5.666   0.271   2.705
 8963SOL     OW27787   5.276   0.018   4.252
 8963SOL    HW127788   5.214   0.081   4.206
 8963SOL    HW227789   5.349   0.070   4.297
 8964SOL     OW27790   4.953   4.762   2.081
 8964SOL    HW127791   4.934   4.713   2.166
 8964SOL    HW227792   4.929   4.705   2.003
 8965SOL     OW27793   1.349   5.294   1.343
 8965SOL    HW127794   1.381   5.201   1.359
 8965SOL    HW227795   1.264   5.309   1.394
 8966SOL     OW27796   1.437   2.729   6.015
 8966SOL    HW127797   1.440   2.683   6.104
 8966SOL    HW227798   1.390   2.670   5.949
 8967SOL     OW27799   3.771   6.829   1.301
 8967SOL    HW127800   3.682   6.838   1.347
 8967SOL    HW227801   3.758   6.792   1.209
 8968SOL     OW27802   5.351   5.868   1.681
 8968SOL    HW127803   5.395   5.956   1.698
 8968SOL    HW227804   5.319   5.864   1.587
 8969SOL     OW27805   5.998   0.563   3.300
 8969SOL    HW127806   6.087   0.527   3.330
 8969SOL    HW227807   5.925   0.511   3.344
 8970SOL     OW27808   3.343   2.363   0.872
 8970SOL    HW127809   3.315   2.457   0.854
 8970SOL    HW227810   3.392   2.327   0.793
 8971SOL     OW27811   3.559   6.073   2.310
 8971SOL    HW127812   3.547   6.059   2.211
 8971SOL    HW227813   3.642   6.127   2.326
 8972SOL     OW27814   5.209   6.426   6.191
 8972SOL    HW127815   5.294   6.373   6.182
 8972SOL    HW227816   5.193   6.477   6.106
 8973SOL     OW27817   1.325   4.726   1.040
 8973SOL    HW127818   1.421   4.746   1.059
 8973SOL    HW227819   1.316   4.634   1.002
 8974SOL     OW27820   1.363   4.283   6.648
 8974SOL    HW127821   1.338   4.193   6.684
 8974SOL    HW227822   1.286   4.319   6.594
 8975SOL     OW27823   2.786   0.174   0.584
 8975SOL    HW127824   2.748   0.213   0.500
 8975SOL    HW227825   2.813   0.079   0.567
 8976SOL     OW27826   1.440   5.402   4.632
 8976SOL    HW127827   1.347   5.401   4.668
 8976SOL    HW227828   1.473   5.308   4.622
 8977SOL     OW27829   6.187   1.333   5.782
 8977SOL    HW127830   6.223   1.276   5.708
 8977SOL    HW227831   6.119   1.281   5.834
 8978SOL     OW27832   5.696   5.962   0.284
 8978SOL    HW127833   5.778   5.918   0.320
 8978SOL    HW227834   5.694   5.954   0.185
 8979SOL     OW27835   1.836   4.056   4.966
 8979SOL    HW127836   1.846   3.966   5.006
 8979SOL    HW227837   1.921   4.107   4.976
 8980SOL     OW27838   3.384   3.604   5.391
 8980SOL    HW127839   3.347   3.690   5.356
 8980SOL    HW227840   3.309   3.541   5.411
 8981SOL     OW27841   3.689   1.524   5.449
 8981SOL    HW127842   3.717   1.461   5.521
 8981SOL    HW227843   3.725   1.493   5.361
 8982SOL     OW27844   2.187   3.438   0.226
 8982SOL    HW127845   2.165   3.534   0.244
 8982SOL    HW227846   2.126   3.379   0.278
 8983SOL     OW27847   3.820   6.074   7.002
 8983SOL    HW127848   3.730   6.116   6.992
 8983SOL    HW227849   3.811   5.975   7.009
 8984SOL     OW27850   2.414   6.060   2.998
 8984SOL    HW127851   2.500   6.009   2.992
 8984SOL    HW227852   2.433   6.152   3.032
 8985SOL     OW27853   3.333   2.658   0.325
 8985SOL    HW127854   3.322   2.564   0.293
 8985SOL    HW227855   3.264   2.716   0.281
 8986SOL     OW27856   3.228   4.963   2.926
 8986SOL    HW127857   3.196   5.024   2.853
 8986SOL    HW227858   3.315   4.921   2.899
 8987SOL     OW27859   5.057   6.027   3.031
 8987SOL    HW127860   5.039   5.939   2.986
 8987SOL    HW227861   4.991   6.095   2.997
 8988SOL     OW27862   0.449   6.028   3.423
 8988SOL    HW127863   0.530   6.085   3.433
 8988SOL    HW227864   0.374   6.083   3.385
 8989SOL     OW27865   4.908   3.204   6.285
 8989SOL    HW127866   4.914   3.166   6.378
 8989SOL    HW227867   5.000   3.225   6.252
 8990SOL     OW27868   0.923   5.244   3.737
 8990SOL    HW127869   0.942   5.245   3.835
 8990SOL    HW227870   0.824   5.238   3.723
 8991SOL     OW27871   1.545   3.093   4.661
 8991SOL    HW127872   1.623   3.061   4.606
 8991SOL    HW227873   1.578   3.156   4.731
 8992SOL     OW27874   5.164   1.617   0.489
 8992SOL    HW127875   5.215   1.661   0.563
 8992SOL    HW227876   5.226   1.596   0.413
 8993SOL     OW27877   4.362   3.394   6.583
 8993SOL    HW127878   4.272   3.362   6.554
 8993SOL    HW227879   4.379   3.485   6.544
 8994SOL     OW27880   2.299   4.703   4.524
 8994SOL    HW127881   2.337   4.752   4.603
 8994SOL    HW227882   2.205   4.674   4.544
 8995SOL     OW27883   6.183   1.588   1.480
 8995SOL    HW127884   6.265   1.643   1.463
 8995SOL    HW227885   6.109   1.647   1.513
 8996SOL     OW27886   5.585   3.807   6.583
 8996SOL    HW127887   5.639   3.875   6.634
 8996SOL    HW227888   5.491   3.840   6.572
 8997SOL     OW27889   4.906   1.159   5.546
 8997SOL    HW127890   4.934   1.063   5.549
 8997SOL    HW227891   4.984   1.217   5.570
 8998SOL     OW27892   6.116   3.430   3.840
 8998SOL    HW127893   6.089   3.450   3.934
 8998SOL    HW227894   6.214   3.446   3.829
 8999SOL     OW27895   4.511   6.932   6.183
 8999SOL    HW127896   4.545   6.977   6.100
 8999SOL    HW227897   4.411   6.930   6.182
 9000SOL     OW27898   1.475   3.479   1.580
 9000SOL    HW127899   1.428   3.530   1.508
 9000SOL    HW227900   1.549   3.534   1.618
 9001SOL     OW27901   0.176   4.759   2.001
 9001SOL    HW127902   0.110   4.831   2.024
 9001SOL    HW227903   0.140   4.705   1.925
 9002SOL     OW27904   1.333   4.537   5.388
 9002SOL    HW127905   1.328   4.632   5.419
 9002SOL    HW227906   1.244   4.509   5.351
 9003SOL     OW27907   5.172   3.077   1.631
 9003SOL    HW127908   5.180   3.019   1.713
 9003SOL    HW227909   5.201   3.026   1.551
 9004SOL     OW27910   4.442   4.948   0.969
 9004SOL    HW127911   4.457   4.933   0.871
 9004SOL    HW227912   4.373   4.883   1.002
 9005SOL     OW27913   5.705   1.431   5.956
 9005SOL    HW127914   5.728   1.527   5.941
 9005SOL    HW227915   5.752   1.398   6.038
 9006SOL     OW27916   2.899   6.688   0.979
 9006SOL    HW127917   2.995   6.692   0.952
 9006SOL    HW227918   2.844   6.654   0.902
 9007SOL     OW27919   2.375   1.260   2.094
 9007SOL    HW127920   2.367   1.161   2.084
 9007SOL    HW227921   2.302   1.305   2.042
 9008SOL     OW27922   0.239   4.885   3.062
 9008SOL    HW127923   0.152   4.836   3.055
 9008SOL    HW227924   0.222   4.983   3.064
 9009SOL     OW27925   3.490   4.994   0.737
 9009SOL    HW127926   3.528   4.901   0.744
 9009SOL    HW227927   3.531   5.052   0.807
 9010SOL     OW27928   2.214   6.737   4.493
 9010SOL    HW127929   2.144   6.773   4.430
 9010SOL    HW227930   2.201   6.777   4.583
 9011SOL     OW27931   3.688   1.093   1.997
 9011SOL    HW127932   3.617   1.161   1.981
 9011SOL    HW227933   3.778   1.134   1.983
 9012SOL     OW27934   2.148   5.794   0.414
 9012SOL    HW127935   2.231   5.837   0.380
 9012SOL    HW227936   2.164   5.696   0.426
 9013SOL     OW27937   0.887   0.543   4.691
 9013SOL    HW127938   0.851   0.501   4.607
 9013SOL    HW227939   0.986   0.535   4.693
 9014SOL     OW27940   6.045   3.104   1.412
 9014SOL    HW127941   6.017   3.093   1.317
 9014SOL    HW227942   6.106   3.183   1.420
 9015SOL     OW27943   4.971   2.501   1.303
 9015SOL    HW127944   5.056   2.472   1.259
 9015SOL    HW227945   4.902   2.429   1.293
 9016SOL     OW27946   5.575   4.888   6.271
 9016SOL    HW127947   5.524   4.949   6.332
 9016SOL    HW227948   5.618   4.941   6.199
 9017SOL     OW27949   3.913   1.157   4.782
 9017SOL    HW127950   3.844   1.162   4.853
 9017SOL    HW227951   3.948   1.063   4.776
 9018SOL     OW27952   3.730   3.696   6.512
 9018SOL    HW127953   3.720   3.628   6.585
 9018SOL    HW227954   3.649   3.754   6.508
 9019SOL     OW27955   1.101   4.226   2.680
 9019SOL    HW127956   1.090   4.149   2.742
 9019SOL    HW227957   1.178   4.208   2.619
 9020SOL     OW27958   6.608   4.324   1.394
 9020SOL    HW127959   6.574   4.314   1.300
 9020SOL    HW227960   6.535   4.361   1.451
 9021SOL     OW27961   0.083   0.864   3.831
 9021SOL    HW127962   0.087   0.838   3.928
 9021SOL    HW227963   0.176   0.873   3.795
 9022SOL     OW27964   3.341   2.063   0.010
 9022SOL    HW127965   3.259   2.118   7.013
 9022SOL    HW227966   3.408   2.081   6.959
 9023SOL     OW27967   3.945   3.201   1.377
 9023SOL    HW127968   4.006   3.154   1.313
 9023SOL    HW227969   3.975   3.295   1.388
 9024SOL     OW27970   0.800   4.663   5.445
 9024SOL    HW127971   0.773   4.714   5.363
 9024SOL    HW227972   0.865   4.718   5.498
 9025SOL     OW27973   6.974   5.619   0.814
 9025SOL    HW127974   6.969   5.520   0.805
 9025SOL    HW227975   6.991   5.659   0.724
 9026SOL     OW27976   3.004   1.944   0.598
 9026SOL    HW127977   3.103   1.933   0.592
 9026SOL    HW227978   2.978   2.033   0.562
 9027SOL     OW27979   1.070   4.052   4.018
 9027SOL    HW127980   1.153   4.095   3.981
 9027SOL    HW227981   1.065   4.070   4.117
 9028SOL     OW27982   3.933   2.822   5.455
 9028SOL    HW127983   3.879   2.777   5.385
 9028SOL    HW227984   4.024   2.781   5.459
 9029SOL     OW27985   4.229   0.785   4.819
 9029SOL    HW127986   4.235   0.738   4.731
 9029SOL    HW227987   4.245   0.719   4.893
 9030SOL     OW27988   2.092   2.521   4.140
 9030SOL    HW127989   2.072   2.616   4.165
 9030SOL    HW227990   2.072   2.462   4.218
 9031SOL     OW27991   4.141   0.255   4.413
 9031SOL    HW127992   4.071   0.196   4.372
 9031SOL    HW227993   4.171   0.215   4.499
 9032SOL     OW27994   4.663   4.136   0.984
 9032SOL    HW127995   4.626   4.156   1.075
 9032SOL    HW227996   4.750   4.087   0.994
 9033SOL     OW27997   0.622   4.676   2.906
 9033SOL    HW127998   0.523   4.669   2.914
 9033SOL    HW227999   0.649   4.772   2.914
 9034SOL     OW28000   3.572   6.218   4.551
 9034SOL    HW128001   3.508   6.144   4.573
 9034SOL    HW228002   3.648   6.181   4.498
 9035SOL     OW28003   1.673   6.157   0.006
 9035SOL    HW128004   1.761   6.122   6.993
 9035SOL    HW228005   1.662   6.252   6.999
 9036SOL     OW28006   1.541   3.866   5.568
 9036SOL    HW128007   1.550   3.893   5.664
 9036SOL    HW228008   1.612   3.800   5.545
 9037SOL     OW28009   1.108   3.096   4.391
 9037SOL    HW128010   1.183   3.089   4.457
 9037SOL    HW228011   1.139   3.148   4.312
 9038SOL     OW28012   4.607   3.299   6.680
 9038SOL    HW128013   4.523   3.342   6.647
 9038SOL    HW228014   4.666   3.277   6.602
 9039SOL     OW28015   3.072   4.855   0.066
 9039SOL    HW128016   3.158   4.815   0.036
 9039SOL    HW228017   2.998   4.825   0.005
 9040SOL     OW28018   2.885   2.214   2.257
 9040SOL    HW128019   2.909   2.250   2.167
 9040SOL    HW228020   2.965   2.218   2.317
 9041SOL     OW28021   0.864   2.738   0.963
 9041SOL    HW128022   0.940   2.803   0.962
 9041SOL    HW228023   0.884   2.663   1.025
 9042SOL     OW28024   3.645   6.321   5.047
 9042SOL    HW128025   3.656   6.315   5.147
 9042SOL    HW228026   3.735   6.336   5.005
 9043SOL     OW28027   2.079   1.426   6.604
 9043SOL    HW128028   2.178   1.423   6.600
 9043SOL    HW228029   2.050   1.452   6.696
 9044SOL     OW28030   0.648   0.971   6.570
 9044SOL    HW128031   0.738   1.005   6.598
 9044SOL    HW228032   0.632   0.881   6.611
 9045SOL     OW28033   4.043   0.499   3.385
 9045SOL    HW128034   3.982   0.420   3.389
 9045SOL    HW228035   4.019   0.564   3.458
 9046SOL     OW28036   4.127   3.583   2.640
 9046SOL    HW128037   4.141   3.484   2.633
 9046SOL    HW228038   4.108   3.608   2.735
 9047SOL     OW28039   1.128   4.037   5.050
 9047SOL    HW128040   1.124   4.047   4.951
 9047SOL    HW228041   1.163   4.121   5.091
 9048SOL     OW28042   6.342   2.695   6.172
 9048SOL    HW128043   6.305   2.633   6.240
 9048SOL    HW228044   6.412   2.753   6.214
 9049SOL     OW28045   3.639   6.297   5.708
 9049SOL    HW128046   3.539   6.302   5.707
 9049SOL    HW228047   3.677   6.389   5.695
 9050SOL     OW28048   0.687   4.284   1.554
 9050SOL    HW128049   0.628   4.203   1.542
 9050SOL    HW228050   0.761   4.281   1.486
 9051SOL     OW28051   2.634   0.490   1.449
 9051SOL    HW128052   2.650   0.396   1.478
 9051SOL    HW228053   2.640   0.550   1.528
 9052SOL     OW28054   1.837   3.207   4.218
 9052SOL    HW128055   1.908   3.271   4.248
 9052SOL    HW228056   1.876   3.140   4.155
 9053SOL     OW28057   2.359   1.185   0.843
 9053SOL    HW128058   2.272   1.225   0.812
 9053SOL    HW228059   2.422   1.258   0.868
 9054SOL     OW28060   2.227   5.726   4.261
 9054SOL    HW128061   2.146   5.770   4.223
 9054SOL    HW228062   2.230   5.630   4.233
 9055SOL     OW28063   6.589   4.640   4.617
 9055SOL    HW128064   6.520   4.710   4.604
 9055SOL    HW228065   6.573   4.591   4.702
 9056SOL     OW28066   6.683   2.150   2.475
 9056SOL    HW128067   6.756   2.175   2.411
 9056SOL    HW228068   6.673   2.051   2.477
 9057SOL     OW28069   4.582   1.889   4.411
 9057SOL    HW128070   4.646   1.912   4.484
 9057SOL    HW228071   4.489   1.886   4.447
 9058SOL     OW28072   1.496   0.511   6.680
 9058SOL    HW128073   1.523   0.606   6.698
 9058SOL    HW228074   1.529   0.453   6.755
 9059SOL     OW28075   1.077   2.684   2.441
 9059SOL    HW128076   1.112   2.751   2.375
 9059SOL    HW228077   0.978   2.674   2.430
 9060SOL     OW28078   5.533   3.095   5.097
 9060SOL    HW128079   5.606   3.163   5.086
 9060SOL    HW228080   5.559   3.011   5.050
 9061SOL     OW28081   4.228   5.176   2.653
 9061SOL    HW128082   4.194   5.118   2.579
 9061SOL    HW228083   4.179   5.263   2.653
 9062SOL     OW28084   1.105   5.253   1.708
 9062SOL    HW128085   1.023   5.301   1.740
 9062SOL    HW228086   1.119   5.271   1.610
 9063SOL     OW28087   2.742   1.509   3.763
 9063SOL    HW128088   2.710   1.471   3.676
 9063SOL    HW228089   2.758   1.434   3.828
 9064SOL     OW28090   6.605   3.355   6.724
 9064SOL    HW128091   6.609   3.300   6.641
 9064SOL    HW228092   6.510   3.379   6.744
 9065SOL     OW28093   3.410   0.495   0.287
 9065SOL    HW128094   3.336   0.511   0.221
 9065SOL    HW228095   3.372   0.475   0.377
 9066SOL     OW28096   5.806   0.310   0.032
 9066SOL    HW128097   5.856   0.379   0.084
 9066SOL    HW228098   5.837   0.311   6.957
 9067SOL     OW28099   1.835   0.207   3.037
 9067SOL    HW128100   1.859   0.116   3.004
 9067SOL    HW228101   1.752   0.239   2.990
 9068SOL     OW28102   1.355   6.302   5.218
 9068SOL    HW128103   1.259   6.295   5.189
 9068SOL    HW228104   1.366   6.383   5.276
 9069SOL     OW28105   1.411   2.848   6.410
 9069SOL    HW128106   1.491   2.883   6.457
 9069SOL    HW228107   1.385   2.910   6.336
 9070SOL     OW28108   2.061   3.916   4.224
 9070SOL    HW128109   2.138   3.970   4.257
 9070SOL    HW228110   2.064   3.825   4.265
 9071SOL     OW28111   6.358   6.661   0.526
 9071SOL    HW128112   6.384   6.565   0.536
 9071SOL    HW228113   6.423   6.718   0.575
 9072SOL     OW28114   0.240   3.899   0.552
 9072SOL    HW128115   0.224   3.804   0.527
 9072SOL    HW228116   0.322   3.906   0.608
 9073SOL     OW28117   2.095   0.985   1.502
 9073SOL    HW128118   2.121   1.081   1.492
 9073SOL    HW228119   2.177   0.931   1.521
 9074SOL     OW28120   1.513   6.709   2.652
 9074SOL    HW128121   1.520   6.685   2.749
 9074SOL    HW228122   1.585   6.775   2.629
 9075SOL     OW28123   6.499   0.831   2.265
 9075SOL    HW128124   6.555   0.783   2.333
 9075SOL    HW228125   6.546   0.830   2.177
 9076SOL     OW28126   6.868   1.251   6.121
 9076SOL    HW128127   6.796   1.277   6.185
 9076SOL    HW228128   6.954   1.239   6.170
 9077SOL     OW28129   4.841   6.597   2.465
 9077SOL    HW128130   4.824   6.499   2.472
 9077SOL    HW228131   4.753   6.645   2.458
 9078SOL     OW28132   3.845   3.435   5.246
 9078SOL    HW128133   3.935   3.397   5.269
 9078SOL    HW228134   3.815   3.397   5.159
 9079SOL     OW28135   3.151   6.547   4.423
 9079SOL    HW128136   3.155   6.461   4.371
 9079SOL    HW228137   3.129   6.527   4.518
 9080SOL     OW28138   5.418   2.578   0.211
 9080SOL    HW128139   5.401   2.610   0.118
 9080SOL    HW228140   5.341   2.522   0.242
 9081SOL     OW28141   5.398   6.518   2.532
 9081SOL    HW128142   5.380   6.530   2.435
 9081SOL    HW228143   5.313   6.496   2.579
 9082SOL     OW28144   2.460   0.738   3.810
 9082SOL    HW128145   2.394   0.755   3.883
 9082SOL    HW228146   2.420   0.763   3.722
 9083SOL     OW28147   4.672   4.525   5.226
 9083SOL    HW128148   4.661   4.486   5.318
 9083SOL    HW228149   4.762   4.569   5.219
 9084SOL     OW28150   3.243   3.604   3.195
 9084SOL    HW128151   3.197   3.683   3.234
 9084SOL    HW228152   3.296   3.631   3.115
 9085SOL     OW28153   2.364   1.598   1.170
 9085SOL    HW128154   2.446   1.646   1.204
 9085SOL    HW228155   2.332   1.643   1.087
 9086SOL     OW28156   0.543   3.953   1.190
 9086SOL    HW128157   0.637   3.944   1.222
 9086SOL    HW228158   0.540   4.020   1.116
 9087SOL     OW28159   4.882   3.618   2.291
 9087SOL    HW128160   4.887   3.521   2.269
 9087SOL    HW228161   4.884   3.671   2.206
 9088SOL     OW28162   6.687   0.861   6.434
 9088SOL    HW128163   6.724   0.811   6.356
 9088SOL    HW228164   6.712   0.813   6.518
 9089SOL     OW28165   4.771   6.960   5.737
 9089SOL    HW128166   4.731   6.969   5.645
 9089SOL    HW228167   4.737   6.878   5.781
 9090SOL     OW28168   5.534   0.182   4.747
 9090SOL    HW128169   5.523   0.193   4.846
 9090SOL    HW228170   5.628   0.205   4.721
 9091SOL     OW28171   3.245   3.761   0.254
 9091SOL    HW128172   3.174   3.746   0.323
 9091SOL    HW228173   3.333   3.732   0.291
 9092SOL     OW28174   0.078   2.128   0.047
 9092SOL    HW128175   0.032   2.216   0.031
 9092SOL    HW228176   0.135   2.106   6.989
 9093SOL     OW28177   1.384   7.012   5.295
 9093SOL    HW128178   1.396   0.089   5.314
 9093SOL    HW228179   1.473   6.969   5.282
 9094SOL     OW28180   0.091   3.275   2.154
 9094SOL    HW128181   0.179   3.230   2.141
 9094SOL    HW228182   0.091   3.323   2.242
 9095SOL     OW28183   5.154   5.621   5.681
 9095SOL    HW128184   5.233   5.608   5.621
 9095SOL    HW228185   5.091   5.544   5.670
 9096SOL     OW28186   6.517   5.360   2.589
 9096SOL    HW128187   6.459   5.362   2.670
 9096SOL    HW228188   6.463   5.380   2.508
 9097SOL     OW28189   0.421   2.905   5.457
 9097SOL    HW128190   0.409   2.942   5.364
 9097SOL    HW228191   0.441   2.980   5.520
 9098SOL     OW28192   1.982   2.464   4.641
 9098SOL    HW128193   1.922   2.401   4.592
 9098SOL    HW228194   2.011   2.422   4.727
 9099SOL     OW28195   2.113   3.281   6.846
 9099SOL    HW128196   2.144   3.341   6.773
 9099SOL    HW228197   2.164   3.300   6.930
 9100SOL     OW28198   1.270   4.504   2.378
 9100SOL    HW128199   1.200   4.469   2.440
 9100SOL    HW228200   1.359   4.501   2.424
 9101SOL     OW28201   2.150   1.358   2.002
 9101SOL    HW128202   2.071   1.329   1.948
 9101SOL    HW228203   2.131   1.447   2.043
 9102SOL     OW28204   4.425   5.967   2.569
 9102SOL    HW128205   4.339   5.978   2.521
 9102SOL    HW228206   4.412   5.909   2.649
 9103SOL     OW28207   6.487   1.784   0.478
 9103SOL    HW128208   6.523   1.743   0.562
 9103SOL    HW228209   6.417   1.852   0.501
 9104SOL     OW28210   6.939   1.005   6.972
 9104SOL    HW128211   6.958   0.910   6.945
 9104SOL    HW228212   6.922   1.009   0.051
 9105SOL     OW28213   1.803   6.818   6.132
 9105SOL    HW128214   1.814   6.917   6.141
 9105SOL    HW228215   1.750   6.798   6.049
 9106SOL     OW28216   0.842   5.117   6.414
 9106SOL    HW128217   0.759   5.110   6.470
 9106SOL    HW228218   0.922   5.098   6.471
 9107SOL     OW28219   2.457   1.074   0.313
 9107SOL    HW128220   2.538   1.106   0.362
 9107SOL    HW228221   2.429   1.142   0.245
 9108SOL     OW28222   5.191   5.324   5.809
 9108SOL    HW128223   5.231   5.348   5.897
 9108SOL    HW228224   5.092   5.330   5.815
 9109SOL     OW28225   5.138   2.223   2.298
 9109SOL    HW128226   5.059   2.276   2.331
 9109SOL    HW228227   5.114   2.126   2.293
 9110SOL     OW28228   1.776   5.728   4.895
 9110SOL    HW128229   1.700   5.689   4.843
 9110SOL    HW228230   1.834   5.781   4.834
 9111SOL     OW28231   4.750   2.650   4.876
 9111SOL    HW128232   4.801   2.679   4.957
 9111SOL    HW228233   4.753   2.722   4.807
 9112SOL     OW28234   2.247   5.161   2.178
 9112SOL    HW128235   2.186   5.177   2.101
 9112SOL    HW228236   2.250   5.242   2.236
 9113SOL     OW28237   4.723   1.761   3.323
 9113SOL    HW128238   4.703   1.745   3.420
 9113SOL    HW228239   4.808   1.813   3.315
 9114SOL     OW28240   1.507   6.443   5.018
 9114SOL    HW128241   1.465   6.395   5.095
 9114SOL    HW228242   1.590   6.490   5.048
 9115SOL     OW28243   5.742   4.356   3.834
 9115SOL    HW128244   5.652   4.400   3.838
 9115SOL    HW228245   5.731   4.257   3.839
 9116SOL     OW28246   0.689   0.036   3.720
 9116SOL    HW128247   0.727   0.122   3.755
 9116SOL    HW228248   0.758   7.007   3.668
 9117SOL     OW28249   4.004   1.124   0.033
 9117SOL    HW128250   3.977   1.036   0.071
 9117SOL    HW228251   3.939   1.194   0.061
 9118SOL     OW28252   6.123   3.794   0.832
 9118SOL    HW128253   6.116   3.795   0.733
 9118SOL    HW228254   6.064   3.722   0.869
 9119SOL     OW28255   3.777   6.937   0.968
 9119SOL    HW128256   3.768   0.016   0.958
 9119SOL    HW228257   3.690   6.898   0.996
 9120SOL     OW28258   5.566   2.583   5.755
 9120SOL    HW128259   5.620   2.500   5.770
 9120SOL    HW228260   5.471   2.566   5.780
 9121SOL     OW28261   3.433   0.435   5.342
 9121SOL    HW128262   3.428   0.411   5.439
 9121SOL    HW228263   3.370   0.510   5.323
 9122SOL     OW28264   2.335   4.318   2.166
 9122SOL    HW128265   2.339   4.347   2.261
 9122SOL    HW228266   2.379   4.387   2.108
 9123SOL     OW28267   0.910   1.191   3.803
 9123SOL    HW128268   0.837   1.258   3.820
 9123SOL    HW228269   0.957   1.170   3.889
 9124SOL     OW28270   3.281   5.626   1.617
 9124SOL    HW128271   3.228   5.585   1.691
 9124SOL    HW228272   3.237   5.606   1.530
 9125SOL     OW28273   4.535   6.579   0.551
 9125SOL    HW128274   4.454   6.609   0.601
 9125SOL    HW228275   4.591   6.658   0.528
 9126SOL     OW28276   3.654   4.847   0.440
 9126SOL    HW128277   3.621   4.839   0.534
 9126SOL    HW228278   3.754   4.857   0.441
 9127SOL     OW28279   0.017   3.769   5.278
 9127SOL    HW128280   0.039   3.766   5.376
 9127SOL    HW228281   0.057   3.690   5.232
 9128SOL     OW28282   5.794   3.663   5.242
 9128SOL    HW128283   5.743   3.711   5.170
 9128SOL    HW228284   5.881   3.711   5.259
 9129SOL     OW28285   1.175   1.644   0.686
 9129SOL    HW128286   1.225   1.559   0.696
 9129SOL    HW228287   1.196   1.686   0.598
 9130SOL     OW28288   2.716   3.938   5.279
 9130SOL    HW128289   2.623   3.923   5.244
 9130SOL    HW228290   2.751   3.852   5.317
 9131SOL     OW28291   6.022   2.629   0.978
 9131SOL    HW128292   6.028   2.694   1.054
 9131SOL    HW228293   6.057   2.540   1.007
 9132SOL     OW28294   0.543   4.290   3.820
 9132SOL    HW128295   0.628   4.318   3.865
 9132SOL    HW228296   0.564   4.218   3.753
 9133SOL     OW28297   4.791   0.771   1.213
 9133SOL    HW128298   4.878   0.748   1.169
 9133SOL    HW228299   4.782   0.870   1.220
 9134SOL     OW28300   4.540   5.443   1.005
 9134SOL    HW128301   4.560   5.527   1.056
 9134SOL    HW228302   4.441   5.428   1.003
 9135SOL     OW28303   0.530   6.859   2.793
 9135SOL    HW128304   0.607   6.878   2.732
 9135SOL    HW228305   0.507   6.761   2.788
 9136SOL     OW28306   6.332   4.632   6.543
 9136SOL    HW128307   6.252   4.585   6.578
 9136SOL    HW228308   6.387   4.569   6.488
 9137SOL     OW28309   5.187   6.313   6.476
 9137SOL    HW128310   5.160   6.357   6.391
 9137SOL    HW228311   5.107   6.270   6.518
 9138SOL     OW28312   2.993   3.196   0.946
 9138SOL    HW128313   3.014   3.137   0.867
 9138SOL    HW228314   3.045   3.165   1.026
 9139SOL     OW28315   6.697   0.439   1.262
 9139SOL    HW128316   6.670   0.535   1.267
 9139SOL    HW228317   6.670   0.392   1.346
 9140SOL     OW28318   0.853   4.383   2.701
 9140SOL    HW128319   0.779   4.343   2.646
 9140SOL    HW228320   0.875   4.321   2.777
 9141SOL     OW28321   6.426   5.801   5.697
 9141SOL    HW128322   6.344   5.853   5.723
 9141SOL    HW228323   6.505   5.862   5.699
 9142SOL     OW28324   1.215   4.098   3.647
 9142SOL    HW128325   1.283   4.094   3.720
 9142SOL    HW228326   1.180   4.006   3.629
 9143SOL     OW28327   6.215   3.145   2.506
 9143SOL    HW128328   6.150   3.152   2.430
 9143SOL    HW228329   6.282   3.219   2.500
 9144SOL     OW28330   2.556   4.339   5.350
 9144SOL    HW128331   2.474   4.333   5.294
 9144SOL    HW228332   2.629   4.284   5.308
 9145SOL     OW28333   1.212   6.292   5.867
 9145SOL    HW128334   1.261   6.368   5.909
 9145SOL    HW228335   1.267   6.254   5.793
 9146SOL     OW28336   6.382   3.131   3.190
 9146SOL    HW128337   6.398   3.149   3.093
 9146SOL    HW228338   6.297   3.080   3.200
 9147SOL     OW28339   4.551   0.090   4.207
 9147SOL    HW128340   4.630   0.116   4.152
 9147SOL    HW228341   4.495   0.025   4.155
 9148SOL     OW28342   6.216   6.579   1.634
 9148SOL    HW128343   6.252   6.668   1.606
 9148SOL    HW228344   6.215   6.517   1.555
 9149SOL     OW28345   0.322   3.666   1.938
 9149SOL    HW128346   0.403   3.611   1.920
 9149SOL    HW228347   0.242   3.607   1.941
 9150SOL     OW28348   2.981   2.470   1.096
 9150SOL    HW128349   3.046   2.496   1.168
 9150SOL    HW228350   2.919   2.546   1.078
 9151SOL     OW28351   1.974   3.280   3.783
 9151SOL    HW128352   1.925   3.364   3.809
 9151SOL    HW228353   2.024   3.296   3.698
 9152SOL     OW28354   2.347   5.148   3.192
 9152SOL    HW128355   2.415   5.079   3.218
 9152SOL    HW228356   2.260   5.128   3.238
 9153SOL     OW28357   6.462   3.399   0.120
 9153SOL    HW128358   6.527   3.414   0.046
 9153SOL    HW228359   6.385   3.462   0.111
 9154SOL     OW28360   5.685   4.483   2.853
 9154SOL    HW128361   5.711   4.500   2.949
 9154SOL    HW228362   5.768   4.482   2.797
 9155SOL     OW28363   0.850   6.512   3.020
 9155SOL    HW128364   0.881   6.450   2.948
 9155SOL    HW228365   0.756   6.541   3.002
 9156SOL     OW28366   0.013   3.852   6.990
 9156SOL    HW128367   0.033   3.915   0.045
 9156SOL    HW228368   0.047   3.890   6.904
 9157SOL     OW28369   2.077   5.118   6.043
 9157SOL    HW128370   2.106   5.076   6.129
 9157SOL    HW228371   2.152   5.173   6.006
 9158SOL     OW28372   6.752   3.516   4.538
 9158SOL    HW128373   6.718   3.610   4.531
 9158SOL    HW228374   6.702   3.458   4.473
 9159SOL     OW28375   3.879   1.371   3.733
 9159SOL    HW128376   3.857   1.337   3.642
 9159SOL    HW228377   3.795   1.399   3.780
 9160SOL     OW28378   0.076   4.306   1.004
 9160SOL    HW128379   0.119   4.217   1.018
 9160SOL    HW228380   0.085   4.333   0.908
 9161SOL     OW28381   6.264   4.039   1.324
 9161SOL    HW128382   6.324   3.997   1.392
 9161SOL    HW228383   6.214   4.115   1.366
 9162SOL     OW28384   4.111   2.248   1.624
 9162SOL    HW128385   4.208   2.256   1.647
 9162SOL    HW228386   4.102   2.237   1.525
 9163SOL     OW28387   1.626   2.713   3.183
 9163SOL    HW128388   1.683   2.795   3.174
 9163SOL    HW228389   1.540   2.726   3.134
 9164SOL     OW28390   2.643   0.502   0.061
 9164SOL    HW128391   2.655   0.584   0.004
 9164SOL    HW228392   2.668   0.421   0.008
 9165SOL     OW28393   5.204   1.510   6.026
 9165SOL    HW128394   5.211   1.596   6.075
 9165SOL    HW228395   5.225   1.525   5.929
 9166SOL     OW28396   5.136   5.601   1.665
 9166SOL    HW128397   5.135   5.701   1.666
 9166SOL    HW228398   5.230   5.569   1.678
 9167SOL     OW28399   1.654   1.409   4.839
 9167SOL    HW128400   1.754   1.419   4.843
 9167SOL    HW228401   1.622   1.433   4.747
 9168SOL     OW28402   6.565   6.220   4.279
 9168SOL    HW128403   6.520   6.301   4.318
 9168SOL    HW228404   6.496   6.149   4.263
 9169SOL     OW28405   6.514   5.868   0.715
 9169SOL    HW128406   6.444   5.863   0.644
 9169SOL    HW228407   6.575   5.945   0.695
 9170SOL     OW28408   1.424   1.310   5.855
 9170SOL    HW128409   1.430   1.409   5.849
 9170SOL    HW228410   1.498   1.269   5.801
 9171SOL     OW28411   3.328   4.727   0.033
 9171SOL    HW128412   3.381   4.692   0.111
 9171SOL    HW228413   3.270   4.654   7.017
 9172SOL     OW28414   4.720   1.465   4.379
 9172SOL    HW128415   4.781   1.543   4.397
 9172SOL    HW228416   4.681   1.474   4.287
 9173SOL     OW28417   5.369   2.851   4.472
 9173SOL    HW128418   5.393   2.904   4.391
 9173SOL    HW228419   5.335   2.912   4.544
 9174SOL     OW28420   0.396   4.559   0.454
 9174SOL    HW128421   0.433   4.652   0.452
 9174SOL    HW228422   0.417   4.513   0.368
 9175SOL     OW28423   1.605   6.549   6.700
 9175SOL    HW128424   1.659   6.470   6.672
 9175SOL    HW228425   1.624   6.570   6.796
 9176SOL     OW28426   1.891   1.449   2.630
 9176SOL    HW128427   1.971   1.443   2.689
 9176SOL    HW228428   1.907   1.518   2.559
 9177SOL     OW28429   0.813   4.093   3.943
 9177SOL    HW128430   0.763   4.007   3.931
 9177SOL    HW228431   0.910   4.073   3.958
 9178SOL     OW28432   2.219   6.163   0.796
 9178SOL    HW128433   2.181   6.125   0.881
 9178SOL    HW228434   2.237   6.088   0.732
 9179SOL     OW28435   3.293   5.474   5.128
 9179SOL    HW128436   3.208   5.491   5.179
 9179SOL    HW228437   3.335   5.390   5.162
 9180SOL     OW28438   6.960   0.983   4.821
 9180SOL    HW128439   0.020   1.019   4.773
 9180SOL    HW228440   6.964   0.883   4.823
 9181SOL     OW28441   3.542   1.792   4.031
 9181SOL    HW128442   3.473   1.810   4.101
 9181SOL    HW228443   3.632   1.786   4.074
 9182SOL     OW28444   1.363   1.210   2.639
 9182SOL    HW128445   1.455   1.196   2.676
 9182SOL    HW228446   1.337   1.306   2.651
 9183SOL     OW28447   0.193   2.581   5.732
 9183SOL    HW128448   0.109   2.550   5.778
 9183SOL    HW228449   0.260   2.507   5.731
 9184SOL     OW28450   2.995   3.061   0.400
 9184SOL    HW128451   2.988   3.114   0.484
 9184SOL    HW228452   3.079   3.084   0.352
 9185SOL     OW28453   1.382   0.876   6.581
 9185SOL    HW128454   1.372   0.796   6.522
 9185SOL    HW228455   1.451   0.858   6.651
 9186SOL     OW28456   5.465   1.224   6.453
 9186SOL    HW128457   5.432   1.133   6.428
 9186SOL    HW228458   5.490   1.274   6.371
 9187SOL     OW28459   4.994   2.197   0.720
 9187SOL    HW128460   5.069   2.131   0.707
 9187SOL    HW228461   4.936   2.166   0.795
 9188SOL     OW28462   1.450   0.264   1.623
 9188SOL    HW128463   1.384   0.226   1.688
 9188SOL    HW228464   1.419   0.354   1.593
 9189SOL     OW28465   4.254   0.711   4.316
 9189SOL    HW128466   4.270   0.802   4.355
 9189SOL    HW228467   4.330   0.651   4.340
 9190SOL     OW28468   6.229   2.768   5.526
 9190SOL    HW128469   6.293   2.793   5.453
 9190SOL    HW228470   6.167   2.697   5.494
 9191SOL     OW28471   5.561   6.344   0.571
 9191SOL    HW128472   5.478   6.337   0.516
 9191SOL    HW228473   5.573   6.438   0.603
 9192SOL     OW28474   6.135   5.048   4.709
 9192SOL    HW128475   6.216   5.077   4.759
 9192SOL    HW228476   6.161   5.019   4.617
 9193SOL     OW28477   3.788   3.314   3.730
 9193SOL    HW128478   3.873   3.287   3.776
 9193SOL    HW228479   3.788   3.279   3.637
 9194SOL     OW28480   3.216   5.927   2.340
 9194SOL    HW128481   3.270   6.011   2.342
 9194SOL    HW228482   3.200   5.896   2.433
 9195SOL     OW28483   6.628   3.750   2.948
 9195SOL    HW128484   6.603   3.658   2.977
 9195SOL    HW228485   6.682   3.794   3.019
 9196SOL     OW28486   4.616   0.135   3.729
 9196SOL    HW128487   4.615   0.057   3.667
 9196SOL    HW228488   4.699   0.190   3.712
 9197SOL     OW28489   3.427   3.320   6.143
 9197SOL    HW128490   3.370   3.308   6.225
 9197SOL    HW228491   3.381   3.379   6.078
 9198SOL     OW28492   5.216   2.807   5.072
 9198SOL    HW128493   5.273   2.811   4.989
 9198SOL    HW228494   5.222   2.716   5.112
 9199SOL     OW28495   1.328   4.009   6.695
 9199SOL    HW128496   1.382   3.933   6.659
 9199SOL    HW228497   1.286   3.982   6.782
 9200SOL     OW28498   6.348   0.482   6.918
 9200SOL    HW128499   6.351   0.581   6.905
 9200SOL    HW228500   6.266   0.458   6.969
 9201SOL     OW28501   1.705   4.128   3.508
 9201SOL    HW128502   1.630   4.065   3.490
 9201SOL    HW228503   1.668   4.214   3.544
 9202SOL     OW28504   3.146   5.315   4.187
 9202SOL    HW128505   3.121   5.398   4.237
 9202SOL    HW228506   3.126   5.235   4.244
 9203SOL     OW28507   5.066   0.625   6.495
 9203SOL    HW128508   5.062   0.725   6.488
 9203SOL    HW228509   4.998   0.584   6.434
 9204SOL     OW28510   4.475   4.476   2.248
 9204SOL    HW128511   4.449   4.571   2.228
 9204SOL    HW228512   4.501   4.430   2.164
 9205SOL     OW28513   5.106   2.795   2.935
 9205SOL    HW128514   5.068   2.871   2.988
 9205SOL    HW228515   5.087   2.810   2.838
 9206SOL     OW28516   0.730   0.286   3.801
 9206SOL    HW128517   0.754   0.300   3.897
 9206SOL    HW228518   0.742   0.372   3.751
 9207SOL     OW28519   4.284   6.979   0.104
 9207SOL    HW128520   4.232   0.040   0.079
 9207SOL    HW228521   4.370   6.977   0.052
 9208SOL     OW28522   4.747   4.683   2.372
 9208SOL    HW128523   4.770   4.623   2.295
 9208SOL    HW228524   4.742   4.630   2.456
 9209SOL     OW28525   3.691   1.246   2.724
 9209SOL    HW128526   3.790   1.255   2.710
 9209SOL    HW228527   3.670   1.151   2.751
 9210SOL     OW28528   1.257   0.339   1.129
 9210SOL    HW128529   1.345   0.292   1.137
 9210SOL    HW228530   1.207   0.303   1.050
 9211SOL     OW28531   4.881   1.042   6.940
 9211SOL    HW128532   4.959   0.982   6.958
 9211SOL    HW228533   4.823   1.002   6.870
 9212SOL     OW28534   5.878   3.736   4.796
 9212SOL    HW128535   5.942   3.807   4.765
 9212SOL    HW228536   5.785   3.760   4.769
 9213SOL     OW28537   6.079   0.183   2.711
 9213SOL    HW128538   5.995   0.231   2.684
 9213SOL    HW228539   6.055   0.109   2.775
 9214SOL     OW28540   1.866   2.300   5.754
 9214SOL    HW128541   1.838   2.383   5.802
 9214SOL    HW228542   1.919   2.242   5.816
 9215SOL     OW28543   0.906   3.247   2.964
 9215SOL    HW128544   0.900   3.148   2.981
 9215SOL    HW228545   0.868   3.267   2.874
 9216SOL     OW28546   2.656   5.986   4.908
 9216SOL    HW128547   2.676   5.985   4.810
 9216SOL    HW228548   2.568   5.944   4.926
 9217SOL     OW28549   4.434   1.094   6.409
 9217SOL    HW128550   4.507   1.049   6.356
 9217SOL    HW228551   4.360   1.029   6.426
 9218SOL     OW28552   6.074   5.460   6.545
 9218SOL    HW128553   6.120   5.371   6.544
 9218SOL    HW228554   6.095   5.510   6.461
 9219SOL     OW28555   3.546   2.886   5.534
 9219SOL    HW128556   3.528   2.984   5.536
 9219SOL    HW228557   3.499   2.845   5.456
 9220SOL     OW28558   0.799   6.398   3.687
 9220SOL    HW128559   0.738   6.399   3.766
 9220SOL    HW228560   0.890   6.367   3.715
 9221SOL     OW28561   2.710   1.026   0.687
 9221SOL    HW128562   2.762   1.058   0.766
 9221SOL    HW228563   2.619   0.997   0.716
 9222SOL     OW28564   1.372   3.574   3.657
 9222SOL    HW128565   1.310   3.509   3.613
 9222SOL    HW228566   1.425   3.526   3.728
 9223SOL     OW28567   0.751   3.735   5.019
 9223SOL    HW128568   0.660   3.776   5.020
 9223SOL    HW228569   0.804   3.773   4.943
 9224SOL     OW28570   2.036   4.658   3.589
 9224SOL    HW128571   2.101   4.721   3.547
 9224SOL    HW228572   2.015   4.584   3.525
 9225SOL     OW28573   5.006   6.670   6.564
 9225SOL    HW128574   5.094   6.686   6.521
 9225SOL    HW228575   4.949   6.752   6.555
 9226SOL     OW28576   1.150   0.681   1.047
 9226SOL    HW128577   1.085   0.614   1.084
 9226SOL    HW228578   1.130   0.696   0.950
 9227SOL     OW28579   2.530   5.438   0.789
 9227SOL    HW128580   2.625   5.425   0.816
 9227SOL    HW228581   2.496   5.524   0.826
 9228SOL     OW28582   3.026   2.947   5.677
 9228SOL    HW128583   3.098   2.902   5.625
 9228SOL    HW228584   2.941   2.947   5.623
 9229SOL     OW28585   0.503   4.488   6.997
 9229SOL    HW128586   0.439   4.536   6.937
 9229SOL    HW228587   0.596   4.522   6.979
 9230SOL     OW28588   4.668   1.814   4.881
 9230SOL    HW128589   4.578   1.771   4.879
 9230SOL    HW228590   4.714   1.792   4.967
 9231SOL     OW28591   6.641   5.811   3.783
 9231SOL    HW128592   6.660   5.773   3.692
 9231SOL    HW228593   6.725   5.810   3.837
 9232SOL     OW28594   1.410   5.108   1.843
 9232SOL    HW128595   1.403   5.009   1.857
 9232SOL    HW228596   1.342   5.138   1.777
 9233SOL     OW28597   0.519   6.529   0.253
 9233SOL    HW128598   0.471   6.447   0.283
 9233SOL    HW228599   0.601   6.542   0.309
 9234SOL     OW28600   2.194   4.378   0.379
 9234SOL    HW128601   2.221   4.309   0.447
 9234SOL    HW228602   2.203   4.339   0.287
 9235SOL     OW28603   1.724   2.146   3.591
 9235SOL    HW128604   1.747   2.049   3.594
 9235SOL    HW228605   1.802   2.200   3.623
 9236SOL     OW28606   2.664   3.264   6.808
 9236SOL    HW128607   2.663   3.223   6.899
 9236SOL    HW228608   2.570   3.281   6.779
 9237SOL     OW28609   5.692   4.540   3.137
 9237SOL    HW128610   5.677   4.546   3.236
 9237SOL    HW228611   5.719   4.629   3.102
 9238SOL     OW28612   2.023   2.807   5.174
 9238SOL    HW128613   1.974   2.727   5.207
 9238SOL    HW228614   2.111   2.814   5.220
 9239SOL     OW28615   1.043   4.982   6.615
 9239SOL    HW128616   0.967   4.930   6.655
 9239SOL    HW228617   1.117   4.990   6.681
 9240SOL     OW28618   4.435   2.373   2.730
 9240SOL    HW128619   4.429   2.327   2.819
 9240SOL    HW228620   4.497   2.451   2.736
 9241SOL     OW28621   5.903   6.805   1.028
 9241SOL    HW128622   5.996   6.768   1.024
 9241SOL    HW228623   5.838   6.730   1.041
 9242SOL     OW28624   1.649   2.634   0.581
 9242SOL    HW128625   1.696   2.705   0.530
 9242SOL    HW228626   1.609   2.568   0.518
 9243SOL     OW28627   0.869   0.600   6.825
 9243SOL    HW128628   0.956   0.629   6.865
 9243SOL    HW228629   0.885   0.526   6.760
 9244SOL     OW28630   3.935   6.433   5.588
 9244SOL    HW128631   3.880   6.482   5.520
 9244SOL    HW228632   3.917   6.335   5.582
 9245SOL     OW28633   1.110   4.461   3.173
 9245SOL    HW128634   1.194   4.420   3.209
 9245SOL    HW228635   1.082   4.412   3.091
 9246SOL     OW28636   6.388   0.453   5.614
 9246SOL    HW128637   6.356   0.367   5.654
 9246SOL    HW228638   6.364   0.529   5.675
 9247SOL     OW28639   3.967   6.786   3.232
 9247SOL    HW128640   3.872   6.763   3.210
 9247SOL    HW228641   4.025   6.707   3.211
 9248SOL     OW28642   2.387   1.258   6.312
 9248SOL    HW128643   2.301   1.307   6.322
 9248SOL    HW228644   2.462   1.324   6.306
 9249SOL     OW28645   3.472   5.168   1.438
 9249SOL    HW128646   3.522   5.169   1.352
 9249SOL    HW228647   3.511   5.098   1.498
 9250SOL     OW28648   0.558   2.915   4.161
 9250SOL    HW128649   0.632   2.848   4.161
 9250SOL    HW228650   0.596   3.005   4.182
 9251SOL     OW28651   3.260   2.765   1.232
 9251SOL    HW128652   3.177   2.715   1.259
 9251SOL    HW228653   3.275   2.753   1.134
 9252SOL     OW28654   4.986   1.821   5.801
 9252SOL    HW128655   4.944   1.824   5.891
 9252SOL    HW228656   4.966   1.733   5.758
 9253SOL     OW28657   1.054   5.017   5.464
 9253SOL    HW128658   1.026   4.939   5.519
 9253SOL    HW228659   1.070   4.987   5.370
 9254SOL     OW28660   6.793   5.029   2.631
 9254SOL    HW128661   6.794   5.030   2.531
 9254SOL    HW228662   6.873   4.979   2.664
 9255SOL     OW28663   0.220   4.037   0.988
 9255SOL    HW128664   0.178   3.946   1.000
 9255SOL    HW228665   0.285   4.034   0.913
 9256SOL     OW28666   1.784   6.312   2.087
 9256SOL    HW128667   1.807   6.219   2.057
 9256SOL    HW228668   1.749   6.308   2.181
 9257SOL     OW28669   6.386   6.008   4.200
 9257SOL    HW128670   6.391   5.998   4.101
 9257SOL    HW228671   6.290   6.017   4.228
 9258SOL     OW28672   3.586   5.134   0.951
 9258SOL    HW128673   3.490   5.163   0.955
 9258SOL    HW228674   3.611   5.090   1.037
 9259SOL     OW28675   1.933   1.486   6.831
 9259SOL    HW128676   1.918   1.557   6.900
 9259SOL    HW228677   1.848   1.437   6.815
 9260SOL     OW28678   6.241   3.870   4.782
 9260SOL    HW128679   6.166   3.906   4.726
 9260SOL    HW228680   6.232   3.771   4.791
 9261SOL     OW28681   3.496   2.484   1.695
 9261SOL    HW128682   3.523   2.576   1.723
 9261SOL    HW228683   3.544   2.416   1.751
 9262SOL     OW28684   6.067   5.969   4.434
 9262SOL    HW128685   5.983   5.985   4.382
 9262SOL    HW228686   6.117   6.055   4.444
 9263SOL     OW28687   1.917   3.830   3.885
 9263SOL    HW128688   1.893   3.923   3.912
 9263SOL    HW228689   1.863   3.765   3.937
 9264SOL     OW28690   4.280   3.545   0.160
 9264SOL    HW128691   4.278   3.445   0.161
 9264SOL    HW228692   4.375   3.577   0.162
 9265SOL     OW28693   5.676   1.824   7.002
 9265SOL    HW128694   5.771   1.802   0.003
 9265SOL    HW228695   5.627   1.844   0.068
 9266SOL     OW28696   1.082   4.476   1.453
 9266SOL    HW128697   1.167   4.457   1.403
 9266SOL    HW228698   1.097   4.461   1.550
 9267SOL     OW28699   6.524   0.902   4.824
 9267SOL    HW128700   6.425   0.916   4.826
 9267SOL    HW228701   6.550   0.856   4.740
 9268SOL     OW28702   0.701   0.041   1.982
 9268SOL    HW128703   0.726   0.061   2.077
 9268SOL    HW228704   0.704   0.125   1.928
 9269SOL     OW28705   4.367   0.875   0.828
 9269SOL    HW128706   4.363   0.853   0.730
 9269SOL    HW228707   4.303   0.949   0.848
 9270SOL     OW28708   2.029   0.224   5.800
 9270SOL    HW128709   1.938   0.207   5.837
 9270SOL    HW228710   2.080   0.283   5.862
 9271SOL     OW28711   1.433   6.799   4.566
 9271SOL    HW128712   1.406   6.730   4.498
 9271SOL    HW228713   1.489   6.756   4.637
 9272SOL     OW28714   6.587   6.796   5.778
 9272SOL    HW128715   6.559   6.721   5.836
 9272SOL    HW228716   6.669   6.839   5.815
 9273SOL     OW28717   4.838   5.178   4.561
 9273SOL    HW128718   4.924   5.130   4.576
 9273SOL    HW228719   4.768   5.112   4.534
 9274SOL     OW28720   0.774   2.501   0.186
 9274SOL    HW128721   0.826   2.440   0.246
 9274SOL    HW228722   0.824   2.587   0.173
 9275SOL     OW28723   0.336   0.712   7.006
 9275SOL    HW128724   0.380   0.700   6.917
 9275SOL    HW228725   0.323   0.622   0.028
 9276SOL     OW28726   2.950   5.241   0.043
 9276SOL    HW128727   2.893   5.317   0.012
 9276SOL    HW228728   3.046   5.269   0.044
 9277SOL     OW28729   5.195   5.893   2.054
 9277SOL    HW128730   5.260   5.825   2.020
 9277SOL    HW228731   5.112   5.847   2.085
 9278SOL     OW28732   0.834   1.122   5.041
 9278SOL    HW128733   0.776   1.194   5.003
 9278SOL    HW228734   0.829   1.040   4.984
 9279SOL     OW28735   4.752   6.108   1.664
 9279SOL    HW128736   4.764   6.179   1.733
 9279SOL    HW228737   4.842   6.075   1.635
 9280SOL     OW28738   1.657   0.027   2.736
 9280SOL    HW128739   1.641   7.014   2.829
 9280SOL    HW228740   1.747   7.015   2.704
 9281SOL     OW28741   2.528   5.055   6.526
 9281SOL    HW128742   2.511   5.050   6.428
 9281SOL    HW228743   2.625   5.073   6.543
 9282SOL     OW28744   2.916   6.772   4.921
 9282SOL    HW128745   2.879   6.826   4.997
 9282SOL    HW228746   3.015   6.782   4.920
 9283SOL     OW28747   4.993   6.107   0.151
 9283SOL    HW128748   4.954   6.018   0.175
 9283SOL    HW228749   5.091   6.098   0.135
 9284SOL     OW28750   3.319   4.023   4.969
 9284SOL    HW128751   3.241   3.971   4.933
 9284SOL    HW228752   3.285   4.090   5.036
 9285SOL     OW28753   0.423   4.810   2.623
 9285SOL    HW128754   0.384   4.829   2.533
 9285SOL    HW228755   0.493   4.739   2.614
 9286SOL     OW28756   5.002   5.814   1.215
 9286SOL    HW128757   5.019   5.853   1.125
 9286SOL    HW228758   4.937   5.738   1.206
 9287SOL     OW28759   3.461   4.772   6.388
 9287SOL    HW128760   3.402   4.761   6.468
 9287SOL    HW228761   3.418   4.834   6.323
 9288SOL     OW28762   4.024   2.124   2.947
 9288SOL    HW128763   4.067   2.180   2.876
 9288SOL    HW228764   3.932   2.100   2.919
 9289SOL     OW28765   5.008   6.734   6.968
 9289SOL    HW128766   4.968   6.643   6.980
 9289SOL    HW228767   5.096   6.738   7.015
 9290SOL     OW28768   4.994   0.864   3.986
 9290SOL    HW128769   5.065   0.934   3.993
 9290SOL    HW228770   4.952   0.849   4.075
 9291SOL     OW28771   1.114   4.937   5.987
 9291SOL    HW128772   1.082   5.021   6.032
 9291SOL    HW228773   1.180   4.960   5.915
 9292SOL     OW28774   1.897   1.654   6.510
 9292SOL    HW128775   1.951   1.572   6.527
 9292SOL    HW228776   1.844   1.677   6.591
 9293SOL     OW28777   5.409   2.733   4.781
 9293SOL    HW128778   5.364   2.749   4.693
 9293SOL    HW228779   5.438   2.637   4.786
 9294SOL     OW28780   4.400   1.450   0.351
 9294SOL    HW128781   4.346   1.366   0.349
 9294SOL    HW228782   4.374   1.508   0.273
 9295SOL     OW28783   0.381   1.462   5.021
 9295SOL    HW128784   0.312   1.514   4.971
 9295SOL    HW228785   0.470   1.507   5.011
 9296SOL     OW28786   1.548   5.021   0.205
 9296SOL    HW128787   1.621   4.996   0.142
 9296SOL    HW228788   1.587   5.070   0.283
 9297SOL     OW28789   5.727   5.561   2.437
 9297SOL    HW128790   5.661   5.624   2.396
 9297SOL    HW228791   5.691   5.467   2.429
 9298SOL     OW28792   1.311   5.472   6.266
 9298SOL    HW128793   1.380   5.521   6.320
 9298SOL    HW228794   1.233   5.450   6.323
 9299SOL     OW28795   2.040   2.356   4.890
 9299SOL    HW128796   2.135   2.328   4.903
 9299SOL    HW228797   2.011   2.412   4.967
 9300SOL     OW28798   1.502   5.178   5.593
 9300SOL    HW128799   1.533   5.202   5.685
 9300SOL    HW228800   1.403   5.186   5.587
 9301SOL     OW28801   0.027   4.274   4.914
 9301SOL    HW128802   6.976   4.343   4.925
 9301SOL    HW228803   0.092   4.281   4.990
 9302SOL     OW28804   2.040   3.662   4.920
 9302SOL    HW128805   2.120   3.627   4.968
 9302SOL    HW228806   2.049   3.761   4.907
 9303SOL     OW28807   2.212   5.047   0.744
 9303SOL    HW128808   2.153   5.039   0.824
 9303SOL    HW228809   2.197   4.970   0.683
 9304SOL     OW28810   4.652   5.139   0.056
 9304SOL    HW128811   4.603   5.121   6.990
 9304SOL    HW228812   4.587   5.139   0.132
 9305SOL     OW28813   1.929   1.924   1.333
 9305SOL    HW128814   2.009   1.900   1.388
 9305SOL    HW228815   1.935   2.021   1.307
 9306SOL     OW28816   6.707   5.275   4.516
 9306SOL    HW128817   6.674   5.185   4.543
 9306SOL    HW228818   6.632   5.341   4.520
 9307SOL     OW28819   2.619   3.139   1.663
 9307SOL    HW128820   2.567   3.053   1.671
 9307SOL    HW228821   2.681   3.133   1.585
 9308SOL     OW28822   1.977   3.756   2.126
 9308SOL    HW128823   2.057   3.748   2.186
 9308SOL    HW228824   1.958   3.667   2.083
 9309SOL     OW28825   5.175   5.562   6.217
 9309SOL    HW128826   5.194   5.656   6.189
 9309SOL    HW228827   5.189   5.554   6.316
 9310SOL     OW28828   5.647   6.287   0.118
 9310SOL    HW128829   5.689   6.210   0.070
 9310SOL    HW228830   5.673   6.285   0.214
 9311SOL     OW28831   4.469   3.591   1.470
 9311SOL    HW128832   4.448   3.554   1.380
 9311SOL    HW228833   4.508   3.683   1.459
 9312SOL     OW28834   0.533   2.877   2.024
 9312SOL    HW128835   0.603   2.806   2.037
 9312SOL    HW228836   0.454   2.857   2.082
 9313SOL     OW28837   0.358   6.856   2.428
 9313SOL    HW128838   0.372   6.946   2.470
 9313SOL    HW228839   0.270   6.819   2.458
 9314SOL     OW28840   5.020   3.524   0.441
 9314SOL    HW128841   4.960   3.601   0.461
 9314SOL    HW228842   4.978   3.465   0.372
 9315SOL     OW28843   5.459   0.774   5.926
 9315SOL    HW128844   5.461   0.850   5.991
 9315SOL    HW228845   5.478   0.688   5.974
 9316SOL     OW28846   4.615   0.712   5.522
 9316SOL    HW128847   4.533   0.661   5.497
 9316SOL    HW228848   4.651   0.676   5.608
 9317SOL     OW28849   4.094   6.541   3.226
 9317SOL    HW128850   4.171   6.571   3.282
 9317SOL    HW228851   4.119   6.459   3.176
 9318SOL     OW28852   5.010   6.800   1.378
 9318SOL    HW128853   5.082   6.846   1.430
 9318SOL    HW228854   4.986   6.714   1.423
 9319SOL     OW28855   2.698   3.934   0.222
 9319SOL    HW128856   2.745   3.864   0.168
 9319SOL    HW228857   2.716   4.024   0.182
 9320SOL     OW28858   6.500   6.132   6.840
 9320SOL    HW128859   6.523   6.035   6.845
 9320SOL    HW228860   6.572   6.181   6.792
 9321SOL     OW28861   0.888   3.825   4.775
 9321SOL    HW128862   0.985   3.799   4.770
 9321SOL    HW228863   0.835   3.763   4.717
 9322SOL     OW28864   6.080   3.518   6.360
 9322SOL    HW128865   6.058   3.615   6.361
 9322SOL    HW228866   5.997   3.465   6.380
 9323SOL     OW28867   1.721   2.317   4.779
 9323SOL    HW128868   1.631   2.359   4.776
 9323SOL    HW228869   1.773   2.356   4.855
 9324SOL     OW28870   0.664   4.497   1.721
 9324SOL    HW128871   0.664   4.406   1.679
 9324SOL    HW228872   0.599   4.556   1.673
 9325SOL     OW28873   0.928   4.907   3.125
 9325SOL    HW128874   0.941   4.971   3.201
 9325SOL    HW228875   1.014   4.860   3.105
 9326SOL     OW28876   4.367   4.541   1.293
 9326SOL    HW128877   4.276   4.582   1.294
 9326SOL    HW228878   4.398   4.527   1.387
 9327SOL     OW28879   4.069   0.115   4.089
 9327SOL    HW128880   4.024   0.203   4.105
 9327SOL    HW228881   4.089   0.104   3.992
 9328SOL     OW28882   2.477   6.904   4.434
 9328SOL    HW128883   2.443   6.810   4.434
 9328SOL    HW228884   2.570   6.906   4.396
 9329SOL     OW28885   0.143   5.148   6.699
 9329SOL    HW128886   0.204   5.098   6.759
 9329SOL    HW228887   0.187   5.233   6.670
 9330SOL     OW28888   6.434   5.047   6.718
 9330SOL    HW128889   6.527   5.046   6.682
 9330SOL    HW228890   6.398   4.954   6.720
 9331SOL     OW28891   1.827   2.692   4.664
 9331SOL    HW128892   1.865   2.751   4.735
 9331SOL    HW228893   1.887   2.613   4.649
 9332SOL     OW28894   4.853   5.368   1.076
 9332SOL    HW128895   4.819   5.335   0.988
 9332SOL    HW228896   4.887   5.291   1.130
 9333SOL     OW28897   3.799   4.746   1.213
 9333SOL    HW128898   3.770   4.714   1.302
 9333SOL    HW228899   3.785   4.674   1.145
 9334SOL     OW28900   5.853   6.027   5.767
 9334SOL    HW128901   5.944   6.069   5.767
 9334SOL    HW228902   5.785   6.097   5.786
 9335SOL     OW28903   1.445   2.944   1.618
 9335SOL    HW128904   1.463   3.042   1.622
 9335SOL    HW228905   1.511   2.895   1.675
 9336SOL     OW28906   6.187   6.740   5.335
 9336SOL    HW128907   6.105   6.682   5.341
 9336SOL    HW228908   6.268   6.683   5.347
 9337SOL     OW28909   2.766   0.312   6.757
 9337SOL    HW128910   2.793   0.239   6.695
 9337SOL    HW228911   2.843   0.339   6.814
 9338SOL     OW28912   5.966   6.926   6.880
 9338SOL    HW128913   5.867   6.940   6.871
 9338SOL    HW228914   6.005   7.001   6.934
 9339SOL     OW28915   6.542   4.248   5.305
 9339SOL    HW128916   6.444   4.226   5.310
 9339SOL    HW228917   6.553   4.343   5.277
 9340SOL     OW28918   4.281   5.995   1.930
 9340SOL    HW128919   4.240   6.024   1.844
 9340SOL    HW228920   4.275   5.896   1.939
 9341SOL     OW28921   4.744   3.986   6.939
 9341SOL    HW128922   4.705   3.926   6.869
 9341SOL    HW228923   4.680   3.997   7.014
 9342SOL     OW28924   2.946   0.289   4.140
 9342SOL    HW128925   3.020   0.328   4.086
 9342SOL    HW228926   2.858   0.316   4.101
 9343SOL     OW28927   4.470   4.483   1.569
 9343SOL    HW128928   4.546   4.548   1.569
 9343SOL    HW228929   4.439   4.467   1.663
 9344SOL     OW28930   5.745   5.764   4.956
 9344SOL    HW128931   5.793   5.792   5.040
 9344SOL    HW228932   5.706   5.673   4.969
 9345SOL     OW28933   6.753   6.372   0.996
 9345SOL    HW128934   6.775   6.457   1.043
 9345SOL    HW228935   6.811   6.298   1.031
 9346SOL     OW28936   5.930   5.981   0.994
 9346SOL    HW128937   5.883   6.050   1.049
 9346SOL    HW228938   5.866   5.908   0.970
 9347SOL     OW28939   3.660   5.536   0.752
 9347SOL    HW128940   3.563   5.552   0.771
 9347SOL    HW228941   3.710   5.528   0.839
 9348SOL     OW28942   1.786   6.021   1.844
 9348SOL    HW128943   1.763   6.082   1.768
 9348SOL    HW228944   1.725   5.941   1.841
 9349SOL     OW28945   6.015   5.842   1.796
 9349SOL    HW128946   5.922   5.814   1.817
 9349SOL    HW228947   6.036   5.819   1.700
 9350SOL     OW28948   0.117   0.142   5.493
 9350SOL    HW128949   0.184   0.214   5.475
 9350SOL    HW228950   0.025   0.177   5.477
 9351SOL     OW28951   3.061   1.663   6.319
 9351SOL    HW128952   3.057   1.763   6.315
 9351SOL    HW228953   3.111   1.629   6.239
 9352SOL     OW28954   3.647   2.198   6.471
 9352SOL    HW128955   3.562   2.165   6.512
 9352SOL    HW228956   3.628   2.280   6.417
 9353SOL     OW28957   1.559   3.462   1.029
 9353SOL    HW128958   1.596   3.440   0.939
 9353SOL    HW228959   1.632   3.496   1.088
 9354SOL     OW28960   4.876   2.251   1.258
 9354SOL    HW128961   4.936   2.171   1.256
 9354SOL    HW228962   4.781   2.221   1.270
 9355SOL     OW28963   6.882   6.940   3.021
 9355SOL    HW128964   6.797   6.896   3.049
 9355SOL    HW228965   6.889   0.010   3.064
 9356SOL     OW28966   4.291   4.599   2.471
 9356SOL    HW128967   4.380   4.554   2.472
 9356SOL    HW228968   4.246   4.583   2.382
 9357SOL     OW28969   3.283   2.350   1.254
 9357SOL    HW128970   3.273   2.400   1.340
 9357SOL    HW228971   3.365   2.382   1.206
 9358SOL     OW28972   6.529   4.719   2.422
 9358SOL    HW128973   6.473   4.636   2.430
 9358SOL    HW228974   6.478   4.796   2.460
 9359SOL     OW28975   6.734   4.117   5.820
 9359SOL    HW128976   6.815   4.163   5.783
 9359SOL    HW228977   6.666   4.185   5.846
 9360SOL     OW28978   2.308   1.099   6.869
 9360SOL    HW128979   2.222   1.150   6.874
 9360SOL    HW228980   2.331   1.080   6.774
 9361SOL     OW28981   2.822   6.529   2.408
 9361SOL    HW128982   2.813   6.467   2.330
 9361SOL    HW228983   2.768   6.612   2.391
 9362SOL     OW28984   2.265   1.303   2.658
 9362SOL    HW128985   2.213   1.311   2.743
 9362SOL    HW228986   2.359   1.277   2.679
 9363SOL     OW28987   3.339   6.448   2.458
 9363SOL    HW128988   3.352   6.403   2.546
 9363SOL    HW228989   3.289   6.533   2.470
 9364SOL     OW28990   4.437   3.319   0.337
 9364SOL    HW128991   4.484   3.246   0.387
 9364SOL    HW228992   4.501   3.393   0.317
 9365SOL     OW28993   2.448   2.104   5.081
 9365SOL    HW128994   2.517   2.047   5.036
 9365SOL    HW228995   2.401   2.160   5.012
 9366SOL     OW28996   2.472   1.940   0.355
 9366SOL    HW128997   2.549   1.905   0.408
 9366SOL    HW228998   2.399   1.970   0.416
 9367SOL     OW28999   6.683   5.743   2.712
 9367SOL    HW129000   6.682   5.842   2.719
 9367SOL    HW229001   6.769   5.708   2.749
 9368SOL     OW29002   2.950   1.675   1.964
 9368SOL    HW129003   3.019   1.709   1.900
 9368SOL    HW229004   2.910   1.752   2.014
 9369SOL     OW29005   0.270   2.452   4.696
 9369SOL    HW129006   0.203   2.471   4.767
 9369SOL    HW229007   0.229   2.469   4.606
 9370SOL     OW29008   6.431   0.701   2.720
 9370SOL    HW129009   6.385   0.688   2.808
 9370SOL    HW229010   6.364   0.723   2.649
 9371SOL     OW29011   0.133   6.321   0.447
 9371SOL    HW129012   0.111   6.224   0.452
 9371SOL    HW229013   0.204   6.343   0.514
 9372SOL     OW29014   6.228   6.648   3.919
 9372SOL    HW129015   6.252   6.742   3.896
 9372SOL    HW229016   6.302   6.607   3.974
 9373SOL     OW29017   3.888   1.696   2.900
 9373SOL    HW129018   3.802   1.746   2.897
 9373SOL    HW229019   3.949   1.737   2.968
 9374SOL     OW29020   5.155   2.800   0.345
 9374SOL    HW129021   5.093   2.763   0.276
 9374SOL    HW229022   5.121   2.776   0.436
 9375SOL     OW29023   0.717   1.445   3.205
 9375SOL    HW129024   0.649   1.375   3.229
 9375SOL    HW229025   0.691   1.532   3.248
 9376SOL     OW29026   2.810   4.114   0.971
 9376SOL    HW129027   2.867   4.127   1.052
 9376SOL    HW229028   2.719   4.083   0.998
 9377SOL     OW29029   6.366   5.656   3.636
 9377SOL    HW129030   6.460   5.624   3.625
 9377SOL    HW229031   6.362   5.754   3.615
 9378SOL     OW29032   2.140   0.057   0.141
 9378SOL    HW129033   2.060   0.058   0.081
 9378SOL    HW229034   2.219   0.092   0.091
 9379SOL     OW29035   4.992   5.407   3.803
 9379SOL    HW129036   4.915   5.470   3.808
 9379SOL    HW229037   4.992   5.347   3.884
 9380SOL     OW29038   6.069   0.026   5.549
 9380SOL    HW129039   6.022   6.963   5.580
 9380SOL    HW229040   6.166   0.019   5.570
 9381SOL     OW29041   2.652   2.053   5.839
 9381SOL    HW129042   2.750   2.066   5.822
 9381SOL    HW229043   2.640   1.990   5.916
 9382SOL     OW29044   4.026   1.451   2.411
 9382SOL    HW129045   3.992   1.466   2.504
 9382SOL    HW229046   3.991   1.364   2.376
 9383SOL     OW29047   4.183   6.507   4.047
 9383SOL    HW129048   4.099   6.511   3.992
 9383SOL    HW229049   4.162   6.532   4.141
 9384SOL     OW29050   5.067   6.275   2.294
 9384SOL    HW129051   5.044   6.208   2.224
 9384SOL    HW229052   5.120   6.349   2.254
 9385SOL     OW29053   4.183   0.793   3.566
 9385SOL    HW129054   4.169   0.852   3.646
 9385SOL    HW229055   4.280   0.794   3.541
 9386SOL     OW29056   2.841   6.567   5.695
 9386SOL    HW129057   2.801   6.531   5.611
 9386SOL    HW229058   2.769   6.592   5.759
 9387SOL     OW29059   3.052   6.662   1.694
 9387SOL    HW129060   3.146   6.629   1.700
 9387SOL    HW229061   3.016   6.646   1.602
 9388SOL     OW29062   0.338   0.714   2.586
 9388SOL    HW129063   0.416   0.761   2.547
 9388SOL    HW229064   0.359   0.684   2.679
 9389SOL     OW29065   2.623   0.913   5.884
 9389SOL    HW129066   2.556   0.874   5.821
 9389SOL    HW229067   2.576   0.966   5.954
 9390SOL     OW29068   3.238   5.320   2.518
 9390SOL    HW129069   3.155   5.367   2.547
 9390SOL    HW229070   3.308   5.388   2.495
 9391SOL     OW29071   0.953   1.368   5.482
 9391SOL    HW129072   0.913   1.460   5.491
 9391SOL    HW229073   1.045   1.369   5.521
 9392SOL     OW29074   1.641   6.663   4.768
 9392SOL    HW129075   1.731   6.637   4.802
 9392SOL    HW229076   1.588   6.580   4.748
 9393SOL     OW29077   3.610   2.245   5.263
 9393SOL    HW129078   3.592   2.302   5.343
 9393SOL    HW229079   3.526   2.196   5.238
 9394SOL     OW29080   6.803   3.135   2.977
 9394SOL    HW129081   6.751   3.065   3.026
 9394SOL    HW229082   6.798   3.116   2.878
 9395SOL     OW29083   2.597   3.295   0.857
 9395SOL    HW129084   2.512   3.245   0.876
 9395SOL    HW229085   2.580   3.362   0.785
 9396SOL     OW29086   6.118   0.028   5.854
 9396SOL    HW129087   6.178   0.084   5.798
 9396SOL    HW229088   6.023   0.047   5.831
 9397SOL     OW29089   2.266   0.051   0.387
 9397SOL    HW129090   2.199   0.037   0.313
 9397SOL    HW229091   2.334   0.118   0.358
 9398SOL     OW29092   2.866   1.461   6.384
 9398SOL    HW129093   2.914   1.549   6.381
 9398SOL    HW229094   2.919   1.397   6.440
 9399SOL     OW29095   6.454   1.575   6.142
 9399SOL    HW129096   6.525   1.562   6.211
 9399SOL    HW229097   6.430   1.487   6.101
 9400SOL     OW29098   5.182   3.392   2.112
 9400SOL    HW129099   5.196   3.348   2.023
 9400SOL    HW229100   5.251   3.359   2.176
 9401SOL     OW29101   3.013   6.240   3.691
 9401SOL    HW129102   2.977   6.203   3.777
 9401SOL    HW229103   3.096   6.190   3.665
 9402SOL     OW29104   2.344   4.949   6.042
 9402SOL    HW129105   2.310   4.882   5.976
 9402SOL    HW229106   2.296   4.937   6.129
 9403SOL     OW29107   5.286   1.335   3.703
 9403SOL    HW129108   5.220   1.264   3.728
 9403SOL    HW229109   5.239   1.423   3.701
 9404SOL     OW29110   1.049   5.185   0.029
 9404SOL    HW129111   1.149   5.184   0.031
 9404SOL    HW229112   1.014   5.232   0.110
 9405SOL     OW29113   6.157   6.830   1.380
 9405SOL    HW129114   6.062   6.858   1.361
 9405SOL    HW229115   6.217   6.868   1.310
 9406SOL     OW29116   6.909   1.993   5.323
 9406SOL    HW129117   6.988   1.957   5.274
 9406SOL    HW229118   6.940   2.050   5.399
 9407SOL     OW29119   3.330   5.868   3.318
 9407SOL    HW129120   3.380   5.955   3.315
 9407SOL    HW229121   3.378   5.804   3.378
 9408SOL     OW29122   3.875   1.996   6.971
 9408SOL    HW129123   3.947   1.950   6.919
 9408SOL    HW229124   3.831   1.931   0.013
 9409SOL     OW29125   5.817   3.358   3.666
 9409SOL    HW129126   5.884   3.401   3.606
 9409SOL    HW229127   5.859   3.338   3.755
 9410SOL     OW29128   4.312   6.328   2.295
 9410SOL    HW129129   4.290   6.289   2.205
 9410SOL    HW229130   4.321   6.427   2.286
 9411SOL     OW29131   4.496   5.830   0.583
 9411SOL    HW129132   4.472   5.896   0.512
 9411SOL    HW229133   4.447   5.745   0.567
 9412SOL     OW29134   0.252   2.682   0.950
 9412SOL    HW129135   0.158   2.704   0.975
 9412SOL    HW229136   0.289   2.754   0.892
 9413SOL     OW29137   4.108   5.945   5.325
 9413SOL    HW129138   4.088   5.949   5.227
 9413SOL    HW229139   4.193   5.993   5.343
 9414SOL     OW29140   2.948   1.478   2.959
 9414SOL    HW129141   3.013   1.516   2.893
 9414SOL    HW229142   2.945   1.379   2.949
 9415SOL     OW29143   1.940   6.286   2.483
 9415SOL    HW129144   1.964   6.382   2.501
 9415SOL    HW229145   1.864   6.283   2.418
 9416SOL     OW29146   1.479   1.925   1.911
 9416SOL    HW129147   1.409   1.946   1.842
 9416SOL    HW229148   1.547   1.864   1.870
 9417SOL     OW29149   2.487   5.687   5.513
 9417SOL    HW129150   2.396   5.646   5.510
 9417SOL    HW229151   2.486   5.773   5.461
 9418SOL     OW29152   2.402   5.459   1.939
 9418SOL    HW129153   2.312   5.501   1.952
 9418SOL    HW229154   2.434   5.478   1.846
 9419SOL     OW29155   2.951   6.561   5.190
 9419SOL    HW129156   3.027   6.597   5.136
 9419SOL    HW229157   2.864   6.578   5.143
 9420SOL     OW29158   6.592   1.324   4.995
 9420SOL    HW129159   6.501   1.325   4.953
 9420SOL    HW229160   6.631   1.232   4.987
 9421SOL     OW29161   1.363   4.083   5.561
 9421SOL    HW129162   1.421   4.004   5.546
 9421SOL    HW229163   1.395   4.159   5.505
 9422SOL     OW29164   5.420   0.359   2.263
 9422SOL    HW129165   5.459   0.290   2.202
 9422SOL    HW229166   5.352   0.316   2.323
 9423SOL     OW29167   4.066   1.208   3.661
 9423SOL    HW129168   4.031   1.145   3.592
 9423SOL    HW229169   3.992   1.266   3.694
 9424SOL     OW29170   4.415   0.324   5.302
 9424SOL    HW129171   4.416   0.258   5.378
 9424SOL    HW229172   4.408   0.276   5.215
 9425SOL     OW29173   0.486   4.026   5.462
 9425SOL    HW129174   0.485   4.123   5.438
 9425SOL    HW229175   0.581   3.996   5.475
 9426SOL     OW29176   3.034   0.621   6.856
 9426SOL    HW129177   3.011   0.540   6.910
 9426SOL    HW229178   2.954   0.651   6.804
 9427SOL     OW29179   3.009   5.467   4.946
 9427SOL    HW129180   2.948   5.504   4.876
 9427SOL    HW229181   3.067   5.396   4.905
 9428SOL     OW29182   5.367   0.588   3.043
 9428SOL    HW129183   5.358   0.685   3.019
 9428SOL    HW229184   5.452   0.552   3.005
 9429SOL     OW29185   0.829   4.352   2.143
 9429SOL    HW129186   0.833   4.425   2.210
 9429SOL    HW229187   0.918   4.305   2.139
 9430SOL     OW29188   6.746   6.485   1.726
 9430SOL    HW129189   6.694   6.444   1.651
 9430SOL    HW229190   6.736   6.428   1.808
 9431SOL     OW29191   6.638   3.477   6.967
 9431SOL    HW129192   6.656   3.576   6.961
 9431SOL    HW229193   6.641   3.437   6.875
 9432SOL     OW29194   5.975   0.139   3.424
 9432SOL    HW129195   6.058   0.108   3.377
 9432SOL    HW229196   5.909   0.064   3.429
 9433SOL     OW29197   3.348   4.850   5.414
 9433SOL    HW129198   3.284   4.775   5.397
 9433SOL    HW229199   3.326   4.927   5.353
 9434SOL     OW29200   5.713   3.890   3.002
 9434SOL    HW129201   5.690   3.807   3.052
 9434SOL    HW229202   5.746   3.866   2.911
 9435SOL     OW29203   1.935   1.621   4.162
 9435SOL    HW129204   1.919   1.715   4.133
 9435SOL    HW229205   2.016   1.618   4.222
 9436SOL     OW29206   1.869   4.137   0.709
 9436SOL    HW129207   1.807   4.061   0.688
 9436SOL    HW229208   1.924   4.158   0.628
 9437SOL     OW29209   1.371   5.131   3.036
 9437SOL    HW129210   1.393   5.210   3.093
 9437SOL    HW229211   1.285   5.147   2.988
 9438SOL     OW29212   0.568   6.783   2.213
 9438SOL    HW129213   0.529   6.825   2.295
 9438SOL    HW229214   0.667   6.799   2.210
 9439SOL     OW29215   6.891   3.657   2.014
 9439SOL    HW129216   6.940   3.618   2.091
 9439SOL    HW229217   6.915   3.754   2.005
 9440SOL     OW29218   5.015   6.421   5.217
 9440SOL    HW129219   5.008   6.369   5.132
 9440SOL    HW229220   4.932   6.474   5.231
 9441SOL     OW29221   1.615   5.083   4.790
 9441SOL    HW129222   1.692   5.036   4.746
 9441SOL    HW229223   1.645   5.123   4.877
 9442SOL     OW29224   7.000   2.419   0.264
 9442SOL    HW129225   7.006   2.348   0.334
 9442SOL    HW229226   6.905   2.427   0.232
 9443SOL     OW29227   1.872   4.857   1.022
 9443SOL    HW129228   1.849   4.763   1.046
 9443SOL    HW229229   1.809   4.920   1.067
 9444SOL     OW29230   0.375   2.770   0.202
 9444SOL    HW129231   0.313   2.800   0.130
 9444SOL    HW229232   0.366   2.672   0.215
 9445SOL     OW29233   5.150   3.676   2.372
 9445SOL    HW129234   5.057   3.659   2.340
 9445SOL    HW229235   5.191   3.590   2.403
 9446SOL     OW29236   6.330   6.356   2.368
 9446SOL    HW129237   6.364   6.285   2.305
 9446SOL    HW229238   6.237   6.333   2.397
 9447SOL     OW29239   4.846   3.938   2.306
 9447SOL    HW129240   4.855   3.843   2.277
 9447SOL    HW229241   4.880   3.998   2.234
 9448SOL     OW29242   5.764   6.332   6.432
 9448SOL    HW129243   5.786   6.407   6.495
 9448SOL    HW229244   5.733   6.253   6.484
 9449SOL     OW29245   6.105   5.609   5.470
 9449SOL    HW129246   6.035   5.550   5.430
 9449SOL    HW229247   6.155   5.656   5.398
 9450SOL     OW29248   2.100   5.029   4.427
 9450SOL    HW129249   2.136   5.071   4.510
 9450SOL    HW229250   2.071   4.935   4.448
 9451SOL     OW29251   5.096   5.427   6.939
 9451SOL    HW129252   5.000   5.417   6.912
 9451SOL    HW229253   5.116   5.523   6.957
 9452SOL     OW29254   2.302   3.628   0.820
 9452SOL    HW129255   2.286   3.530   0.826
 9452SOL    HW229256   2.362   3.657   0.895
 9453SOL     OW29257   1.947   5.158   3.067
 9453SOL    HW129258   1.995   5.178   2.982
 9453SOL    HW229259   1.884   5.081   3.053
 9454SOL     OW29260   1.400   4.216   6.335
 9454SOL    HW129261   1.322   4.248   6.390
 9454SOL    HW229262   1.484   4.257   6.370
 9455SOL     OW29263   2.981   1.215   2.918
 9455SOL    HW129264   2.995   1.123   2.954
 9455SOL    HW229265   3.034   1.227   2.834
 9456SOL     OW29266   0.974   3.918   1.089
 9456SOL    HW129267   1.059   3.870   1.109
 9456SOL    HW229268   0.917   3.862   1.028
 9457SOL     OW29269   1.676   3.392   6.861
 9457SOL    HW129270   1.672   3.331   6.782
 9457SOL    HW229271   1.637   3.481   6.835
 9458SOL     OW29272   6.729   5.103   6.215
 9458SOL    HW129273   6.772   5.089   6.126
 9458SOL    HW229274   6.796   5.087   6.287
 9459SOL     OW29275   6.053   5.232   1.656
 9459SOL    HW129276   6.144   5.233   1.614
 9459SOL    HW229277   6.006   5.318   1.638
 9460SOL     OW29278   0.585   2.583   5.012
 9460SOL    HW129279   0.679   2.552   5.027
 9460SOL    HW229280   0.525   2.505   4.996
 9461SOL     OW29281   0.641   1.134   3.290
 9461SOL    HW129282   0.710   1.076   3.247
 9461SOL    HW229283   0.555   1.127   3.239
 9462SOL     OW29284   1.231   2.995   2.935
 9462SOL    HW129285   1.184   3.020   2.850
 9462SOL    HW229286   1.218   3.069   3.002
 9463SOL     OW29287   6.871   1.080   0.726
 9463SOL    HW129288   6.807   1.155   0.711
 9463SOL    HW229289   6.961   1.105   0.690
 9464SOL     OW29290   6.136   6.653   6.433
 9464SOL    HW129291   6.097   6.597   6.505
 9464SOL    HW229292   6.227   6.683   6.460
 9465SOL     OW29293   6.768   0.663   3.424
 9465SOL    HW129294   6.765   0.669   3.325
 9465SOL    HW229295   6.809   0.576   3.452
 9466SOL     OW29296   2.422   3.146   6.123
 9466SOL    HW129297   2.495   3.149   6.055
 9466SOL    HW229298   2.441   3.072   6.189
 9467SOL     OW29299   1.757   2.565   1.953
 9467SOL    HW129300   1.708   2.483   1.924
 9467SOL    HW229301   1.815   2.544   2.032
 9468SOL     OW29302   6.528   2.949   6.043
 9468SOL    HW129303   6.550   2.903   6.129
 9468SOL    HW229304   6.490   3.039   6.062
 9469SOL     OW29305   6.093   5.841   2.289
 9469SOL    HW129306   6.130   5.838   2.382
 9469SOL    HW229307   6.003   5.798   2.287
 9470SOL     OW29308   4.832   3.573   0.123
 9470SOL    HW129309   4.856   3.567   0.026
 9470SOL    HW229310   4.869   3.494   0.172
 9471SOL     OW29311   6.836   2.779   5.773
 9471SOL    HW129312   6.844   2.878   5.763
 9471SOL    HW229313   6.880   2.734   5.695
 9472SOL     OW29314   6.018   4.464   4.237
 9472SOL    HW129315   6.091   4.396   4.245
 9472SOL    HW229316   5.983   4.464   4.144
 9473SOL     OW29317   3.151   6.405   6.479
 9473SOL    HW129318   3.111   6.409   6.571
 9473SOL    HW229319   3.250   6.409   6.486
 9474SOL     OW29320   5.233   4.350   2.217
 9474SOL    HW129321   5.221   4.399   2.303
 9474SOL    HW229322   5.278   4.410   2.150
 9475SOL     OW29323   3.124   3.437   1.084
 9475SOL    HW129324   3.211   3.403   1.121
 9475SOL    HW229325   3.078   3.363   1.034
 9476SOL     OW29326   4.228   3.459   5.442
 9476SOL    HW129327   4.274   3.379   5.482
 9476SOL    HW229328   4.266   3.543   5.483
 9477SOL     OW29329   1.326   2.365   0.919
 9477SOL    HW129330   1.287   2.306   0.848
 9477SOL    HW229331   1.295   2.334   1.009
 9478SOL     OW29332   5.131   4.056   5.394
 9478SOL    HW129333   5.063   4.041   5.323
 9478SOL    HW229334   5.223   4.054   5.353
 9479SOL     OW29335   5.853   5.248   6.475
 9479SOL    HW129336   5.900   5.288   6.554
 9479SOL    HW229337   5.873   5.150   6.471
 9480SOL     OW29338   4.718   4.305   6.745
 9480SOL    HW129339   4.809   4.331   6.776
 9480SOL    HW229340   4.725   4.223   6.687
 9481SOL     OW29341   0.173   4.111   1.868
 9481SOL    HW129342   0.250   4.054   1.897
 9481SOL    HW229343   0.193   4.150   1.778
 9482SOL     OW29344   4.834   0.691   3.030
 9482SOL    HW129345   4.823   0.770   3.091
 9482SOL    HW229346   4.931   0.675   3.013
 9483SOL     OW29347   1.557   1.829   1.226
 9483SOL    HW129348   1.510   1.794   1.145
 9483SOL    HW229349   1.582   1.924   1.211
 9484SOL     OW29350   6.055   0.944   3.720
 9484SOL    HW129351   6.029   0.906   3.631
 9484SOL    HW229352   6.041   1.043   3.719
 9485SOL     OW29353   1.051   1.034   1.989
 9485SOL    HW129354   1.129   1.081   2.030
 9485SOL    HW229355   1.082   0.980   1.911
 9486SOL     OW29356   2.296   5.987   0.607
 9486SOL    HW129357   2.252   6.019   0.522
 9486SOL    HW229358   2.366   5.919   0.584
 9487SOL     OW29359   3.478   4.024   3.807
 9487SOL    HW129360   3.479   4.062   3.899
 9487SOL    HW229361   3.415   4.078   3.750
 9488SOL     OW29362   1.683   6.144   1.082
 9488SOL    HW129363   1.659   6.113   0.990
 9488SOL    HW229364   1.748   6.219   1.076
 9489SOL     OW29365   3.961   4.554   1.318
 9489SOL    HW129366   3.928   4.601   1.236
 9489SOL    HW229367   3.888   4.500   1.358
 9490SOL     OW29368   5.313   0.562   0.872
 9490SOL    HW129369   5.279   0.468   0.871
 9490SOL    HW229370   5.283   0.608   0.956
 9491SOL     OW29371   6.301   5.002   3.777
 9491SOL    HW129372   6.350   4.921   3.810
 9491SOL    HW229373   6.213   4.974   3.739
 9492SOL     OW29374   3.298   3.839   2.023
 9492SOL    HW129375   3.230   3.805   1.957
 9492SOL    HW229376   3.332   3.928   1.992
 9493SOL     OW29377   4.914   5.497   3.086
 9493SOL    HW129378   4.969   5.443   3.149
 9493SOL    HW229379   4.885   5.439   3.009
 9494SOL     OW29380   5.266   3.272   0.230
 9494SOL    HW129381   5.274   3.262   0.329
 9494SOL    HW229382   5.336   3.334   0.196
 9495SOL     OW29383   6.498   2.314   4.037
 9495SOL    HW129384   6.555   2.233   4.026
 9495SOL    HW229385   6.403   2.287   4.046
 9496SOL     OW29386   5.289   4.150   6.705
 9496SOL    HW129387   5.222   4.219   6.678
 9496SOL    HW229388   5.375   4.167   6.656
 9497SOL     OW29389   5.216   4.533   1.040
 9497SOL    HW129390   5.290   4.511   0.977
 9497SOL    HW229391   5.252   4.587   1.116
 9498SOL     OW29392   3.650   6.716   5.235
 9498SOL    HW129393   3.571   6.687   5.182
 9498SOL    HW229394   3.686   6.801   5.197
 9499SOL     OW29395   2.871   3.745   5.683
 9499SOL    HW129396   2.858   3.683   5.605
 9499SOL    HW229397   2.862   3.839   5.652
 9500SOL     OW29398   4.552   6.152   1.480
 9500SOL    HW129399   4.497   6.232   1.502
 9500SOL    HW229400   4.625   6.142   1.547
 9501SOL     OW29401   3.619   1.818   4.467
 9501SOL    HW129402   3.693   1.875   4.432
 9501SOL    HW229403   3.544   1.817   4.400
 9502SOL     OW29404   6.704   2.811   4.774
 9502SOL    HW129405   6.802   2.792   4.778
 9502SOL    HW229406   6.690   2.902   4.734
 9503SOL     OW29407   0.505   0.389   1.928
 9503SOL    HW129408   0.411   0.355   1.934
 9503SOL    HW229409   0.535   0.421   2.018
 9504SOL     OW29410   0.174   2.581   0.635
 9504SOL    HW129411   0.116   2.569   0.715
 9504SOL    HW229412   0.119   2.614   0.558
 9505SOL     OW29413   6.050   3.691   3.088
 9505SOL    HW129414   6.124   3.644   3.040
 9505SOL    HW229415   6.070   3.789   3.093
 9506SOL     OW29416   0.139   2.982   6.961
 9506SOL    HW129417   0.151   2.902   7.020
 9506SOL    HW229418   0.048   2.979   6.919
 9507SOL     OW29419   1.459   0.857   4.081
 9507SOL    HW129420   1.378   0.910   4.106
 9507SOL    HW229421   1.480   0.872   3.984
 9508SOL     OW29422   5.512   1.968   0.445
 9508SOL    HW129423   5.581   2.033   0.414
 9508SOL    HW229424   5.547   1.915   0.521
 9509SOL     OW29425   1.599   6.755   5.216
 9509SOL    HW129426   1.604   6.790   5.122
 9509SOL    HW229427   1.522   6.691   5.224
 9510SOL     OW29428   7.002   4.139   2.316
 9510SOL    HW129429   7.003   4.222   2.370
 9510SOL    HW229430   7.000   4.162   2.218
 9511SOL     OW29431   0.581   2.479   0.455
 9511SOL    HW129432   0.505   2.523   0.409
 9511SOL    HW229433   0.660   2.541   0.458
 9512SOL     OW29434   0.023   2.373   3.795
 9512SOL    HW129435   0.117   2.386   3.762
 9512SOL    HW229436   0.026   2.320   3.880
 9513SOL     OW29437   2.225   4.031   4.611
 9513SOL    HW129438   2.229   4.125   4.645
 9513SOL    HW229439   2.312   3.985   4.628
 9514SOL     OW29440   2.164   3.519   6.667
 9514SOL    HW129441   2.169   3.592   6.735
 9514SOL    HW229442   2.240   3.528   6.602
 9515SOL     OW29443   1.169   6.420   6.785
 9515SOL    HW129444   1.239   6.399   6.854
 9515SOL    HW229445   1.082   6.437   6.831
 9516SOL     OW29446   4.896   3.539   3.963
 9516SOL    HW129447   4.971   3.550   3.897
 9516SOL    HW229448   4.830   3.472   3.927
 9517SOL     OW29449   1.028   5.455   1.225
 9517SOL    HW129450   1.070   5.428   1.138
 9517SOL    HW229451   0.959   5.525   1.209
 9518SOL     OW29452   0.771   2.970   5.580
 9518SOL    HW129453   0.831   2.892   5.596
 9518SOL    HW229454   0.825   3.047   5.547
 9519SOL     OW29455   3.176   3.306   2.907
 9519SOL    HW129456   3.102   3.321   2.842
 9519SOL    HW229457   3.139   3.271   2.993
 9520SOL     OW29458   6.900   1.272   5.234
 9520SOL    HW129459   6.939   1.295   5.145
 9520SOL    HW229460   6.809   1.312   5.243
 9521SOL     OW29461   3.537   5.957   1.799
 9521SOL    HW129462   3.445   5.965   1.760
 9521SOL    HW229463   3.587   6.042   1.782
 9522SOL     OW29464   4.104   5.307   2.018
 9522SOL    HW129465   4.143   5.367   2.088
 9522SOL    HW229466   4.176   5.250   1.979
 9523SOL     OW29467   2.667   5.144   4.624
 9523SOL    HW129468   2.716   5.099   4.699
 9523SOL    HW229469   2.701   5.238   4.614
 9524SOL     OW29470   1.338   4.196   0.826
 9524SOL    HW129471   1.401   4.129   0.864
 9524SOL    HW229472   1.252   4.151   0.801
 9525SOL     OW29473   1.615   2.256   5.693
 9525SOL    HW129474   1.708   2.287   5.714
 9525SOL    HW229475   1.561   2.333   5.659
 9526SOL     OW29476   5.503   5.065   6.482
 9526SOL    HW129477   5.528   5.158   6.511
 9526SOL    HW229478   5.439   5.026   6.547
 9527SOL     OW29479   3.203   6.853   3.865
 9527SOL    HW129480   3.206   6.882   3.769
 9527SOL    HW229481   3.112   6.819   3.887
 9528SOL     OW29482   6.337   1.067   0.867
 9528SOL    HW129483   6.360   1.092   0.773
 9528SOL    HW229484   6.399   1.112   0.931
 9529SOL     OW29485   6.048   2.843   1.723
 9529SOL    HW129486   6.135   2.890   1.713
 9529SOL    HW229487   6.004   2.833   1.634
 9530SOL     OW29488   0.906   5.595   4.473
 9530SOL    HW129489   0.877   5.506   4.507
 9530SOL    HW229490   1.006   5.598   4.468
 9531SOL     OW29491   4.375   4.736   3.783
 9531SOL    HW129492   4.418   4.825   3.770
 9531SOL    HW229493   4.409   4.694   3.867
 9532SOL     OW29494   6.295   4.812   1.832
 9532SOL    HW129495   6.358   4.890   1.820
 9532SOL    HW229496   6.224   4.837   1.897
 9533SOL     OW29497   1.196   5.591   4.404
 9533SOL    HW129498   1.260   5.530   4.358
 9533SOL    HW229499   1.222   5.686   4.387
 9534SOL     OW29500   6.124   5.012   4.213
 9534SOL    HW129501   6.138   4.913   4.207
 9534SOL    HW229502   6.186   5.051   4.281
 9535SOL     OW29503   1.867   1.622   6.215
 9535SOL    HW129504   1.848   1.622   6.313
 9535SOL    HW229505   1.965   1.605   6.200
 9536SOL     OW29506   3.357   3.252   5.222
 9536SOL    HW129507   3.278   3.300   5.183
 9536SOL    HW229508   3.424   3.319   5.255
 9537SOL     OW29509   2.062   1.873   3.823
 9537SOL    HW129510   2.074   1.920   3.910
 9537SOL    HW229511   2.151   1.856   3.781
 9538SOL     OW29512   3.774   0.780   4.858
 9538SOL    HW129513   3.851   0.837   4.832
 9538SOL    HW229514   3.693   0.837   4.870
 9539SOL     OW29515   3.524   2.929   4.019
 9539SOL    HW129516   3.425   2.918   4.007
 9539SOL    HW229517   3.548   2.912   4.115
 9540SOL     OW29518   4.945   5.275   4.052
 9540SOL    HW129519   4.845   5.273   4.046
 9540SOL    HW229520   4.972   5.301   4.145
 9541SOL     OW29521   1.041   0.726   5.330
 9541SOL    HW129522   0.970   0.663   5.362
 9541SOL    HW229523   1.053   0.799   5.397
 9542SOL     OW29524   5.407   4.694   4.054
 9542SOL    HW129525   5.439   4.775   4.006
 9542SOL    HW229526   5.383   4.718   4.148
 9543SOL     OW29527   3.261   6.810   6.033
 9543SOL    HW129528   3.277   6.889   6.091
 9543SOL    HW229529   3.223   6.735   6.087
 9544SOL     OW29530   4.856   3.850   3.726
 9544SOL    HW129531   4.821   3.867   3.817
 9544SOL    HW229532   4.866   3.937   3.677
 9545SOL     OW29533   0.863   4.781   1.971
 9545SOL    HW129534   0.902   4.694   1.940
 9545SOL    HW229535   0.811   4.823   1.896
 9546SOL     OW29536   3.282   1.391   5.887
 9546SOL    HW129537   3.188   1.360   5.873
 9546SOL    HW229538   3.288   1.490   5.869
 9547SOL     OW29539   3.494   5.774   4.591
 9547SOL    HW129540   3.581   5.728   4.569
 9547SOL    HW229541   3.427   5.706   4.618
 9548SOL     OW29542   0.817   5.177   5.499
 9548SOL    HW129543   0.886   5.106   5.485
 9548SOL    HW229544   0.823   5.212   5.592
 9549SOL     OW29545   3.957   1.260   2.642
 9549SOL    HW129546   3.960   1.178   2.586
 9549SOL    HW229547   4.046   1.306   2.637
 9550SOL     OW29548   5.956   2.547   1.356
 9550SOL    HW129549   5.991   2.457   1.332
 9550SOL    HW229550   5.935   2.550   1.454
 9551SOL     OW29551   5.935   2.755   5.940
 9551SOL    HW129552   5.940   2.754   6.040
 9551SOL    HW229553   5.871   2.826   5.911
 9552SOL     OW29554   2.441   0.700   6.649
 9552SOL    HW129555   2.534   0.700   6.685
 9552SOL    HW229556   2.425   0.785   6.598
 9553SOL     OW29557   5.143   1.947   0.671
 9553SOL    HW129558   5.198   2.030   0.676
 9553SOL    HW229559   5.189   1.879   0.614
 9554SOL     OW29560   2.663   6.497   3.711
 9554SOL    HW129561   2.718   6.577   3.734
 9554SOL    HW229562   2.688   6.464   3.620
 9555SOL     OW29563   6.825   1.519   3.832
 9555SOL    HW129564   6.793   1.435   3.790
 9555SOL    HW229565   6.783   1.597   3.786
 9556SOL     OW29566   1.310   4.416   1.267
 9556SOL    HW129567   1.296   4.408   1.168
 9556SOL    HW229568   1.396   4.464   1.284
 9557SOL     OW29569   4.989   6.811   1.771
 9557SOL    HW129570   5.027   6.727   1.731
 9557SOL    HW229571   5.063   6.871   1.800
 9558SOL     OW29572   5.939   6.312   5.759
 9558SOL    HW129573   5.996   6.249   5.706
 9558SOL    HW229574   5.997   6.375   5.811
 9559SOL     OW29575   1.447   3.718   6.876
 9559SOL    HW129576   1.542   3.738   6.851
 9559SOL    HW229577   1.406   3.659   6.807
 9560SOL     OW29578   3.568   0.961   2.230
 9560SOL    HW129579   3.625   0.992   2.153
 9560SOL    HW229580   3.489   1.022   2.239
 9561SOL     OW29581   0.442   0.072   1.491
 9561SOL    HW129582   0.462   0.103   1.584
 9561SOL    HW229583   0.394   0.143   1.441
 9562SOL     OW29584   3.347   6.029   4.530
 9562SOL    HW129585   3.298   6.036   4.443
 9562SOL    HW229586   3.353   5.933   4.557
 9563SOL     OW29587   0.118   6.600   0.621
 9563SOL    HW129588   0.158   6.682   0.581
 9563SOL    HW229589   0.173   6.520   0.595
 9564SOL     OW29590   1.307   1.243   1.435
 9564SOL    HW129591   1.381   1.310   1.446
 9564SOL    HW229592   1.248   1.245   1.515
 9565SOL     OW29593   2.690   1.478   4.424
 9565SOL    HW129594   2.682   1.544   4.499
 9565SOL    HW229595   2.749   1.516   4.352
 9566SOL     OW29596   2.654   6.116   0.859
 9566SOL    HW129597   2.702   6.028   0.863
 9566SOL    HW229598   2.582   6.119   0.928
 9567SOL     OW29599   6.421   4.423   0.333
 9567SOL    HW129600   6.447   4.475   0.252
 9567SOL    HW229601   6.326   4.393   0.324
 9568SOL     OW29602   3.514   1.367   0.522
 9568SOL    HW129603   3.425   1.355   0.566
 9568SOL    HW229604   3.524   1.463   0.494
 9569SOL     OW29605   0.115   0.745   2.407
 9569SOL    HW129606   0.020   0.734   2.437
 9569SOL    HW229607   0.175   0.689   2.465
 9570SOL     OW29608   0.648   2.875   1.085
 9570SOL    HW129609   0.727   2.827   1.047
 9570SOL    HW229610   0.567   2.857   1.029
 9571SOL     OW29611   2.039   3.128   6.231
 9571SOL    HW129612   1.980   3.092   6.304
 9571SOL    HW229613   1.985   3.186   6.170
 9572SOL     OW29614   2.187   4.157   3.140
 9572SOL    HW129615   2.168   4.250   3.171
 9572SOL    HW229616   2.249   4.160   3.062
 9573SOL     OW29617   6.246   1.145   5.559
 9573SOL    HW129618   6.304   1.190   5.491
 9573SOL    HW229619   6.251   1.046   5.548
 9574SOL     OW29620   3.900   2.976   2.106
 9574SOL    HW129621   3.906   3.061   2.157
 9574SOL    HW229622   3.938   2.989   2.014
 9575SOL     OW29623   5.979   0.209   3.062
 9575SOL    HW129624   5.982   0.175   3.156
 9575SOL    HW229625   5.966   0.132   2.999
 9576SOL     OW29626   1.675   1.894   0.243
 9576SOL    HW129627   1.587   1.905   0.196
 9576SOL    HW229628   1.669   1.933   0.334
 9577SOL     OW29629   0.032   5.393   0.041
 9577SOL    HW129630   6.986   5.330   0.082
 9577SOL    HW229631   0.119   5.347   0.027
 9578SOL     OW29632   1.376   2.697   3.089
 9578SOL    HW129633   1.355   2.688   2.992
 9578SOL    HW229634   1.385   2.794   3.113
 9579SOL     OW29635   6.039   6.774   2.006
 9579SOL    HW129636   6.095   6.717   2.066
 9579SOL    HW229637   6.056   6.871   2.025
 9580SOL     OW29638   5.019   4.061   1.280
 9580SOL    HW129639   5.040   3.972   1.321
 9580SOL    HW229640   4.961   4.114   1.342
 9581SOL     OW29641   0.241   0.514   6.361
 9581SOL    HW129642   0.146   0.534   6.384
 9581SOL    HW229643   0.266   0.561   6.277
 9582SOL     OW29644   3.707   5.607   4.547
 9582SOL    HW129645   3.800   5.613   4.511
 9582SOL    HW229646   3.659   5.532   4.502
 9583SOL     OW29647   3.034   4.645   1.459
 9583SOL    HW129648   3.041   4.621   1.556
 9583SOL    HW229649   3.094   4.722   1.439
 9584SOL     OW29650   1.744   4.775   5.570
 9584SOL    HW129651   1.794   4.708   5.515
 9584SOL    HW229652   1.723   4.735   5.660
 9585SOL     OW29653   5.416   6.949   1.776
 9585SOL    HW129654   5.339   6.980   1.832
 9585SOL    HW229655   5.385   6.880   1.712
 9586SOL     OW29656   4.540   5.360   2.008
 9586SOL    HW129657   4.632   5.321   2.016
 9586SOL    HW229658   4.543   5.458   2.028
 9587SOL     OW29659   1.574   6.204   2.626
 9587SOL    HW129660   1.633   6.224   2.548
 9587SOL    HW229661   1.487   6.252   2.614
 9588SOL     OW29662   5.941   6.085   0.622
 9588SOL    HW129663   6.011   6.069   0.692
 9588SOL    HW229664   5.850   6.073   0.662
 9589SOL     OW29665   1.924   4.063   7.019
 9589SOL    HW129666   1.927   4.153   0.044
 9589SOL    HW229667   1.849   4.062   6.953
 9590SOL     OW29668   6.207   2.210   2.005
 9590SOL    HW129669   6.253   2.143   2.064
 9590SOL    HW229670   6.248   2.208   1.914
 9591SOL     OW29671   3.734   6.618   6.528
 9591SOL    HW129672   3.793   6.570   6.464
 9591SOL    HW229673   3.692   6.553   6.592
 9592SOL     OW29674   3.167   5.098   6.915
 9592SOL    HW129675   3.124   5.086   7.005
 9592SOL    HW229676   3.264   5.072   6.921
 9593SOL     OW29677   1.471   2.141   5.436
 9593SOL    HW129678   1.480   2.174   5.530
 9593SOL    HW229679   1.552   2.168   5.383
 9594SOL     OW29680   2.955   6.223   4.463
 9594SOL    HW129681   3.053   6.233   4.446
 9594SOL    HW229682   2.911   6.312   4.460
 9595SOL     OW29683   0.502   3.514   3.392
 9595SOL    HW129684   0.545   3.456   3.322
 9595SOL    HW229685   0.569   3.535   3.463
 9596SOL     OW29686   0.959   5.435   0.555
 9596SOL    HW129687   1.039   5.451   0.612
 9596SOL    HW229688   0.887   5.392   0.610
 9597SOL     OW29689   0.055   4.415   1.289
 9597SOL    HW129690   7.003   4.346   1.278
 9597SOL    HW229691   0.123   4.403   1.217
 9598SOL     OW29692   2.033   3.926   3.083
 9598SOL    HW129693   2.090   4.004   3.108
 9598SOL    HW229694   2.001   3.881   3.167
 9599SOL     OW29695   3.000   6.769   4.421
 9599SOL    HW129696   3.080   6.709   4.422
 9599SOL    HW229697   2.924   6.723   4.376
 9600SOL     OW29698   2.983   0.285   0.734
 9600SOL    HW129699   3.066   0.232   0.714
 9600SOL    HW229700   2.906   0.246   0.683
 9601SOL     OW29701   5.472   4.014   0.514
 9601SOL    HW129702   5.519   3.976   0.594
 9601SOL    HW229703   5.534   4.075   0.465
 9602SOL     OW29704   5.085   3.685   5.820
 9602SOL    HW129705   5.120   3.714   5.909
 9602SOL    HW229706   5.023   3.755   5.784
 9603SOL     OW29707   5.331   6.943   6.308
 9603SOL    HW129708   5.426   6.928   6.279
 9603SOL    HW229709   5.269   6.920   6.233
 9604SOL     OW29710   5.254   0.057   1.457
 9604SOL    HW129711   5.223   0.096   1.371
 9604SOL    HW229712   5.318   0.120   1.502
 9605SOL     OW29713   0.659   5.704   2.693
 9605SOL    HW129714   0.609   5.790   2.698
 9605SOL    HW229715   0.595   5.630   2.670
 9606SOL     OW29716   1.660   0.369   6.386
 9606SOL    HW129717   1.735   0.370   6.452
 9606SOL    HW229718   1.603   0.451   6.398
 9607SOL     OW29719   2.765   1.301   6.922
 9607SOL    HW129720   2.700   1.341   6.987
 9607SOL    HW229721   2.787   1.368   6.852
 9608SOL     OW29722   6.854   4.869   2.163
 9608SOL    HW129723   6.885   4.901   2.073
 9608SOL    HW229724   6.769   4.816   2.152
 9609SOL     OW29725   4.021   3.288   0.080
 9609SOL    HW129726   4.118   3.292   0.105
 9609SOL    HW229727   3.984   3.381   0.076
 9610SOL     OW29728   1.791   4.538   2.913
 9610SOL    HW129729   1.695   4.565   2.914
 9610SOL    HW229730   1.842   4.594   2.979
 9611SOL     OW29731   1.636   6.442   0.467
 9611SOL    HW129732   1.571   6.429   0.542
 9611SOL    HW229733   1.691   6.359   0.457
 9612SOL     OW29734   0.542   3.553   1.782
 9612SOL    HW129735   0.484   3.590   1.709
 9612SOL    HW229736   0.544   3.454   1.775
 9613SOL     OW29737   5.338   6.390   3.368
 9613SOL    HW129738   5.307   6.351   3.281
 9613SOL    HW229739   5.438   6.395   3.368
 9614SOL     OW29740   3.710   1.798   2.116
 9614SOL    HW129741   3.699   1.799   2.016
 9614SOL    HW229742   3.727   1.704   2.146
 9615SOL     OW29743   2.689   1.501   1.114
 9615SOL    HW129744   2.775   1.508   1.163
 9615SOL    HW229745   2.638   1.421   1.147
 9616SOL     OW29746   3.477   3.729   1.078
 9616SOL    HW129747   3.551   3.661   1.079
 9616SOL    HW229748   3.515   3.819   1.098
 9617SOL     OW29749   1.973   2.840   3.509
 9617SOL    HW129750   2.055   2.882   3.471
 9617SOL    HW229751   1.904   2.830   3.438
 9618SOL     OW29752   2.908   0.186   0.976
 9618SOL    HW129753   2.908   0.253   1.050
 9618SOL    HW229754   2.929   0.231   0.890
 9619SOL     OW29755   2.064   0.473   5.311
 9619SOL    HW129756   2.049   0.533   5.390
 9619SOL    HW229757   2.156   0.488   5.275
 9620SOL     OW29758   4.200   0.199   4.690
 9620SOL    HW129759   4.250   0.263   4.747
 9620SOL    HW229760   4.105   0.194   4.720
 9621SOL     OW29761   1.601   3.150   1.848
 9621SOL    HW129762   1.581   3.179   1.755
 9621SOL    HW229763   1.640   3.058   1.847
 9622SOL     OW29764   6.156   1.754   0.697
 9622SOL    HW129765   6.170   1.655   0.700
 9622SOL    HW229766   6.066   1.775   0.735
 9623SOL     OW29767   2.352   3.419   6.178
 9623SOL    HW129768   2.385   3.324   6.183
 9623SOL    HW229769   2.391   3.464   6.098
 9624SOL     OW29770   5.787   4.090   3.213
 9624SOL    HW129771   5.779   3.999   3.171
 9624SOL    HW229772   5.724   4.153   3.169
 9625SOL     OW29773   5.515   5.284   0.417
 9625SOL    HW129774   5.481   5.231   0.339
 9625SOL    HW229775   5.605   5.322   0.395
 9626SOL     OW29776   4.121   5.174   0.606
 9626SOL    HW129777   4.151   5.124   0.524
 9626SOL    HW229778   4.023   5.192   0.599
 9627SOL     OW29779   0.680   6.466   6.206
 9627SOL    HW129780   0.700   6.404   6.282
 9627SOL    HW229781   0.765   6.499   6.166
 9628SOL     OW29782   5.463   4.773   1.034
 9628SOL    HW129783   5.552   4.728   1.044
 9628SOL    HW229784   5.469   4.842   0.961
 9629SOL     OW29785   1.975   0.554   1.207
 9629SOL    HW129786   1.975   0.458   1.180
 9629SOL    HW229787   1.941   0.610   1.132
 9630SOL     OW29788   6.052   6.455   4.763
 9630SOL    HW129789   6.114   6.482   4.837
 9630SOL    HW229790   6.022   6.360   4.777
 9631SOL     OW29791   6.941   6.517   5.795
 9631SOL    HW129792   6.858   6.547   5.748
 9631SOL    HW229793   7.020   6.528   5.734
 9632SOL     OW29794   1.073   6.676   2.815
 9632SOL    HW129795   0.979   6.645   2.798
 9632SOL    HW229796   1.138   6.614   2.772
 9633SOL     OW29797   5.542   4.657   6.504
 9633SOL    HW129798   5.459   4.713   6.498
 9633SOL    HW229799   5.523   4.566   6.469
 9634SOL     OW29800   1.127   6.535   3.857
 9634SOL    HW129801   1.107   6.600   3.783
 9634SOL    HW229802   1.078   6.449   3.840
 9635SOL     OW29803   2.077   6.168   4.990
 9635SOL    HW129804   2.116   6.214   4.910
 9635SOL    HW229805   2.051   6.074   4.965
 9636SOL     OW29806   4.028   1.781   5.614
 9636SOL    HW129807   4.111   1.776   5.558
 9636SOL    HW229808   3.990   1.689   5.626
 9637SOL     OW29809   2.441   2.598   6.650
 9637SOL    HW129810   2.373   2.662   6.616
 9637SOL    HW229811   2.445   2.518   6.589
 9638SOL     OW29812   0.203   3.541   5.999
 9638SOL    HW129813   0.302   3.528   6.008
 9638SOL    HW229814   0.176   3.628   6.039
 9639SOL     OW29815   3.982   1.632   1.969
 9639SOL    HW129816   4.011   1.669   2.058
 9639SOL    HW229817   4.060   1.586   1.926
 9640SOL     OW29818   2.257   2.585   3.693
 9640SOL    HW129819   2.332   2.528   3.661
 9640SOL    HW229820   2.291   2.677   3.713
 9641SOL     OW29821   4.470   0.371   0.599
 9641SOL    HW129822   4.520   0.370   0.513
 9641SOL    HW229823   4.525   0.415   0.670
 9642SOL     OW29824   2.726   0.136   4.816
 9642SOL    HW129825   2.790   0.157   4.889
 9642SOL    HW229826   2.745   0.194   4.737
 9643SOL     OW29827   5.420   3.749   3.623
 9643SOL    HW129828   5.331   3.718   3.591
 9643SOL    HW229829   5.408   3.809   3.702
 9644SOL     OW29830   1.110   3.254   6.310
 9644SOL    HW129831   1.174   3.330   6.305
 9644SOL    HW229832   1.081   3.241   6.404
 9645SOL     OW29833   2.411   5.067   5.019
 9645SOL    HW129834   2.367   4.989   5.063
 9645SOL    HW229835   2.365   5.152   5.046
 9646SOL     OW29836   3.856   5.146   2.500
 9646SOL    HW129837   3.879   5.134   2.403
 9646SOL    HW229838   3.856   5.057   2.545
 9647SOL     OW29839   6.373   3.732   1.256
 9647SOL    HW129840   6.435   3.750   1.333
 9647SOL    HW229841   6.424   3.735   1.170
 9648SOL     OW29842   4.063   1.763   1.085
 9648SOL    HW129843   4.009   1.842   1.054
 9648SOL    HW229844   4.027   1.680   1.044
 9649SOL     OW29845   2.903   6.744   0.262
 9649SOL    HW129846   2.974   6.680   0.287
 9649SOL    HW229847   2.935   6.838   0.278
 9650SOL     OW29848   0.378   5.101   2.397
 9650SOL    HW129849   0.375   5.157   2.479
 9650SOL    HW229850   0.354   5.007   2.420
 9651SOL     OW29851   0.067   2.280   5.463
 9651SOL    HW129852   0.158   2.320   5.472
 9651SOL    HW229853   0.033   2.252   5.553
 9652SOL     OW29854   0.860   5.140   1.523
 9652SOL    HW129855   0.798   5.158   1.599
 9652SOL    HW229856   0.810   5.094   1.450
 9653SOL     OW29857   4.239   4.803   5.018
 9653SOL    HW129858   4.193   4.759   4.940
 9653SOL    HW229859   4.180   4.799   5.098
 9654SOL     OW29860   2.769   2.096   1.909
 9654SOL    HW129861   2.752   2.122   1.814
 9654SOL    HW229862   2.842   2.153   1.947
 9655SOL     OW29863   0.042   1.953   6.013
 9655SOL    HW129864   0.058   1.858   5.987
 9655SOL    HW229865   0.030   2.009   5.931
 9656SOL     OW29866   2.808   0.592   2.687
 9656SOL    HW129867   2.786   0.682   2.649
 9656SOL    HW229868   2.723   0.544   2.709
 9657SOL     OW29869   5.374   0.988   4.391
 9657SOL    HW129870   5.418   0.898   4.397
 9657SOL    HW229871   5.419   1.041   4.318
 9658SOL     OW29872   0.144   2.442   2.139
 9658SOL    HW129873   0.060   2.453   2.085
 9658SOL    HW229874   0.129   2.479   2.231
 9659SOL     OW29875   0.012   4.005   0.713
 9659SOL    HW129876   0.072   3.957   0.649
 9659SOL    HW229877   6.969   3.940   0.755
 9660SOL     OW29878   0.581   5.811   1.232
 9660SOL    HW129879   0.677   5.782   1.233
 9660SOL    HW229880   0.537   5.777   1.149
 9661SOL     OW29881   4.667   6.170   1.207
 9661SOL    HW129882   4.577   6.131   1.228
 9661SOL    HW229883   4.679   6.174   1.108
 9662SOL     OW29884   6.242   2.661   4.891
 9662SOL    HW129885   6.174   2.724   4.928
 9662SOL    HW229886   6.199   2.574   4.868
 9663SOL     OW29887   1.673   5.509   3.490
 9663SOL    HW129888   1.718   5.533   3.576
 9663SOL    HW229889   1.737   5.520   3.414
 9664SOL     OW29890   4.842   6.884   2.670
 9664SOL    HW129891   4.786   6.909   2.749
 9664SOL    HW229892   4.806   6.929   2.589
 9665SOL     OW29893   5.953   4.814   4.773
 9665SOL    HW129894   5.987   4.730   4.730
 9665SOL    HW229895   6.017   4.889   4.755
 9666SOL     OW29896   6.040   3.892   1.950
 9666SOL    HW129897   6.076   3.802   1.927
 9666SOL    HW229898   5.963   3.914   1.890
 9667SOL     OW29899   3.991   3.914   3.924
 9667SOL    HW129900   4.063   3.887   3.988
 9667SOL    HW229901   3.927   3.976   3.970
 9668SOL     OW29902   0.038   1.085   5.878
 9668SOL    HW129903   6.993   1.012   5.896
 9668SOL    HW229904   7.008   1.171   5.863
 9669SOL     OW29905   0.522   0.536   0.231
 9669SOL    HW129906   0.458   0.470   0.193
 9669SOL    HW229907   0.583   0.569   0.159
 9670SOL     OW29908   4.928   4.330   6.052
 9670SOL    HW129909   4.912   4.274   5.971
 9670SOL    HW229910   4.909   4.426   6.031
 9671SOL     OW29911   6.948   5.690   5.869
 9671SOL    HW129912   7.001   5.773   5.849
 9671SOL    HW229913   6.871   5.714   5.928
 9672SOL     OW29914   1.489   6.445   4.747
 9672SOL    HW129915   1.395   6.464   4.719
 9672SOL    HW229916   1.498   6.461   4.845
 9673SOL     OW29917   4.094   4.335   6.725
 9673SOL    HW129918   4.101   4.250   6.672
 9673SOL    HW229919   4.186   4.370   6.743
 9674SOL     OW29920   2.928   6.353   1.484
 9674SOL    HW129921   3.026   6.333   1.491
 9674SOL    HW229922   2.915   6.451   1.468
 9675SOL     OW29923   6.453   1.124   2.433
 9675SOL    HW129924   6.467   1.144   2.530
 9675SOL    HW229925   6.355   1.121   2.413
 9676SOL     OW29926   1.012   3.296   5.148
 9676SOL    HW129927   0.994   3.381   5.098
 9676SOL    HW229928   0.956   3.223   5.110
 9677SOL     OW29929   2.505   4.270   5.887
 9677SOL    HW129930   2.596   4.239   5.860
 9677SOL    HW229931   2.437   4.238   5.822
 9678SOL     OW29932   4.069   3.592   2.932
 9678SOL    HW129933   4.045   3.497   2.953
 9678SOL    HW229934   4.047   3.650   3.010
 9679SOL     OW29935   1.388   2.976   1.978
 9679SOL    HW129936   1.291   2.973   2.001
 9679SOL    HW229937   1.431   2.889   2.006
 9680SOL     OW29938   5.881   5.824   3.239
 9680SOL    HW129939   5.902   5.844   3.335
 9680SOL    HW229940   5.871   5.725   3.228
 9681SOL     OW29941   2.120   0.629   0.882
 9681SOL    HW129942   2.104   0.725   0.860
 9681SOL    HW229943   2.173   0.622   0.967
 9682SOL     OW29944   5.219   5.192   3.401
 9682SOL    HW129945   5.140   5.143   3.437
 9682SOL    HW229946   5.297   5.130   3.394
 9683SOL     OW29947   3.813   5.154   0.124
 9683SOL    HW129948   3.820   5.096   0.042
 9683SOL    HW229949   3.898   5.205   0.135
 9684SOL     OW29950   0.558   3.982   4.724
 9684SOL    HW129951   0.633   4.015   4.780
 9684SOL    HW229952   0.474   4.031   4.748
 9685SOL     OW29953   2.325   3.207   0.969
 9685SOL    HW129954   2.363   3.217   1.061
 9685SOL    HW229955   2.294   3.113   0.956
 9686SOL     OW29956   6.823   0.864   1.369
 9686SOL    HW129957   6.910   0.829   1.403
 9686SOL    HW229958   6.824   0.964   1.370
 9687SOL     OW29959   2.560   0.484   3.059
 9687SOL    HW129960   2.518   0.564   3.016
 9687SOL    HW229961   2.605   0.428   2.989
 9688SOL     OW29962   0.173   2.087   2.920
 9688SOL    HW129963   0.131   2.038   2.996
 9688SOL    HW229964   0.228   2.162   2.955
 9689SOL     OW29965   2.520   6.238   6.942
 9689SOL    HW129966   2.580   6.234   0.002
 9689SOL    HW229967   2.563   6.293   6.871
 9690SOL     OW29968   6.238   4.704   0.159
 9690SOL    HW129969   6.297   4.725   0.237
 9690SOL    HW229970   6.265   4.762   0.082
 9691SOL     OW29971   2.010   5.489   1.549
 9691SOL    HW129972   2.071   5.439   1.609
 9691SOL    HW229973   2.063   5.546   1.486
 9692SOL     OW29974   2.726   5.197   1.843
 9692SOL    HW129975   2.802   5.201   1.908
 9692SOL    HW229976   2.758   5.225   1.752
 9693SOL     OW29977   6.457   5.623   1.742
 9693SOL    HW129978   6.488   5.586   1.830
 9693SOL    HW229979   6.408   5.551   1.692
 9694SOL     OW29980   1.688   2.208   0.358
 9694SOL    HW129981   1.678   2.305   0.383
 9694SOL    HW229982   1.782   2.190   0.331
 9695SOL     OW29983   6.097   4.088   0.599
 9695SOL    HW129984   6.125   3.992   0.605
 9695SOL    HW229985   6.082   4.123   0.692
 9696SOL     OW29986   3.576   2.726   1.758
 9696SOL    HW129987   3.549   2.788   1.831
 9696SOL    HW229988   3.671   2.743   1.733
 9697SOL     OW29989   0.872   4.903   6.964
 9697SOL    HW129990   0.846   4.807   6.973
 9697SOL    HW229991   0.971   4.911   6.963
 9698SOL     OW29992   5.958   0.751   4.997
 9698SOL    HW129993   5.948   0.841   4.954
 9698SOL    HW229994   5.903   0.748   5.080
 9699SOL     OW29995   0.992   3.366   6.598
 9699SOL    HW129996   1.027   3.275   6.618
 9699SOL    HW229997   0.965   3.412   6.683
 9700SOL     OW29998   3.587   4.972   5.534
 9700SOL    HW129999   3.642   4.888   5.539
 9700SOL    HW230000   3.499   4.951   5.490
 9701SOL     OW30001   3.602   5.503   5.003
 9701SOL    HW130002   3.667   5.556   4.948
 9701SOL    HW230003   3.579   5.555   5.086
 9702SOL     OW30004   5.240   1.153   0.422
 9702SOL    HW130005   5.229   1.237   0.475
 9702SOL    HW230006   5.159   1.140   0.365
 9703SOL     OW30007   3.492   5.780   4.268
 9703SOL    HW130008   3.395   5.802   4.253
 9703SOL    HW230009   3.521   5.818   4.356
 9704SOL     OW30010   3.534   0.067   3.117
 9704SOL    HW130011   3.539   0.068   3.217
 9704SOL    HW230012   3.614   0.021   3.079
 9705SOL     OW30013   3.911   4.937   0.478
 9705SOL    HW130014   3.904   5.037   0.472
 9705SOL    HW230015   3.950   4.901   0.394
 9706SOL     OW30016   6.537   2.818   1.320
 9706SOL    HW130017   6.600   2.895   1.313
 9706SOL    HW230018   6.443   2.851   1.308
 9707SOL     OW30019   1.052   3.990   2.140
 9707SOL    HW130020   0.983   3.918   2.138
 9707SOL    HW230021   1.131   3.962   2.086
 9708SOL     OW30022   2.056   2.146   4.179
 9708SOL    HW130023   2.076   2.244   4.172
 9708SOL    HW230024   2.102   2.097   4.105
 9709SOL     OW30025   0.882   6.486   3.437
 9709SOL    HW130026   0.860   6.435   3.520
 9709SOL    HW230027   0.889   6.423   3.360
 9710SOL     OW30028   0.285   1.092   2.782
 9710SOL    HW130029   0.214   1.132   2.724
 9710SOL    HW230030   0.242   1.030   2.849
 9711SOL     OW30031   1.321   3.011   5.930
 9711SOL    HW130032   1.332   3.012   6.030
 9711SOL    HW230033   1.318   2.917   5.898
 9712SOL     OW30034   5.657   2.189   4.675
 9712SOL    HW130035   5.592   2.135   4.728
 9712SOL    HW230036   5.677   2.274   4.724
 9713SOL     OW30037   0.480   4.693   3.386
 9713SOL    HW130038   0.480   4.783   3.344
 9713SOL    HW230039   0.478   4.702   3.485
 9714SOL     OW30040   2.305   1.384   1.691
 9714SOL    HW130041   2.398   1.348   1.683
 9714SOL    HW230042   2.278   1.386   1.787
 9715SOL     OW30043   5.965   5.385   4.978
 9715SOL    HW130044   6.016   5.466   5.009
 9715SOL    HW230045   6.011   5.302   5.011
 9716SOL     OW30046   4.163   1.843   6.768
 9716SOL    HW130047   4.082   1.799   6.729
 9716SOL    HW230048   4.208   1.897   6.697
 9717SOL     OW30049   5.231   5.794   4.258
 9717SOL    HW130050   5.205   5.739   4.178
 9717SOL    HW230051   5.191   5.885   4.250
 9718SOL     OW30052   3.929   3.485   1.343
 9718SOL    HW130053   3.975   3.548   1.280
 9718SOL    HW230054   3.879   3.538   1.411
 9719SOL     OW30055   0.800   2.146   0.329
 9719SOL    HW130056   0.774   2.089   0.251
 9719SOL    HW230057   0.720   2.162   0.387
 9720SOL     OW30058   0.427   6.240   2.247
 9720SOL    HW130059   0.406   6.337   2.259
 9720SOL    HW230060   0.406   6.213   2.153
 9721SOL     OW30061   0.423   3.688   2.213
 9721SOL    HW130062   0.419   3.735   2.125
 9721SOL    HW230063   0.469   3.745   2.280
 9722SOL     OW30064   0.355   1.137   3.261
 9722SOL    HW130065   0.310   1.048   3.261
 9722SOL    HW230066   0.348   1.178   3.171
 9723SOL     OW30067   0.821   6.983   2.652
 9723SOL    HW130068   0.920   6.986   2.636
 9723SOL    HW230069   0.791   0.052   2.687
 9724SOL     OW30070   2.983   2.491   1.673
 9724SOL    HW130071   2.963   2.586   1.647
 9724SOL    HW230072   2.945   2.473   1.764
 9725SOL     OW30073   4.566   3.264   6.358
 9725SOL    HW130074   4.528   3.175   6.332
 9725SOL    HW230075   4.533   3.334   6.296
 9726SOL     OW30076   5.428   6.952   4.729
 9726SOL    HW130077   5.481   0.015   4.743
 9726SOL    HW230078   5.421   6.932   4.631
 9727SOL     OW30079   1.132   3.510   5.622
 9727SOL    HW130080   1.173   3.582   5.565
 9727SOL    HW230081   1.068   3.457   5.568
 9728SOL     OW30082   1.694   6.319   6.323
 9728SOL    HW130083   1.724   6.414   6.311
 9728SOL    HW230084   1.628   6.296   6.251
 9729SOL     OW30085   1.346   4.499   2.768
 9729SOL    HW130086   1.400   4.435   2.713
 9729SOL    HW230087   1.408   4.559   2.820
 9730SOL     OW30088   6.786   3.389   2.677
 9730SOL    HW130089   6.818   3.436   2.594
 9730SOL    HW230090   6.845   3.415   2.754
 9731SOL     OW30091   4.141   5.278   0.855
 9731SOL    HW130092   4.128   5.214   0.780
 9731SOL    HW230093   4.139   5.229   0.942
 9732SOL     OW30094   0.154   5.537   2.514
 9732SOL    HW130095   0.228   5.539   2.447
 9732SOL    HW230096   0.066   5.551   2.467
 9733SOL     OW30097   5.596   5.017   5.111
 9733SOL    HW130098   5.616   5.055   5.201
 9733SOL    HW230099   5.681   5.002   5.061
 9734SOL     OW30100   5.702   1.645   4.394
 9734SOL    HW130101   5.630   1.681   4.452
 9734SOL    HW230102   5.689   1.677   4.300
 9735SOL     OW30103   2.503   5.297   2.461
 9735SOL    HW130104   2.566   5.220   2.476
 9735SOL    HW230105   2.446   5.310   2.542
 9736SOL     OW30106   5.519   1.060   6.794
 9736SOL    HW130107   5.556   1.152   6.786
 9736SOL    HW230108   5.513   1.018   6.703
 9737SOL     OW30109   4.171   2.253   4.891
 9737SOL    HW130110   4.201   2.309   4.968
 9737SOL    HW230111   4.190   2.157   4.911
 9738SOL     OW30112   1.438   0.827   3.613
 9738SOL    HW130113   1.472   0.733   3.619
 9738SOL    HW230114   1.463   0.866   3.525
 9739SOL     OW30115   6.860   4.975   1.668
 9739SOL    HW130116   6.777   4.933   1.705
 9739SOL    HW230117   6.845   5.074   1.656
 9740SOL     OW30118   6.067   3.820   2.667
 9740SOL    HW130119   6.070   3.915   2.636
 9740SOL    HW230120   6.108   3.814   2.758
 9741SOL     OW30121   4.268   1.361   2.561
 9741SOL    HW130122   4.293   1.440   2.616
 9741SOL    HW230123   4.205   1.388   2.489
 9742SOL     OW30124   5.354   0.845   2.924
 9742SOL    HW130125   5.450   0.870   2.921
 9742SOL    HW230126   5.299   0.922   2.957
 9743SOL     OW30127   1.673   2.840   5.928
 9743SOL    HW130128   1.597   2.799   5.979
 9743SOL    HW230129   1.672   2.806   5.834
 9744SOL     OW30130   1.789   0.728   1.978
 9744SOL    HW130131   1.771   0.823   1.954
 9744SOL    HW230132   1.758   0.668   1.904
 9745SOL     OW30133   0.903   2.392   5.009
 9745SOL    HW130134   0.970   2.420   4.940
 9745SOL    HW230135   0.820   2.360   4.964
 9746SOL     OW30136   5.522   0.874   5.216
 9746SOL    HW130137   5.549   0.970   5.230
 9746SOL    HW230138   5.472   0.842   5.297
 9747SOL     OW30139   1.200   0.480   0.687
 9747SOL    HW130140   1.129   0.546   0.711
 9747SOL    HW230141   1.245   0.448   0.771
 9748SOL     OW30142   1.479   6.039   4.350
 9748SOL    HW130143   1.561   6.065   4.298
 9748SOL    HW230144   1.426   6.120   4.374
 9749SOL     OW30145   1.463   3.410   4.946
 9749SOL    HW130146   1.366   3.423   4.925
 9749SOL    HW230147   1.473   3.388   5.043
 9750SOL     OW30148   4.958   4.647   3.760
 9750SOL    HW130149   4.877   4.699   3.786
 9750SOL    HW230150   5.041   4.695   3.789
 9751SOL     OW30151   1.339   1.798   1.039
 9751SOL    HW130152   1.255   1.746   1.057
 9751SOL    HW230153   1.384   1.761   0.957
 9752SOL     OW30154   4.437   0.567   6.031
 9752SOL    HW130155   4.368   0.603   6.092
 9752SOL    HW230156   4.398   0.492   5.977
 9753SOL     OW30157   6.840   5.843   5.112
 9753SOL    HW130158   6.919   5.781   5.110
 9753SOL    HW230159   6.839   5.898   5.028
 9754SOL     OW30160   1.188   1.571   6.983
 9754SOL    HW130161   1.230   1.651   6.941
 9754SOL    HW230162   1.090   1.588   6.995
 9755SOL     OW30163   4.174   3.408   5.158
 9755SOL    HW130164   4.118   3.326   5.160
 9755SOL    HW230165   4.224   3.417   5.244
 9756SOL     OW30166   6.056   3.168   7.017
 9756SOL    HW130167   6.073   3.163   0.096
 9756SOL    HW230168   6.021   3.259   6.994
 9757SOL     OW30169   5.222   2.618   3.568
 9757SOL    HW130170   5.174   2.532   3.583
 9757SOL    HW230171   5.184   2.665   3.488
 9758SOL     OW30172   2.206   7.016   6.495
 9758SOL    HW130173   2.124   0.029   6.541
 9758SOL    HW230174   2.286   0.012   6.553
 9759SOL     OW30175   2.100   6.217   1.645
 9759SOL    HW130176   2.059   6.131   1.673
 9759SOL    HW230177   2.073   6.238   1.551
 9760SOL     OW30178   5.479   4.771   5.009
 9760SOL    HW130179   5.561   4.753   4.955
 9760SOL    HW230180   5.488   4.860   5.055
 9761SOL     OW30181   5.538   4.648   1.790
 9761SOL    HW130182   5.563   4.570   1.732
 9761SOL    HW230183   5.610   4.664   1.857
 9762SOL     OW30184   2.072   1.627   4.837
 9762SOL    HW130185   2.004   1.697   4.814
 9762SOL    HW230186   2.146   1.670   4.889
 9763SOL     OW30187   3.909   0.941   1.766
 9763SOL    HW130188   3.926   0.856   1.816
 9763SOL    HW230189   3.899   1.016   1.831
 9764SOL     OW30190   1.128   3.098   3.437
 9764SOL    HW130191   1.134   3.001   3.460
 9764SOL    HW230192   1.084   3.109   3.348
 9765SOL     OW30193   6.575   2.367   5.476
 9765SOL    HW130194   6.627   2.348   5.560
 9765SOL    HW230195   6.534   2.283   5.443
 9766SOL     OW30196   3.220   0.814   3.389
 9766SOL    HW130197   3.126   0.844   3.375
 9766SOL    HW230198   3.238   0.805   3.487
 9767SOL     OW30199   5.499   0.963   5.631
 9767SOL    HW130200   5.437   0.953   5.709
 9767SOL    HW230201   5.472   0.899   5.558
 9768SOL     OW30202   4.455   1.911   2.418
 9768SOL    HW130203   4.427   1.854   2.340
 9768SOL    HW230204   4.418   2.003   2.408
 9769SOL     OW30205   1.094   2.257   1.150
 9769SOL    HW130206   1.118   2.301   1.237
 9769SOL    HW230207   1.176   2.212   1.113
 9770SOL     OW30208   5.430   5.339   5.666
 9770SOL    HW130209   5.469   5.337   5.758
 9770SOL    HW230210   5.331   5.353   5.671
 9771SOL     OW30211   4.946   4.697   0.455
 9771SOL    HW130212   4.851   4.666   0.465
 9771SOL    HW230213   4.974   4.689   0.360
 9772SOL     OW30214   6.900   6.775   2.005
 9772SOL    HW130215   6.952   6.690   2.006
 9772SOL    HW230216   6.885   6.803   1.910
 9773SOL     OW30217   5.527   5.715   3.719
 9773SOL    HW130218   5.508   5.712   3.817
 9773SOL    HW230219   5.459   5.660   3.670
 9774SOL     OW30220   5.793   5.327   3.781
 9774SOL    HW130221   5.890   5.308   3.798
 9774SOL    HW230222   5.785   5.380   3.696
 9775SOL     OW30223   2.063   2.646   4.400
 9775SOL    HW130224   2.027   2.566   4.449
 9775SOL    HW230225   1.997   2.675   4.330
 9776SOL     OW30226   6.753   5.487   4.212
 9776SOL    HW130227   6.699   5.552   4.157
 9776SOL    HW230228   6.837   5.533   4.243
 9777SOL     OW30229   5.891   3.938   6.066
 9777SOL    HW130230   5.975   3.951   6.118
 9777SOL    HW230231   5.889   3.845   6.029
 9778SOL     OW30232   4.888   6.465   2.934
 9778SOL    HW130233   4.789   6.458   2.923
 9778SOL    HW230234   4.913   6.441   3.028
 9779SOL     OW30235   2.860   1.655   5.027
 9779SOL    HW130236   2.824   1.675   5.118
 9779SOL    HW230237   2.828   1.565   4.997
 9780SOL     OW30238   2.392   2.912   0.589
 9780SOL    HW130239   2.473   2.947   0.542
 9780SOL    HW230240   2.363   2.977   0.660
 9781SOL     OW30241   2.563   4.642   5.153
 9781SOL    HW130242   2.597   4.644   5.247
 9781SOL    HW230243   2.635   4.609   5.092
 9782SOL     OW30244   6.385   0.219   1.247
 9782SOL    HW130245   6.389   0.281   1.325
 9782SOL    HW230246   6.320   0.253   1.180
 9783SOL     OW30247   6.360   1.415   2.763
 9783SOL    HW130248   6.388   1.320   2.753
 9783SOL    HW230249   6.290   1.437   2.695
 9784SOL     OW30250   4.430   1.534   3.121
 9784SOL    HW130251   4.336   1.568   3.123
 9784SOL    HW230252   4.492   1.610   3.099
 9785SOL     OW30253   6.978   2.675   2.813
 9785SOL    HW130254   6.959   2.715   2.903
 9785SOL    HW230255   0.018   2.596   2.823
 9786SOL     OW30256   2.266   5.240   5.901
 9786SOL    HW130257   2.268   5.335   5.870
 9786SOL    HW230258   2.360   5.206   5.908
 9787SOL     OW30259   4.794   3.924   1.886
 9787SOL    HW130260   4.804   4.011   1.934
 9787SOL    HW230261   4.821   3.849   1.947
 9788SOL     OW30262   6.669   0.358   4.143
 9788SOL    HW130263   6.670   0.266   4.181
 9788SOL    HW230264   6.608   0.362   4.064
 9789SOL     OW30265   2.399   6.020   4.717
 9789SOL    HW130266   2.382   5.972   4.803
 9789SOL    HW230267   2.490   5.996   4.683
 9790SOL     OW30268   5.971   1.679   4.111
 9790SOL    HW130269   5.980   1.777   4.130
 9790SOL    HW230270   6.023   1.657   4.028
 9791SOL     OW30271   1.382   1.119   1.184
 9791SOL    HW130272   1.354   1.180   1.258
 9791SOL    HW230273   1.394   1.027   1.220
 9792SOL     OW30274   4.627   4.592   1.151
 9792SOL    HW130275   4.542   4.577   1.202
 9792SOL    HW230276   4.699   4.535   1.190
 9793SOL     OW30277   5.574   5.766   2.311
 9793SOL    HW130278   5.610   5.814   2.391
 9793SOL    HW230279   5.487   5.808   2.283
 9794SOL     OW30280   5.249   3.026   6.026
 9794SOL    HW130281   5.299   3.037   5.940
 9794SOL    HW230282   5.163   2.978   6.009
 9795SOL     OW30283   1.780   3.572   4.262
 9795SOL    HW130284   1.860   3.513   4.268
 9795SOL    HW230285   1.780   3.619   4.173
 9796SOL     OW30286   2.863   5.300   0.529
 9796SOL    HW130287   2.837   5.227   0.592
 9796SOL    HW230288   2.938   5.269   0.471
 9797SOL     OW30289   4.660   3.666   6.506
 9797SOL    HW130290   4.706   3.600   6.447
 9797SOL    HW230291   4.709   3.753   6.505
 9798SOL     OW30292   3.073   0.670   1.107
 9798SOL    HW130293   3.065   0.621   1.193
 9798SOL    HW230294   3.047   0.610   1.031
 9799SOL     OW30295   3.009   3.108   2.608
 9799SOL    HW130296   3.108   3.099   2.600
 9799SOL    HW230297   2.968   3.019   2.626
 9800SOL     OW30298   4.776   5.410   6.941
 9800SOL    HW130299   4.763   5.343   7.014
 9800SOL    HW230300   4.707   5.483   6.950
 9801SOL     OW30301   4.381   6.018   6.905
 9801SOL    HW130302   4.314   6.040   6.834
 9801SOL    HW230303   4.472   6.045   6.874
 9802SOL     OW30304   0.854   3.200   1.197
 9802SOL    HW130305   0.841   3.139   1.275
 9802SOL    HW230306   0.947   3.190   1.162
 9803SOL     OW30307   6.536   0.231   6.969
 9803SOL    HW130308   6.477   0.306   6.941
 9803SOL    HW230309   6.609   0.266   0.007
 9804SOL     OW30310   6.542   5.631   3.999
 9804SOL    HW130311   6.566   5.661   3.907
 9804SOL    HW230312   6.452   5.587   3.998
 9805SOL     OW30313   1.463   5.489   6.796
 9805SOL    HW130314   1.441   5.442   6.710
 9805SOL    HW230315   1.466   5.587   6.780
 9806SOL     OW30316   0.012   2.818   1.692
 9806SOL    HW130317   6.948   2.794   1.741
 9806SOL    HW230318   0.075   2.864   1.755
 9807SOL     OW30319   4.157   2.074   0.463
 9807SOL    HW130320   4.101   1.994   0.439
 9807SOL    HW230321   4.254   2.049   0.458
 9808SOL     OW30322   6.806   1.914   4.852
 9808SOL    HW130323   6.709   1.899   4.873
 9808SOL    HW230324   6.860   1.838   4.888
 9809SOL     OW30325   0.160   1.464   4.300
 9809SOL    HW130326   0.213   1.511   4.370
 9809SOL    HW230327   0.077   1.426   4.341
 9810SOL     OW30328   2.631   1.299   3.246
 9810SOL    HW130329   2.623   1.226   3.178
 9810SOL    HW230330   2.686   1.374   3.209
 9811SOL     OW30331   6.498   6.142   2.539
 9811SOL    HW130332   6.560   6.111   2.611
 9811SOL    HW230333   6.480   6.239   2.549
 9812SOL     OW30334   4.990   2.361   6.139
 9812SOL    HW130335   5.056   2.416   6.188
 9812SOL    HW230336   4.898   2.380   6.173
 9813SOL     OW30337   6.573   4.944   6.992
 9813SOL    HW130338   6.588   5.037   6.958
 9813SOL    HW230339   6.558   4.946   0.071
 9814SOL     OW30340   6.930   6.749   5.610
 9814SOL    HW130341   6.878   6.798   5.540
 9814SOL    HW230342   6.994   6.812   5.655
 9815SOL     OW30343   6.238   3.328   1.706
 9815SOL    HW130344   6.184   3.406   1.673
 9815SOL    HW230345   6.187   3.279   1.776
 9816SOL     OW30346   6.655   0.474   6.675
 9816SOL    HW130347   6.590   0.402   6.651
 9816SOL    HW230348   6.745   0.452   6.638
 9817SOL     OW30349   3.508   5.763   1.221
 9817SOL    HW130350   3.591   5.818   1.229
 9817SOL    HW230351   3.507   5.694   1.294
 9818SOL     OW30352   1.199   0.057   3.604
 9818SOL    HW130353   1.195   0.018   3.512
 9818SOL    HW230354   1.282   0.111   3.615
 9819SOL     OW30355   6.390   4.281   4.865
 9819SOL    HW130356   6.296   4.255   4.888
 9819SOL    HW230357   6.448   4.200   4.863
 9820SOL     OW30358   3.531   1.819   5.904
 9820SOL    HW130359   3.543   1.875   5.986
 9820SOL    HW230360   3.548   1.876   5.823
 9821SOL     OW30361   4.477   2.542   1.459
 9821SOL    HW130362   4.468   2.525   1.361
 9821SOL    HW230363   4.568   2.578   1.478
 9822SOL     OW30364   3.923   6.379   4.959
 9822SOL    HW130365   4.010   6.354   4.916
 9822SOL    HW230366   3.922   6.478   4.975
 9823SOL     OW30367   1.590   0.596   3.113
 9823SOL    HW130368   1.519   0.608   3.044
 9823SOL    HW230369   1.598   0.499   3.136
 9824SOL     OW30370   1.250   5.960   5.674
 9824SOL    HW130371   1.203   6.043   5.642
 9824SOL    HW230372   1.343   5.984   5.703
 9825SOL     OW30373   5.210   5.840   6.223
 9825SOL    HW130374   5.211   5.921   6.164
 9825SOL    HW230375   5.116   5.810   6.238
 9826SOL     OW30376   2.715   6.197   5.708
 9826SOL    HW130377   2.631   6.209   5.761
 9826SOL    HW230378   2.692   6.180   5.613
 9827SOL     OW30379   1.637   5.258   2.138
 9827SOL    HW130380   1.676   5.205   2.063
 9827SOL    HW230381   1.555   5.213   2.172
 9828SOL     OW30382   3.451   2.026   5.065
 9828SOL    HW130383   3.387   1.960   5.026
 9828SOL    HW230384   3.404   2.082   5.133
 9829SOL     OW30385   4.649   5.110   5.656
 9829SOL    HW130386   4.560   5.082   5.693
 9829SOL    HW230387   4.722   5.062   5.705
 9830SOL     OW30388   5.854   1.976   2.677
 9830SOL    HW130389   5.932   1.922   2.710
 9830SOL    HW230390   5.820   2.033   2.752
 9831SOL     OW30391   0.735   4.019   1.767
 9831SOL    HW130392   0.686   4.080   1.830
 9831SOL    HW230393   0.832   4.043   1.766
 9832SOL     OW30394   4.493   4.605   4.501
 9832SOL    HW130395   4.434   4.596   4.421
 9832SOL    HW230396   4.589   4.612   4.472
 9833SOL     OW30397   3.650   3.890   4.441
 9833SOL    HW130398   3.571   3.848   4.486
 9833SOL    HW230399   3.690   3.825   4.376
 9834SOL     OW30400   2.398   5.374   5.329
 9834SOL    HW130401   2.491   5.410   5.317
 9834SOL    HW230402   2.383   5.353   5.425
 9835SOL     OW30403   3.667   4.243   4.917
 9835SOL    HW130404   3.652   4.164   4.857
 9835SOL    HW230405   3.660   4.327   4.863
 9836SOL     OW30406   0.661   3.554   5.342
 9836SOL    HW130407   0.661   3.454   5.333
 9836SOL    HW230408   0.570   3.585   5.369
 9837SOL     OW30409   4.773   1.992   1.845
 9837SOL    HW130410   4.817   2.028   1.927
 9837SOL    HW230411   4.843   1.964   1.779
 9838SOL     OW30412   0.603   6.712   1.831
 9838SOL    HW130413   0.683   6.735   1.775
 9838SOL    HW230414   0.564   6.796   1.869
 9839SOL     OW30415   4.194   0.717   2.970
 9839SOL    HW130416   4.204   0.815   2.955
 9839SOL    HW230417   4.187   0.698   3.068
 9840SOL     OW30418   6.299   0.746   6.928
 9840SOL    HW130419   6.342   0.836   6.938
 9840SOL    HW230420   6.221   0.753   6.865
 9841SOL     OW30421   6.763   6.587   3.729
 9841SOL    HW130422   6.760   6.501   3.779
 9841SOL    HW230423   6.788   6.661   3.791
 9842SOL     OW30424   2.796   2.138   6.377
 9842SOL    HW130425   2.710   2.112   6.420
 9842SOL    HW230426   2.797   2.236   6.359
 9843SOL     OW30427   0.039   6.810   1.289
 9843SOL    HW130428   0.005   6.851   1.205
 9843SOL    HW230429   0.138   6.797   1.282
 9844SOL     OW30430   5.122   0.172   4.024
 9844SOL    HW130431   5.182   0.251   4.029
 9844SOL    HW230432   5.119   0.139   3.930
 9845SOL     OW30433   1.922   3.477   1.604
 9845SOL    HW130434   1.869   3.433   1.532
 9845SOL    HW230435   2.015   3.493   1.572
 9846SOL     OW30436   5.427   1.320   1.005
 9846SOL    HW130437   5.379   1.233   1.016
 9846SOL    HW230438   5.363   1.395   1.016
 9847SOL     OW30439   4.360   4.447   0.537
 9847SOL    HW130440   4.313   4.440   0.449
 9847SOL    HW230441   4.430   4.376   0.544
 9848SOL     OW30442   3.314   3.861   5.279
 9848SOL    HW130443   3.295   3.957   5.261
 9848SOL    HW230444   3.413   3.846   5.279
 9849SOL     OW30445   0.796   1.754   4.913
 9849SOL    HW130446   0.885   1.790   4.942
 9849SOL    HW230447   0.780   1.779   4.818
 9850SOL     OW30448   0.575   0.670   4.520
 9850SOL    HW130449   0.476   0.684   4.527
 9850SOL    HW230450   0.596   0.619   4.437
 9851SOL     OW30451   4.032   4.858   4.616
 9851SOL    HW130452   4.129   4.862   4.639
 9851SOL    HW230453   3.986   4.793   4.676
 9852SOL     OW30454   2.167   1.534   0.190
 9852SOL    HW130455   2.198   1.607   0.251
 9852SOL    HW230456   2.097   1.480   0.236
 9853SOL     OW30457   6.624   4.635   3.703
 9853SOL    HW130458   6.664   4.548   3.675
 9853SOL    HW230459   6.563   4.621   3.781
 9854SOL     OW30460   0.996   5.440   6.121
 9854SOL    HW130461   1.001   5.534   6.153
 9854SOL    HW230462   0.968   5.439   6.025
 9855SOL     OW30463   1.574   4.160   1.856
 9855SOL    HW130464   1.671   4.144   1.875
 9855SOL    HW230465   1.530   4.196   1.938
 9856SOL     OW30466   5.515   3.876   3.272
 9856SOL    HW130467   5.439   3.933   3.241
 9856SOL    HW230468   5.536   3.808   3.202
 9857SOL     OW30469   4.183   0.903   4.516
 9857SOL    HW130470   4.229   0.949   4.592
 9857SOL    HW230471   4.179   0.965   4.438
 9858SOL     OW30472   6.432   6.595   2.388
 9858SOL    HW130473   6.403   6.669   2.448
 9858SOL    HW230474   6.358   6.529   2.378
 9859SOL     OW30475   6.959   5.630   3.279
 9859SOL    HW130476   6.883   5.567   3.293
 9859SOL    HW230477   6.958   5.700   3.350
 9860SOL     OW30478   1.861   3.454   4.728
 9860SOL    HW130479   1.870   3.550   4.756
 9860SOL    HW230480   1.783   3.413   4.776
 9861SOL     OW30481   3.745   1.298   4.629
 9861SOL    HW130482   3.682   1.240   4.577
 9861SOL    HW230483   3.810   1.241   4.679
 9862SOL     OW30484   1.183   5.550   0.697
 9862SOL    HW130485   1.280   5.546   0.720
 9862SOL    HW230486   1.155   5.645   0.686
 9863SOL     OW30487   4.105   6.359   0.784
 9863SOL    HW130488   4.017   6.359   0.736
 9863SOL    HW230489   4.092   6.391   0.877
 9864SOL     OW30490   2.564   5.864   5.281
 9864SOL    HW130491   2.531   5.789   5.225
 9864SOL    HW230492   2.649   5.837   5.327
 9865SOL     OW30493   0.438   6.242   5.412
 9865SOL    HW130494   0.473   6.150   5.430
 9865SOL    HW230495   0.339   6.237   5.395
 9866SOL     OW30496   6.136   5.445   4.249
 9866SOL    HW130497   6.158   5.369   4.311
 9866SOL    HW230498   6.163   5.531   4.290
 9867SOL     OW30499   4.408   2.283   1.586
 9867SOL    HW130500   4.444   2.371   1.554
 9867SOL    HW230501   4.454   2.257   1.671
 9868SOL     OW30502   1.826   4.413   3.367
 9868SOL    HW130503   1.807   4.373   3.278
 9868SOL    HW230504   1.750   4.394   3.429
 9869SOL     OW30505   6.987   2.501   0.796
 9869SOL    HW130506   6.942   2.446   0.725
 9869SOL    HW230507   7.018   2.441   0.870
 9870SOL     OW30508   2.938   1.376   2.601
 9870SOL    HW130509   2.962   1.473   2.606
 9870SOL    HW230510   2.840   1.367   2.583
 9871SOL     OW30511   0.335   4.108   4.475
 9871SOL    HW130512   0.300   4.200   4.455
 9871SOL    HW230513   0.270   4.040   4.441
 9872SOL     OW30514   1.471   4.904   5.909
 9872SOL    HW130515   1.428   4.814   5.919
 9872SOL    HW230516   1.554   4.895   5.853
 9873SOL     OW30517   1.785   1.486   5.469
 9873SOL    HW130518   1.739   1.405   5.432
 9873SOL    HW230519   1.829   1.537   5.395
 9874SOL     OW30520   0.539   2.923   4.980
 9874SOL    HW130521   0.442   2.923   4.956
 9874SOL    HW230522   0.557   2.853   5.049
 9875SOL     OW30523   6.553   5.306   0.737
 9875SOL    HW130524   6.464   5.346   0.758
 9875SOL    HW230525   6.579   5.329   0.643
 9876SOL     OW30526   1.892   6.774   3.590
 9876SOL    HW130527   1.893   6.808   3.496
 9876SOL    HW230528   1.903   6.851   3.654
 9877SOL     OW30529   0.918   5.520   5.261
 9877SOL    HW130530   0.842   5.457   5.246
 9877SOL    HW230531   0.889   5.614   5.240
 9878SOL     OW30532   2.089   2.869   0.059
 9878SOL    HW130533   2.186   2.850   0.077
 9878SOL    HW230534   2.066   2.960   0.092
 9879SOL     OW30535   0.444   5.265   6.299
 9879SOL    HW130536   0.438   5.166   6.299
 9879SOL    HW230537   0.524   5.294   6.247
 9880SOL     OW30538   2.802   1.575   0.207
 9880SOL    HW130539   2.880   1.529   0.166
 9880SOL    HW230540   2.795   1.548   0.303
 9881SOL     OW30541   5.706   0.340   4.448
 9881SOL    HW130542   5.734   0.257   4.496
 9881SOL    HW230543   5.787   0.393   4.421
 9882SOL     OW30544   3.787   3.388   4.999
 9882SOL    HW130545   3.867   3.352   4.951
 9882SOL    HW230546   3.705   3.338   4.969
 9883SOL     OW30547   2.171   6.831   1.845
 9883SOL    HW130548   2.158   6.901   1.915
 9883SOL    HW230549   2.222   6.870   1.768
 9884SOL     OW30550   2.166   3.825   5.724
 9884SOL    HW130551   2.228   3.810   5.647
 9884SOL    HW230552   2.077   3.856   5.688
 9885SOL     OW30553   6.162   3.267   4.260
 9885SOL    HW130554   6.247   3.254   4.207
 9885SOL    HW230555   6.159   3.200   4.334
 9886SOL     OW30556   4.683   5.793   1.427
 9886SOL    HW130557   4.627   5.712   1.445
 9886SOL    HW230558   4.701   5.801   1.329
 9887SOL     OW30559   3.631   0.387   6.761
 9887SOL    HW130560   3.656   0.301   6.717
 9887SOL    HW230561   3.710   0.424   6.809
 9888SOL     OW30562   6.093   5.249   2.626
 9888SOL    HW130563   6.053   5.196   2.700
 9888SOL    HW230564   6.139   5.330   2.664
 9889SOL     OW30565   6.727   5.014   3.313
 9889SOL    HW130566   6.741   5.099   3.364
 9889SOL    HW230567   6.797   5.006   3.242
 9890SOL     OW30568   6.683   4.078   2.055
 9890SOL    HW130569   6.663   4.028   2.139
 9890SOL    HW230570   6.672   4.017   1.977
 9891SOL     OW30571   6.025   4.608   0.932
 9891SOL    HW130572   5.973   4.527   0.959
 9891SOL    HW230573   6.061   4.595   0.839
 9892SOL     OW30574   2.594   5.237   4.137
 9892SOL    HW130575   2.521   5.208   4.075
 9892SOL    HW230576   2.595   5.179   4.218
 9893SOL     OW30577   5.348   5.555   3.598
 9893SOL    HW130578   5.335   5.476   3.659
 9893SOL    HW230579   5.300   5.539   3.512
 9894SOL     OW30580   4.064   3.118   5.897
 9894SOL    HW130581   3.996   3.127   5.824
 9894SOL    HW230582   4.129   3.194   5.891
 9895SOL     OW30583   5.288   2.280   0.204
 9895SOL    HW130584   5.361   2.296   0.138
 9895SOL    HW230585   5.299   2.189   0.245
 9896SOL     OW30586   4.348   4.118   0.726
 9896SOL    HW130587   4.273   4.143   0.788
 9896SOL    HW230588   4.435   4.138   0.770
 9897SOL     OW30589   5.807   2.157   3.406
 9897SOL    HW130590   5.765   2.180   3.318
 9897SOL    HW230591   5.852   2.238   3.443
 9898SOL     OW30592   1.582   4.960   5.453
 9898SOL    HW130593   1.586   5.045   5.507
 9898SOL    HW230594   1.629   4.887   5.503
 9899SOL     OW30595   4.986   5.350   1.830
 9899SOL    HW130596   4.903   5.397   1.861
 9899SOL    HW230597   4.985   5.345   1.730
 9900SOL     OW30598   1.531   2.717   3.892
 9900SOL    HW130599   1.531   2.796   3.952
 9900SOL    HW230600   1.613   2.718   3.835
 9901SOL     OW30601   3.179   2.768   5.544
 9901SOL    HW130602   3.095   2.755   5.491
 9901SOL    HW230603   3.197   2.686   5.599
 9902SOL     OW30604   4.308   3.261   0.109
 9902SOL    HW130605   4.347   3.193   0.047
 9902SOL    HW230606   4.361   3.263   0.194
 9903SOL     OW30607   3.949   2.265   1.860
 9903SOL    HW130608   4.011   2.256   1.782
 9903SOL    HW230609   3.860   2.297   1.828
 9904SOL     OW30610   6.560   1.307   1.330
 9904SOL    HW130611   6.649   1.340   1.299
 9904SOL    HW230612   6.488   1.343   1.270
 9905SOL     OW30613   1.616   0.344   5.149
 9905SOL    HW130614   1.644   0.411   5.080
 9905SOL    HW230615   1.555   0.277   5.108
 9906SOL     OW30616   2.680   3.158   6.478
 9906SOL    HW130617   2.722   3.154   6.387
 9906SOL    HW230618   2.700   3.247   6.520
 9907SOL     OW30619   2.747   6.344   2.631
 9907SOL    HW130620   2.649   6.328   2.618
 9907SOL    HW230621   2.774   6.427   2.582
 9908SOL     OW30622   1.179   3.642   5.820
 9908SOL    HW130623   1.126   3.726   5.803
 9908SOL    HW230624   1.172   3.582   5.741
 9909SOL     OW30625   3.703   0.554   2.678
 9909SOL    HW130626   3.648   0.569   2.596
 9909SOL    HW230627   3.650   0.500   2.744
 9910SOL     OW30628   6.874   3.865   0.978
 9910SOL    HW130629   6.821   3.890   1.059
 9910SOL    HW230630   6.819   3.882   0.896
 9911SOL     OW30631   3.421   4.946   3.452
 9911SOL    HW130632   3.397   4.912   3.543
 9911SOL    HW230633   3.365   5.026   3.431
 9912SOL     OW30634   5.150   0.136   1.197
 9912SOL    HW130635   5.051   0.151   1.206
 9912SOL    HW230636   5.194   0.219   1.164
 9913SOL     OW30637   4.676   1.875   2.780
 9913SOL    HW130638   4.753   1.823   2.817
 9913SOL    HW230639   4.669   1.860   2.682
 9914SOL     OW30640   1.239   0.109   4.825
 9914SOL    HW130641   1.271   0.117   4.730
 9914SOL    HW230642   1.169   0.178   4.842
 9915SOL     OW30643   5.469   3.280   4.380
 9915SOL    HW130644   5.495   3.242   4.292
 9915SOL    HW230645   5.386   3.236   4.413
 9916SOL     OW30646   2.254   2.701   2.093
 9916SOL    HW130647   2.256   2.631   2.165
 9916SOL    HW230648   2.324   2.681   2.025
 9917SOL     OW30649   2.453   3.553   5.965
 9917SOL    HW130650   2.432   3.640   6.008
 9917SOL    HW230651   2.551   3.549   5.945
 9918SOL     OW30652   1.890   1.409   5.960
 9918SOL    HW130653   1.964   1.344   5.947
 9918SOL    HW230654   1.893   1.478   5.888
 9919SOL     OW30655   0.897   5.688   2.560
 9919SOL    HW130656   0.954   5.613   2.594
 9919SOL    HW230657   0.811   5.690   2.611
 9920SOL     OW30658   4.187   6.205   1.255
 9920SOL    HW130659   4.205   6.298   1.221
 9920SOL    HW230660   4.272   6.152   1.253
 9921SOL     OW30661   5.644   0.312   3.274
 9921SOL    HW130662   5.685   0.388   3.224
 9921SOL    HW230663   5.645   0.230   3.217
 9922SOL     OW30664   4.157   4.521   0.930
 9922SOL    HW130665   4.195   4.484   0.845
 9922SOL    HW230666   4.126   4.446   0.988
 9923SOL     OW30667   6.486   2.107   6.499
 9923SOL    HW130668   6.569   2.054   6.519
 9923SOL    HW230669   6.408   2.064   6.544
 9924SOL     OW30670   6.652   1.240   3.426
 9924SOL    HW130671   6.659   1.152   3.379
 9924SOL    HW230672   6.641   1.313   3.358
 9925SOL     OW30673   2.765   2.694   5.699
 9925SOL    HW130674   2.844   2.665   5.645
 9925SOL    HW230675   2.696   2.622   5.698
 9926SOL     OW30676   1.479   0.641   0.114
 9926SOL    HW130677   1.508   0.690   0.197
 9926SOL    HW230678   1.439   0.707   0.050
 9927SOL     OW30679   0.583   1.711   1.926
 9927SOL    HW130680   0.568   1.707   2.025
 9927SOL    HW230681   0.630   1.795   1.903
 9928SOL     OW30682   0.358   3.961   2.753
 9928SOL    HW130683   0.302   3.882   2.728
 9928SOL    HW230684   0.454   3.935   2.751
 9929SOL     OW30685   2.726   4.156   0.055
 9929SOL    HW130686   2.690   4.162   6.982
 9929SOL    HW230687   2.708   4.242   0.103
 9930SOL     OW30688   6.936   6.342   6.233
 9930SOL    HW130689   6.949   6.439   6.210
 9930SOL    HW230690   6.971   6.285   6.159
 9931SOL     OW30691   1.549   5.638   5.738
 9931SOL    HW130692   1.647   5.620   5.750
 9931SOL    HW230693   1.499   5.607   5.818
 9932SOL     OW30694   1.237   1.626   0.415
 9932SOL    HW130695   1.293   1.571   0.353
 9932SOL    HW230696   1.160   1.571   0.448
 9933SOL     OW30697   1.447   1.497   4.026
 9933SOL    HW130698   1.443   1.563   4.101
 9933SOL    HW230699   1.432   1.543   3.939
 9934SOL     OW30700   4.198   1.289   5.936
 9934SOL    HW130701   4.104   1.316   5.919
 9934SOL    HW230702   4.235   1.242   5.856
 9935SOL     OW30703   2.677   1.780   0.785
 9935SOL    HW130704   2.649   1.872   0.757
 9935SOL    HW230705   2.660   1.768   0.882
 9936SOL     OW30706   5.940   5.825   5.942
 9936SOL    HW130707   5.924   5.903   5.882
 9936SOL    HW230708   5.948   5.856   6.037
 9937SOL     OW30709   0.356   0.436   3.393
 9937SOL    HW130710   0.382   0.340   3.409
 9937SOL    HW230711   0.277   0.459   3.450
 9938SOL     OW30712   6.519   1.697   4.361
 9938SOL    HW130713   6.573   1.776   4.390
 9938SOL    HW230714   6.438   1.728   4.312
 9939SOL     OW30715   2.548   4.336   1.390
 9939SOL    HW130716   2.518   4.255   1.441
 9939SOL    HW230717   2.588   4.402   1.454
 9940SOL     OW30718   0.271   0.865   3.297
 9940SOL    HW130719   0.175   0.839   3.304
 9940SOL    HW230720   0.315   0.812   3.224
 9941SOL     OW30721   5.270   4.669   6.293
 9941SOL    HW130722   5.219   4.583   6.294
 9941SOL    HW230723   5.274   4.708   6.385
 9942SOL     OW30724   4.760   5.269   3.363
 9942SOL    HW130725   4.720   5.266   3.271
 9942SOL    HW230726   4.854   5.300   3.357
 9943SOL     OW30727   2.470   4.199   6.872
 9943SOL    HW130728   2.465   4.188   6.773
 9943SOL    HW230729   2.539   4.268   6.894
 9944SOL     OW30730   1.396   4.798   0.215
 9944SOL    HW130731   1.437   4.888   0.228
 9944SOL    HW230732   1.367   4.787   0.120
 9945SOL     OW30733   5.855   3.411   6.457
 9945SOL    HW130734   5.823   3.316   6.457
 9945SOL    HW230735   5.832   3.454   6.545
 9946SOL     OW30736   5.617   1.557   2.624
 9946SOL    HW130737   5.526   1.587   2.652
 9946SOL    HW230738   5.613   1.462   2.593
 9947SOL     OW30739   1.243   1.334   3.823
 9947SOL    HW130740   1.289   1.422   3.835
 9947SOL    HW230741   1.200   1.331   3.733
 9948SOL     OW30742   6.066   6.617   4.325
 9948SOL    HW130743   6.070   6.655   4.418
 9948SOL    HW230744   6.008   6.674   4.268
 9949SOL     OW30745   5.744   4.934   4.053
 9949SOL    HW130746   5.681   4.909   3.979
 9949SOL    HW230747   5.729   5.029   4.079
 9950SOL     OW30748   6.486   5.081   5.110
 9950SOL    HW130749   6.480   5.160   5.171
 9950SOL    HW230750   6.499   4.998   5.164
 9951SOL     OW30751   0.711   2.275   2.019
 9951SOL    HW130752   0.806   2.298   1.998
 9951SOL    HW230753   0.692   2.182   1.989
 9952SOL     OW30754   0.555   4.631   1.968
 9952SOL    HW130755   0.540   4.557   1.903
 9952SOL    HW230756   0.618   4.698   1.929
 9953SOL     OW30757   6.208   2.674   3.466
 9953SOL    HW130758   6.192   2.756   3.521
 9953SOL    HW230759   6.123   2.650   3.418
 9954SOL     OW30760   3.370   1.812   5.625
 9954SOL    HW130761   3.382   1.723   5.582
 9954SOL    HW230762   3.456   1.840   5.669
 9955SOL     OW30763   5.955   3.386   0.309
 9955SOL    HW130764   5.940   3.462   0.372
 9955SOL    HW230765   5.873   3.329   0.305
 9956SOL     OW30766   1.988   3.795   3.316
 9956SOL    HW130767   2.050   3.776   3.393
 9956SOL    HW230768   1.945   3.710   3.286
 9957SOL     OW30769   4.906   7.016   0.939
 9957SOL    HW130770   4.996   6.972   0.935
 9957SOL    HW230771   4.888   0.027   1.033
 9958SOL     OW30772   4.985   4.684   0.187
 9958SOL    HW130773   5.006   4.781   0.177
 9958SOL    HW230774   4.901   4.663   0.138
 9959SOL     OW30775   4.867   4.387   0.417
 9959SOL    HW130776   4.788   4.398   0.357
 9959SOL    HW230777   4.841   4.412   0.510
 9960SOL     OW30778   0.998   0.472   6.621
 9960SOL    HW130779   1.005   0.519   6.533
 9960SOL    HW230780   1.090   0.452   6.656
 9961SOL     OW30781   2.829   4.903   1.496
 9961SOL    HW130782   2.826   4.826   1.559
 9961SOL    HW230783   2.922   4.915   1.462
 9962SOL     OW30784   3.202   6.395   1.497
 9962SOL    HW130785   3.221   6.419   1.402
 9962SOL    HW230786   3.236   6.467   1.558
 9963SOL     OW30787   1.155   1.543   6.189
 9963SOL    HW130788   1.068   1.498   6.167
 9963SOL    HW230789   1.231   1.489   6.152
 9964SOL     OW30790   4.727   3.763   5.512
 9964SOL    HW130791   4.781   3.746   5.430
 9964SOL    HW230792   4.693   3.676   5.548
 9965SOL     OW30793   3.197   5.729   4.626
 9965SOL    HW130794   3.209   5.640   4.668
 9965SOL    HW230795   3.147   5.790   4.688
 9966SOL     OW30796   3.862   4.810   2.351
 9966SOL    HW130797   3.961   4.799   2.367
 9966SOL    HW230798   3.814   4.804   2.438
 9967SOL     OW30799   6.406   0.191   3.091
 9967SOL    HW130800   6.438   0.266   3.034
 9967SOL    HW230801   6.357   0.125   3.035
 9968SOL     OW30802   3.954   6.570   0.539
 9968SOL    HW130803   3.953   6.573   0.439
 9968SOL    HW230804   3.943   6.476   0.570
 9969SOL     OW30805   1.432   5.369   3.820
 9969SOL    HW130806   1.477   5.296   3.768
 9969SOL    HW230807   1.493   5.448   3.828
 9970SOL     OW30808   6.014   3.906   1.602
 9970SOL    HW130809   5.945   3.905   1.674
 9970SOL    HW230810   6.093   3.960   1.631
 9971SOL     OW30811   0.562   4.537   2.245
 9971SOL    HW130812   0.562   4.585   2.157
 9971SOL    HW230813   0.647   4.559   2.295
 9972SOL     OW30814   3.024   3.386   0.111
 9972SOL    HW130815   2.980   3.462   0.064
 9972SOL    HW230816   3.078   3.420   0.188
 9973SOL     OW30817   3.508   1.634   3.525
 9973SOL    HW130818   3.442   1.571   3.565
 9973SOL    HW230819   3.586   1.644   3.587
 9974SOL     OW30820   0.886   2.974   2.960
 9974SOL    HW130821   0.805   2.919   2.979
 9974SOL    HW230822   0.966   2.932   3.003
 9975SOL     OW30823   1.615   5.245   7.007
 9975SOL    HW130824   1.627   5.149   0.009
 9975SOL    HW230825   1.698   5.281   6.965
 9976SOL     OW30826   2.822   3.994   6.371
 9976SOL    HW130827   2.858   3.906   6.403
 9976SOL    HW230828   2.892   4.041   6.316
 9977SOL     OW30829   4.933   6.084   5.158
 9977SOL    HW130830   4.906   6.056   5.250
 9977SOL    HW230831   4.871   6.155   5.125
 9978SOL     OW30832   0.709   2.980   6.164
 9978SOL    HW130833   0.682   2.885   6.146
 9978SOL    HW230834   0.716   3.030   6.078
 9979SOL     OW30835   4.507   3.174   5.375
 9979SOL    HW130836   4.423   3.205   5.420
 9979SOL    HW230837   4.563   3.254   5.352
 9980SOL     OW30838   1.676   0.577   0.381
 9980SOL    HW130839   1.705   0.484   0.356
 9980SOL    HW230840   1.592   0.572   0.435
 9981SOL     OW30841   0.421   2.833   1.557
 9981SOL    HW130842   0.339   2.779   1.538
 9981SOL    HW230843   0.403   2.895   1.633
 9982SOL     OW30844   2.309   2.048   5.522
 9982SOL    HW130845   2.367   2.123   5.555
 9982SOL    HW230846   2.214   2.079   5.515
 9983SOL     OW30847   0.183   3.373   1.894
 9983SOL    HW130848   0.269   3.323   1.886
 9983SOL    HW230849   0.132   3.341   1.974
 9984SOL     OW30850   6.351   6.344   0.494
 9984SOL    HW130851   6.360   6.360   0.396
 9984SOL    HW230852   6.257   6.319   0.516
 9985SOL     OW30853   4.409   5.534   0.739
 9985SOL    HW130854   4.343   5.512   0.667
 9985SOL    HW230855   4.362   5.550   0.825
 9986SOL     OW30856   4.954   4.138   0.354
 9986SOL    HW130857   5.044   4.121   0.395
 9986SOL    HW230858   4.929   4.234   0.367
 9987SOL     OW30859   5.676   2.845   1.776
 9987SOL    HW130860   5.731   2.916   1.820
 9987SOL    HW230861   5.683   2.854   1.677
 9988SOL     OW30862   5.206   6.235   4.525
 9988SOL    HW130863   5.178   6.231   4.621
 9988SOL    HW230864   5.283   6.172   4.510
 9989SOL     OW30865   6.266   5.230   1.910
 9989SOL    HW130866   6.183   5.263   1.864
 9989SOL    HW230867   6.286   5.289   1.988
 9990SOL     OW30868   0.402   0.268   3.737
 9990SOL    HW130869   0.350   0.243   3.655
 9990SOL    HW230870   0.499   0.251   3.721
 9991SOL     OW30871   1.895   4.243   4.314
 9991SOL    HW130872   1.886   4.152   4.355
 9991SOL    HW230873   1.968   4.241   4.246
 9992SOL     OW30874   3.273   4.635   0.857
 9992SOL    HW130875   3.264   4.725   0.899
 9992SOL    HW230876   3.222   4.633   0.771
 9993SOL     OW30877   3.685   6.892   4.080
 9993SOL    HW130878   3.694   6.806   4.130
 9993SOL    HW230879   3.592   6.927   4.090
 9994SOL     OW30880   6.488   4.830   3.904
 9994SOL    HW130881   6.434   4.772   3.966
 9994SOL    HW230882   6.577   4.849   3.946
 9995SOL     OW30883   3.037   0.763   5.188
 9995SOL    HW130884   2.945   0.727   5.199
 9995SOL    HW230885   3.089   0.703   5.127
 9996SOL     OW30886   1.803   4.333   0.929
 9996SOL    HW130887   1.782   4.268   1.002
 9996SOL    HW230888   1.814   4.283   0.843
 9997SOL     OW30889   6.274   2.932   4.132
 9997SOL    HW130890   6.332   3.001   4.175
 9997SOL    HW230891   6.186   2.974   4.107
 9998SOL     OW30892   5.054   3.780   2.850
 9998SOL    HW130893   5.050   3.789   2.751
 9998SOL    HW230894   5.016   3.862   2.893
 9999SOL     OW30895   0.083   6.597   4.232
 9999SOL    HW130896   0.022   6.573   4.307
 9999SOL    HW230897   0.163   6.537   4.234
10000SOL     OW30898   4.990   1.879   1.462
10000SOL    HW130899   5.008   1.885   1.364
10000SOL    HW230900   4.936   1.797   1.481
10001SOL     OW30901   3.467   5.973   2.063
10001SOL    HW130902   3.405   6.048   2.041
10001SOL    HW230903   3.528   5.955   1.986
10002SOL     OW30904   2.325   0.852   1.550
10002SOL    HW130905   2.337   0.782   1.479
10002SOL    HW230906   2.413   0.870   1.595
10003SOL     OW30907   1.677   1.303   3.325
10003SOL    HW130908   1.712   1.308   3.232
10003SOL    HW230909   1.695   1.212   3.363
10004SOL     OW30910   6.434   4.887   4.671
10004SOL    HW130911   6.412   4.920   4.763
10004SOL    HW230912   6.499   4.950   4.628
10005SOL     OW30913   2.205   5.906   3.482
10005SOL    HW130914   2.221   5.899   3.580
10005SOL    HW230915   2.152   5.988   3.462
10006SOL     OW30916   5.224   0.227   5.729
10006SOL    HW130917   5.243   0.262   5.821
10006SOL    HW230918   5.187   0.135   5.735
10007SOL     OW30919   1.221   4.682   4.790
10007SOL    HW130920   1.258   4.609   4.847
10007SOL    HW230921   1.276   4.764   4.801
10008SOL     OW30922   3.955   1.890   5.036
10008SOL    HW130923   3.868   1.932   5.064
10008SOL    HW230924   4.031   1.936   5.082
10009SOL     OW30925   1.460   4.531   1.656
10009SOL    HW130926   1.484   4.508   1.562
10009SOL    HW230927   1.397   4.609   1.657
10010SOL     OW30928   2.545   4.976   6.818
10010SOL    HW130929   2.634   4.982   6.863
10010SOL    HW230930   2.558   4.977   6.719
10011SOL     OW30931   0.865   3.440   0.610
10011SOL    HW130932   0.947   3.385   0.596
10011SOL    HW230933   0.784   3.383   0.600
10012SOL     OW30934   5.326   1.153   1.547
10012SOL    HW130935   5.345   1.183   1.454
10012SOL    HW230936   5.401   1.096   1.580
10013SOL     OW30937   1.245   6.084   4.920
10013SOL    HW130938   1.236   5.993   4.881
10013SOL    HW230939   1.215   6.082   5.015
10014SOL     OW30940   0.555   6.834   3.395
10014SOL    HW130941   0.533   6.761   3.461
10014SOL    HW230942   0.633   6.806   3.340
10015SOL     OW30943   3.723   4.742   5.580
10015SOL    HW130944   3.679   4.665   5.533
10015SOL    HW230945   3.822   4.729   5.578
10016SOL     OW30946   2.006   0.028   3.720
10016SOL    HW130947   1.938   0.069   3.659
10016SOL    HW230948   2.082   7.011   3.666
10017SOL     OW30949   2.679   1.818   2.981
10017SOL    HW130950   2.720   1.909   2.972
10017SOL    HW230951   2.651   1.804   3.076
10018SOL     OW30952   6.569   3.448   5.756
10018SOL    HW130953   6.588   3.460   5.659
10018SOL    HW230954   6.652   3.417   5.803
10019SOL     OW30955   0.685   1.620   2.811
10019SOL    HW130956   0.774   1.596   2.849
10019SOL    HW230957   0.694   1.644   2.715
10020SOL     OW30958   6.758   0.573   2.292
10020SOL    HW130959   6.739   0.490   2.344
10020SOL    HW230960   6.704   0.573   2.208
10021SOL     OW30961   1.450   4.243   1.629
10021SOL    HW130962   1.508   4.224   1.708
10021SOL    HW230963   1.380   4.310   1.655
10022SOL     OW30964   2.994   6.611   0.659
10022SOL    HW130965   2.897   6.606   0.685
10022SOL    HW230966   3.005   6.572   0.567
10023SOL     OW30967   2.597   6.764   5.977
10023SOL    HW130968   2.579   6.757   6.076
10023SOL    HW230969   2.520   6.809   5.933
10024SOL     OW30970   1.534   4.645   2.952
10024SOL    HW130971   1.507   4.566   3.007
10024SOL    HW230972   1.506   4.729   2.998
10025SOL     OW30973   1.383   4.162   1.389
10025SOL    HW130974   1.415   4.189   1.480
10025SOL    HW230975   1.336   4.238   1.346
10026SOL     OW30976   4.902   1.293   2.898
10026SOL    HW130977   4.892   1.372   2.959
10026SOL    HW230978   4.824   1.289   2.836
10027SOL     OW30979   1.958   1.958   5.784
10027SOL    HW130980   1.907   1.988   5.703
10027SOL    HW230981   1.907   1.982   5.867
10028SOL     OW30982   3.988   0.359   1.698
10028SOL    HW130983   3.924   0.319   1.632
10028SOL    HW230984   3.957   0.340   1.791
10029SOL     OW30985   0.253   3.221   4.404
10029SOL    HW130986   0.228   3.280   4.480
10029SOL    HW230987   0.186   3.146   4.396
10030SOL     OW30988   2.691   6.452   4.977
10030SOL    HW130989   2.644   6.540   4.968
10030SOL    HW230990   2.681   6.399   4.892
10031SOL     OW30991   3.743   5.192   4.393
10031SOL    HW130992   3.740   5.111   4.450
10031SOL    HW230993   3.835   5.232   4.396
10032SOL     OW30994   3.255   5.834   5.278
10032SOL    HW130995   3.350   5.866   5.270
10032SOL    HW230996   3.208   5.849   5.191
10033SOL     OW30997   4.174   1.629   3.166
10033SOL    HW130998   4.145   1.708   3.112
10033SOL    HW230999   4.134   1.634   3.257
10034SOL     OW31000   1.990   0.812   3.380
10034SOL    HW131001   2.035   0.875   3.317
10034SOL    HW231002   2.036   0.815   3.469
10035SOL     OW31003   6.285   2.957   0.571
10035SOL    HW131004   6.211   2.913   0.621
10035SOL    HW231005   6.262   3.052   0.553
10036SOL     OW31006   6.432   0.823   6.329
10036SOL    HW131007   6.401   0.729   6.348
10036SOL    HW231008   6.514   0.842   6.381
10037SOL     OW31009   6.451   6.868   6.368
10037SOL    HW131010   6.390   6.821   6.433
10037SOL    HW231011   6.535   6.895   6.415
10038SOL     OW31012   4.145   0.193   0.085
10038SOL    HW131013   4.104   0.250   0.156
10038SOL    HW231014   4.188   0.252   0.016
10039SOL     OW31015   5.368   5.188   4.343
10039SOL    HW131016   5.427   5.136   4.282
10039SOL    HW231017   5.410   5.276   4.363
10040SOL     OW31018   4.006   0.251   0.534
10040SOL    HW131019   4.092   0.200   0.541
10040SOL    HW231020   4.020   0.344   0.567
10041SOL     OW31021   6.228   4.671   5.661
10041SOL    HW131022   6.148   4.729   5.672
10041SOL    HW231023   6.310   4.720   5.690
10042SOL     OW31024   0.402   1.340   5.265
10042SOL    HW131025   0.401   1.240   5.264
10042SOL    HW231026   0.390   1.374   5.172
10043SOL     OW31027   1.125   0.646   3.127
10043SOL    HW131028   1.190   0.574   3.102
10043SOL    HW231029   1.033   0.609   3.132
10044SOL     OW31030   2.022   1.040   4.937
10044SOL    HW131031   1.936   0.992   4.919
10044SOL    HW231032   2.096   0.974   4.946
10045SOL     OW31033   4.643   6.817   4.521
10045SOL    HW131034   4.654   6.916   4.515
10045SOL    HW231035   4.728   6.772   4.493
10046SOL     OW31036   7.010   2.058   1.620
10046SOL    HW131037   0.080   2.102   1.624
10046SOL    HW231038   7.016   1.976   1.564
10047SOL     OW31039   6.119   2.399   4.882
10047SOL    HW131040   6.104   2.308   4.843
10047SOL    HW231041   6.180   2.393   4.960
10048SOL     OW31042   3.343   1.242   1.666
10048SOL    HW131043   3.442   1.255   1.673
10048SOL    HW231044   3.314   1.166   1.724
10049SOL     OW31045   1.749   0.056   6.602
10049SOL    HW131046   1.673   0.022   6.658
10049SOL    HW231047   1.739   0.021   6.508
10050SOL     OW31048   5.236   2.989   4.665
10050SOL    HW131049   5.166   2.919   4.678
10050SOL    HW231050   5.258   3.030   4.754
10051SOL     OW31051   6.802   3.013   4.346
10051SOL    HW131052   6.774   3.102   4.311
10051SOL    HW231053   6.755   2.941   4.295
10052SOL     OW31054   1.840   3.289   1.840
10052SOL    HW131055   1.890   3.329   1.763
10052SOL    HW231056   1.762   3.237   1.805
10053SOL     OW31057   3.691   5.046   3.463
10053SOL    HW131058   3.595   5.018   3.460
10053SOL    HW231059   3.707   5.117   3.394
10054SOL     OW31060   4.588   5.778   6.334
10054SOL    HW131061   4.548   5.792   6.425
10054SOL    HW231062   4.585   5.864   6.283
10055SOL     OW31063   6.581   2.515   5.233
10055SOL    HW131064   6.592   2.457   5.314
10055SOL    HW231065   6.485   2.541   5.224
10056SOL     OW31066   6.053   4.835   1.092
10056SOL    HW131067   5.983   4.898   1.059
10056SOL    HW231068   6.041   4.746   1.047
10057SOL     OW31069   4.005   1.826   4.364
10057SOL    HW131070   3.992   1.734   4.402
10057SOL    HW231071   4.003   1.893   4.438
10058SOL     OW31072   6.040   5.001   3.690
10058SOL    HW131073   5.951   4.957   3.698
10058SOL    HW231074   6.032   5.085   3.636
10059SOL     OW31075   5.165   6.911   0.921
10059SOL    HW131076   5.219   6.871   0.995
10059SOL    HW231077   5.217   6.985   0.878
10060SOL     OW31078   3.066   2.033   2.029
10060SOL    HW131079   3.034   2.127   2.039
10060SOL    HW231080   3.135   2.029   1.957
10061SOL     OW31081   6.144   1.100   4.193
10061SOL    HW131082   6.109   1.108   4.099
10061SOL    HW231083   6.090   1.032   4.243
10062SOL     OW31084   6.126   6.482   3.721
10062SOL    HW131085   6.077   6.401   3.754
10062SOL    HW231086   6.160   6.535   3.799
10063SOL     OW31087   1.365   2.390   3.118
10063SOL    HW131088   1.424   2.353   3.190
10063SOL    HW231089   1.353   2.488   3.131
10064SOL     OW31090   5.200   5.131   4.832
10064SOL    HW131091   5.218   5.121   4.734
10064SOL    HW231092   5.162   5.222   4.849
10065SOL     OW31093   1.451   0.019   1.953
10065SOL    HW131094   1.413   0.017   2.045
10065SOL    HW231095   1.550   0.012   1.958
10066SOL     OW31096   0.260   1.274   3.935
10066SOL    HW131097   0.333   1.335   3.965
10066SOL    HW231098   0.192   1.326   3.883
10067SOL     OW31099   5.319   4.782   4.298
10067SOL    HW131100   5.400   4.842   4.292
10067SOL    HW231101   5.257   4.816   4.368
10068SOL     OW31102   5.577   2.885   4.940
10068SOL    HW131103   5.667   2.867   4.903
10068SOL    HW231104   5.507   2.867   4.870
10069SOL     OW31105   2.195   0.845   3.608
10069SOL    HW131106   2.192   0.938   3.645
10069SOL    HW231107   2.287   0.826   3.574
10070SOL     OW31108   0.323   6.100   4.773
10070SOL    HW131109   0.384   6.179   4.775
10070SOL    HW231110   0.293   6.079   4.866
10071SOL     OW31111   4.688   5.234   3.932
10071SOL    HW131112   4.644   5.283   3.856
10071SOL    HW231113   4.621   5.177   3.978
10072SOL     OW31114   0.342   6.386   3.964
10072SOL    HW131115   0.358   6.481   3.938
10072SOL    HW231116   0.260   6.352   3.918
10073SOL     OW31117   6.299   4.693   4.537
10073SOL    HW131118   6.338   4.772   4.585
10073SOL    HW231119   6.224   4.655   4.592
10074SOL     OW31120   1.288   6.693   5.697
10074SOL    HW131121   1.223   6.769   5.686
10074SOL    HW231122   1.279   6.655   5.788
10075SOL     OW31123   1.433   2.308   2.870
10075SOL    HW131124   1.414   2.349   2.959
10075SOL    HW231125   1.348   2.271   2.832
10076SOL     OW31126   5.082   0.215   4.612
10076SOL    HW131127   5.059   0.312   4.619
10076SOL    HW231128   5.029   0.174   4.538
10077SOL     OW31129   3.906   2.212   6.633
10077SOL    HW131130   3.815   2.250   6.618
10077SOL    HW231131   3.974   2.283   6.622
10078SOL     OW31132   6.379   5.980   4.766
10078SOL    HW131133   6.380   6.059   4.703
10078SOL    HW231134   6.311   5.995   4.837
10079SOL     OW31135   1.549   3.119   2.146
10079SOL    HW131136   1.617   3.190   2.128
10079SOL    HW231137   1.513   3.085   2.059
10080SOL     OW31138   2.573   2.712   0.296
10080SOL    HW131139   2.631   2.791   0.276
10080SOL    HW231140   2.614   2.631   0.253
10081SOL     OW31141   0.932   0.309   6.060
10081SOL    HW131142   0.948   0.258   6.145
10081SOL    HW231143   0.857   0.267   6.009
10082SOL     OW31144   6.697   2.301   2.056
10082SOL    HW131145   6.683   2.257   1.967
10082SOL    HW231146   6.622   2.277   2.118
10083SOL     OW31147   4.623   1.281   3.971
10083SOL    HW131148   4.527   1.262   3.950
10083SOL    HW231149   4.681   1.221   3.917
10084SOL     OW31150   3.337   0.480   6.358
10084SOL    HW131151   3.425   0.466   6.402
10084SOL    HW231152   3.304   0.393   6.320
10085SOL     OW31153   0.605   5.151   3.077
10085SOL    HW131154   0.553   5.149   3.162
10085SOL    HW231155   0.570   5.224   3.018
10086SOL     OW31156   5.881   5.063   2.236
10086SOL    HW131157   5.966   5.071   2.184
10086SOL    HW231158   5.883   5.127   2.313
10087SOL     OW31159   1.020   1.192   4.515
10087SOL    HW131160   0.980   1.157   4.599
10087SOL    HW231161   0.999   1.289   4.506
10088SOL     OW31162   0.437   6.889   5.496
10088SOL    HW131163   0.390   6.905   5.582
10088SOL    HW231164   0.532   6.919   5.504
10089SOL     OW31165   2.632   1.545   2.873
10089SOL    HW131166   2.599   1.489   2.949
10089SOL    HW231167   2.722   1.582   2.896
10090SOL     OW31168   1.035   4.494   0.916
10090SOL    HW131169   1.008   4.528   0.826
10090SOL    HW231170   1.133   4.478   0.918
10091SOL     OW31171   1.136   3.736   4.715
10091SOL    HW131172   1.160   3.702   4.624
10091SOL    HW231173   1.210   3.715   4.779
10092SOL     OW31174   1.532   3.840   5.252
10092SOL    HW131175   1.440   3.820   5.219
10092SOL    HW231176   1.552   3.783   5.331
10093SOL     OW31177   0.582   5.102   5.200
10093SOL    HW131178   0.666   5.071   5.155
10093SOL    HW231179   0.509   5.110   5.132
10094SOL     OW31180   2.459   0.374   2.490
10094SOL    HW131181   2.451   0.416   2.399
10094SOL    HW231182   2.552   0.338   2.501
10095SOL     OW31183   5.884   1.766   5.114
10095SOL    HW131184   5.810   1.699   5.110
10095SOL    HW231185   5.943   1.755   5.035
10096SOL     OW31186   6.528   5.089   2.727
10096SOL    HW131187   6.513   5.163   2.794
10096SOL    HW231188   6.626   5.078   2.711
10097SOL     OW31189   1.058   0.738   6.982
10097SOL    HW131190   1.096   0.690   0.042
10097SOL    HW231191   1.017   0.824   7.012
10098SOL     OW31192   1.852   5.923   5.808
10098SOL    HW131193   1.853   5.824   5.794
10098SOL    HW231194   1.859   5.969   5.720
10099SOL     OW31195   0.296   3.814   5.935
10099SOL    HW131196   0.203   3.827   5.971
10099SOL    HW231197   0.309   3.719   5.909
10100SOL     OW31198   5.071   0.517   5.069
10100SOL    HW131199   5.117   0.430   5.051
10100SOL    HW231200   4.993   0.528   5.007
10101SOL     OW31201   6.899   4.451   2.062
10101SOL    HW131202   6.932   4.359   2.042
10101SOL    HW231203   6.964   4.499   2.121
10102SOL     OW31204   2.739   0.931   3.132
10102SOL    HW131205   2.820   0.985   3.156
10102SOL    HW231206   2.741   0.909   3.034
10103SOL     OW31207   3.528   1.400   4.873
10103SOL    HW131208   3.528   1.383   4.775
10103SOL    HW231209   3.434   1.397   4.908
10104SOL     OW31210   0.270   4.292   5.020
10104SOL    HW131211   0.255   4.388   4.997
10104SOL    HW231212   0.242   4.235   4.942
10105SOL     OW31213   1.362   1.382   6.121
10105SOL    HW131214   1.374   1.354   6.025
10105SOL    HW231215   1.451   1.401   6.161
10106SOL     OW31216   5.371   4.717   0.708
10106SOL    HW131217   5.416   4.699   0.621
10106SOL    HW231218   5.273   4.731   0.693
10107SOL     OW31219   6.475   1.666   5.887
10107SOL    HW131220   6.460   1.765   5.891
10107SOL    HW231221   6.440   1.624   5.971
10108SOL     OW31222   6.118   6.447   6.922
10108SOL    HW131223   6.176   6.434   7.002
10108SOL    HW231224   6.163   6.410   6.841
10109SOL     OW31225   4.171   6.241   2.661
10109SOL    HW131226   4.258   6.289   2.659
10109SOL    HW231227   4.185   6.147   2.691
10110SOL     OW31228   4.049   6.718   5.445
10110SOL    HW131229   3.957   6.750   5.468
10110SOL    HW231230   4.048   6.677   5.354
10111SOL     OW31231   6.976   3.802   3.500
10111SOL    HW131232   0.027   3.765   3.560
10111SOL    HW231233   6.961   3.740   3.423
10112SOL     OW31234   5.981   3.863   5.273
10112SOL    HW131235   6.018   3.872   5.365
10112SOL    HW231236   5.952   3.953   5.240
10113SOL     OW31237   4.226   1.255   0.089
10113SOL    HW131238   4.146   1.198   0.072
10113SOL    HW231239   4.212   1.344   0.045
10114SOL     OW31240   5.621   1.216   0.401
10114SOL    HW131241   5.587   1.129   0.435
10114SOL    HW231242   5.572   1.241   0.317
10115SOL     OW31243   2.567   2.063   3.350
10115SOL    HW131244   2.657   2.090   3.382
10115SOL    HW231245   2.498   2.126   3.386
10116SOL     OW31246   0.830   6.940   1.507
10116SOL    HW131247   0.853   7.019   1.564
10116SOL    HW231248   0.857   6.959   1.412
10117SOL     OW31249   6.349   0.283   4.550
10117SOL    HW131250   6.354   0.321   4.457
10117SOL    HW231251   6.408   0.337   4.610
10118SOL     OW31252   0.013   4.829   2.630
10118SOL    HW131253   0.056   4.865   2.713
10118SOL    HW231254   0.019   4.729   2.630
10119SOL     OW31255   2.528   6.685   4.105
10119SOL    HW131256   2.561   6.779   4.105
10119SOL    HW231257   2.477   6.668   4.189
10120SOL     OW31258   0.858   3.189   3.993
10120SOL    HW131259   0.945   3.203   3.946
10120SOL    HW231260   0.863   3.228   4.085
10121SOL     OW31261   6.837   5.169   5.064
10121SOL    HW131262   6.849   5.262   5.031
10121SOL    HW231263   6.756   5.129   5.020
10122SOL     OW31264   5.884   2.698   0.247
10122SOL    HW131265   5.852   2.771   0.307
10122SOL    HW231266   5.811   2.674   0.182
10123SOL     OW31267   6.327   6.040   0.219
10123SOL    HW131268   6.316   5.944   0.192
10123SOL    HW231269   6.254   6.094   0.180
10124SOL     OW31270   2.357   3.965   6.985
10124SOL    HW131271   2.437   3.904   6.988
10124SOL    HW231272   2.383   4.050   6.940
10125SOL     OW31273   1.935   0.546   2.756
10125SOL    HW131274   1.968   0.553   2.662
10125SOL    HW231275   1.881   0.627   2.779
10126SOL     OW31276   6.235   5.439   6.069
10126SOL    HW131277   6.326   5.414   6.037
10126SOL    HW231278   6.219   5.536   6.051
10127SOL     OW31279   3.232   5.406   6.084
10127SOL    HW131280   3.183   5.458   6.014
10127SOL    HW231281   3.206   5.440   6.175
10128SOL     OW31282   0.492   1.131   1.395
10128SOL    HW131283   0.449   1.166   1.477
10128SOL    HW231284   0.591   1.122   1.410
10129SOL     OW31285   4.616   2.684   3.733
10129SOL    HW131286   4.619   2.665   3.831
10129SOL    HW231287   4.556   2.618   3.688
10130SOL     OW31288   1.709   4.894   2.164
10130SOL    HW131289   1.673   4.843   2.242
10130SOL    HW231290   1.808   4.880   2.158
10131SOL     OW31291   0.583   1.849   2.932
10131SOL    HW131292   0.623   1.848   3.023
10131SOL    HW231293   0.603   1.763   2.885
10132SOL     OW31294   3.605   6.037   2.935
10132SOL    HW131295   3.629   6.007   2.842
10132SOL    HW231296   3.641   6.129   2.950
10133SOL     OW31297   4.581   6.192   2.589
10133SOL    HW131298   4.654   6.228   2.530
10133SOL    HW231299   4.554   6.101   2.556
10134SOL     OW31300   6.294   0.116   4.001
10134SOL    HW131301   6.392   0.135   3.992
10134SOL    HW231302   6.247   0.147   3.918
10135SOL     OW31303   5.105   3.477   2.623
10135SOL    HW131304   5.170   3.515   2.688
10135SOL    HW231305   5.023   3.535   2.620
10136SOL     OW31306   5.548   6.978   2.858
10136SOL    HW131307   5.455   6.962   2.891
10136SOL    HW231308   5.611   6.914   2.901
10137SOL     OW31309   6.914   5.204   3.412
10137SOL    HW131310   6.894   5.188   3.508
10137SOL    HW231311   6.999   5.256   3.404
10138SOL     OW31312   4.573   2.446   0.799
10138SOL    HW131313   4.660   2.488   0.827
10138SOL    HW231314   4.534   2.497   0.723
10139SOL     OW31315   4.099   3.308   2.667
10139SOL    HW131316   4.052   3.254   2.737
10139SOL    HW231317   4.119   3.251   2.588
10140SOL     OW31318   6.152   6.112   5.996
10140SOL    HW131319   6.113   6.105   5.904
10140SOL    HW231320   6.181   6.206   6.013
10141SOL     OW31321   3.213   2.114   4.518
10141SOL    HW131322   3.152   2.138   4.442
10141SOL    HW231323   3.178   2.154   4.603
10142SOL     OW31324   5.356   6.312   5.300
10142SOL    HW131325   5.427   6.357   5.355
10142SOL    HW231326   5.343   6.363   5.215
10143SOL     OW31327   4.793   0.139   1.425
10143SOL    HW131328   4.706   0.124   1.471
10143SOL    HW231329   4.857   0.185   1.487
10144SOL     OW31330   4.337   6.059   6.038
10144SOL    HW131331   4.322   6.010   5.953
10144SOL    HW231332   4.278   6.020   6.110
10145SOL     OW31333   3.056   6.409   5.862
10145SOL    HW131334   3.033   6.347   5.787
10145SOL    HW231335   3.017   6.499   5.844
10146SOL     OW31336   3.624   5.186   5.364
10146SOL    HW131337   3.652   5.138   5.446
10146SOL    HW231338   3.704   5.212   5.310
10147SOL     OW31339   5.318   4.795   4.584
10147SOL    HW131340   5.330   4.698   4.565
10147SOL    HW231341   5.281   4.807   4.676
10148SOL     OW31342   6.336   5.249   6.971
10148SOL    HW131343   6.424   5.201   6.968
10148SOL    HW231344   6.267   5.189   7.011
10149SOL     OW31345   4.930   2.179   0.277
10149SOL    HW131346   4.846   2.233   0.287
10149SOL    HW231347   5.002   2.236   0.237
10150SOL     OW31348   4.937   3.988   0.598
10150SOL    HW131349   4.999   4.046   0.651
10150SOL    HW231350   4.927   4.026   0.506
10151SOL     OW31351   1.473   0.396   5.977
10151SOL    HW131352   1.401   0.335   5.943
10151SOL    HW231353   1.508   0.360   6.063
10152SOL     OW31354   1.798   5.901   4.061
10152SOL    HW131355   1.743   5.840   4.118
10152SOL    HW231356   1.739   5.949   3.996
10153SOL     OW31357   4.400   5.801   4.027
10153SOL    HW131358   4.367   5.783   3.934
10153SOL    HW231359   4.491   5.841   4.024
10154SOL     OW31360   5.932   6.822   5.614
10154SOL    HW131361   5.851   6.879   5.599
10154SOL    HW231362   5.938   6.753   5.541
10155SOL     OW31363   4.240   1.739   5.784
10155SOL    HW131364   4.303   1.804   5.742
10155SOL    HW231365   4.156   1.735   5.731
10156SOL     OW31366   6.187   0.245   1.770
10156SOL    HW131367   6.157   0.162   1.725
10156SOL    HW231368   6.164   0.325   1.714
10157SOL     OW31369   5.655   2.121   5.763
10157SOL    HW131370   5.621   2.081   5.678
10157SOL    HW231371   5.657   2.051   5.834
10158SOL     OW31372   4.442   3.757   6.970
10158SOL    HW131373   4.386   3.723   6.894
10158SOL    HW231374   4.536   3.723   6.960
10159SOL     OW31375   2.751   3.401   6.468
10159SOL    HW131376   2.841   3.430   6.499
10159SOL    HW231377   2.710   3.474   6.414
10160SOL     OW31378   1.004   4.393   2.466
10160SOL    HW131379   0.990   4.352   2.556
10160SOL    HW231380   1.013   4.320   2.398
10161SOL     OW31381   3.340   4.644   0.481
10161SOL    HW131382   3.280   4.591   0.542
10161SOL    HW231383   3.332   4.741   0.503
10162SOL     OW31384   2.936   4.342   0.698
10162SOL    HW131385   2.945   4.242   0.697
10162SOL    HW231386   2.843   4.367   0.723
10163SOL     OW31387   5.814   4.164   6.512
10163SOL    HW131388   5.744   4.149   6.443
10163SOL    HW231389   5.886   4.222   6.475
10164SOL     OW31390   6.062   3.177   5.086
10164SOL    HW131391   6.086   3.084   5.113
10164SOL    HW231392   6.126   3.242   5.128
10165SOL     OW31393   1.834   2.264   3.959
10165SOL    HW131394   1.893   2.288   3.882
10165SOL    HW231395   1.890   2.233   4.036
10166SOL     OW31396   3.536   0.846   1.946
10166SOL    HW131397   3.606   0.917   1.945
10166SOL    HW231398   3.564   0.771   1.886
10167SOL     OW31399   4.164   1.559   6.482
10167SOL    HW131400   4.193   1.469   6.449
10167SOL    HW231401   4.195   1.629   6.419
10168SOL     OW31402   6.880   3.866   4.674
10168SOL    HW131403   6.937   3.940   4.640
10168SOL    HW231404   6.933   3.807   4.734
10169SOL     OW31405   6.683   3.878   3.193
10169SOL    HW131406   6.725   3.944   3.254
10169SOL    HW231407   6.610   3.829   3.241
10170SOL     OW31408   0.759   4.266   6.062
10170SOL    HW131409   0.673   4.234   6.102
10170SOL    HW231410   0.779   4.213   5.980
10171SOL     OW31411   6.352   3.889   6.507
10171SOL    HW131412   6.373   3.868   6.411
10171SOL    HW231413   6.269   3.943   6.512
10172SOL     OW31414   6.098   6.734   3.357
10172SOL    HW131415   6.171   6.776   3.303
10172SOL    HW231416   6.095   6.777   3.447
10173SOL     OW31417   1.566   2.470   0.818
10173SOL    HW131418   1.603   2.527   0.745
10173SOL    HW231419   1.467   2.482   0.823
10174SOL     OW31420   5.671   5.076   1.852
10174SOL    HW131421   5.605   5.146   1.878
10174SOL    HW231422   5.623   5.000   1.808
10175SOL     OW31423   6.623   2.492   3.843
10175SOL    HW131424   6.542   2.491   3.783
10175SOL    HW231425   6.599   2.456   3.933
10176SOL     OW31426   1.278   3.709   5.492
10176SOL    HW131427   1.219   3.779   5.451
10176SOL    HW231428   1.359   3.752   5.532
10177SOL     OW31429   2.333   0.454   0.155
10177SOL    HW131430   2.365   0.488   0.067
10177SOL    HW231431   2.391   0.490   0.228
10178SOL     OW31432   6.488   3.011   4.961
10178SOL    HW131433   6.552   2.957   5.017
10178SOL    HW231434   6.536   3.046   4.881
10179SOL     OW31435   1.173   1.721   5.722
10179SOL    HW131436   1.097   1.727   5.786
10179SOL    HW231437   1.139   1.729   5.629
10180SOL     OW31438   4.232   6.310   6.796
10180SOL    HW131439   4.284   6.347   6.873
10180SOL    HW231440   4.158   6.253   6.830
10181SOL     OW31441   4.940   3.385   1.998
10181SOL    HW131442   5.011   3.429   2.053
10181SOL    HW231443   4.906   3.304   2.047
10182SOL     OW31444   5.610   1.709   2.334
10182SOL    HW131445   5.516   1.680   2.353
10182SOL    HW231446   5.634   1.785   2.394
10183SOL     OW31447   0.781   2.029   6.208
10183SOL    HW131448   0.729   2.084   6.273
10183SOL    HW231449   0.822   2.089   6.139
10184SOL     OW31450   4.572   1.230   6.097
10184SOL    HW131451   4.548   1.167   6.172
10184SOL    HW231452   4.628   1.305   6.133
10185SOL     OW31453   5.184   5.840   1.451
10185SOL    HW131454   5.216   5.881   1.365
10185SOL    HW231455   5.131   5.757   1.431
10186SOL     OW31456   5.747   3.302   2.921
10186SOL    HW131457   5.673   3.234   2.919
10186SOL    HW231458   5.763   3.330   3.016
10187SOL     OW31459   0.565   1.956   1.445
10187SOL    HW131460   0.618   1.895   1.504
10187SOL    HW231461   0.623   2.033   1.416
10188SOL     OW31462   3.828   6.322   0.676
10188SOL    HW131463   3.772   6.331   0.757
10188SOL    HW231464   3.838   6.225   0.653
10189SOL     OW31465   2.342   0.812   5.040
10189SOL    HW131466   2.351   0.898   5.090
10189SOL    HW231467   2.432   0.783   5.008
10190SOL     OW31468   5.006   2.758   1.379
10190SOL    HW131469   4.979   2.664   1.360
10190SOL    HW231470   4.953   2.820   1.321
10191SOL     OW31471   4.430   4.187   6.854
10191SOL    HW131472   4.459   4.234   6.770
10191SOL    HW231473   4.396   4.096   6.830
10192SOL     OW31474   4.569   0.892   5.345
10192SOL    HW131475   4.625   0.973   5.356
10192SOL    HW231476   4.614   0.814   5.388
10193SOL     OW31477   4.329   3.815   1.727
10193SOL    HW131478   4.416   3.766   1.721
10193SOL    HW231479   4.258   3.754   1.762
10194SOL     OW31480   6.193   4.751   5.010
10194SOL    HW131481   6.202   4.840   5.056
10194SOL    HW231482   6.156   4.764   4.918
10195SOL     OW31483   6.212   4.440   1.247
10195SOL    HW131484   6.170   4.392   1.169
10195SOL    HW231485   6.251   4.526   1.216
10196SOL     OW31486   5.357   1.605   4.707
10196SOL    HW131487   5.258   1.602   4.721
10196SOL    HW231488   5.394   1.512   4.714
10197SOL     OW31489   0.039   2.035   4.851
10197SOL    HW131490   6.963   2.008   4.855
10197SOL    HW231491   0.046   2.134   4.852
10198SOL     OW31492   4.046   0.616   1.621
10198SOL    HW131493   4.037   0.523   1.658
10198SOL    HW231494   3.956   0.653   1.601
10199SOL     OW31495   2.188   3.075   6.464
10199SOL    HW131496   2.093   3.047   6.478
10199SOL    HW231497   2.198   3.119   6.375
10200SOL     OW31498   4.913   2.338   0.995
10200SOL    HW131499   4.894   2.308   1.089
10200SOL    HW231500   4.860   2.283   0.931
10201SOL     OW31501   0.636   4.722   0.803
10201SOL    HW131502   0.686   4.640   0.830
10201SOL    HW231503   0.606   4.770   0.886
10202SOL     OW31504   3.902   2.088   6.302
10202SOL    HW131505   3.826   2.116   6.359
10202SOL    HW231506   3.868   2.034   6.225
10203SOL     OW31507   5.757   2.931   4.075
10203SOL    HW131508   5.726   2.989   4.000
10203SOL    HW231509   5.677   2.891   4.121
10204SOL     OW31510   5.694   0.001   6.805
10204SOL    HW131511   5.731   0.091   6.828
10204SOL    HW231512   5.718   6.998   6.710
10205SOL     OW31513   0.418   1.741   0.716
10205SOL    HW131514   0.439   1.816   0.779
10205SOL    HW231515   0.475   1.751   0.634
10206SOL     OW31516   0.872   0.600   5.809
10206SOL    HW131517   0.966   0.601   5.775
10206SOL    HW231518   0.823   0.522   5.770
10207SOL     OW31519   1.050   1.935   6.635
10207SOL    HW131520   1.010   1.995   6.704
10207SOL    HW231521   1.058   1.986   6.548
10208SOL     OW31522   5.609   5.126   3.698
10208SOL    HW131523   5.524   5.139   3.749
10208SOL    HW231524   5.681   5.185   3.736
10209SOL     OW31525   6.714   6.937   5.991
10209SOL    HW131526   6.778   6.946   6.067
10209SOL    HW231527   6.641   6.873   6.016
10210SOL     OW31528   4.666   6.427   1.334
10210SOL    HW131529   4.650   6.330   1.318
10210SOL    HW231530   4.612   6.481   1.271
10211SOL     OW31531   3.425   6.830   4.646
10211SOL    HW131532   3.456   6.884   4.568
10211SOL    HW231533   3.430   6.733   4.625
10212SOL     OW31534   1.034   0.316   4.902
10212SOL    HW131535   0.945   0.320   4.855
10212SOL    HW231536   1.021   0.334   4.999
10213SOL     OW31537   4.402   3.035   1.208
10213SOL    HW131538   4.432   2.956   1.155
10213SOL    HW231539   4.438   3.027   1.302
10214SOL     OW31540   1.103   2.265   1.602
10214SOL    HW131541   1.014   2.240   1.641
10214SOL    HW231542   1.176   2.218   1.652
10215SOL     OW31543   4.052   3.339   3.078
10215SOL    HW131544   3.958   3.355   3.109
10215SOL    HW231545   4.112   3.328   3.157
10216SOL     OW31546   6.651   0.697   1.256
10216SOL    HW131547   6.717   0.755   1.304
10216SOL    HW231548   6.566   0.748   1.243
10217SOL     OW31549   2.443   0.760   3.523
10217SOL    HW131550   2.452   0.808   3.436
10217SOL    HW231551   2.533   0.730   3.553
10218SOL     OW31552   1.280   3.460   1.853
10218SOL    HW131553   1.258   3.513   1.934
10218SOL    HW231554   1.314   3.521   1.781
10219SOL     OW31555   0.230   1.731   2.198
10219SOL    HW131556   0.227   1.804   2.267
10219SOL    HW231557   0.322   1.692   2.195
10220SOL     OW31558   3.725   3.119   1.223
10220SOL    HW131559   3.645   3.096   1.278
10220SOL    HW231560   3.806   3.124   1.282
10221SOL     OW31561   0.911   5.423   2.959
10221SOL    HW131562   0.863   5.494   3.009
10221SOL    HW231563   0.847   5.374   2.900
10222SOL     OW31564   2.928   3.738   5.015
10222SOL    HW131565   2.994   3.754   4.941
10222SOL    HW231566   2.908   3.640   5.021
10223SOL     OW31567   0.269   5.416   0.957
10223SOL    HW131568   0.213   5.477   0.901
10223SOL    HW231569   0.266   5.445   1.052
10224SOL     OW31570   5.786   3.230   3.402
10224SOL    HW131571   5.829   3.150   3.443
10224SOL    HW231572   5.757   3.293   3.475
10225SOL     OW31573   1.633   4.236   5.780
10225SOL    HW131574   1.636   4.136   5.785
10225SOL    HW231575   1.541   4.269   5.800
10226SOL     OW31576   3.526   1.048   0.131
10226SOL    HW131577   3.582   1.023   0.052
10226SOL    HW231578   3.562   1.004   0.213
10227SOL     OW31579   5.220   3.679   0.706
10227SOL    HW131580   5.268   3.714   0.626
10227SOL    HW231581   5.205   3.753   0.772
10228SOL     OW31582   6.764   0.479   0.357
10228SOL    HW131583   6.855   0.446   0.333
10228SOL    HW231584   6.761   0.499   0.455
10229SOL     OW31585   0.233   3.655   5.011
10229SOL    HW131586   0.174   3.665   5.091
10229SOL    HW231587   0.301   3.584   5.029
10230SOL     OW31588   6.390   5.437   2.358
10230SOL    HW131589   6.392   5.535   2.374
10230SOL    HW231590   6.367   5.419   2.262
10231SOL     OW31591   1.627   5.988   3.871
10231SOL    HW131592   1.588   6.079   3.860
10231SOL    HW231593   1.708   5.980   3.812
10232SOL     OW31594   2.973   0.980   3.294
10232SOL    HW131595   2.964   1.079   3.290
10232SOL    HW231596   2.919   0.944   3.370
10233SOL     OW31597   3.866   4.014   5.717
10233SOL    HW131598   3.897   3.993   5.810
10233SOL    HW231599   3.876   4.112   5.699
10234SOL     OW31600   5.633   0.011   0.767
10234SOL    HW131601   5.688   6.983   0.698
10234SOL    HW231602   5.691   0.039   0.843
10235SOL     OW31603   1.153   1.502   3.061
10235SOL    HW131604   1.185   1.410   3.084
10235SOL    HW231605   1.216   1.543   2.995
10236SOL     OW31606   2.413   6.749   0.111
10236SOL    HW131607   2.445   6.657   0.091
10236SOL    HW231608   2.369   6.750   0.201
10237SOL     OW31609   0.259   3.205   0.027
10237SOL    HW131610   0.234   3.117   7.005
10237SOL    HW231611   0.178   3.247   0.067
10238SOL     OW31612   4.381   5.172   1.144
10238SOL    HW131613   4.461   5.190   1.201
10238SOL    HW231614   4.386   5.079   1.107
10239SOL     OW31615   1.515   2.682   4.725
10239SOL    HW131616   1.612   2.667   4.703
10239SOL    HW231617   1.507   2.709   4.822
10240SOL     OW31618   2.381   0.101   1.928
10240SOL    HW131619   2.448   0.175   1.932
10240SOL    HW231620   2.364   0.076   1.832
10241SOL     OW31621   5.165   1.629   1.889
10241SOL    HW131622   5.220   1.634   1.805
10241SOL    HW231623   5.153   1.721   1.926
10242SOL     OW31624   0.318   2.143   1.199
10242SOL    HW131625   0.324   2.185   1.108
10242SOL    HW231626   0.309   2.214   1.268
10243SOL     OW31627   2.145   4.724   1.284
10243SOL    HW131628   2.221   4.752   1.342
10243SOL    HW231629   2.099   4.644   1.325
10244SOL     OW31630   2.191   3.946   1.421
10244SOL    HW131631   2.169   3.858   1.379
10244SOL    HW231632   2.107   3.999   1.433
10245SOL     OW31633   3.434   4.012   0.810
10245SOL    HW131634   3.407   3.920   0.837
10245SOL    HW231635   3.411   4.027   0.714
10246SOL     OW31636   3.018   3.155   4.509
10246SOL    HW131637   3.018   3.156   4.409
10246SOL    HW231638   2.943   3.210   4.543
10247SOL     OW31639   0.945   4.616   4.927
10247SOL    HW131640   1.019   4.642   4.864
10247SOL    HW231641   0.882   4.554   4.880
10248SOL     OW31642   1.329   6.694   3.624
10248SOL    HW131643   1.357   6.737   3.710
10248SOL    HW231644   1.230   6.707   3.611
10249SOL     OW31645   1.824   4.764   6.866
10249SOL    HW131646   1.838   4.746   6.963
10249SOL    HW231647   1.909   4.745   6.816
10250SOL     OW31648   6.006   3.090   0.705
10250SOL    HW131649   6.063   3.035   0.766
10250SOL    HW231650   5.951   3.153   0.759
10251SOL     OW31651   1.775   0.258   3.951
10251SOL    HW131652   1.803   0.276   3.857
10251SOL    HW231653   1.793   0.162   3.973
10252SOL     OW31654   4.878   3.717   5.295
10252SOL    HW131655   4.805   3.661   5.255
10252SOL    HW231656   4.966   3.690   5.257
10253SOL     OW31657   4.177   6.738   0.212
10253SOL    HW131658   4.186   6.821   0.156
10253SOL    HW231659   4.085   6.733   0.249
10254SOL     OW31660   5.119   1.636   4.896
10254SOL    HW131661   5.105   1.565   4.826
10254SOL    HW231662   5.035   1.646   4.950
10255SOL     OW31663   2.642   5.900   1.233
10255SOL    HW131664   2.554   5.889   1.185
10255SOL    HW231665   2.709   5.941   1.171
10256SOL     OW31666   5.537   1.198   1.882
10256SOL    HW131667   5.521   1.113   1.931
10256SOL    HW231668   5.498   1.274   1.933
10257SOL     OW31669   2.952   4.823   3.350
10257SOL    HW131670   2.967   4.894   3.281
10257SOL    HW231671   3.022   4.830   3.421
10258SOL     OW31672   3.396   2.141   3.016
10258SOL    HW131673   3.368   2.123   3.110
10258SOL    HW231674   3.487   2.181   3.015
10259SOL     OW31675   1.251   4.317   4.016
10259SOL    HW131676   1.267   4.251   4.090
10259SOL    HW231677   1.220   4.404   4.055
10260SOL     OW31678   1.458   1.152   3.617
10260SOL    HW131679   1.387   1.126   3.551
10260SOL    HW231680   1.457   1.089   3.694
10261SOL     OW31681   0.611   3.785   0.741
10261SOL    HW131682   0.600   3.695   0.783
10261SOL    HW231683   0.594   3.779   0.643
10262SOL     OW31684   3.981   0.768   6.520
10262SOL    HW131685   4.034   0.819   6.587
10262SOL    HW231686   4.036   0.691   6.486
10263SOL     OW31687   5.999   0.813   0.483
10263SOL    HW131688   5.990   0.903   0.440
10263SOL    HW231689   6.022   0.825   0.580
10264SOL     OW31690   6.049   4.817   6.240
10264SOL    HW131691   6.092   4.734   6.277
10264SOL    HW231692   5.954   4.798   6.217
10265SOL     OW31693   1.897   2.496   0.692
10265SOL    HW131694   1.948   2.495   0.606
10265SOL    HW231695   1.802   2.472   0.675
10266SOL     OW31696   3.251   2.968   3.234
10266SOL    HW131697   3.261   2.922   3.146
10266SOL    HW231698   3.326   2.942   3.295
10267SOL     OW31699   5.328   0.975   0.692
10267SOL    HW131700   5.387   1.054   0.709
10267SOL    HW231701   5.232   1.002   0.707
10268SOL     OW31702   5.741   6.708   1.658
10268SOL    HW131703   5.746   6.769   1.578
10268SOL    HW231704   5.833   6.686   1.689
10269SOL     OW31705   1.409   2.623   6.702
10269SOL    HW131706   1.324   2.595   6.747
10269SOL    HW231707   1.394   2.631   6.604
10270SOL     OW31708   3.360   6.252   2.240
10270SOL    HW131709   3.333   6.324   2.304
10270SOL    HW231710   3.434   6.198   2.281
10271SOL     OW31711   2.904   2.283   0.923
10271SOL    HW131712   2.914   2.357   0.989
10271SOL    HW231713   2.978   2.217   0.936
10272SOL     OW31714   6.844   1.110   4.361
10272SOL    HW131715   6.750   1.138   4.382
10272SOL    HW231716   6.869   1.143   4.270
10273SOL     OW31717   3.051   5.138   4.375
10273SOL    HW131718   3.030   5.044   4.350
10273SOL    HW231719   3.127   5.140   4.440
10274SOL     OW31720   0.405   5.304   5.588
10274SOL    HW131721   0.352   5.374   5.541
10274SOL    HW231722   0.485   5.345   5.632
10275SOL     OW31723   0.147   0.925   2.942
10275SOL    HW131724   0.062   0.909   2.993
10275SOL    HW231725   0.213   0.854   2.963
10276SOL     OW31726   4.379   5.517   5.547
10276SOL    HW131727   4.447   5.586   5.521
10276SOL    HW231728   4.425   5.434   5.578
10277SOL     OW31729   1.083   0.072   4.416
10277SOL    HW131730   1.036   0.027   4.492
10277SOL    HW231731   1.034   0.155   4.391
10278SOL     OW31732   0.018   0.682   4.855
10278SOL    HW131733   0.044   0.587   4.870
10278SOL    HW231734   0.091   0.742   4.889
10279SOL     OW31735   2.474   5.778   4.275
10279SOL    HW131736   2.375   5.781   4.275
10279SOL    HW231737   2.506   5.703   4.217
10280SOL     OW31738   5.480   3.632   0.558
10280SOL    HW131739   5.393   3.629   0.508
10280SOL    HW231740   5.493   3.546   0.607
10281SOL     OW31741   0.080   2.496   3.287
10281SOL    HW131742   0.006   2.538   3.235
10281SOL    HW231743   0.168   2.532   3.255
10282SOL     OW31744   5.120   3.165   3.280
10282SOL    HW131745   5.143   3.086   3.336
10282SOL    HW231746   5.115   3.247   3.337
10283SOL     OW31747   0.348   3.344   1.141
10283SOL    HW131748   0.375   3.317   1.049
10283SOL    HW231749   0.408   3.416   1.174
10284SOL     OW31750   0.077   2.247   4.037
10284SOL    HW131751   0.092   2.149   4.051
10284SOL    HW231752   7.018   2.277   4.091
10285SOL     OW31753   4.249   6.996   3.229
10285SOL    HW131754   4.177   6.994   3.160
10285SOL    HW231755   4.214   6.959   3.315
10286SOL     OW31756   3.065   1.031   3.618
10286SOL    HW131757   3.098   1.120   3.586
10286SOL    HW231758   2.995   0.997   3.556
10287SOL     OW31759   1.606   5.816   1.870
10287SOL    HW131760   1.628   5.735   1.924
10287SOL    HW231761   1.591   5.790   1.775
10288SOL     OW31762   3.222   0.017   4.851
10288SOL    HW131763   3.194   6.958   4.796
10288SOL    HW231764   3.318   0.007   4.876
10289SOL     OW31765   3.313   6.050   0.837
10289SOL    HW131766   3.230   6.095   0.871
10289SOL    HW231767   3.290   5.993   0.758
10290SOL     OW31768   3.054   3.376   2.496
10290SOL    HW131769   3.033   3.279   2.497
10290SOL    HW231770   2.972   3.429   2.516
10291SOL     OW31771   3.401   1.220   3.368
10291SOL    HW131772   3.447   1.134   3.347
10291SOL    HW231773   3.422   1.247   3.462
10292SOL     OW31774   0.458   1.399   5.899
10292SOL    HW131775   0.501   1.340   5.831
10292SOL    HW231776   0.363   1.371   5.913
10293SOL     OW31777   0.706   3.547   3.576
10293SOL    HW131778   0.681   3.588   3.664
10293SOL    HW231779   0.719   3.448   3.588
10294SOL     OW31780   3.670   1.813   2.848
10294SOL    HW131781   3.574   1.833   2.867
10294SOL    HW231782   3.679   1.783   2.753
10295SOL     OW31783   0.864   2.610   6.180
10295SOL    HW131784   0.895   2.535   6.121
10295SOL    HW231785   0.887   2.697   6.137
10296SOL     OW31786   5.665   1.017   5.913
10296SOL    HW131787   5.584   1.032   5.971
10296SOL    HW231788   5.640   0.959   5.836
10297SOL     OW31789   2.594   1.474   0.046
10297SOL    HW131790   2.514   1.533   0.038
10297SOL    HW231791   2.669   1.524   0.090
10298SOL     OW31792   1.552   4.496   2.134
10298SOL    HW131793   1.509   4.566   2.077
10298SOL    HW231794   1.507   4.408   2.117
10299SOL     OW31795   4.604   6.729   2.389
10299SOL    HW131796   4.577   6.679   2.307
10299SOL    HW231797   4.536   6.715   2.461
10300SOL     OW31798   1.068   4.113   1.790
10300SOL    HW131799   1.106   4.033   1.837
10300SOL    HW231800   1.068   4.097   1.691
10301SOL     OW31801   4.382   1.868   5.237
10301SOL    HW131802   4.427   1.843   5.152
10301SOL    HW231803   4.448   1.865   5.312
10302SOL     OW31804   2.767   6.401   4.113
10302SOL    HW131805   2.816   6.484   4.086
10302SOL    HW231806   2.692   6.385   4.049
10303SOL     OW31807   0.913   5.810   3.833
10303SOL    HW131808   0.959   5.857   3.758
10303SOL    HW231809   0.925   5.711   3.823
10304SOL     OW31810   6.102   0.118   0.835
10304SOL    HW131811   6.083   0.090   0.929
10304SOL    HW231812   6.041   0.068   0.773
10305SOL     OW31813   3.046   4.120   5.774
10305SOL    HW131814   3.140   4.145   5.752
10305SOL    HW231815   3.045   4.038   5.831
10306SOL     OW31816   5.108   6.285   0.759
10306SOL    HW131817   5.179   6.280   0.829
10306SOL    HW231818   5.021   6.307   0.802
10307SOL     OW31819   3.218   1.770   4.476
10307SOL    HW131820   3.188   1.675   4.484
10307SOL    HW231821   3.228   1.810   4.567
10308SOL     OW31822   2.158   4.106   2.668
10308SOL    HW131823   2.085   4.086   2.733
10308SOL    HW231824   2.164   4.032   2.600
10309SOL     OW31825   6.417   0.930   5.815
10309SOL    HW131826   6.450   0.933   5.910
10309SOL    HW231827   6.322   0.961   5.811
10310SOL     OW31828   2.907   3.752   0.088
10310SOL    HW131829   2.992   3.742   0.037
10310SOL    HW231830   2.902   3.681   0.158
10311SOL     OW31831   6.401   5.104   0.334
10311SOL    HW131832   6.450   5.067   0.413
10311SOL    HW231833   6.303   5.096   0.348
10312SOL     OW31834   4.892   0.841   2.182
10312SOL    HW131835   4.868   0.758   2.232
10312SOL    HW231836   4.815   0.904   2.181
10313SOL     OW31837   3.989   6.000   2.949
10313SOL    HW131838   4.000   6.048   2.861
10313SOL    HW231839   3.925   5.924   2.937
10314SOL     OW31840   0.403   0.334   0.032
10314SOL    HW131841   0.392   0.239   0.063
10314SOL    HW231842   0.324   0.361   6.998
10315SOL     OW31843   5.188   6.844   4.100
10315SOL    HW131844   5.227   6.900   4.173
10315SOL    HW231845   5.259   6.822   4.033
10316SOL     OW31846   6.182   2.566   6.002
10316SOL    HW131847   6.093   2.604   6.027
10316SOL    HW231848   6.254   2.617   6.049
10317SOL     OW31849   3.573   5.801   6.152
10317SOL    HW131850   3.660   5.827   6.194
10317SOL    HW231851   3.508   5.777   6.224
10318SOL     OW31852   4.915   0.617   6.243
10318SOL    HW131853   4.819   0.610   6.217
10318SOL    HW231854   4.955   0.698   6.201
10319SOL     OW31855   0.608   4.662   5.659
10319SOL    HW131856   0.525   4.609   5.641
10319SOL    HW231857   0.658   4.677   5.574
10320SOL     OW31858   6.890   6.237   3.050
10320SOL    HW131859   6.859   6.302   3.119
10320SOL    HW231860   6.963   6.181   3.088
10321SOL     OW31861   5.863   2.094   2.431
10321SOL    HW131862   5.842   2.043   2.514
10321SOL    HW231863   5.935   2.046   2.380
10322SOL     OW31864   4.106   5.067   4.857
10322SOL    HW131865   4.112   5.125   4.938
10322SOL    HW231866   4.055   5.116   4.786
10323SOL     OW31867   6.215   5.244   5.110
10323SOL    HW131868   6.245   5.214   5.020
10323SOL    HW231869   6.294   5.274   5.163
10324SOL     OW31870   3.235   3.535   2.654
10324SOL    HW131871   3.177   3.487   2.589
10324SOL    HW231872   3.252   3.476   2.733
10325SOL     OW31873   0.383   5.245   2.676
10325SOL    HW131874   0.335   5.264   2.762
10325SOL    HW231875   0.452   5.175   2.693
10326SOL     OW31876   5.760   3.963   6.715
10326SOL    HW131877   5.806   4.011   6.641
10326SOL    HW231878   5.818   3.888   6.748
10327SOL     OW31879   2.487   3.392   1.599
10327SOL    HW131880   2.413   3.419   1.661
10327SOL    HW231881   2.520   3.300   1.623
10328SOL     OW31882   6.400   2.841   2.033
10328SOL    HW131883   6.324   2.871   2.090
10328SOL    HW231884   6.439   2.919   1.984
10329SOL     OW31885   2.950   0.693   2.936
10329SOL    HW131886   2.996   0.653   3.015
10329SOL    HW231887   2.889   0.625   2.894
10330SOL     OW31888   4.609   0.610   1.587
10330SOL    HW131889   4.599   0.546   1.511
10330SOL    HW231890   4.518   0.635   1.622
10331SOL     OW31891   6.350   5.879   6.549
10331SOL    HW131892   6.307   5.833   6.471
10331SOL    HW231893   6.292   5.868   6.630
10332SOL     OW31894   0.719   0.234   6.354
10332SOL    HW131895   0.630   0.189   6.364
10332SOL    HW231896   0.773   0.186   6.286
10333SOL     OW31897   0.220   5.814   4.790
10333SOL    HW131898   0.255   5.892   4.842
10333SOL    HW231899   0.291   5.744   4.784
10334SOL     OW31900   3.267   0.179   4.374
10334SOL    HW131901   3.217   0.229   4.304
10334SOL    HW231902   3.256   0.081   4.360
10335SOL     OW31903   1.622   4.381   6.400
10335SOL    HW131904   1.600   4.478   6.385
10335SOL    HW231905   1.704   4.374   6.457
10336SOL     OW31906   6.637   6.801   2.119
10336SOL    HW131907   6.722   6.788   2.069
10336SOL    HW231908   6.592   6.713   2.133
10337SOL     OW31909   0.264   5.445   6.747
10337SOL    HW131910   0.251   5.543   6.765
10337SOL    HW231911   0.360   5.421   6.762
10338SOL     OW31912   1.276   6.618   2.139
10338SOL    HW131913   1.221   6.598   2.058
10338SOL    HW231914   1.308   6.533   2.180
10339SOL     OW31915   6.419   3.244   6.383
10339SOL    HW131916   6.390   3.194   6.302
10339SOL    HW231917   6.340   3.289   6.425
10340SOL     OW31918   1.783   2.381   6.878
10340SOL    HW131919   1.764   2.317   6.953
10340SOL    HW231920   1.701   2.435   6.859
10341SOL     OW31921   2.097   3.318   2.194
10341SOL    HW131922   2.050   3.245   2.145
10341SOL    HW231923   2.154   3.370   2.131
10342SOL     OW31924   1.524   0.499   3.582
10342SOL    HW131925   1.517   0.465   3.675
10342SOL    HW231926   1.597   0.451   3.534
10343SOL     OW31927   2.815   5.388   0.909
10343SOL    HW131928   2.880   5.342   0.849
10343SOL    HW231929   2.855   5.473   0.943
10344SOL     OW31930   3.692   3.971   0.202
10344SOL    HW131931   3.593   3.959   0.198
10344SOL    HW231932   3.722   4.021   0.121
10345SOL     OW31933   1.582   3.144   5.495
10345SOL    HW131934   1.491   3.182   5.511
10345SOL    HW231935   1.623   3.119   5.583
10346SOL     OW31936   6.760   5.285   1.189
10346SOL    HW131937   6.776   5.334   1.103
10346SOL    HW231938   6.846   5.247   1.223
10347SOL     OW31939   4.698   1.255   3.195
10347SOL    HW131940   4.701   1.220   3.288
10347SOL    HW231941   4.741   1.190   3.133
10348SOL     OW31942   5.844   2.170   0.551
10348SOL    HW131943   5.853   2.269   0.559
10348SOL    HW231944   5.784   2.148   0.474
10349SOL     OW31945   0.284   0.142   6.629
10349SOL    HW131946   0.352   0.071   6.614
10349SOL    HW231947   0.328   0.224   6.666
10350SOL     OW31948   2.806   5.683   5.219
10350SOL    HW131949   2.848   5.746   5.153
10350SOL    HW231950   2.802   5.727   5.309
10351SOL     OW31951   5.011   5.041   6.438
10351SOL    HW131952   4.996   5.102   6.516
10351SOL    HW231953   4.989   5.089   6.353
10352SOL     OW31954   3.373   0.837   6.255
10352SOL    HW131955   3.428   0.919   6.242
10352SOL    HW231956   3.433   0.758   6.265
10353SOL     OW31957   6.585   3.107   4.722
10353SOL    HW131958   6.542   3.124   4.634
10353SOL    HW231959   6.683   3.090   4.708
10354SOL     OW31960   5.865   0.863   1.147
10354SOL    HW131961   5.938   0.924   1.178
10354SOL    HW231962   5.789   0.917   1.114
10355SOL     OW31963   2.648   6.239   1.998
10355SOL    HW131964   2.563   6.290   2.007
10355SOL    HW231965   2.645   6.184   1.914
10356SOL     OW31966   0.015   4.227   6.442
10356SOL    HW131967   6.968   4.245   6.370
10356SOL    HW231968   0.022   4.307   6.501
10357SOL     OW31969   2.156   2.470   6.185
10357SOL    HW131970   2.216   2.543   6.155
10357SOL    HW231971   2.061   2.493   6.163
10358SOL     OW31972   6.693   2.730   2.739
10358SOL    HW131973   6.664   2.711   2.646
10358SOL    HW231974   6.787   2.699   2.752
10359SOL     OW31975   0.385   1.237   1.152
10359SOL    HW131976   0.382   1.151   1.101
10359SOL    HW231977   0.418   1.221   1.244
10360SOL     OW31978   4.592   5.230   3.147
10360SOL    HW131979   4.516   5.194   3.201
10360SOL    HW231980   4.618   5.163   3.077
10361SOL     OW31981   2.694   5.779   2.506
10361SOL    HW131982   2.623   5.815   2.566
10361SOL    HW231983   2.656   5.764   2.414
10362SOL     OW31984   1.432   5.121   4.573
10362SOL    HW131985   1.429   5.039   4.516
10362SOL    HW231986   1.500   5.108   4.646
10363SOL     OW31987   4.891   0.943   3.301
10363SOL    HW131988   4.869   0.999   3.381
10363SOL    HW231989   4.893   1.000   3.219
10364SOL     OW31990   2.565   3.743   1.292
10364SOL    HW131991   2.532   3.831   1.325
10364SOL    HW231992   2.651   3.721   1.337
10365SOL     OW31993   4.046   5.465   0.274
10365SOL    HW131994   4.044   5.563   0.256
10365SOL    HW231995   4.073   5.416   0.191
10366SOL     OW31996   2.770   0.122   3.793
10366SOL    HW131997   2.701   0.161   3.732
10366SOL    HW231998   2.727   0.093   3.878
10367SOL     OW31999   5.890   1.687   2.894
10367SOL    HW132000   5.883   1.601   2.946
10367SOL    HW232001   5.819   1.750   2.925
10368SOL     OW32002   2.923   1.264   1.573
10368SOL    HW132003   2.985   1.189   1.552
10368SOL    HW232004   2.850   1.267   1.504
10369SOL     OW32005   3.794   1.313   0.617
10369SOL    HW132006   3.802   1.217   0.645
10369SOL    HW232007   3.699   1.334   0.596
10370SOL     OW32008   4.348   0.865   5.192
10370SOL    HW132009   4.429   0.878   5.249
10370SOL    HW232010   4.337   0.945   5.132
10371SOL     OW32011   3.979   5.669   5.733
10371SOL    HW132012   3.902   5.625   5.686
10371SOL    HW232013   4.029   5.725   5.667
10372SOL     OW32014   2.434   1.042   4.558
10372SOL    HW132015   2.519   1.093   4.556
10372SOL    HW232016   2.428   0.991   4.644
10373SOL     OW32017   1.052   6.759   4.802
10373SOL    HW132018   1.010   6.826   4.740
10373SOL    HW232019   1.146   6.787   4.823
10374SOL     OW32020   2.515   1.769   3.522
10374SOL    HW132021   2.542   1.858   3.559
10374SOL    HW232022   2.514   1.773   3.422
10375SOL     OW32023   5.330   2.160   0.726
10375SOL    HW132024   5.335   2.247   0.774
10375SOL    HW232025   5.387   2.163   0.644
10376SOL     OW32026   0.081   1.438   3.802
10376SOL    HW132027   0.146   1.497   3.849
10376SOL    HW232028   7.008   1.467   3.823
10377SOL     OW32029   0.512   0.674   3.470
10377SOL    HW132030   0.491   0.581   3.438
10377SOL    HW232031   0.434   0.734   3.453
10378SOL     OW32032   6.954   0.390   5.674
10378SOL    HW132033   6.916   0.375   5.583
10378SOL    HW232034   6.949   0.305   5.726
10379SOL     OW32035   5.440   0.178   5.423
10379SOL    HW132036   5.439   0.265   5.472
10379SOL    HW232037   5.412   0.192   5.328
10380SOL     OW32038   5.654   0.649   2.713
10380SOL    HW132039   5.684   0.581   2.781
10380SOL    HW232040   5.559   0.630   2.687
10381SOL     OW32041   5.006   5.174   6.034
10381SOL    HW132042   5.105   5.177   6.046
10381SOL    HW232043   4.977   5.250   5.976
10382SOL     OW32044   2.629   5.489   5.763
10382SOL    HW132045   2.650   5.393   5.780
10382SOL    HW232046   2.649   5.512   5.668
10383SOL     OW32047   1.050   3.384   0.889
10383SOL    HW132048   1.061   3.361   0.792
10383SOL    HW232049   1.112   3.458   0.914
10384SOL     OW32050   6.916   0.429   1.095
10384SOL    HW132051   6.987   0.378   1.143
10384SOL    HW232052   6.832   0.427   1.150
10385SOL     OW32053   5.997   0.633   6.178
10385SOL    HW132054   5.900   0.613   6.186
10385SOL    HW232055   6.050   0.571   6.236
10386SOL     OW32056   6.485   3.323   4.964
10386SOL    HW132057   6.487   3.224   4.952
10386SOL    HW232058   6.416   3.347   5.032
10387SOL     OW32059   2.052   2.314   2.650
10387SOL    HW132060   2.025   2.394   2.704
10387SOL    HW232061   2.149   2.321   2.625
10388SOL     OW32062   1.378   4.835   3.070
10388SOL    HW132063   1.346   4.831   3.165
10388SOL    HW232064   1.381   4.930   3.040
10389SOL     OW32065   1.410   4.949   3.657
10389SOL    HW132066   1.440   5.042   3.678
10389SOL    HW232067   1.465   4.913   3.582
10390SOL     OW32068   1.460   3.281   3.191
10390SOL    HW132069   1.469   3.197   3.138
10390SOL    HW232070   1.547   3.329   3.192
10391SOL     OW32071   1.462   6.082   6.656
10391SOL    HW132072   1.509   6.028   6.725
10391SOL    HW232073   1.366   6.095   6.682
10392SOL     OW32074   6.114   5.000   0.329
10392SOL    HW132075   6.192   4.952   0.368
10392SOL    HW232076   6.031   4.945   0.339
10393SOL     OW32077   0.571   1.709   3.828
10393SOL    HW132078   0.612   1.779   3.886
10393SOL    HW232079   0.472   1.723   3.824
10394SOL     OW32080   2.879   6.634   6.896
10394SOL    HW132081   2.950   6.704   6.889
10394SOL    HW232082   2.810   6.649   6.825
10395SOL     OW32083   6.921   0.836   4.375
10395SOL    HW132084   6.855   0.772   4.336
10395SOL    HW232085   6.885   0.929   4.370
10396SOL     OW32086   0.579   0.177   4.464
10396SOL    HW132087   0.546   0.101   4.409
10396SOL    HW232088   0.548   0.167   4.558
10397SOL     OW32089   3.723   0.742   3.711
10397SOL    HW132090   3.772   0.807   3.769
10397SOL    HW232091   3.633   0.723   3.752
10398SOL     OW32092   6.079   2.793   1.175
10398SOL    HW132093   6.002   2.851   1.146
10398SOL    HW232094   6.153   2.850   1.210
10399SOL     OW32095   4.844   2.381   5.355
10399SOL    HW132096   4.859   2.469   5.402
10399SOL    HW232097   4.795   2.398   5.269
10400SOL     OW32098   2.796   5.584   2.655
10400SOL    HW132099   2.758   5.646   2.586
10400SOL    HW232100   2.797   5.629   2.744
10401SOL     OW32101   0.013   5.865   2.216
10401SOL    HW132102   6.993   5.941   2.267
10401SOL    HW232103   7.014   5.876   2.119
10402SOL     OW32104   0.957   3.524   5.009
10402SOL    HW132105   0.877   3.554   5.061
10402SOL    HW232106   1.032   3.589   5.023
10403SOL     OW32107   5.664   1.512   2.149
10403SOL    HW132108   5.590   1.504   2.081
10403SOL    HW232109   5.652   1.596   2.202
10404SOL     OW32110   0.462   6.663   4.000
10404SOL    HW132111   0.545   6.609   3.984
10404SOL    HW232112   0.467   6.748   3.947
10405SOL     OW32113   1.717   6.449   5.590
10405SOL    HW132114   1.690   6.383   5.520
10405SOL    HW232115   1.793   6.411   5.643
10406SOL     OW32116   2.907   4.409   6.160
10406SOL    HW132117   2.814   4.436   6.136
10406SOL    HW232118   2.961   4.396   6.077
10407SOL     OW32119   0.916   2.219   6.001
10407SOL    HW132120   0.984   2.293   6.003
10407SOL    HW232121   0.845   2.240   5.934
10408SOL     OW32122   4.999   5.047   3.483
10408SOL    HW132123   4.918   5.016   3.434
10408SOL    HW232124   4.981   5.047   3.582
10409SOL     OW32125   0.411   3.953   1.974
10409SOL    HW132126   0.510   3.945   1.988
10409SOL    HW232127   0.373   3.864   1.948
10410SOL     OW32128   5.244   0.723   1.175
10410SOL    HW132129   5.224   0.757   1.267
10410SOL    HW232130   5.159   0.711   1.124
10411SOL     OW32131   2.194   4.639   2.693
10411SOL    HW132132   2.096   4.655   2.689
10411SOL    HW232133   2.243   4.712   2.645
10412SOL     OW32134   1.449   2.144   0.453
10412SOL    HW132135   1.538   2.176   0.421
10412SOL    HW232136   1.460   2.088   0.535
10413SOL     OW32137   6.899   2.286   6.946
10413SOL    HW132138   6.893   2.386   6.939
10413SOL    HW232139   6.808   2.249   6.968
10414SOL     OW32140   5.328   6.242   6.732
10414SOL    HW132141   5.288   6.287   6.652
10414SOL    HW232142   5.361   6.151   6.707
10415SOL     OW32143   0.058   6.098   3.863
10415SOL    HW132144   0.052   6.191   3.898
10415SOL    HW232145   0.085   6.036   3.937
10416SOL     OW32146   5.500   2.068   4.869
10416SOL    HW132147   5.559   2.024   4.937
10416SOL    HW232148   5.415   2.016   4.861
10417SOL     OW32149   3.884   4.877   3.514
10417SOL    HW132150   3.792   4.913   3.497
10417SOL    HW232151   3.927   4.929   3.587
10418SOL     OW32152   6.867   4.117   6.932
10418SOL    HW132153   6.941   4.116   6.864
10418SOL    HW232154   6.786   4.073   6.894
10419SOL     OW32155   3.705   1.157   5.007
10419SOL    HW132156   3.633   1.227   5.003
10419SOL    HW232157   3.770   1.180   5.080
10420SOL     OW32158   6.990   3.259   3.541
10420SOL    HW132159   7.019   3.237   3.634
10420SOL    HW232160   6.981   3.174   3.488
10421SOL     OW32161   1.283   4.747   3.903
10421SOL    HW132162   1.250   4.821   3.844
10421SOL    HW232163   1.274   4.660   3.854
10422SOL     OW32164   6.687   3.781   4.516
10422SOL    HW132165   6.605   3.826   4.552
10422SOL    HW232166   6.767   3.808   4.569
10423SOL     OW32167   3.579   4.976   4.076
10423SOL    HW132168   3.520   4.903   4.042
10423SOL    HW232169   3.674   4.946   4.073
10424SOL     OW32170   3.452   0.768   7.011
10424SOL    HW132171   3.368   0.809   6.976
10424SOL    HW232172   3.521   0.840   0.003
10425SOL     OW32173   1.887   1.130   0.500
10425SOL    HW132174   1.829   1.198   0.546
10425SOL    HW232175   1.837   1.092   0.422
10426SOL     OW32176   5.966   2.236   6.045
10426SOL    HW132177   5.866   2.229   6.049
10426SOL    HW232178   6.006   2.145   6.032
10427SOL     OW32179   5.796   6.431   4.941
10427SOL    HW132180   5.869   6.499   4.951
10427SOL    HW232181   5.795   6.399   4.847
10428SOL     OW32182   1.908   0.582   3.974
10428SOL    HW132183   1.878   0.666   3.929
10428SOL    HW232184   1.838   0.550   4.037
10429SOL     OW32185   1.041   3.068   2.740
10429SOL    HW132186   0.989   3.100   2.661
10429SOL    HW232187   0.979   3.052   2.816
10430SOL     OW32188   3.150   0.419   3.975
10430SOL    HW132189   3.164   0.328   3.937
10430SOL    HW232190   3.200   0.428   4.061
10431SOL     OW32191   2.800   1.675   3.445
10431SOL    HW132192   2.715   1.642   3.486
10431SOL    HW232193   2.822   1.620   3.365
10432SOL     OW32194   0.754   6.189   5.557
10432SOL    HW132195   0.670   6.234   5.528
10432SOL    HW232196   0.819   6.257   5.590
10433SOL     OW32197   1.801   6.865   2.361
10433SOL    HW132198   1.704   6.846   2.343
10433SOL    HW232199   1.825   6.829   2.451
10434SOL     OW32200   4.174   6.578   4.931
10434SOL    HW132201   4.171   6.497   4.871
10434SOL    HW232202   4.237   6.645   4.892
10435SOL     OW32203   1.508   2.359   6.767
10435SOL    HW132204   1.497   2.458   6.759
10435SOL    HW232205   1.503   2.318   6.676
10436SOL     OW32206   0.216   4.828   5.205
10436SOL    HW132207   0.142   4.773   5.242
10436SOL    HW232208   0.302   4.804   5.251
10437SOL     OW32209   5.155   5.470   5.408
10437SOL    HW132210   5.143   5.569   5.398
10437SOL    HW232211   5.221   5.437   5.340
10438SOL     OW32212   6.198   5.711   6.085
10438SOL    HW132213   6.248   5.791   6.117
10438SOL    HW232214   6.127   5.739   6.021
10439SOL     OW32215   6.330   6.687   4.859
10439SOL    HW132216   6.385   6.707   4.778
10439SOL    HW232217   6.362   6.602   4.901
10440SOL     OW32218   0.015   2.234   6.694
10440SOL    HW132219   7.007   2.307   6.631
10440SOL    HW232220   6.995   2.251   6.784
10441SOL     OW32221   3.772   2.166   1.036
10441SOL    HW132222   3.850   2.113   1.071
10441SOL    HW232223   3.770   2.255   1.080
10442SOL     OW32224   2.127   1.499   5.803
10442SOL    HW132225   2.169   1.548   5.879
10442SOL    HW232226   2.058   1.558   5.760
10443SOL     OW32227   0.708   1.914   3.172
10443SOL    HW132228   0.665   1.977   3.237
10443SOL    HW232229   0.704   1.821   3.210
10444SOL     OW32230   3.946   5.842   4.374
10444SOL    HW132231   3.939   5.815   4.277
10444SOL    HW232232   3.987   5.768   4.426
10445SOL     OW32233   1.574   3.896   2.898
10445SOL    HW132234   1.639   3.887   2.822
10445SOL    HW232235   1.619   3.938   2.976
10446SOL     OW32236   1.787   4.454   5.731
10446SOL    HW132237   1.775   4.473   5.634
10446SOL    HW232238   1.740   4.369   5.755
10447SOL     OW32239   0.369   1.933   2.767
10447SOL    HW132240   0.439   1.894   2.828
10447SOL    HW232241   0.311   1.995   2.819
10448SOL     OW32242   2.782   6.222   3.082
10448SOL    HW132243   2.686   6.240   3.103
10448SOL    HW232244   2.795   6.124   3.065
10449SOL     OW32245   4.176   5.515   5.791
10449SOL    HW132246   4.231   5.528   5.709
10449SOL    HW232247   4.095   5.573   5.785
10450SOL     OW32248   6.990   0.761   6.102
10450SOL    HW132249   6.948   0.794   6.018
10450SOL    HW232250   0.057   0.808   6.116
10451SOL     OW32251   2.231   0.774   3.161
10451SOL    HW132252   2.240   0.675   3.151
10451SOL    HW232253   2.294   0.806   3.231
10452SOL     OW32254   0.093   3.696   4.392
10452SOL    HW132255   0.041   3.615   4.366
10452SOL    HW232256   0.152   3.674   4.470
10453SOL     OW32257   4.173   5.745   3.463
10453SOL    HW132258   4.123   5.780   3.384
10453SOL    HW232259   4.110   5.726   3.538
10454SOL     OW32260   6.870   0.278   5.434
10454SOL    HW132261   6.774   0.305   5.435
10454SOL    HW232262   6.904   0.279   5.340
10455SOL     OW32263   5.978   6.309   3.854
10455SOL    HW132264   5.888   6.318   3.811
10455SOL    HW232265   5.966   6.299   3.953
10456SOL     OW32266   0.792   5.285   6.939
10456SOL    HW132267   0.882   5.248   6.961
10456SOL    HW232268   0.730   5.210   6.915
10457SOL     OW32269   3.149   2.363   0.105
10457SOL    HW132270   3.249   2.356   0.101
10457SOL    HW232271   3.109   2.278   0.070
10458SOL     OW32272   6.668   5.723   6.328
10458SOL    HW132273   6.763   5.742   6.304
10458SOL    HW232274   6.660   5.715   6.428
10459SOL     OW32275   0.265   5.367   0.496
10459SOL    HW132276   0.291   5.298   0.564
10459SOL    HW232277   0.265   5.326   0.405
10460SOL     OW32278   0.701   2.744   0.725
10460SOL    HW132279   0.728   2.685   0.649
10460SOL    HW232280   0.752   2.719   0.807
10461SOL     OW32281   0.448   5.442   5.121
10461SOL    HW132282   0.483   5.452   5.214
10461SOL    HW232283   0.408   5.528   5.091
10462SOL     OW32284   3.878   1.564   0.530
10462SOL    HW132285   3.889   1.560   0.431
10462SOL    HW232286   3.850   1.475   0.564
10463SOL     OW32287   4.711   3.066   6.146
10463SOL    HW132288   4.723   2.975   6.186
10463SOL    HW232289   4.759   3.133   6.202
10464SOL     OW32290   6.354   4.906   2.834
10464SOL    HW132291   6.427   4.958   2.790
10464SOL    HW232292   6.312   4.961   2.906
10465SOL     OW32293   5.675   4.219   2.309
10465SOL    HW132294   5.603   4.201   2.241
10465SOL    HW232295   5.696   4.316   2.309
10466SOL     OW32296   6.234   4.550   6.240
10466SOL    HW132297   6.315   4.549   6.299
10466SOL    HW232298   6.262   4.573   6.146
10467SOL     OW32299   1.656   2.963   6.965
10467SOL    HW132300   1.590   2.931   6.897
10467SOL    HW232301   1.608   3.015   0.016
10468SOL     OW32302   2.942   4.828   4.002
10468SOL    HW132303   2.876   4.786   3.940
10468SOL    HW232304   3.009   4.880   3.949
10469SOL     OW32305   6.275   1.542   4.928
10469SOL    HW132306   6.311   1.450   4.913
10469SOL    HW232307   6.178   1.536   4.954
10470SOL     OW32308   2.554   2.433   3.842
10470SOL    HW132309   2.488   2.477   3.903
10470SOL    HW232310   2.527   2.448   3.747
10471SOL     OW32311   3.153   6.829   0.603
10471SOL    HW132312   3.077   6.772   0.635
10471SOL    HW232313   3.232   6.770   0.583
10472SOL     OW32314   2.726   5.068   0.256
10472SOL    HW132315   2.703   5.052   0.352
10472SOL    HW232316   2.660   5.132   0.216
10473SOL     OW32317   4.925   4.397   6.993
10473SOL    HW132318   4.942   4.332   0.047
10473SOL    HW232319   4.847   4.455   7.017
10474SOL     OW32320   5.115   1.134   3.791
10474SOL    HW132321   5.060   1.183   3.858
10474SOL    HW232322   5.061   1.059   3.752
10475SOL     OW32323   0.843   6.703   1.660
10475SOL    HW132324   0.916   6.716   1.727
10475SOL    HW232325   0.849   6.774   1.590
10476SOL     OW32326   3.916   6.160   0.240
10476SOL    HW132327   3.878   6.121   0.157
10476SOL    HW232328   4.014   6.139   0.246
10477SOL     OW32329   6.184   6.443   3.451
10477SOL    HW132330   6.165   6.455   3.549
10477SOL    HW232331   6.223   6.528   3.415
10478SOL     OW32332   6.291   0.324   0.242
10478SOL    HW132333   6.273   0.305   0.145
10478SOL    HW232334   6.215   0.289   0.297
10479SOL     OW32335   0.100   2.098   2.186
10479SOL    HW132336   0.095   2.086   2.087
10479SOL    HW232337   0.023   2.154   2.217
10480SOL     OW32338   1.935   0.247   2.427
10480SOL    HW132339   1.928   0.231   2.328
10480SOL    HW232340   1.844   0.256   2.466
10481SOL     OW32341   0.336   0.761   3.037
10481SOL    HW132342   0.367   0.765   2.942
10481SOL    HW232343   0.341   0.667   3.070
10482SOL     OW32344   5.384   3.432   3.933
10482SOL    HW132345   5.310   3.411   3.870
10482SOL    HW232346   5.352   3.421   4.027
10483SOL     OW32347   6.170   5.539   0.550
10483SOL    HW132348   6.102   5.496   0.490
10483SOL    HW232349   6.130   5.620   0.592
10484SOL     OW32350   6.201   1.361   1.638
10484SOL    HW132351   6.204   1.451   1.593
10484SOL    HW232352   6.175   1.372   1.734
10485SOL     OW32353   5.563   3.370   5.600
10485SOL    HW132354   5.567   3.287   5.545
10485SOL    HW232355   5.620   3.441   5.559
10486SOL     OW32356   5.936   2.842   1.470
10486SOL    HW132357   5.979   2.797   1.392
10486SOL    HW232358   5.947   2.941   1.461
10487SOL     OW32359   5.915   6.625   1.378
10487SOL    HW132360   5.992   6.572   1.412
10487SOL    HW232361   5.930   6.722   1.397
10488SOL     OW32362   2.773   2.661   6.644
10488SOL    HW132363   2.694   2.640   6.702
10488SOL    HW232364   2.781   2.760   6.634
10489SOL     OW32365   6.826   5.531   6.557
10489SOL    HW132366   6.839   5.627   6.532
10489SOL    HW232367   6.886   5.508   6.634
10490SOL     OW32368   6.932   0.850   3.540
10490SOL    HW132369   6.895   0.872   3.629
10490SOL    HW232370   6.879   0.777   3.498
10491SOL     OW32371   2.386   4.636   6.205
10491SOL    HW132372   2.291   4.666   6.208
10491SOL    HW232373   2.397   4.567   6.134
10492SOL     OW32374   4.933   3.404   5.238
10492SOL    HW132375   4.852   3.378   5.291
10492SOL    HW232376   4.907   3.470   5.168
10493SOL     OW32377   3.781   0.747   1.619
10493SOL    HW132378   3.803   0.831   1.669
10493SOL    HW232379   3.686   0.722   1.637
10494SOL     OW32380   6.044   1.930   4.227
10494SOL    HW132381   5.961   1.984   4.237
10494SOL    HW232382   6.092   1.927   4.314
10495SOL     OW32383   1.860   6.649   0.828
10495SOL    HW132384   1.801   6.676   0.752
10495SOL    HW232385   1.920   6.575   0.799
10496SOL     OW32386   0.220   6.438   6.537
10496SOL    HW132387   0.121   6.431   6.552
10496SOL    HW232388   0.264   6.354   6.568
10497SOL     OW32389   1.407   0.824   0.956
10497SOL    HW132390   1.348   0.746   0.977
10497SOL    HW232391   1.454   0.807   0.869
10498SOL     OW32392   1.677   6.478   5.992
10498SOL    HW132393   1.674   6.392   5.941
10498SOL    HW232394   1.740   6.541   5.947
10499SOL     OW32395   2.875   5.625   3.363
10499SOL    HW132396   2.856   5.538   3.410
10499SOL    HW232397   2.890   5.607   3.266
10500SOL     OW32398   1.045   2.456   6.006
10500SOL    HW132399   1.136   2.468   6.047
10500SOL    HW232400   1.040   2.509   5.921
10501SOL     OW32401   2.130   3.433   2.698
10501SOL    HW132402   2.137   3.437   2.598
10501SOL    HW232403   2.143   3.525   2.736
10502SOL     OW32404   3.272   6.352   0.441
10502SOL    HW132405   3.368   6.340   0.464
10502SOL    HW232406   3.216   6.344   0.524
10503SOL     OW32407   3.245   3.079   0.313
10503SOL    HW132408   3.291   3.165   0.337
10503SOL    HW232409   3.290   3.038   0.234
10504SOL     OW32410   2.561   3.101   0.497
10504SOL    HW132411   2.635   3.133   0.557
10504SOL    HW232412   2.508   3.180   0.466
10505SOL     OW32413   6.487   5.994   1.385
10505SOL    HW132414   6.585   5.977   1.372
10505SOL    HW232415   6.448   5.921   1.441
10506SOL     OW32416   0.809   3.695   6.401
10506SOL    HW132417   0.906   3.671   6.392
10506SOL    HW232418   0.794   3.787   6.364
10507SOL     OW32419   1.221   0.475   6.266
10507SOL    HW132420   1.123   0.483   6.286
10507SOL    HW232421   1.240   0.515   6.176
10508SOL     OW32422   5.585   4.677   3.688
10508SOL    HW132423   5.529   4.623   3.751
10508SOL    HW232424   5.535   4.690   3.603
10509SOL     OW32425   0.945   6.626   6.341
10509SOL    HW132426   0.925   6.539   6.386
10509SOL    HW232427   0.950   6.611   6.242
10510SOL     OW32428   5.891   5.194   6.853
10510SOL    HW132429   5.975   5.222   6.805
10510SOL    HW232430   5.906   5.104   6.895
10511SOL     OW32431   4.013   3.015   0.366
10511SOL    HW132432   4.019   2.944   0.435
10511SOL    HW232433   4.066   3.095   0.395
10512SOL     OW32434   4.401   0.426   5.745
10512SOL    HW132435   4.452   0.442   5.661
10512SOL    HW232436   4.367   0.513   5.782
10513SOL     OW32437   0.725   2.378   5.883
10513SOL    HW132438   0.681   2.359   5.970
10513SOL    HW232439   0.719   2.476   5.863
10514SOL     OW32440   6.611   4.307   0.600
10514SOL    HW132441   6.637   4.266   0.513
10514SOL    HW232442   6.662   4.263   0.674
10515SOL     OW32443   6.425   1.735   3.615
10515SOL    HW132444   6.512   1.747   3.568
10515SOL    HW232445   6.387   1.644   3.594
10516SOL     OW32446   4.316   0.736   6.509
10516SOL    HW132447   4.312   0.791   6.426
10516SOL    HW232448   4.390   0.669   6.501
10517SOL     OW32449   6.814   1.504   2.517
10517SOL    HW132450   6.731   1.559   2.508
10517SOL    HW232451   6.834   1.458   2.431
10518SOL     OW32452   1.221   6.775   0.603
10518SOL    HW132453   1.154   6.702   0.592
10518SOL    HW232454   1.303   6.739   0.649
10519SOL     OW32455   3.420   2.981   5.871
10519SOL    HW132456   3.427   2.884   5.848
10519SOL    HW232457   3.388   3.032   5.791
10520SOL     OW32458   3.044   2.619   6.591
10520SOL    HW132459   3.095   2.703   6.612
10520SOL    HW232460   2.947   2.635   6.607
10521SOL     OW32461   6.674   6.099   1.697
10521SOL    HW132462   6.707   6.159   1.624
10521SOL    HW232463   6.730   6.016   1.699
10522SOL     OW32464   6.683   1.335   0.766
10522SOL    HW132465   6.693   1.341   0.667
10522SOL    HW232466   6.762   1.377   0.810
10523SOL     OW32467   6.890   5.440   5.899
10523SOL    HW132468   6.911   5.401   5.988
10523SOL    HW232469   6.931   5.531   5.891
10524SOL     OW32470   1.918   0.321   4.588
10524SOL    HW132471   1.993   0.323   4.653
10524SOL    HW232472   1.954   0.307   4.496
10525SOL     OW32473   1.977   6.787   5.131
10525SOL    HW132474   2.074   6.806   5.117
10525SOL    HW232475   1.952   6.705   5.080
10526SOL     OW32476   0.655   1.094   2.303
10526SOL    HW132477   0.716   1.171   2.283
10526SOL    HW232478   0.685   1.014   2.250
10527SOL     OW32479   1.063   2.372   4.527
10527SOL    HW132480   1.106   2.405   4.442
10527SOL    HW232481   0.988   2.433   4.551
10528SOL     OW32482   0.124   5.397   4.935
10528SOL    HW132483   0.092   5.347   4.855
10528SOL    HW232484   0.164   5.333   5.000
10529SOL     OW32485   0.211   6.802   3.475
10529SOL    HW132486   0.120   6.838   3.455
10529SOL    HW232487   0.222   6.712   3.430
10530SOL     OW32488   2.629   2.437   6.267
10530SOL    HW132489   2.548   2.412   6.214
10530SOL    HW232490   2.707   2.445   6.205
10531SOL     OW32491   1.653   3.625   4.877
10531SOL    HW132492   1.593   3.547   4.892
10531SOL    HW232493   1.719   3.633   4.951
10532SOL     OW32494   3.608   2.433   6.257
10532SOL    HW132495   3.611   2.532   6.268
10532SOL    HW232496   3.676   2.405   6.189
10533SOL     OW32497   2.905   1.435   5.273
10533SOL    HW132498   2.936   1.483   5.191
10533SOL    HW232499   2.917   1.494   5.352
10534SOL     OW32500   0.072   5.821   0.618
10534SOL    HW132501   0.043   5.901   0.670
10534SOL    HW232502   0.064   5.840   0.520
10535SOL     OW32503   0.432   1.213   2.149
10535SOL    HW132504   0.397   1.299   2.187
10535SOL    HW232505   0.504   1.177   2.208
10536SOL     OW32506   4.874   0.440   3.191
10536SOL    HW132507   4.804   0.489   3.244
10536SOL    HW232508   4.916   0.502   3.125
10537SOL     OW32509   3.142   5.416   2.798
10537SOL    HW132510   3.115   5.411   2.895
10537SOL    HW232511   3.082   5.357   2.744
10538SOL     OW32512   4.493   3.963   0.094
10538SOL    HW132513   4.465   3.880   0.046
10538SOL    HW232514   4.448   4.043   0.055
10539SOL     OW32515   0.720   3.263   6.048
10539SOL    HW132516   0.686   3.223   5.962
10539SOL    HW232517   0.810   3.225   6.069
10540SOL     OW32518   2.071   0.584   5.556
10540SOL    HW132519   1.982   0.597   5.601
10540SOL    HW232520   2.127   0.666   5.570
10541SOL     OW32521   3.687   4.023   0.677
10541SOL    HW132522   3.718   3.965   0.602
10541SOL    HW232523   3.635   3.968   0.743
10542SOL     OW32524   0.382   2.395   0.626
10542SOL    HW132525   0.458   2.436   0.576
10542SOL    HW232526   0.301   2.453   0.617
10543SOL     OW32527   0.333   2.059   5.525
10543SOL    HW132528   0.301   2.133   5.467
10543SOL    HW232529   0.432   2.067   5.538
10544SOL     OW32530   2.126   1.941   2.245
10544SOL    HW132531   2.113   1.939   2.345
10544SOL    HW232532   2.041   1.913   2.200
10545SOL     OW32533   6.786   6.937   2.321
10545SOL    HW132534   6.884   6.942   2.307
10545SOL    HW232535   6.745   6.882   2.248
10546SOL     OW32536   2.347   0.082   4.595
10546SOL    HW132537   2.391   0.088   4.684
10546SOL    HW232538   2.397   0.016   4.538
10547SOL     OW32539   4.226   1.384   1.615
10547SOL    HW132540   4.298   1.418   1.675
10547SOL    HW232541   4.184   1.460   1.566
10548SOL     OW32542   5.110   3.423   4.613
10548SOL    HW132543   5.051   3.502   4.596
10548SOL    HW232544   5.125   3.412   4.711
10549SOL     OW32545   1.014   0.130   2.367
10549SOL    HW132546   0.942   0.173   2.422
10549SOL    HW232547   1.101   0.177   2.384
10550SOL     OW32548   5.418   0.284   3.870
10550SOL    HW132549   5.457   0.377   3.874
10550SOL    HW232550   5.376   0.269   3.781
10551SOL     OW32551   1.347   2.018   5.188
10551SOL    HW132552   1.353   2.033   5.287
10551SOL    HW232553   1.280   2.081   5.149
10552SOL     OW32554   3.436   2.245   6.181
10552SOL    HW132555   3.503   2.307   6.222
10552SOL    HW232556   3.381   2.294   6.113
10553SOL     OW32557   0.485   5.681   0.249
10553SOL    HW132558   0.497   5.614   0.176
10553SOL    HW232559   0.397   5.666   0.294
10554SOL     OW32560   6.895   4.647   0.358
10554SOL    HW132561   6.812   4.703   0.362
10554SOL    HW232562   6.901   4.591   0.441
10555SOL     OW32563   3.368   1.452   2.246
10555SOL    HW132564   3.376   1.352   2.242
10555SOL    HW232565   3.402   1.492   2.161
10556SOL     OW32566   2.056   3.296   5.005
10556SOL    HW132567   2.103   3.339   5.082
10556SOL    HW232568   2.119   3.234   4.958
10557SOL     OW32569   0.312   2.605   3.180
10557SOL    HW132570   0.407   2.607   3.210
10557SOL    HW232571   0.271   2.696   3.193
10558SOL     OW32572   4.026   6.904   4.907
10558SOL    HW132573   4.103   6.865   4.856
10558SOL    HW232574   4.061   6.967   4.976
10559SOL     OW32575   4.009   2.065   0.751
10559SOL    HW132576   4.030   2.013   0.833
10559SOL    HW232577   3.948   2.012   0.692
10560SOL     OW32578   1.321   4.239   5.116
10560SOL    HW132579   1.308   4.335   5.090
10560SOL    HW232580   1.386   4.196   5.054
10561SOL     OW32581   1.904   4.906   6.415
10561SOL    HW132582   1.882   4.918   6.318
10561SOL    HW232583   1.866   4.820   6.448
10562SOL     OW32584   4.639   0.936   0.748
10562SOL    HW132585   4.675   1.008   0.808
10562SOL    HW232586   4.562   0.891   0.793
10563SOL     OW32587   2.076   2.134   5.402
10563SOL    HW132588   2.013   2.057   5.405
10563SOL    HW232589   2.108   2.148   5.308
10564SOL     OW32590   6.367   0.890   1.754
10564SOL    HW132591   6.404   0.888   1.661
10564SOL    HW232592   6.287   0.831   1.759
10565SOL     OW32593   6.740   0.843   5.471
10565SOL    HW132594   6.736   0.895   5.556
10565SOL    HW232595   6.662   0.867   5.413
10566SOL     OW32596   3.532   3.864   6.416
10566SOL    HW132597   3.482   3.806   6.352
10566SOL    HW232598   3.473   3.938   6.447
10567SOL     OW32599   2.163   3.469   4.048
10567SOL    HW132600   2.199   3.515   4.129
10567SOL    HW232601   2.138   3.375   4.071
10568SOL     OW32602   5.976   1.303   2.463
10568SOL    HW132603   5.913   1.369   2.503
10568SOL    HW232604   5.924   1.233   2.415
10569SOL     OW32605   6.074   3.084   2.936
10569SOL    HW132606   6.121   3.096   2.848
10569SOL    HW232607   6.126   3.021   2.993
10570SOL     OW32608   1.997   4.348   2.552
10570SOL    HW132609   1.940   4.270   2.527
10570SOL    HW232610   2.018   4.343   2.650
10571SOL     OW32611   6.389   5.713   2.754
10571SOL    HW132612   6.332   5.712   2.672
10571SOL    HW232613   6.485   5.704   2.729
10572SOL     OW32614   5.412   3.548   2.487
10572SOL    HW132615   5.429   3.646   2.495
10572SOL    HW232616   5.490   3.497   2.523
10573SOL     OW32617   6.180   5.758   4.097
10573SOL    HW132618   6.233   5.702   4.033
10573SOL    HW232619   6.227   5.763   4.185
10574SOL     OW32620   1.326   1.957   3.645
10574SOL    HW132621   1.258   1.931   3.576
10574SOL    HW232622   1.358   1.875   3.693
10575SOL     OW32623   1.152   1.100   5.000
10575SOL    HW132624   1.186   1.047   4.922
10575SOL    HW232625   1.076   1.158   4.970
10576SOL     OW32626   1.826   5.676   5.165
10576SOL    HW132627   1.804   5.690   5.068
10576SOL    HW232628   1.924   5.693   5.179
10577SOL     OW32629   1.838   3.262   6.077
10577SOL    HW132630   1.823   3.250   5.979
10577SOL    HW232631   1.844   3.359   6.098
10578SOL     OW32632   5.787   0.142   5.216
10578SOL    HW132633   5.781   0.044   5.235
10578SOL    HW232634   5.815   0.191   5.299
10579SOL     OW32635   3.897   1.817   0.662
10579SOL    HW132636   3.839   1.801   0.742
10579SOL    HW232637   3.909   1.731   0.612
10580SOL     OW32638   6.595   5.727   6.596
10580SOL    HW132639   6.631   5.731   6.690
10580SOL    HW232640   6.510   5.780   6.591
10581SOL     OW32641   5.720   0.731   3.741
10581SOL    HW132642   5.718   0.786   3.824
10581SOL    HW232643   5.811   0.690   3.731
10582SOL     OW32644   3.480   5.206   6.871
10582SOL    HW132645   3.469   5.112   6.904
10582SOL    HW232646   3.431   5.217   6.785
10583SOL     OW32647   3.692   0.905   6.983
10583SOL    HW132648   3.698   0.829   6.917
10583SOL    HW232649   3.776   0.908   0.017
10584SOL     OW32650   5.244   6.372   1.420
10584SOL    HW132651   5.303   6.330   1.489
10584SOL    HW232652   5.151   6.382   1.457
10585SOL     OW32653   1.106   2.930   5.554
10585SOL    HW132654   1.128   2.963   5.462
10585SOL    HW232655   1.188   2.892   5.596
10586SOL     OW32656   2.840   6.106   6.021
10586SOL    HW132657   2.797   6.017   6.034
10586SOL    HW232658   2.769   6.177   6.018
10587SOL     OW32659   5.818   3.643   0.679
10587SOL    HW132660   5.729   3.620   0.639
10587SOL    HW232661   5.806   3.667   0.775
10588SOL     OW32662   0.573   4.584   2.627
10588SOL    HW132663   0.628   4.582   2.711
10588SOL    HW232664   0.571   4.493   2.587
10589SOL     OW32665   5.887   2.856   4.420
10589SOL    HW132666   5.968   2.832   4.368
10589SOL    HW232667   5.806   2.847   4.362
10590SOL     OW32668   1.235   0.365   3.394
10590SOL    HW132669   1.219   0.438   3.461
10590SOL    HW232670   1.153   0.352   3.338
10591SOL     OW32671   1.486   1.749   6.025
10591SOL    HW132672   1.444   1.683   5.963
10591SOL    HW232673   1.584   1.755   6.006
10592SOL     OW32674   0.068   1.478   0.321
10592SOL    HW132675   0.065   1.395   0.266
10592SOL    HW232676   0.019   1.462   0.407
10593SOL     OW32677   1.986   5.429   2.052
10593SOL    HW132678   2.017   5.430   2.147
10593SOL    HW232679   1.961   5.336   2.026
10594SOL     OW32680   6.448   1.853   4.086
10594SOL    HW132681   6.487   1.799   4.011
10594SOL    HW232682   6.521   1.890   4.143
10595SOL     OW32683   4.009   6.683   6.060
10595SOL    HW132684   4.034   6.615   5.992
10595SOL    HW232685   3.911   6.704   6.052
10596SOL     OW32686   4.381   6.959   2.011
10596SOL    HW132687   4.431   7.017   1.947
10596SOL    HW232688   4.438   6.940   2.091
10597SOL     OW32689   2.307   0.831   4.729
10597SOL    HW132690   2.323   0.732   4.731
10597SOL    HW232691   2.313   0.868   4.822
10598SOL     OW32692   2.132   2.303   6.840
10598SOL    HW132693   2.129   2.334   6.745
10598SOL    HW232694   2.062   2.351   6.893
10599SOL     OW32695   6.353   1.023   6.910
10599SOL    HW132696   6.378   1.080   6.832
10599SOL    HW232697   6.326   1.081   6.987
10600SOL     OW32698   3.020   2.764   5.919
10600SOL    HW132699   2.993   2.809   5.834
10600SOL    HW232700   2.966   2.801   5.995
10601SOL     OW32701   2.950   6.558   6.371
10601SOL    HW132702   2.922   6.502   6.293
10601SOL    HW232703   3.003   6.503   6.435
10602SOL     OW32704   5.000   1.175   1.118
10602SOL    HW132705   4.917   1.131   1.086
10602SOL    HW232706   4.985   1.274   1.124
10603SOL     OW32707   1.967   5.302   3.977
10603SOL    HW132708   1.999   5.258   4.061
10603SOL    HW232709   1.868   5.318   3.984
10604SOL     OW32710   6.758   4.559   4.419
10604SOL    HW132711   6.696   4.591   4.490
10604SOL    HW232712   6.705   4.531   4.339
10605SOL     OW32713   0.944   5.135   0.721
10605SOL    HW132714   1.022   5.185   0.758
10605SOL    HW232715   0.974   5.047   0.685
10606SOL     OW32716   0.072   0.516   1.556
10606SOL    HW132717   0.053   0.612   1.534
10606SOL    HW232718   0.030   0.493   1.644
10607SOL     OW32719   4.638   4.434   6.292
10607SOL    HW132720   4.683   4.345   6.303
10607SOL    HW232721   4.706   4.507   6.296
10608SOL     OW32722   5.843   1.428   4.437
10608SOL    HW132723   5.767   1.375   4.473
10608SOL    HW232724   5.811   1.520   4.413
10609SOL     OW32725   3.899   6.460   1.261
10609SOL    HW132726   3.802   6.472   1.282
10609SOL    HW232727   3.948   6.431   1.343
10610SOL     OW32728   1.306   3.471   5.986
10610SOL    HW132729   1.248   3.538   5.942
10610SOL    HW232730   1.320   3.393   5.925
10611SOL     OW32731   5.110   2.621   6.727
10611SOL    HW132732   5.048   2.634   6.650
10611SOL    HW232733   5.195   2.579   6.695
10612SOL     OW32734   2.418   6.444   6.154
10612SOL    HW132735   2.484   6.519   6.159
10612SOL    HW232736   2.466   6.358   6.135
10613SOL     OW32737   0.701   6.942   5.465
10613SOL    HW132738   0.718   6.910   5.372
10613SOL    HW232739   0.770   7.011   5.490
10614SOL     OW32740   6.153   1.138   4.653
10614SOL    HW132741   6.163   1.148   4.554
10614SOL    HW232742   6.108   1.218   4.691
10615SOL     OW32743   4.930   5.519   5.088
10615SOL    HW132744   4.927   5.543   4.991
10615SOL    HW232745   5.019   5.544   5.125
10616SOL     OW32746   3.132   6.253   0.935
10616SOL    HW132747   3.196   6.217   1.003
10616SOL    HW232748   3.173   6.332   0.889
10617SOL     OW32749   2.169   2.793   0.473
10617SOL    HW132750   2.217   2.706   0.461
10617SOL    HW232751   2.222   2.852   0.534
10618SOL     OW32752   5.627   2.313   0.070
10618SOL    HW132753   5.655   2.374   0.144
10618SOL    HW232754   5.708   2.268   0.032
10619SOL     OW32755   0.937   4.077   3.041
10619SOL    HW132756   0.956   4.168   3.077
10619SOL    HW232757   0.927   4.012   3.116
10620SOL     OW32758   1.677   6.262   4.640
10620SOL    HW132759   1.663   6.175   4.687
10620SOL    HW232760   1.611   6.330   4.673
10621SOL     OW32761   1.850   5.818   6.957
10621SOL    HW132762   1.893   5.908   6.961
10621SOL    HW232763   1.811   5.803   6.866
10622SOL     OW32764   3.891   6.814   1.541
10622SOL    HW132765   3.858   6.816   1.447
10622SOL    HW232766   3.832   6.871   1.598
10623SOL     OW32767   5.931   2.590   3.653
10623SOL    HW132768   5.979   2.678   3.653
10623SOL    HW232769   5.890   2.574   3.742
10624SOL     OW32770   2.034   1.225   5.139
10624SOL    HW132771   2.025   1.164   5.060
10624SOL    HW232772   1.952   1.219   5.196
10625SOL     OW32773   0.576   3.205   0.043
10625SOL    HW132774   0.484   3.241   0.027
10625SOL    HW232775   0.570   3.110   0.072
10626SOL     OW32776   0.977   1.926   1.604
10626SOL    HW132777   1.072   1.940   1.576
10626SOL    HW232778   0.940   2.011   1.641
10627SOL     OW32779   6.379   6.815   2.530
10627SOL    HW132780   6.420   6.853   2.447
10627SOL    HW232781   6.431   6.846   2.610
10628SOL     OW32782   6.374   5.548   5.773
10628SOL    HW132783   6.397   5.641   5.744
10628SOL    HW232784   6.451   5.510   5.825
10629SOL     OW32785   2.514   5.085   5.641
10629SOL    HW132786   2.547   5.081   5.736
10629SOL    HW232787   2.446   5.013   5.627
10630SOL     OW32788   5.839   1.003   3.264
10630SOL    HW132789   5.739   0.998   3.263
10630SOL    HW232790   5.868   1.075   3.328
10631SOL     OW32791   0.344   6.679   3.694
10631SOL    HW132792   0.309   6.735   3.618
10631SOL    HW232793   0.370   6.739   3.770
10632SOL     OW32794   6.543   2.591   4.851
10632SOL    HW132795   6.612   2.662   4.866
10632SOL    HW232796   6.455   2.623   4.886
10633SOL     OW32797   2.621   5.592   1.326
10633SOL    HW132798   2.613   5.664   1.394
10633SOL    HW232799   2.577   5.508   1.360
10634SOL     OW32800   3.045   6.174   1.235
10634SOL    HW132801   2.968   6.189   1.296
10634SOL    HW232802   3.012   6.144   1.145
10635SOL     OW32803   2.649   1.004   1.074
10635SOL    HW132804   2.698   0.923   1.042
10635SOL    HW232805   2.714   1.078   1.089
10636SOL     OW32806   0.763   1.966   1.196
10636SOL    HW132807   0.670   1.931   1.188
10636SOL    HW232808   0.823   1.895   1.232
10637SOL     OW32809   3.645   4.143   5.177
10637SOL    HW132810   3.628   4.200   5.097
10637SOL    HW232811   3.744   4.131   5.189
10638SOL     OW32812   6.435   6.190   4.604
10638SOL    HW132813   6.369   6.265   4.604
10638SOL    HW232814   6.528   6.228   4.610
10639SOL     OW32815   1.295   0.777   5.041
10639SOL    HW132816   1.293   0.813   4.947
10639SOL    HW232817   1.327   0.683   5.040
10640SOL     OW32818   4.894   1.328   6.827
10640SOL    HW132819   4.897   1.241   6.877
10640SOL    HW232820   4.894   1.404   6.892
10641SOL     OW32821   5.613   1.337   0.016
10641SOL    HW132822   5.527   1.385   0.005
10641SOL    HW232823   5.661   1.332   6.948
10642SOL     OW32824   0.237   2.062   1.804
10642SOL    HW132825   0.289   2.029   1.726
10642SOL    HW232826   0.269   2.016   1.887
10643SOL     OW32827   2.342   3.617   5.304
10643SOL    HW132828   2.384   3.600   5.393
10643SOL    HW232829   2.363   3.710   5.275
10644SOL     OW32830   4.655   1.693   4.011
10644SOL    HW132831   4.716   1.732   3.941
10644SOL    HW232832   4.601   1.767   4.052
10645SOL     OW32833   2.082   0.060   4.681
10645SOL    HW132834   2.070   6.984   4.704
10645SOL    HW232835   2.176   0.075   4.651
10646SOL     OW32836   1.354   2.840   5.647
10646SOL    HW132837   1.406   2.806   5.570
10646SOL    HW232838   1.391   2.928   5.676
10647SOL     OW32839   6.627   4.701   0.666
10647SOL    HW132840   6.642   4.706   0.765
10647SOL    HW232841   6.546   4.645   0.648
10648SOL     OW32842   4.814   3.031   6.905
10648SOL    HW132843   4.895   2.975   6.919
10648SOL    HW232844   4.753   2.986   6.839
10649SOL     OW32845   6.628   4.665   5.764
10649SOL    HW132846   6.598   4.590   5.706
10649SOL    HW232847   6.669   4.629   5.848
10650SOL     OW32848   2.851   6.635   4.003
10650SOL    HW132849   2.817   6.721   3.965
10650SOL    HW232850   2.932   6.606   3.952
10651SOL     OW32851   4.855   6.739   5.264
10651SOL    HW132852   4.796   6.769   5.189
10651SOL    HW232853   4.823   6.652   5.299
10652SOL     OW32854   3.583   0.123   5.960
10652SOL    HW132855   3.588   0.204   6.019
10652SOL    HW232856   3.533   0.147   5.876
10653SOL     OW32857   5.272   4.197   4.215
10653SOL    HW132858   5.191   4.140   4.229
10653SOL    HW232859   5.272   4.272   4.281
10654SOL     OW32860   3.499   0.882   0.967
10654SOL    HW132861   3.419   0.893   1.026
10654SOL    HW232862   3.575   0.935   1.004
10655SOL     OW32863   2.986   6.550   1.208
10655SOL    HW132864   3.070   6.501   1.188
10655SOL    HW232865   2.947   6.584   1.122
10656SOL     OW32866   6.267   2.331   0.154
10656SOL    HW132867   6.331   2.408   0.153
10656SOL    HW232868   6.174   2.366   0.172
10657SOL     OW32869   5.674   0.523   1.004
10657SOL    HW132870   5.603   0.541   1.072
10657SOL    HW232871   5.631   0.503   0.916
10658SOL     OW32872   0.952   5.263   4.003
10658SOL    HW132873   1.029   5.210   4.039
10658SOL    HW232874   0.878   5.262   4.070
10659SOL     OW32875   6.216   0.197   0.483
10659SOL    HW132876   6.253   0.289   0.496
10659SOL    HW232877   6.292   0.131   0.478
10660SOL     OW32878   4.341   4.700   5.432
10660SOL    HW132879   4.344   4.682   5.530
10660SOL    HW232880   4.421   4.753   5.405
10661SOL     OW32881   0.400   6.610   2.788
10661SOL    HW132882   0.380   6.577   2.696
10661SOL    HW232883   0.314   6.634   2.833
10662SOL     OW32884   6.886   1.436   0.935
10662SOL    HW132885   6.953   1.510   0.944
10662SOL    HW232886   6.929   1.349   0.958
10663SOL     OW32887   0.422   0.087   0.362
10663SOL    HW132888   0.427   0.180   0.399
10663SOL    HW232889   0.337   0.076   0.310
10664SOL     OW32890   2.221   5.181   6.961
10664SOL    HW132891   2.274   5.158   0.022
10664SOL    HW232892   2.251   5.125   6.884
10665SOL     OW32893   6.435   2.022   1.368
10665SOL    HW132894   6.526   1.982   1.357
10665SOL    HW232895   6.391   1.984   1.449
10666SOL     OW32896   2.285   6.034   0.138
10666SOL    HW132897   2.282   6.000   0.044
10666SOL    HW232898   2.192   6.054   0.169
10667SOL     OW32899   3.633   1.916   5.662
10667SOL    HW132900   3.715   1.954   5.705
10667SOL    HW232901   3.654   1.888   5.568
10668SOL     OW32902   1.708   1.384   6.706
10668SOL    HW132903   1.692   1.292   6.670
10668SOL    HW232904   1.672   1.452   6.642
10669SOL     OW32905   1.650   6.695   6.913
10669SOL    HW132906   1.606   6.784   6.901
10669SOL    HW232907   1.679   6.684   7.008
10670SOL     OW32908   5.730   4.193   5.885
10670SOL    HW132909   5.712   4.106   5.930
10670SOL    HW232910   5.644   4.240   5.866
10671SOL     OW32911   2.108   2.098   2.866
10671SOL    HW132912   2.109   2.181   2.811
10671SOL    HW232913   2.046   2.110   2.943
10672SOL     OW32914   0.038   2.801   1.096
10672SOL    HW132915   6.968   2.757   1.098
10672SOL    HW232916   0.044   2.869   1.169
10673SOL     OW32917   2.708   3.151   5.303
10673SOL    HW132918   2.769   3.193   5.236
10673SOL    HW232919   2.628   3.113   5.256
10674SOL     OW32920   4.175   3.631   1.505
10674SOL    HW132921   4.130   3.551   1.545
10674SOL    HW232922   4.274   3.619   1.508
10675SOL     OW32923   0.491   0.294   5.654
10675SOL    HW132924   0.393   0.306   5.643
10675SOL    HW232925   0.508   0.227   5.727
10676SOL     OW32926   6.375   6.726   6.590
10676SOL    HW132927   6.355   6.735   6.688
10676SOL    HW232928   6.425   6.641   6.574
10677SOL     OW32929   0.584   0.624   0.688
10677SOL    HW132930   0.598   0.688   0.764
10677SOL    HW232931   0.487   0.624   0.662
10678SOL     OW32932   2.110   5.877   2.297
10678SOL    HW132933   2.011   5.880   2.280
10678SOL    HW232934   2.133   5.941   2.370
10679SOL     OW32935   5.416   5.203   3.879
10679SOL    HW132936   5.342   5.229   3.817
10679SOL    HW232937   5.451   5.285   3.925
10680SOL     OW32938   1.561   3.330   2.654
10680SOL    HW132939   1.636   3.368   2.707
10680SOL    HW232940   1.547   3.234   2.681
10681SOL     OW32941   6.455   2.515   5.878
10681SOL    HW132942   6.439   2.493   5.974
10681SOL    HW232943   6.386   2.470   5.821
10682SOL     OW32944   0.130   1.484   2.712
10682SOL    HW132945   0.048   1.429   2.729
10682SOL    HW232946   0.190   1.435   2.650
10683SOL     OW32947   1.697   1.722   5.265
10683SOL    HW132948   1.723   1.776   5.184
10683SOL    HW232949   1.598   1.716   5.271
10684SOL     OW32950   6.394   4.718   0.390
10684SOL    HW132951   6.377   4.629   0.433
10684SOL    HW232952   6.492   4.735   0.385
10685SOL     OW32953   0.638   2.793   3.004
10685SOL    HW132954   0.586   2.709   3.018
10685SOL    HW232955   0.576   2.871   2.998
10686SOL     OW32956   2.926   5.485   0.238
10686SOL    HW132957   2.968   5.508   0.150
10686SOL    HW232958   2.944   5.390   0.260
10687SOL     OW32959   0.340   4.680   2.864
10687SOL    HW132960   0.352   4.736   2.782
10687SOL    HW232961   0.300   4.736   2.937
10688SOL     OW32962   6.608   4.919   1.743
10688SOL    HW132963   6.578   4.976   1.820
10688SOL    HW232964   6.579   4.962   1.657
10689SOL     OW32965   0.876   0.536   2.613
10689SOL    HW132966   0.799   0.510   2.555
10689SOL    HW232967   0.853   0.521   2.709
10690SOL     OW32968   4.129   4.913   1.912
10690SOL    HW132969   4.064   4.907   1.987
10690SOL    HW232970   4.159   4.822   1.885
10691SOL     OW32971   6.820   0.970   1.761
10691SOL    HW132972   6.746   1.036   1.746
10691SOL    HW232973   6.905   1.020   1.776
10692SOL     OW32974   3.761   6.031   3.521
10692SOL    HW132975   3.806   6.095   3.459
10692SOL    HW232976   3.738   5.948   3.471
10693SOL     OW32977   6.749   1.457   1.845
10693SOL    HW132978   6.848   1.471   1.843
10693SOL    HW232979   6.728   1.364   1.816
10694SOL     OW32980   4.165   6.443   0.255
10694SOL    HW132981   4.222   6.403   0.327
10694SOL    HW232982   4.186   6.540   0.246
10695SOL     OW32983   0.265   2.705   4.049
10695SOL    HW132984   0.183   2.722   3.994
10695SOL    HW232985   0.346   2.719   3.993
10696SOL     OW32986   6.922   5.835   1.616
10696SOL    HW132987   6.829   5.807   1.591
10696SOL    HW232988   6.962   5.767   1.677
10697SOL     OW32989   1.927   5.834   3.662
10697SOL    HW132990   1.934   5.814   3.565
10697SOL    HW232991   2.018   5.846   3.701
10698SOL     OW32992   2.819   6.726   3.689
10698SOL    HW132993   2.856   6.796   3.750
10698SOL    HW232994   2.864   6.733   3.600
10699SOL     OW32995   2.883   2.278   3.013
10699SOL    HW132996   2.882   2.179   3.006
10699SOL    HW232997   2.894   2.318   2.922
10700SOL     OW32998   6.444   6.541   0.803
10700SOL    HW132999   6.466   6.576   0.894
10700SOL    HW233000   6.361   6.486   0.808
10701SOL     OW33001   2.548   6.586   1.248
10701SOL    HW133002   2.486   6.577   1.170
10701SOL    HW233003   2.495   6.581   1.333
10702SOL     OW33004   6.126   3.015   0.951
10702SOL    HW133005   6.085   3.027   1.042
10702SOL    HW233006   6.129   2.918   0.928
10703SOL     OW33007   3.865   4.042   4.334
10703SOL    HW133008   3.812   3.966   4.372
10703SOL    HW233009   3.923   4.081   4.405
10704SOL     OW33010   5.131   0.397   2.117
10704SOL    HW133011   5.046   0.346   2.108
10704SOL    HW233012   5.130   0.448   2.203
10705SOL     OW33013   0.046   2.921   5.885
10705SOL    HW133014   0.051   3.016   5.856
10705SOL    HW233015   0.051   2.861   5.805
10706SOL     OW33016   3.414   1.188   2.208
10706SOL    HW133017   3.319   1.162   2.219
10706SOL    HW233018   3.434   1.204   2.111
10707SOL     OW33019   6.145   6.957   6.136
10707SOL    HW133020   6.236   6.997   6.131
10707SOL    HW233021   6.096   6.973   6.050
10708SOL     OW33022   4.506   1.277   0.870
10708SOL    HW133023   4.529   1.269   0.773
10708SOL    HW233024   4.475   1.370   0.889
10709SOL     OW33025   6.168   6.472   5.828
10709SOL    HW133026   6.255   6.427   5.849
10709SOL    HW233027   6.162   6.559   5.876
10710SOL     OW33028   5.955   5.416   3.242
10710SOL    HW133029   6.015   5.482   3.287
10710SOL    HW233030   5.882   5.463   3.193
10711SOL     OW33031   1.629   6.983   3.867
10711SOL    HW133032   1.694   6.968   3.942
10711SOL    HW233033   1.543   7.019   3.904
10712SOL     OW33034   3.600   1.653   4.958
10712SOL    HW133035   3.557   1.570   4.924
10712SOL    HW233036   3.638   1.705   4.881
10713SOL     OW33037   1.127   5.832   1.690
10713SOL    HW133038   1.153   5.795   1.779
10713SOL    HW233039   1.032   5.863   1.693
10714SOL     OW33040   6.806   5.195   5.783
10714SOL    HW133041   6.812   5.284   5.828
10714SOL    HW233042   6.822   5.123   5.851
10715SOL     OW33043   5.543   1.130   4.208
10715SOL    HW133044   5.633   1.172   4.199
10715SOL    HW233045   5.477   1.179   4.152
10716SOL     OW33046   6.454   0.114   3.686
10716SOL    HW133047   6.492   0.207   3.693
10716SOL    HW233048   6.528   0.047   3.690
10717SOL     OW33049   6.864   0.164   1.427
10717SOL    HW133050   6.777   0.199   1.462
10717SOL    HW233051   6.935   0.176   1.495
10718SOL     OW33052   0.021   4.906   0.388
10718SOL    HW133053   0.065   4.928   0.475
10718SOL    HW233054   0.000   4.808   0.385
10719SOL     OW33055   5.757   0.956   1.898
10719SOL    HW133056   5.695   0.914   1.965
10719SOL    HW233057   5.796   1.039   1.937
10720SOL     OW33058   0.449   3.369   6.586
10720SOL    HW133059   0.426   3.272   6.580
10720SOL    HW233060   0.548   3.380   6.579
10721SOL     OW33061   4.751   2.427   4.199
10721SOL    HW133062   4.756   2.394   4.293
10721SOL    HW233063   4.837   2.410   4.152
10722SOL     OW33064   0.407   3.904   0.007
10722SOL    HW133065   0.379   3.841   0.079
10722SOL    HW233066   0.398   3.859   6.938
10723SOL     OW33067   6.173   3.991   6.801
10723SOL    HW133068   6.260   3.942   6.806
10723SOL    HW233069   6.151   4.010   6.706
10724SOL     OW33070   4.227   6.434   5.633
10724SOL    HW133071   4.286   6.512   5.611
10724SOL    HW233072   4.136   6.450   5.596
10725SOL     OW33073   6.998   6.125   5.082
10725SOL    HW133074   7.014   6.213   5.127
10725SOL    HW233075   6.973   6.056   5.150
10726SOL     OW33076   5.124   1.318   4.430
10726SOL    HW133077   5.048   1.254   4.441
10726SOL    HW233078   5.146   1.327   4.333
10727SOL     OW33079   2.112   6.060   6.037
10727SOL    HW133080   2.012   6.057   6.036
10727SOL    HW233081   2.143   6.145   6.078
10728SOL     OW33082   5.120   5.781   2.880
10728SOL    HW133083   5.215   5.798   2.855
10728SOL    HW233084   5.064   5.773   2.797
10729SOL     OW33085   5.855   2.869   2.865
10729SOL    HW133086   5.878   2.944   2.803
10729SOL    HW233087   5.788   2.901   2.932
10730SOL     OW33088   2.216   6.200   2.843
10730SOL    HW133089   2.232   6.148   2.927
10730SOL    HW233090   2.263   6.156   2.767
10731SOL     OW33091   4.448   0.199   6.515
10731SOL    HW133092   4.495   0.275   6.560
10731SOL    HW233093   4.479   0.191   6.421
10732SOL     OW33094   5.951   6.342   2.834
10732SOL    HW133095   5.925   6.415   2.770
10732SOL    HW233096   5.881   6.333   2.905
10733SOL     OW33097   0.609   0.829   6.114
10733SOL    HW133098   0.552   0.830   6.031
10733SOL    HW233099   0.618   0.736   6.147
10734SOL     OW33100   0.903   1.431   5.206
10734SOL    HW133101   0.931   1.376   5.285
10734SOL    HW233102   0.825   1.489   5.231
10735SOL     OW33103   1.293   5.486   2.138
10735SOL    HW133104   1.292   5.472   2.237
10735SOL    HW233105   1.287   5.398   2.092
10736SOL     OW33106   5.753   6.965   3.427
10736SOL    HW133107   5.753   6.963   3.527
10736SOL    HW233108   5.795   6.881   3.392
10737SOL     OW33109   6.578   1.511   2.138
10737SOL    HW133110   6.660   1.488   2.085
10737SOL    HW233111   6.588   1.602   2.177
10738SOL     OW33112   3.316   1.029   1.824
10738SOL    HW133113   3.223   1.011   1.856
10738SOL    HW233114   3.381   0.974   1.876
10739SOL     OW33115   5.707   2.278   3.170
10739SOL    HW133116   5.790   2.268   3.115
10739SOL    HW233117   5.669   2.369   3.157
10740SOL     OW33118   1.824   6.578   6.292
10740SOL    HW133119   1.869   6.583   6.381
10740SOL    HW233120   1.850   6.657   6.237
10741SOL     OW33121   2.462   2.442   3.590
10741SOL    HW133122   2.482   2.453   3.493
10741SOL    HW233123   2.423   2.352   3.606
10742SOL     OW33124   6.138   6.882   2.636
10742SOL    HW133125   6.225   6.861   2.591
10742SOL    HW233126   6.131   6.830   2.722
10743SOL     OW33127   3.579   1.334   5.820
10743SOL    HW133128   3.493   1.352   5.869
10743SOL    HW233129   3.614   1.244   5.844
10744SOL     OW33130   1.895   0.006   0.385
10744SOL    HW133131   1.948   7.005   0.467
10744SOL    HW233132   1.916   0.098   0.355
10745SOL     OW33133   1.671   4.918   1.451
10745SOL    HW133134   1.687   4.953   1.543
10745SOL    HW233135   1.577   4.883   1.445
10746SOL     OW33136   1.649   5.887   6.415
10746SOL    HW133137   1.681   5.840   6.497
10746SOL    HW233138   1.727   5.930   6.369
10747SOL     OW33139   5.770   1.296   5.173
10747SOL    HW133140   5.831   1.296   5.252
10747SOL    HW233141   5.785   1.212   5.120
10748SOL     OW33142   4.214   6.017   0.869
10748SOL    HW133143   4.215   6.114   0.891
10748SOL    HW233144   4.205   6.005   0.770
10749SOL     OW33145   5.352   5.945   2.274
10749SOL    HW133146   5.359   6.044   2.270
10749SOL    HW233147   5.278   5.914   2.214
10750SOL     OW33148   5.057   2.081   4.202
10750SOL    HW133149   4.998   2.031   4.266
10750SOL    HW233150   5.059   2.178   4.227
10751SOL     OW33151   0.105   5.195   5.365
10751SOL    HW133152   0.125   5.119   5.428
10751SOL    HW233153   0.008   5.193   5.340
10752SOL     OW33154   5.778   6.270   0.399
10752SOL    HW133155   5.702   6.305   0.453
10752SOL    HW233156   5.788   6.172   0.415
10753SOL     OW33157   4.719   6.720   4.057
10753SOL    HW133158   4.736   6.805   4.007
10753SOL    HW233159   4.621   6.707   4.070
10754SOL     OW33160   1.308   3.664   1.392
10754SOL    HW133161   1.314   3.608   1.309
10754SOL    HW233162   1.288   3.758   1.366
10755SOL     OW33163   6.196   3.384   1.313
10755SOL    HW133164   6.099   3.394   1.333
10755SOL    HW233165   6.226   3.460   1.255
10756SOL     OW33166   0.626   1.635   1.057
10756SOL    HW133167   0.559   1.707   1.043
10756SOL    HW233168   0.589   1.547   1.026
10757SOL     OW33169   0.575   3.951   1.563
10757SOL    HW133170   0.639   3.961   1.640
10757SOL    HW233171   0.614   3.889   1.495
10758SOL     OW33172   0.725   0.492   6.450
10758SOL    HW133173   0.727   0.400   6.411
10758SOL    HW233174   0.809   0.540   6.426
10759SOL     OW33175   2.459   2.403   6.478
10759SOL    HW133176   2.492   2.421   6.385
10759SOL    HW233177   2.375   2.348   6.473
10760SOL     OW33178   0.773   5.350   0.737
10760SOL    HW133179   0.677   5.357   0.764
10760SOL    HW233180   0.804   5.255   0.745
10761SOL     OW33181   0.535   1.551   6.131
10761SOL    HW133182   0.516   1.529   6.035
10761SOL    HW233183   0.566   1.468   6.179
10762SOL     OW33184   3.393   6.135   6.096
10762SOL    HW133185   3.348   6.222   6.080
10762SOL    HW233186   3.394   6.082   6.011
10763SOL     OW33187   5.123   0.189   3.023
10763SOL    HW133188   5.144   0.239   3.107
10763SOL    HW233189   5.125   0.251   2.945
10764SOL     OW33190   4.491   0.497   4.642
10764SOL    HW133191   4.522   0.466   4.552
10764SOL    HW233192   4.410   0.554   4.633
10765SOL     OW33193   6.859   1.911   2.721
10765SOL    HW133194   6.938   1.973   2.716
10765SOL    HW233195   6.889   1.817   2.709
10766SOL     OW33196   1.496   5.146   6.445
10766SOL    HW133197   1.595   5.144   6.460
10766SOL    HW233198   1.473   5.085   6.368
10767SOL     OW33199   1.947   5.754   0.616
10767SOL    HW133200   1.979   5.788   0.528
10767SOL    HW233201   1.903   5.666   0.604
10768SOL     OW33202   5.688   5.836   0.616
10768SOL    HW133203   5.689   5.935   0.628
10768SOL    HW233204   5.600   5.799   0.648
10769SOL     OW33205   3.636   3.071   4.622
10769SOL    HW133206   3.733   3.067   4.598
10769SOL    HW233207   3.609   3.167   4.636
10770SOL     OW33208   5.551   0.046   3.867
10770SOL    HW133209   5.525   0.142   3.880
10770SOL    HW233210   5.592   0.012   3.952
10771SOL     OW33211   4.578   6.047   5.733
10771SOL    HW133212   4.622   6.101   5.662
10771SOL    HW233213   4.558   6.106   5.812
10772SOL     OW33214   5.890   4.674   2.696
10772SOL    HW133215   5.879   4.630   2.607
10772SOL    HW233216   5.831   4.755   2.701
10773SOL     OW33217   6.811   3.926   1.691
10773SOL    HW133218   6.790   3.839   1.645
10773SOL    HW233219   6.813   4.000   1.624
10774SOL     OW33220   1.171   3.066   0.530
10774SOL    HW133221   1.120   2.980   0.529
10774SOL    HW233222   1.260   3.052   0.572
10775SOL     OW33223   1.538   4.257   0.650
10775SOL    HW133224   1.629   4.254   0.693
10775SOL    HW233225   1.468   4.254   0.721
10776SOL     OW33226   1.125   1.752   3.647
10776SOL    HW133227   1.105   1.679   3.582
10776SOL    HW233228   1.042   1.777   3.697
10777SOL     OW33229   3.482   1.302   1.964
10777SOL    HW133230   3.517   1.391   1.937
10777SOL    HW233231   3.392   1.287   1.923
10778SOL     OW33232   6.141   6.493   3.171
10778SOL    HW133233   6.107   6.488   3.265
10778SOL    HW233234   6.125   6.405   3.125
10779SOL     OW33235   5.242   3.856   4.414
10779SOL    HW133236   5.323   3.816   4.372
10779SOL    HW233237   5.267   3.900   4.500
10780SOL     OW33238   1.695   6.087   5.103
10780SOL    HW133239   1.623   6.060   5.167
10780SOL    HW233240   1.663   6.071   5.009
10781SOL     OW33241   5.919   2.360   5.213
10781SOL    HW133242   5.886   2.277   5.168
10781SOL    HW233243   5.869   2.374   5.298
10782SOL     OW33244   1.501   2.699   5.007
10782SOL    HW133245   1.510   2.621   5.069
10782SOL    HW233246   1.576   2.763   5.022
10783SOL     OW33247   1.326   2.729   2.821
10783SOL    HW133248   1.308   2.827   2.834
10783SOL    HW233249   1.240   2.678   2.829
10784SOL     OW33250   3.837   6.206   2.417
10784SOL    HW133251   3.861   6.293   2.460
10784SOL    HW233252   3.858   6.131   2.480
10785SOL     OW33253   1.951   5.571   2.374
10785SOL    HW133254   1.881   5.502   2.391
10785SOL    HW233255   1.931   5.618   2.288
10786SOL     OW33256   3.911   1.197   1.889
10786SOL    HW133257   3.880   1.254   1.813
10786SOL    HW233258   3.994   1.236   1.928
10787SOL     OW33259   3.795   1.293   3.485
10787SOL    HW133260   3.858   1.219   3.463
10787SOL    HW233261   3.741   1.316   3.404
10788SOL     OW33262   1.028   4.878   0.680
10788SOL    HW133263   1.095   4.879   0.754
10788SOL    HW233264   1.013   4.784   0.650
10789SOL     OW33265   6.417   1.640   1.002
10789SOL    HW133266   6.508   1.657   1.040
10789SOL    HW233267   6.395   1.712   0.935
10790SOL     OW33268   0.693   2.263   4.901
10790SOL    HW133269   0.617   2.256   4.836
10790SOL    HW233270   0.721   2.171   4.928
10791SOL     OW33271   1.548   1.935   3.396
10791SOL    HW133272   1.489   2.007   3.432
10791SOL    HW233273   1.502   1.847   3.406
10792SOL     OW33274   4.023   1.911   1.380
10792SOL    HW133275   3.993   1.973   1.453
10792SOL    HW233276   3.948   1.850   1.355
10793SOL     OW33277   4.414   1.689   4.865
10793SOL    HW133278   4.345   1.637   4.916
10793SOL    HW233279   4.369   1.750   4.801
10794SOL     OW33280   4.305   2.542   0.793
10794SOL    HW133281   4.316   2.621   0.733
10794SOL    HW233282   4.395   2.511   0.824
10795SOL     OW33283   0.502   3.867   3.392
10795SOL    HW133284   0.435   3.803   3.354
10795SOL    HW233285   0.517   3.941   3.327
10796SOL     OW33286   0.025   6.782   6.450
10796SOL    HW133287   0.021   6.876   6.482
10796SOL    HW233288   6.995   6.723   6.514
10797SOL     OW33289   4.126   3.803   0.028
10797SOL    HW133290   4.216   3.760   0.022
10797SOL    HW233291   4.113   3.839   0.120
10798SOL     OW33292   2.415   6.989   6.672
10798SOL    HW133293   2.515   6.987   6.671
10798SOL    HW233294   2.381   6.943   6.754
10799SOL     OW33295   2.537   1.163   3.002
10799SOL    HW133296   2.459   1.100   2.991
10799SOL    HW233297   2.618   1.123   2.958
10800SOL     OW33298   2.145   0.299   5.566
10800SOL    HW133299   2.129   0.285   5.664
10800SOL    HW233300   2.114   0.390   5.540
10801SOL     OW33301   2.626   6.512   5.881
10801SOL    HW133302   2.596   6.440   5.944
10801SOL    HW233303   2.620   6.601   5.927
10802SOL     OW33304   0.458   4.433   4.218
10802SOL    HW133305   0.490   4.526   4.198
10802SOL    HW233306   0.502   4.369   4.156
10803SOL     OW33307   0.178   4.406   4.699
10803SOL    HW133308   0.128   4.361   4.773
10803SOL    HW233309   0.121   4.406   4.617
10804SOL     OW33310   5.065   4.608   1.672
10804SOL    HW133311   5.067   4.706   1.651
10804SOL    HW233312   5.038   4.557   1.591
10805SOL     OW33313   4.203   6.854   0.448
10805SOL    HW133314   4.209   6.794   0.368
10805SOL    HW233315   4.264   6.932   0.435
10806SOL     OW33316   5.265   3.568   6.948
10806SOL    HW133317   5.293   3.656   6.985
10806SOL    HW233318   5.236   3.578   6.853
10807SOL     OW33319   4.529   6.631   3.210
10807SOL    HW133320   4.557   6.726   3.224
10807SOL    HW233321   4.440   6.616   3.254
10808SOL     OW33322   0.021   2.868   6.284
10808SOL    HW133323   0.030   2.944   6.219
10808SOL    HW233324   0.100   2.868   6.346
10809SOL     OW33325   2.449   0.915   3.289
10809SOL    HW133326   2.405   1.004   3.300
10809SOL    HW233327   2.534   0.926   3.238
10810SOL     OW33328   0.206   1.649   5.614
10810SOL    HW133329   0.296   1.689   5.628
10810SOL    HW233330   0.214   1.567   5.558
10811SOL     OW33331   4.565   4.497   5.495
10811SOL    HW133332   4.589   4.405   5.524
10811SOL    HW233333   4.538   4.551   5.574
10812SOL     OW33334   6.690   2.239   3.243
10812SOL    HW133335   6.679   2.186   3.326
10812SOL    HW233336   6.600   2.256   3.201
10813SOL     OW33337   2.798   6.132   1.374
10813SOL    HW133338   2.759   6.151   1.284
10813SOL    HW233339   2.803   6.217   1.427
10814SOL     OW33340   1.599   6.862   4.969
10814SOL    HW133341   1.612   6.791   4.900
10814SOL    HW233342   1.659   6.939   4.948
10815SOL     OW33343   4.959   2.383   2.738
10815SOL    HW133344   4.873   2.348   2.701
10815SOL    HW233345   4.942   2.423   2.828
10816SOL     OW33346   2.102   1.617   2.094
10816SOL    HW133347   2.008   1.591   2.114
10816SOL    HW233348   2.151   1.636   2.180
10817SOL     OW33349   4.779   0.063   2.083
10817SOL    HW133350   4.815   0.004   2.011
10817SOL    HW233351   4.690   0.029   2.114
10818SOL     OW33352   4.924   3.580   6.866
10818SOL    HW133353   4.901   3.484   6.876
10818SOL    HW233354   4.953   3.597   6.772
10819SOL     OW33355   0.304   3.874   6.383
10819SOL    HW133356   0.211   3.890   6.352
10819SOL    HW233357   0.312   3.781   6.419
10820SOL     OW33358   0.258   0.027   4.427
10820SOL    HW133359   0.223   0.103   4.372
10820SOL    HW233360   0.225   0.036   4.521
10821SOL     OW33361   6.998   0.455   0.223
10821SOL    HW133362   7.015   0.371   0.172
10821SOL    HW233363   0.065   0.501   0.241
10822SOL     OW33364   1.312   4.463   0.895
10822SOL    HW133365   1.406   4.496   0.887
10822SOL    HW233366   1.309   4.367   0.866
10823SOL     OW33367   1.609   0.800   1.149
10823SOL    HW133368   1.547   0.836   1.079
10823SOL    HW233369   1.676   0.739   1.106
10824SOL     OW33370   5.428   0.481   2.682
10824SOL    HW133371   5.331   0.504   2.682
10824SOL    HW233372   5.450   0.429   2.764
10825SOL     OW33373   3.429   1.264   1.397
10825SOL    HW133374   3.527   1.273   1.377
10825SOL    HW233375   3.417   1.232   1.490
10826SOL     OW33376   6.752   3.163   1.717
10826SOL    HW133377   6.846   3.133   1.735
10826SOL    HW233378   6.747   3.205   1.626
10827SOL     OW33379   0.037   2.580   4.213
10827SOL    HW133380   0.103   2.596   4.139
10827SOL    HW233381   6.965   2.598   4.179
10828SOL     OW33382   0.893   5.664   0.435
10828SOL    HW133383   0.957   5.732   0.473
10828SOL    HW233384   0.909   5.576   0.480
10829SOL     OW33385   2.816   3.504   1.345
10829SOL    HW133386   2.813   3.477   1.249
10829SOL    HW233387   2.903   3.550   1.364
10830SOL     OW33388   4.543   2.284   3.813
10830SOL    HW133389   4.567   2.243   3.724
10830SOL    HW233390   4.480   2.360   3.798
10831SOL     OW33391   5.522   2.086   3.230
10831SOL    HW133392   5.561   2.009   3.280
10831SOL    HW233393   5.594   2.153   3.210
10832SOL     OW33394   0.334   1.719   1.324
10832SOL    HW133395   0.375   1.741   1.413
10832SOL    HW233396   0.326   1.619   1.316
10833SOL     OW33397   3.166   6.814   4.697
10833SOL    HW133398   3.137   6.719   4.682
10833SOL    HW233399   3.266   6.820   4.693
10834SOL     OW33400   0.341   1.066   5.358
10834SOL    HW133401   0.318   1.108   5.446
10834SOL    HW233402   0.258   1.060   5.302
10835SOL     OW33403   6.809   1.839   2.456
10835SOL    HW133404   6.801   1.860   2.554
10835SOL    HW233405   6.903   1.854   2.426
10836SOL     OW33406   1.791   2.410   6.551
10836SOL    HW133407   1.738   2.476   6.605
10836SOL    HW233408   1.761   2.317   6.573
10837SOL     OW33409   0.632   5.209   0.931
10837SOL    HW133410   0.567   5.285   0.925
10837SOL    HW233411   0.716   5.240   0.975
10838SOL     OW33412   5.985   0.330   0.440
10838SOL    HW133413   6.052   0.263   0.473
10838SOL    HW233414   6.032   0.410   0.404
10839SOL     OW33415   1.821   2.133   0.927
10839SOL    HW133416   1.895   2.077   0.964
10839SOL    HW233417   1.813   2.217   0.980
10840SOL     OW33418   3.578   5.556   2.605
10840SOL    HW133419   3.496   5.517   2.562
10840SOL    HW233420   3.630   5.483   2.649
10841SOL     OW33421   4.319   4.129   5.980
10841SOL    HW133422   4.295   4.037   6.011
10841SOL    HW233423   4.419   4.141   5.984
10842SOL     OW33424   6.329   3.218   1.473
10842SOL    HW133425   6.286   3.275   1.402
10842SOL    HW233426   6.305   3.255   1.563
10843SOL     OW33427   0.402   1.151   1.657
10843SOL    HW133428   0.494   1.146   1.694
10843SOL    HW233429   0.364   1.059   1.648
10844SOL     OW33430   3.996   6.678   3.608
10844SOL    HW133431   3.902   6.667   3.576
10844SOL    HW233432   4.034   6.588   3.631
10845SOL     OW33433   2.154   2.400   0.839
10845SOL    HW133434   2.059   2.426   0.821
10845SOL    HW233435   2.214   2.458   0.784
10846SOL     OW33436   3.413   1.797   1.822
10846SOL    HW133437   3.416   1.881   1.876
10846SOL    HW233438   3.460   1.813   1.735
10847SOL     OW33439   4.360   2.720   6.219
10847SOL    HW133440   4.371   2.658   6.141
10847SOL    HW233441   4.329   2.809   6.186
10848SOL     OW33442   1.562   1.073   6.894
10848SOL    HW133443   1.540   1.117   6.807
10848SOL    HW233444   1.489   1.090   6.960
10849SOL     OW33445   2.673   4.890   4.144
10849SOL    HW133446   2.772   4.886   4.130
10849SOL    HW233447   2.652   4.962   4.210
10850SOL     OW33448   4.854   6.680   1.084
10850SOL    HW133449   4.922   6.645   1.019
10850SOL    HW233450   4.896   6.690   1.174
10851SOL     OW33451   4.271   1.907   6.521
10851SOL    HW133452   4.350   1.855   6.489
10851SOL    HW233453   4.198   1.903   6.453
10852SOL     OW33454   0.491   0.089   6.272
10852SOL    HW133455   0.483   0.185   6.243
10852SOL    HW233456   0.459   0.029   6.199
10853SOL     OW33457   2.369   1.383   4.632
10853SOL    HW133458   2.271   1.390   4.653
10853SOL    HW233459   2.420   1.376   4.718
10854SOL     OW33460   6.656   6.505   0.413
10854SOL    HW133461   6.638   6.540   0.321
10854SOL    HW233462   6.755   6.505   0.429
10855SOL     OW33463   0.938   6.482   1.231
10855SOL    HW133464   0.926   6.488   1.330
10855SOL    HW233465   0.884   6.406   1.195
10856SOL     OW33466   6.388   0.104   6.680
10856SOL    HW133467   6.296   0.067   6.668
10856SOL    HW233468   6.455   0.035   6.654
10857SOL     OW33469   6.266   0.604   4.459
10857SOL    HW133470   6.366   0.592   4.465
10857SOL    HW233471   6.228   0.539   4.394
10858SOL     OW33472   1.954   1.963   1.061
10858SOL    HW133473   2.023   1.930   0.997
10858SOL    HW233474   1.979   1.938   1.154
10859SOL     OW33475   0.721   4.939   2.487
10859SOL    HW133476   0.683   4.927   2.395
10859SOL    HW233477   0.649   4.974   2.548
10860SOL     OW33478   6.369   1.854   0.818
10860SOL    HW133479   6.292   1.821   0.764
10860SOL    HW233480   6.361   1.953   0.830
10861SOL     OW33481   3.492   2.846   2.165
10861SOL    HW133482   3.408   2.878   2.208
10861SOL    HW233483   3.500   2.747   2.176
10862SOL     OW33484   4.039   3.037   5.593
10862SOL    HW133485   3.956   3.092   5.602
10862SOL    HW233486   4.018   2.942   5.613
10863SOL     OW33487   2.118   1.707   3.068
10863SOL    HW133488   2.077   1.632   3.120
10863SOL    HW233489   2.195   1.673   3.014
10864SOL     OW33490   3.165   4.909   2.119
10864SOL    HW133491   3.066   4.923   2.114
10864SOL    HW233492   3.192   4.840   2.051
10865SOL     OW33493   3.350   1.380   3.143
10865SOL    HW133494   3.389   1.340   3.060
10865SOL    HW233495   3.370   1.321   3.221
10866SOL     OW33496   0.236   3.796   3.313
10866SOL    HW133497   0.159   3.802   3.250
10866SOL    HW233498   0.208   3.830   3.403
10867SOL     OW33499   4.470   3.449   0.792
10867SOL    HW133500   4.486   3.351   0.801
10867SOL    HW233501   4.553   3.494   0.758
10868SOL     OW33502   1.027   1.387   4.961
10868SOL    HW133503   0.983   1.399   5.050
10868SOL    HW233504   0.957   1.366   4.892
10869NA      NA33505   6.693   2.581   5.835
10870NA      NA33506   4.442   4.656   5.146
10871NA      NA33507   1.072   4.787   2.787
10872NA      NA33508   5.605   3.838   3.491
10873NA      NA33509   3.837   2.202   5.236
10874NA      NA33510   2.242   4.928   0.287
10875NA      NA33511   1.412   5.375   6.991
10876NA      NA33512   3.405   4.254   0.951
10877NA      NA33513   4.587   5.371   0.759
10878NA      NA33514   3.156   0.872   6.346
10879NA      NA33515   5.637   6.826   1.848
10880NA      NA33516   1.815   6.828   5.317
10881NA      NA33517   3.929   5.173   1.911
10882NA      NA33518   3.824   3.260   6.690
   7.01999   7.01999   7.01999
