Generated by trjconv : CNT in water t= 161.00000
33518
    1C        C    1   2.842   2.767   4.749
    1C        C    2   2.896   2.716   4.869
    1C        C    3   2.837   2.769   4.985
    1C        C    4   2.851   2.775   4.260
    1C        C    5   2.899   2.723   4.382
    1C        C    6   2.844   2.770   4.503
    1C        C    7   3.010   2.640   4.625
    1C        C    8   2.897   2.725   4.626
    1C        C    9   3.077   2.603   4.744
    1C        C   10   3.013   2.636   4.865
    1C        C   11   3.185   2.496   4.978
    1C        C   12   3.062   2.562   4.973
    1C        C   13   2.849   2.770   3.770
    1C        C   14   2.902   2.724   3.892
    1C        C   15   2.853   2.776   4.014
    1C        C   16   3.019   2.647   4.138
    1C        C   17   2.905   2.730   4.137
    1C        C   18   3.083   2.616   4.260
    1C        C   19   3.017   2.645   4.381
    1C        C   20   3.207   2.557   4.504
    1C        C   21   3.075   2.608   4.504
    1C        C   22   3.278   2.534   4.623
    1C        C   23   3.208   2.546   4.745
    1C        C   24   3.414   2.482   4.865
    1C        C   25   3.272   2.502   4.864
    1C        C   26   3.490   2.476   4.982
    1C        C   27   2.854   2.768   3.282
    1C        C   28   2.906   2.722   3.405
    1C        C   29   2.852   2.772   3.526
    1C        C   30   3.018   2.640   3.650
    1C        C   31   2.903   2.723   3.649
    1C        C   32   3.076   2.602   3.773
    1C        C   33   3.015   2.639   3.895
    1C        C   34   3.210   2.553   4.019
    1C        C   35   3.079   2.607   4.017
    1C        C   36   3.280   2.533   4.140
    1C        C   37   3.213   2.562   4.261
    1C        C   38   3.416   2.504   4.381
    1C        C   39   3.279   2.536   4.384
    1C        C   40   3.487   2.496   4.503
    1C        C   41   3.416   2.502   4.625
    1C        C   42   3.631   2.483   4.745
    1C        C   43   3.488   2.482   4.744
    1C        C   44   3.706   2.487   4.864
    1C        C   45   3.629   2.475   4.981
    1C        C   46   2.837   2.752   2.794
    1C        C   47   2.893   2.705   2.915
    1C        C   48   2.843   2.758   3.037
    1C        C   49   3.015   2.633   3.160
    1C        C   50   2.902   2.718   3.159
    1C        C   51   3.077   2.602   3.283
    1C        C   52   3.021   2.640   3.407
    1C        C   53   3.214   2.553   3.528
    1C        C   54   3.082   2.605   3.529
    1C        C   55   3.279   2.535   3.653
    1C        C   56   3.208   2.551   3.774
    1C        C   57   3.416   2.510   3.895
    1C        C   58   3.276   2.532   3.896
    1C        C   59   3.489   2.497   4.015
    1C        C   60   3.418   2.504   4.137
    1C        C   61   3.629   2.498   4.259
    1C        C   62   3.488   2.499   4.259
    1C        C   63   3.701   2.502   4.380
    1C        C   64   3.629   2.497   4.502
    1C        C   65   3.833   2.547   4.624
    1C        C   66   3.701   2.498   4.623
    1C        C   67   3.904   2.566   4.744
    1C        C   68   3.842   2.524   4.864
    1C        C   69   4.051   2.585   4.980
    1C        C   70   3.923   2.527   4.979
    1C        C   71   2.825   2.735   2.310
    1C        C   72   2.884   2.692   2.431
    1C        C   73   2.831   2.744   2.551
    1C        C   74   3.005   2.623   2.671
    1C        C   75   2.887   2.701   2.673
    1C        C   76   3.069   2.589   2.792
    1C        C   77   3.011   2.627   2.915
    1C        C   78   3.209   2.552   3.040
    1C        C   79   3.077   2.602   3.037
    1C        C   80   3.277   2.528   3.162
    1C        C   81   3.209   2.550   3.283
    1C        C   82   3.416   2.501   3.403
    1C        C   83   3.278   2.530   3.405
    1C        C   84   3.485   2.490   3.526
    1C        C   85   3.417   2.505   3.648
    1C        C   86   3.626   2.499   3.768
    1C        C   87   3.485   2.503   3.772
    1C        C   88   3.697   2.505   3.890
    1C        C   89   3.630   2.497   4.015
    1C        C   90   3.838   2.538   4.139
    1C        C   91   3.701   2.503   4.137
    1C        C   92   3.904   2.567   4.260
    1C        C   93   3.836   2.542   4.382
    1C        C   94   4.030   2.632   4.501
    1C        C   95   3.904   2.568   4.503
    1C        C   96   4.090   2.673   4.622
    1C        C   97   4.030   2.632   4.742
    1C        C   98   4.186   2.768   4.864
    1C        C   99   4.099   2.654   4.864
    1C        C  100   4.214   2.843   4.979
    1C        C  101   2.827   2.734   2.070
    1C        C  102   2.994   2.597   2.191
    1C        C  103   2.878   2.680   2.189
    1C        C  104   3.066   2.573   2.312
    1C        C  105   3.004   2.617   2.431
    1C        C  106   3.201   2.531   2.553
    1C        C  107   3.071   2.587   2.552
    1C        C  108   3.271   2.517   2.675
    1C        C  109   3.201   2.538   2.796
    1C        C  110   3.410   2.496   2.915
    1C        C  111   3.271   2.521   2.917
    1C        C  112   3.484   2.486   3.035
    1C        C  113   3.415   2.497   3.158
    1C        C  114   3.627   2.494   3.279
    1C        C  115   3.485   2.491   3.280
    1C        C  116   3.695   2.505   3.402
    1C        C  117   3.626   2.495   3.525
    1C        C  118   3.834   2.541   3.648
    1C        C  119   3.698   2.504   3.646
    1C        C  120   3.898   2.567   3.771
    1C        C  121   3.833   2.543   3.894
    1C        C  122   4.024   2.635   4.014
    1C        C  123   3.901   2.566   4.016
    1C        C  124   4.083   2.678   4.135
    1C        C  125   4.024   2.640   4.258
    1C        C  126   4.193   2.769   4.375
    1C        C  127   4.087   2.675   4.379
    1C        C  128   4.240   2.822   4.498
    1C        C  129   4.193   2.770   4.621
    1C        C  130   4.323   2.937   4.738
    1C        C  131   4.239   2.822   4.744
    1C        C  132   4.350   3.007   4.858
    1C        C  133   4.286   2.962   4.974
    1C        C  134   3.178   2.476   2.079
    1C        C  135   3.044   2.516   2.085
    1C        C  136   3.262   2.481   2.191
    1C        C  137   3.196   2.516   2.311
    1C        C  138   3.406   2.480   2.430
    1C        C  139   3.266   2.498   2.432
    1C        C  140   3.483   2.484   2.549
    1C        C  141   3.409   2.490   2.670
    1C        C  142   3.621   2.492   2.791
    1C        C  143   3.480   2.493   2.792
    1C        C  144   3.695   2.501   2.911
    1C        C  145   3.625   2.494   3.034
    1C        C  146   3.834   2.533   3.156
    1C        C  147   3.697   2.499   3.156
    1C        C  148   3.899   2.562   3.278
    1C        C  149   3.832   2.539   3.401
    1C        C  150   4.024   2.626   3.524
    1C        C  151   3.897   2.565   3.523
    1C        C  152   4.084   2.666   3.646
    1C        C  153   4.022   2.634   3.769
    1C        C  154   4.193   2.759   3.888
    1C        C  155   4.081   2.674   3.891
    1C        C  156   4.243   2.814   4.009
    1C        C  157   4.193   2.767   4.132
    1C        C  158   4.335   2.927   4.250
    1C        C  159   4.246   2.817   4.253
    1C        C  160   4.370   2.988   4.372
    1C        C  161   4.328   2.932   4.495
    1C        C  162   4.433   3.117   4.615
    1C        C  163   4.371   2.990   4.616
    1C        C  164   4.459   3.188   4.734
    1C        C  165   4.422   3.128   4.856
    1C        C  166   4.506   3.326   4.970
    1C        C  167   4.470   3.192   4.972
    1C        C  168   3.476   2.439   2.070
    1C        C  169   3.402   2.461   2.187
    1C        C  170   3.618   2.469   2.305
    1C        C  171   3.475   2.466   2.308
    1C        C  172   3.692   2.487   2.424
    1C        C  173   3.624   2.483   2.547
    1C        C  174   3.828   2.539   2.666
    1C        C  175   3.692   2.499   2.670
    1C        C  176   3.896   2.558   2.788
    1C        C  177   3.833   2.532   2.912
    1C        C  178   4.027   2.616   3.034
    1C        C  179   3.901   2.553   3.034
    1C        C  180   4.086   2.658   3.156
    1C        C  181   4.025   2.627   3.279
    1C        C  182   4.192   2.756   3.397
    1C        C  183   4.083   2.667   3.402
    1C        C  184   4.241   2.805   3.520
    1C        C  185   4.193   2.756   3.643
    1C        C  186   4.330   2.920   3.762
    1C        C  187   4.241   2.810   3.765
    1C        C  188   4.376   2.976   3.883
    1C        C  189   4.336   2.920   4.006
    1C        C  190   4.442   3.107   4.125
    1C        C  191   4.378   2.981   4.127
    1C        C  192   4.467   3.173   4.248
    1C        C  193   4.436   3.112   4.372
    1C        C  194   4.504   3.316   4.489
    1C        C  195   4.462   3.181   4.493
    1C        C  196   4.523   3.389   4.608
    1C        C  197   4.515   3.319   4.730
    1C        C  198   4.555   3.535   4.850
    1C        C  199   4.531   3.394   4.850
    1C        C  200   4.584   3.619   4.962
    1C        C  201   3.614   2.419   2.072
    1C        C  202   3.828   2.510   2.184
    1C        C  203   3.693   2.462   2.184
    1C        C  204   3.901   2.536   2.303
    1C        C  205   3.830   2.519   2.424
    1C        C  206   4.026   2.610   2.542
    1C        C  207   3.897   2.553   2.543
    1C        C  208   4.082   2.656   2.663
    1C        C  209   4.019   2.627   2.787
    1C        C  210   4.192   2.746   2.907
    1C        C  211   4.081   2.658   2.910
    1C        C  212   4.242   2.800   3.028
    1C        C  213   4.193   2.749   3.150
    1C        C  214   4.329   2.911   3.274
    1C        C  215   4.243   2.800   3.273
    1C        C  216   4.371   2.971   3.395
    1C        C  217   4.330   2.915   3.517
    1C        C  218   4.433   3.102   3.637
    1C        C  219   4.370   2.976   3.639
    1C        C  220   4.464   3.169   3.758
    1C        C  221   4.437   3.104   3.881
    1C        C  222   4.507   3.306   4.002
    1C        C  223   4.466   3.171   4.002
    1C        C  224   4.517   3.380   4.123
    1C        C  225   4.504   3.309   4.244
    1C        C  226   4.518   3.524   4.367
    1C        C  227   4.512   3.383   4.365
    1C        C  228   4.520   3.598   4.487
    1C        C  229   4.529   3.530   4.610
    1C        C  230   4.510   3.747   4.727
    1C        C  231   4.537   3.607   4.729
    1C        C  232   4.497   3.820   4.848
    1C        C  233   4.542   3.753   4.962
    1C        C  234   4.021   2.605   2.063
    1C        C  235   3.897   2.542   2.066
    1C        C  236   4.085   2.647   2.180
    1C        C  237   4.024   2.607   2.301
    1C        C  238   4.201   2.733   2.423
    1C        C  239   4.088   2.647   2.420
    1C        C  240   4.250   2.787   2.544
    1C        C  241   4.195   2.741   2.665
    1C        C  242   4.332   2.905   2.785
    1C        C  243   4.248   2.792   2.786
    1C        C  244   4.374   2.965   2.907
    1C        C  245   4.329   2.911   3.030
    1C        C  246   4.434   3.096   3.149
    1C        C  247   4.368   2.971   3.152
    1C        C  248   4.456   3.164   3.271
    1C        C  249   4.431   3.099   3.394
    1C        C  250   4.501   3.302   3.514
    1C        C  251   4.455   3.169   3.515
    1C        C  252   4.511   3.372   3.636
    1C        C  253   4.497   3.306   3.760
    1C        C  254   4.526   3.518   3.879
    1C        C  255   4.520   3.377   3.881
    1C        C  256   4.521   3.589   4.001
    1C        C  257   4.519   3.521   4.125
    1C        C  258   4.498   3.734   4.242
    1C        C  259   4.520   3.595   4.245
    1C        C  260   4.475   3.806   4.362
    1C        C  261   4.498   3.738   4.484
    1C        C  262   4.432   3.941   4.603
    1C        C  263   4.488   3.812   4.604
    1C        C  264   4.402   4.008   4.724
    1C        C  265   4.434   3.946   4.847
    1C        C  266   4.318   4.133   4.958
    1C        C  267   4.398   4.019   4.961
    1C        C  268   4.266   2.773   2.064
    1C        C  269   4.199   2.731   2.179
    1C        C  270   4.343   2.890   2.298
    1C        C  271   4.251   2.781   2.300
    1C        C  272   4.380   2.954   2.419
    1C        C  273   4.341   2.895   2.541
    1C        C  274   4.443   3.084   2.661
    1C        C  275   4.377   2.959   2.662
    1C        C  276   4.469   3.154   2.780
    1C        C  277   4.439   3.090   2.903
    1C        C  278   4.503   3.293   3.024
    1C        C  279   4.463   3.157   3.025
    1C        C  280   4.510   3.366   3.145
    1C        C  281   4.493   3.300   3.268
    1C        C  282   4.521   3.510   3.388
    1C        C  283   4.512   3.369   3.390
    1C        C  284   4.519   3.582   3.510
    1C        C  285   4.520   3.513   3.634
    1C        C  286   4.495   3.725   3.754
    1C        C  287   4.522   3.586   3.755
    1C        C  288   4.481   3.795   3.876
    1C        C  289   4.501   3.729   3.999
    1C        C  290   4.432   3.933   4.115
    1C        C  291   4.485   3.801   4.119
    1C        C  292   4.404   4.000   4.236
    1C        C  293   4.430   3.940   4.361
    1C        C  294   4.327   4.128   4.479
    1C        C  295   4.396   4.005   4.482
    1C        C  296   4.290   4.191   4.600
    1C        C  297   4.335   4.133   4.720
    1C        C  298   4.205   4.314   4.841
    1C        C  299   4.294   4.201   4.839
    1C        C  300   4.167   4.402   4.946
    1C        C  301   4.356   2.879   2.063
    1C        C  302   4.471   3.069   2.179
    1C        C  303   4.394   2.948   2.179
    1C        C  304   4.481   3.145   2.299
    1C        C  305   4.443   3.081   2.419
    1C        C  306   4.518   3.283   2.537
    1C        C  307   4.473   3.149   2.539
    1C        C  308   4.521   3.357   2.657
    1C        C  309   4.503   3.291   2.781
    1C        C  310   4.527   3.503   2.901
    1C        C  311   4.517   3.362   2.902
    1C        C  312   4.526   3.577   3.021
    1C        C  313   4.525   3.507   3.144
    1C        C  314   4.495   3.718   3.264
    1C        C  315   4.524   3.580   3.265
    1C        C  316   4.479   3.787   3.387
    1C        C  317   4.499   3.721   3.511
    1C        C  318   4.432   3.926   3.628
    1C        C  319   4.477   3.792   3.631
    1C        C  320   4.403   3.992   3.750
    1C        C  321   4.433   3.928   3.872
    1C        C  322   4.324   4.114   3.989
    1C        C  323   4.400   3.994   3.992
    1C        C  324   4.280   4.170   4.111
    1C        C  325   4.328   4.119   4.234
    1C        C  326   4.190   4.284   4.355
    1C        C  327   4.288   4.181   4.354
    1C        C  328   4.133   4.333   4.475
    1C        C  329   4.193   4.294   4.597
    1C        C  330   4.030   4.434   4.711
    1C        C  331   4.148   4.354   4.717
    1C        C  332   3.972   4.487   4.828
    1C        C  333   4.051   4.481   4.944
    1C        C  334   4.561   3.266   2.065
    1C        C  335   4.533   3.129   2.065
    1C        C  336   4.541   3.351   2.175
    1C        C  337   4.508   3.284   2.295
    1C        C  338   4.526   3.497   2.414
    1C        C  339   4.525   3.355   2.416
    1C        C  340   4.524   3.569   2.535
    1C        C  341   4.527   3.498   2.657
    1C        C  342   4.506   3.712   2.773
    1C        C  343   4.522   3.572   2.777
    1C        C  344   4.490   3.783   2.894
    1C        C  345   4.499   3.715   3.017
    1C        C  346   4.431   3.915   3.136
    1C        C  347   4.477   3.782   3.140
    1C        C  348   4.397   3.977   3.259
    1C        C  349   4.426   3.918   3.384
    1C        C  350   4.324   4.106   3.502
    1C        C  351   4.399   3.986   3.504
    1C        C  352   4.276   4.164   3.622
    1C        C  353   4.321   4.107   3.743
    1C        C  354   4.176   4.261   3.867
    1C        C  355   4.280   4.166   3.865
    1C        C  356   4.126   4.313   3.989
    1C        C  357   4.180   4.270   4.112
    1C        C  358   4.012   4.400   4.229
    1C        C  359   4.130   4.322   4.233
    1C        C  360   3.954   4.447   4.348
    1C        C  361   4.019   4.416   4.470
    1C        C  362   3.831   4.514   4.592
    1C        C  363   3.962   4.462   4.590
    1C        C  364   3.764   4.543   4.712
    1C        C  365   3.839   4.532   4.831
    1C        C  366   3.629   4.590   4.947
    1C        C  367   3.767   4.569   4.946
    1C        C  368   4.519   3.566   2.052
    1C        C  369   4.526   3.491   2.170
    1C        C  370   4.506   3.705   2.286
    1C        C  371   4.523   3.565   2.291
    1C        C  372   4.489   3.777   2.407
    1C        C  373   4.505   3.709   2.529
    1C        C  374   4.429   3.909   2.648
    1C        C  375   4.486   3.780   2.650
    1C        C  376   4.403   3.976   2.769
    1C        C  377   4.434   3.913   2.892
    1C        C  378   4.323   4.095   3.011
    1C        C  379   4.402   3.979   3.013
    1C        C  380   4.276   4.149   3.133
    1C        C  381   4.318   4.094   3.256
    1C        C  382   4.169   4.246   3.376
    1C        C  383   4.277   4.154   3.377
    1C        C  384   4.120   4.300   3.497
    1C        C  385   4.176   4.263   3.622
    1C        C  386   4.008   4.389   3.742
    1C        C  387   4.123   4.308   3.745
    1C        C  388   3.946   4.426   3.864
    1C        C  389   4.009   4.392   3.986
    1C        C  390   3.814   4.479   4.111
    1C        C  391   3.946   4.427   4.107
    1C        C  392   3.748   4.504   4.233
    1C        C  393   3.822   4.498   4.353
    1C        C  394   3.615   4.550   4.475
    1C        C  395   3.754   4.526   4.474
    1C        C  396   3.544   4.562   4.597
    1C        C  397   3.624   4.564   4.714
    1C        C  398   3.409   4.560   4.838
    1C        C  399   3.550   4.575   4.833
    1C        C  400   3.346   4.520   4.956
    1C        C  401   4.507   3.705   2.048
    1C        C  402   4.453   3.914   2.166
    1C        C  403   4.493   3.779   2.167
    1C        C  404   4.412   3.977   2.286
    1C        C  405   4.438   3.909   2.406
    1C        C  406   4.325   4.094   2.524
    1C        C  407   4.397   3.973   2.525
    1C        C  408   4.276   4.147   2.646
    1C        C  409   4.317   4.088   2.767
    1C        C  410   4.175   4.247   2.887
    1C        C  411   4.273   4.146   2.888
    1C        C  412   4.121   4.293   3.010
    1C        C  413   4.176   4.249   3.132
    1C        C  414   4.001   4.372   3.254
    1C        C  415   4.119   4.294   3.253
    1C        C  416   3.940   4.407   3.376
    1C        C  417   4.002   4.377   3.499
    1C        C  418   3.812   4.474   3.620
    1C        C  419   3.940   4.415   3.621
    1C        C  420   3.746   4.497   3.743
    1C        C  421   3.815   4.479   3.865
    1C        C  422   3.611   4.533   3.986
    1C        C  423   3.749   4.504   3.987
    1C        C  424   3.539   4.533   4.108
    1C        C  425   3.609   4.529   4.231
    1C        C  426   3.401   4.548   4.357
    1C        C  427   3.542   4.544   4.354
    1C        C  428   3.330   4.550   4.480
    1C        C  429   3.403   4.563   4.600
    1C        C  430   3.194   4.518   4.724
    1C        C  431   3.330   4.557   4.721
    1C        C  432   3.127   4.489   4.847
    1C        C  433   3.210   4.488   4.960
    1C        C  434   4.386   4.125   2.052
    1C        C  435   4.442   3.997   2.053
    1C        C  436   4.304   4.164   2.163
    1C        C  437   4.335   4.097   2.285
    1C        C  438   4.183   4.254   2.403
    1C        C  439   4.281   4.152   2.403
    1C        C  440   4.124   4.294   2.524
    1C        C  441   4.173   4.244   2.647
    1C        C  442   4.004   4.378   2.768
    1C        C  443   4.118   4.295   2.767
    1C        C  444   3.943   4.414   2.891
    1C        C  445   4.005   4.373   3.011
    1C        C  446   3.809   4.463   3.130
    1C        C  447   3.938   4.405   3.132
    1C        C  448   3.744   4.488   3.252
    1C        C  449   3.811   4.465   3.375
    1C        C  450   3.608   4.527   3.496
    1C        C  451   3.745   4.493   3.497
    1C        C  452   3.541   4.543   3.619
    1C        C  453   3.608   4.528   3.743
    1C        C  454   3.397   4.539   3.866
    1C        C  455   3.538   4.540   3.865
    1C        C  456   3.329   4.534   3.989
    1C        C  457   3.398   4.534   4.112
    1C        C  458   3.192   4.503   4.237
    1C        C  459   3.331   4.528   4.236
    1C        C  460   3.125   4.486   4.360
    1C        C  461   3.194   4.511   4.480
    1C        C  462   2.998   4.434   4.604
    1C        C  463   3.127   4.492   4.603
    1C        C  464   2.933   4.401   4.725
    1C        C  465   2.993   4.441   4.848
    1C        C  466   2.804   4.338   4.959
    1C        C  467   2.910   4.428   4.964
    1C        C  468   4.129   4.295   2.043
    1C        C  469   4.191   4.252   2.161
    1C        C  470   4.006   4.370   2.281
    1C        C  471   4.128   4.297   2.280
    1C        C  472   3.942   4.401   2.403
    1C        C  473   4.006   4.371   2.525
    1C        C  474   3.811   4.464   2.644
    1C        C  475   3.941   4.408   2.645
    1C        C  476   3.744   4.489   2.766
    1C        C  477   3.811   4.464   2.888
    1C        C  478   3.603   4.515   3.007
    1C        C  479   3.741   4.486   3.008
    1C        C  480   3.535   4.530   3.131
    1C        C  481   3.606   4.521   3.252
    1C        C  482   3.395   4.535   3.378
    1C        C  483   3.536   4.533   3.374
    1C        C  484   3.325   4.529   3.501
    1C        C  485   3.400   4.542   3.620
    1C        C  486   3.191   4.504   3.745
    1C        C  487   3.329   4.537   3.742
    1C        C  488   3.126   4.479   3.868
    1C        C  489   3.191   4.503   3.991
    1C        C  490   3.000   4.420   4.115
    1C        C  491   3.124   4.489   4.114
    1C        C  492   2.939   4.388   4.238
    1C        C  493   2.994   4.431   4.361
    1C        C  494   2.827   4.306   4.481
    1C        C  495   2.933   4.400   4.484
    1C        C  496   2.772   4.261   4.603
    1C        C  497   2.820   4.314   4.725
    1C        C  498   2.664   4.167   4.842
    1C        C  499   2.752   4.278   4.843
    1C        C  500   2.599   4.119   4.957
    1C        C  501   4.004   4.357   2.042
    1C        C  502   3.816   4.462   2.157
    1C        C  503   3.945   4.406   2.159
    1C        C  504   3.742   4.470   2.277
    1C        C  505   3.810   4.453   2.400
    1C        C  506   3.608   4.513   2.519
    1C        C  507   3.746   4.487   2.521
    1C        C  508   3.534   4.513   2.640
    1C        C  509   3.605   4.513   2.762
    1C        C  510   3.393   4.523   2.886
    1C        C  511   3.534   4.522   2.884
    1C        C  512   3.322   4.522   3.008
    1C        C  513   3.394   4.529   3.130
    1C        C  514   3.190   4.492   3.255
    1C        C  515   3.328   4.523   3.254
    1C        C  516   3.122   4.469   3.377
    1C        C  517   3.189   4.490   3.500
    1C        C  518   2.999   4.410   3.625
    1C        C  519   3.125   4.474   3.624
    1C        C  520   2.941   4.372   3.748
    1C        C  521   3.001   4.411   3.869
    1C        C  522   2.837   4.284   3.998
    1C        C  523   2.944   4.376   3.993
    1C        C  524   2.787   4.235   4.121
    1C        C  525   2.832   4.296   4.240
    1C        C  526   2.694   4.135   4.363
    1C        C  527   2.776   4.250   4.362
    1C        C  528   2.658   4.076   4.487
    1C        C  529   2.690   4.146   4.605
    1C        C  530   2.576   3.965   4.729
    1C        C  531   2.636   4.094   4.725
    1C        C  532   2.537   3.904   4.852
    1C        C  533   2.533   3.995   4.962
    1C        C  534   3.616   4.552   2.039
    1C        C  535   3.751   4.516   2.045
    1C        C  536   3.535   4.530   2.155
    1C        C  537   3.603   4.502   2.276
    1C        C  538   3.393   4.520   2.399
    1C        C  539   3.534   4.517   2.398
    1C        C  540   3.321   4.510   2.520
    1C        C  541   3.393   4.514   2.642
    1C        C  542   3.183   4.491   2.768
    1C        C  543   3.322   4.517   2.764
    1C        C  544   3.116   4.467   2.890
    1C        C  545   3.184   4.490   3.011
    1C        C  546   2.991   4.409   3.134
    1C        C  547   3.120   4.467   3.135
    1C        C  548   2.933   4.372   3.257
    1C        C  549   2.994   4.409   3.379
    1C        C  550   2.830   4.280   3.506
    1C        C  551   2.938   4.371   3.503
    1C        C  552   2.782   4.232   3.630
    1C        C  553   2.830   4.284   3.752
    1C        C  554   2.698   4.123   3.876
    1C        C  555   2.782   4.237   3.877
    1C        C  556   2.660   4.065   3.998
    1C        C  557   2.701   4.123   4.120
    1C        C  558   2.600   3.940   4.245
    1C        C  559   2.658   4.069   4.244
    1C        C  560   2.571   3.878   4.369
    1C        C  561   2.602   3.947   4.488
    1C        C  562   2.534   3.750   4.616
    1C        C  563   2.570   3.886   4.612
    1C        C  564   2.523   3.684   4.741
    1C        C  565   2.520   3.763   4.859
    1C        C  566   2.531   3.547   4.980
    1C        C  567   2.524   3.686   4.976
    1C        C  568   3.325   4.473   2.042
    1C        C  569   3.394   4.509   2.159
    1C        C  570   3.183   4.473   2.280
    1C        C  571   3.319   4.515   2.279
    1C        C  572   3.116   4.456   2.403
    1C        C  573   3.184   4.479   2.525
    1C        C  574   2.986   4.408   2.647
    1C        C  575   3.112   4.472   2.647
    1C        C  576   2.931   4.363   2.769
    1C        C  577   2.991   4.401   2.891
    1C        C  578   2.825   4.272   3.015
    1C        C  579   2.932   4.365   3.014
    1C        C  580   2.777   4.224   3.139
    1C        C  581   2.832   4.274   3.260
    1C        C  582   2.699   4.114   3.386
    1C        C  583   2.783   4.227   3.384
    1C        C  584   2.659   4.058   3.510
    1C        C  585   2.696   4.120   3.631
    1C        C  586   2.595   3.937   3.755
    1C        C  587   2.658   4.063   3.754
    1C        C  588   2.575   3.870   3.878
    1C        C  589   2.601   3.936   4.000
    1C        C  590   2.543   3.735   4.128
    1C        C  591   2.576   3.873   4.124
    1C        C  592   2.525   3.668   4.251
    1C        C  593   2.536   3.741   4.372
    1C        C  594   2.519   3.535   4.500
    1C        C  595   2.520   3.676   4.496
    1C        C  596   2.521   3.466   4.623
    1C        C  597   2.521   3.541   4.742
    1C        C  598   2.532   3.328   4.864
    1C        C  599   2.525   3.469   4.864
    1C        C  600   2.527   3.248   4.979
    1C        C  601   3.193   4.435   2.040
    1C        C  602   2.981   4.394   2.160
    1C        C  603   3.117   4.439   2.158
    1C        C  604   2.924   4.363   2.286
    1C        C  605   2.988   4.397   2.407
    1C        C  606   2.817   4.271   2.528
    1C        C  607   2.924   4.364   2.528
    1C        C  608   2.774   4.216   2.650
    1C        C  609   2.823   4.272   2.771
    1C        C  610   2.684   4.112   2.896
    1C        C  611   2.773   4.222   2.893
    1C        C  612   2.651   4.053   3.020
    1C        C  613   2.689   4.114   3.142
    1C        C  614   2.592   3.929   3.268
    1C        C  615   2.652   4.056   3.266
    1C        C  616   2.567   3.866   3.392
    1C        C  617   2.594   3.932   3.514
    1C        C  618   2.536   3.728   3.639
    1C        C  619   2.570   3.865   3.636
    1C        C  620   2.524   3.661   3.763
    1C        C  621   2.538   3.734   3.883
    1C        C  622   2.511   3.525   4.009
    1C        C  623   2.526   3.666   4.007
    1C        C  624   2.517   3.456   4.132
    1C        C  625   2.511   3.528   4.254
    1C        C  626   2.542   3.323   4.382
    1C        C  627   2.518   3.462   4.379
    1C        C  628   2.560   3.255   4.505
    1C        C  629   2.543   3.326   4.625
    1C        C  630   2.597   3.119   4.745
    1C        C  631   2.553   3.254   4.746
    1C        C  632   2.618   3.046   4.866
    1C        C  633   2.563   3.113   4.980
    1C        C  634   2.779   4.305   2.052
    1C        C  635   2.890   4.390   2.050
    1C        C  636   2.751   4.229   2.167
    1C        C  637   2.810   4.277   2.286
    1C        C  638   2.681   4.108   2.410
    1C        C  639   2.761   4.224   2.407
    1C        C  640   2.645   4.046   2.532
    1C        C  641   2.689   4.103   2.653
    1C        C  642   2.590   3.918   2.778
    1C        C  643   2.650   4.046   2.776
    1C        C  644   2.569   3.853   2.902
    1C        C  645   2.599   3.922   3.022
    1C        C  646   2.536   3.724   3.150
    1C        C  647   2.574   3.860   3.146
    1C        C  648   2.518   3.658   3.274
    1C        C  649   2.535   3.728   3.395
    1C        C  650   2.514   3.517   3.519
    1C        C  651   2.523   3.658   3.517
    1C        C  652   2.513   3.449   3.643
    1C        C  653   2.513   3.520   3.765
    1C        C  654   2.537   3.313   3.892
    1C        C  655   2.510   3.451   3.888
    1C        C  656   2.549   3.245   4.015
    1C        C  657   2.539   3.317   4.136
    1C        C  658   2.606   3.119   4.258
    1C        C  659   2.558   3.252   4.260
    1C        C  660   2.635   3.057   4.382
    1C        C  661   2.606   3.121   4.504
    1C        C  662   2.705   2.933   4.626
    1C        C  663   2.630   3.053   4.625
    1C        C  664   2.748   2.873   4.746
    1C        C  665   2.694   2.924   4.868
    1C        C  666   2.742   2.870   4.988
    1C        C  667   2.684   4.026   2.053
    1C        C  668   2.688   4.103   2.170
    1C        C  669   2.585   3.913   2.293
    1C        C  670   2.646   4.042   2.290
    1C        C  671   2.561   3.846   2.414
    1C        C  672   2.585   3.918   2.534
    1C        C  673   2.523   3.716   2.660
    1C        C  674   2.564   3.851   2.656
    1C        C  675   2.514   3.647   2.783
    1C        C  676   2.533   3.717   2.904
    1C        C  677   2.511   3.511   3.031
    1C        C  678   2.527   3.652   3.029
    1C        C  679   2.510   3.443   3.155
    1C        C  680   2.510   3.517   3.275
    1C        C  681   2.532   3.305   3.399
    1C        C  682   2.513   3.445   3.397
    1C        C  683   2.550   3.239   3.522
    1C        C  684   2.535   3.309   3.644
    1C        C  685   2.605   3.113   3.770
    1C        C  686   2.557   3.246   3.769
    1C        C  687   2.639   3.053   3.893
    1C        C  688   2.600   3.113   4.015
    1C        C  689   2.713   2.934   4.141
    1C        C  690   2.633   3.051   4.138
    1C        C  691   2.758   2.881   4.264
    1C        C  692   2.711   2.937   4.384
    1C        C  693   2.751   2.877   4.505
    1C        C  694   2.627   3.898   2.058
    1C        C  695   2.528   3.705   2.174
    1C        C  696   2.571   3.840   2.173
    1C        C  697   2.506   3.637   2.296
    1C        C  698   2.519   3.711   2.416
    1C        C  699   2.495   3.504   2.542
    1C        C  700   2.503   3.645   2.539
    1C        C  701   2.505   3.434   2.664
    1C        C  702   2.508   3.505   2.787
    1C        C  703   2.525   3.297   2.911
    1C        C  704   2.508   3.438   2.910
    1C        C  705   2.544   3.230   3.034
    1C        C  706   2.535   3.304   3.154
    1C        C  707   2.601   3.104   3.279
    1C        C  708   2.550   3.236   3.277
    1C        C  709   2.634   3.044   3.402
    1C        C  710   2.608   3.110   3.524
    1C        C  711   2.712   2.930   3.649
    1C        C  712   2.637   3.050   3.648
    1C        C  713   2.754   2.875   3.772
    1C        C  714   2.716   2.935   3.894
    1C        C  715   2.757   2.880   4.018
    1C        C  716   2.448   3.499   2.063
    1C        C  717   2.494   3.631   2.060
    1C        C  718   2.468   3.421   2.181
    1C        C  719   2.487   3.496   2.300
    1C        C  720   2.511   3.287   2.422
    1C        C  721   2.490   3.426   2.423
    1C        C  722   2.539   3.222   2.545
    1C        C  723   2.527   3.295   2.666
    1C        C  724   2.588   3.094   2.792
    1C        C  725   2.543   3.228   2.789
    1C        C  726   2.622   3.032   2.914
    1C        C  727   2.590   3.097   3.036
    1C        C  728   2.706   2.919   3.159
    1C        C  729   2.625   3.035   3.158
    1C        C  730   2.755   2.868   3.281
    1C        C  731   2.712   2.926   3.403
    1C        C  732   2.754   2.873   3.527
    1C        C  733   2.487   3.193   2.073
    1C        C  734   2.487   3.279   2.184
    1C        C  735   2.573   3.079   2.306
    1C        C  736   2.517   3.210   2.304
    1C        C  737   2.612   3.018   2.427
    1C        C  738   2.585   3.089   2.546
    1C        C  739   2.694   2.910   2.671
    1C        C  740   2.618   3.029   2.670
    1C        C  741   2.743   2.858   2.792
    1C        C  742   2.704   2.917   2.914
    1C        C  743   2.746   2.860   3.037
    1C        C  744   2.544   3.066   2.071
    1C        C  745   2.680   2.893   2.185
    1C        C  746   2.598   3.008   2.186
    1C        C  747   2.730   2.840   2.306
    1C        C  748   2.688   2.899   2.428
    1C        C  749   2.734   2.847   2.551
    1C        C  750   2.731   2.834   2.069
    1C        C  751   3.660   2.317   1.976
    1C        O  752   3.688   2.202   2.019
    1C        O  753   3.646   2.334   1.837
    1C        C  754   4.628   3.048   1.985
    1C        O  755   4.597   3.015   1.867
    1C        O  756   4.764   3.074   2.002
    1C        C  757   4.487   4.215   1.992
    1C        O  758   4.582   4.271   2.054
    1C        O  759   4.523   4.216   1.857
    1C        C  760   3.581   4.651   1.935
    1C        O  761   3.600   4.774   1.956
    1C        O  762   3.583   4.618   1.799
    1C        C  763   2.869   4.497   1.950
    1C        O  764   2.917   4.493   1.834
    1C        O  765   2.788   4.610   1.971
    1C        C  766   2.339   3.470   1.967
    1C        O  767   2.372   3.457   1.846
    1C        O  768   2.214   3.532   1.964
    1C        C  769   4.700   3.601   5.052
    1C        O  770   4.695   3.619   5.177
    1C        O  771   4.828   3.628   5.003
    1C        C  772   4.259   4.445   5.054
    1C        O  773   4.231   4.417   5.174
    1C        O  774   4.317   4.573   5.049
    1C        C  775   4.142   2.512   5.071
    1C        O  776   4.231   2.432   5.031
    1C        O  777   4.174   2.565   5.196
    1C        C  778   2.919   4.519   5.081
    1C        O  779   2.898   4.643   5.067
    1C        O  780   2.958   4.485   5.211
    1C        C  781   2.475   3.036   5.070
    1C        O  782   2.381   2.960   5.037
    1C        O  783   2.486   3.053   5.208
    1C        C  784   2.409   4.020   5.038
    1C        O  785   2.303   4.063   4.985
    1C        O  786   2.399   3.987   5.174
    1C        C  787   2.952   2.420   2.019
    1C        O  788   2.953   2.399   1.895
    1C        O  789   2.910   2.309   2.092
    1C        C  790   3.195   2.380   5.069
    1C        O  791   3.174   2.263   5.027
    1C        O  792   3.263   2.383   5.192
    1C        H  793   4.245   3.039   5.036
    1C        H  794   4.217   2.795   5.075
    1C        H  795   4.476   3.141   5.066
    1C        H  796   4.531   3.373   5.063
    1C        H  797   4.567   3.818   5.044
    1C        H  798   4.440   3.994   5.056
    1C        H  799   4.237   4.132   5.029
    1C        H  800   4.051   4.568   5.006
    1C        H  801   3.822   4.599   5.032
    1C        H  802   3.585   4.651   5.023
    1C        H  803   3.392   4.524   5.053
    1C        H  804   3.181   4.435   5.048
    1C        H  805   3.894   2.480   5.070
    1C        H  806   3.676   2.452   5.074
    1C        H  807   2.995   2.543   5.054
    1C        H  808   3.439   2.473   5.076
    1C        H  809   2.881   2.744   5.079
    1C        H  810   2.735   2.930   5.077
    1C        H  811   2.484   3.286   5.069
    1C        H  812   2.524   3.502   5.077
    1C        H  813   2.515   3.733   5.072
    1C        H  814   2.588   4.187   5.038
    1C        H  815   2.777   4.303   5.057
    1C        H  816   2.658   2.820   1.992
    1C        H  817   2.829   2.667   1.986
    1C        H  818   3.226   2.485   1.983
    1C        H  819   3.442   2.498   1.988
    1C        H  820   3.838   2.547   1.976
    1C        H  821   4.035   2.663   1.975
    1C        H  822   4.233   2.740   1.968
    1C        H  823   4.429   2.870   1.985
    1C        H  824   4.613   3.303   1.979
    1C        H  825   4.495   3.518   1.960
    1C        H  826   4.502   3.753   1.953
    1C        H  827   3.813   4.558   1.969
    1C        H  828   3.947   4.347   1.952
    1C        H  829   4.146   4.229   1.961
    1C        H  830   4.516   3.973   1.980
    1C        H  831   2.682   3.827   1.999
    1C        H  832   2.735   4.053   1.963
    1C        H  833   2.711   4.312   1.970
    1C        H  834   3.372   4.472   1.946
    1C        H  835   3.149   4.387   1.955
    1C        H  836   2.547   3.010   1.980
    1C        H  837   2.407   3.202   2.002
    1C        H  838   2.498   3.679   1.965
    2V3OU   H29  839   2.804   3.548   1.767
    2V3OU   C27  840   2.784   3.502   1.868
    2V3OU   H27  841   2.727   3.574   1.934
    2V3OU   H28  842   2.729   3.406   1.853
    2V3OU   O11  843   2.909   3.478   1.932
    2V3OU   C15  844   2.921   3.395   2.041
    2V3OU   C13  845   3.053   3.374   2.086
    2V3OU   C14  846   3.083   3.266   2.170
    2V3OU   C16  847   2.979   3.183   2.210
    2V3OU    H6  848   2.994   3.103   2.285
    2V3OU   C12  849   3.219   3.222   2.208
    2V3OU    O2  850   3.239   3.126   2.286
    2V3OU   C10  851   3.329   3.311   2.168
    2V3OU    C8  852   3.460   3.274   2.195
    2V3OU   O10  853   3.492   3.148   2.235
    2V3OU   H26  854   3.404   3.108   2.247
    2V3OU    C6  855   3.568   3.353   2.143
    2V3OU    C5  856   3.538   3.471   2.076
    2V3OU    C4  857   3.705   3.295   2.135
    2V3OU    H4  858   3.733   3.232   2.225
    2V3OU    H5  859   3.714   3.228   2.044
    2V3OU    C2  860   3.821   3.395   2.132
    2V3OU    O6  861   3.811   3.473   2.252
    2V3OU   H21  862   3.761   3.555   2.235
    2V3OU    C3  863   3.787   3.500   2.026
    2V3OU    H2  864   3.872   3.573   2.026
    2V3OU    H3  865   3.778   3.445   1.929
    2V3OU   C25  866   3.958   3.329   2.120
    2V3OU    O7  867   4.000   3.295   2.009
    2V3OU   C26  868   4.033   3.289   2.246
    2V3OU   H22  869   4.064   3.380   2.304
    2V3OU   H23  870   4.121   3.225   2.220
    2V3OU    O8  871   3.958   3.205   2.330
    2V3OU   H24  872   3.926   3.268   2.397
    2V3OU    C1  873   3.650   3.565   2.043
    2V3OU    H1  874   3.621   3.617   1.947
    2V3OU    O3  875   3.664   3.652   2.155
    2V3OU   C19  876   3.621   3.788   2.139
    2V3OU    H9  877   3.517   3.797   2.097
    2V3OU    O4  878   3.712   3.849   2.051
    2V3OU   C20  879   3.842   3.875   2.104
    2V3OU   H10  880   3.890   3.774   2.122
    2V3OU   C24  881   3.611   3.854   2.277
    2V3OU   H16  882   3.543   3.793   2.341
    2V3OU   H17  883   3.571   3.958   2.268
    2V3OU   C23  884   3.751   3.877   2.336
    2V3OU   H15  885   3.792   3.772   2.353
    2V3OU    N1  886   3.733   3.955   2.457
    2V3OU   H19  887   3.810   3.931   2.516
    2V3OU   H20  888   3.642   3.937   2.493
    2V3OU   C21  889   3.849   3.949   2.238
    2V3OU   H11  890   3.947   3.927   2.289
    2V3OU    O5  891   3.826   4.089   2.238
    2V3OU   H18  892   3.783   4.106   2.323
    2V3OU   C22  893   3.917   3.950   1.996
    2V3OU   H12  894   3.866   4.048   1.973
    2V3OU   H13  895   3.909   3.895   1.899
    2V3OU   H14  896   4.026   3.958   2.020
    2V3OU   C11  897   3.158   3.476   2.073
    2V3OU    O1  898   3.136   3.597   2.049
    2V3OU    C9  899   3.296   3.429   2.095
    2V3OU    C7  900   3.402   3.508   2.053
    2V3OU    O9  901   3.388   3.619   1.972
    2V3OU   H25  902   3.293   3.633   1.961
    2V3OU   C17  903   2.819   3.307   2.081
    2V3OU    H7  904   2.717   3.342   2.062
    2V3OU   C18  905   2.847   3.210   2.176
    2V3OU    H8  906   2.766   3.164   2.235
    3SOL     OW  907   2.862   4.461   0.763
    3SOL    HW1  908   2.890   4.392   0.696
    3SOL    HW2  909   2.883   4.428   0.855
    4SOL     OW  910   6.663   5.567   2.078
    4SOL    HW1  911   6.584   5.527   2.032
    4SOL    HW2  912   6.742   5.507   2.066
    5SOL     OW  913   3.422   0.902   2.750
    5SOL    HW1  914   3.432   0.822   2.809
    5SOL    HW2  915   3.395   0.980   2.805
    6SOL     OW  916   3.725   1.131   2.067
    6SOL    HW1  917   3.677   1.130   1.979
    6SOL    HW2  918   3.714   1.222   2.109
    7SOL     OW  919   6.178   3.180   2.065
    7SOL    HW1  920   6.273   3.168   2.094
    7SOL    HW2  921   6.117   3.162   2.143
    8SOL     OW  922   2.447   0.058   5.083
    8SOL    HW1  923   2.411   0.042   4.991
    8SOL    HW2  924   2.419   0.148   5.115
    9SOL     OW  925   1.187   5.655   6.101
    9SOL    HW1  926   1.128   5.633   6.023
    9SOL    HW2  927   1.131   5.691   6.176
   10SOL     OW  928   1.446   4.672   5.645
   10SOL    HW1  929   1.349   4.650   5.650
   10SOL    HW2  930   1.467   4.707   5.553
   11SOL     OW  931   2.660   0.226   0.386
   11SOL    HW1  932   2.743   0.185   0.424
   11SOL    HW2  933   2.595   0.154   0.361
   12SOL     OW  934   3.827   5.749   4.478
   12SOL    HW1  935   3.785   5.825   4.428
   12SOL    HW2  936   3.777   5.733   4.563
   13SOL     OW  937   3.508   6.004   4.075
   13SOL    HW1  938   3.534   5.911   4.049
   13SOL    HW2  939   3.431   6.002   4.138
   14SOL     OW  940   4.830   5.669   6.643
   14SOL    HW1  941   4.915   5.682   6.592
   14SOL    HW2  942   4.833   5.582   6.691
   15SOL     OW  943   1.302   5.225   0.999
   15SOL    HW1  944   1.248   5.281   1.061
   15SOL    HW2  945   1.305   5.268   0.908
   16SOL     OW  946   5.907   2.562   5.730
   16SOL    HW1  947   5.989   2.508   5.712
   16SOL    HW2  948   5.931   2.659   5.737
   17SOL     OW  949   6.041   6.007   4.722
   17SOL    HW1  950   6.061   5.929   4.782
   17SOL    HW2  951   5.991   5.975   4.641
   18SOL     OW  952   3.079   1.007   6.782
   18SOL    HW1  953   3.077   1.082   6.716
   18SOL    HW2  954   3.146   1.027   6.853
   19SOL     OW  955   0.489   0.247   3.099
   19SOL    HW1  956   0.508   0.151   3.079
   19SOL    HW2  957   0.567   0.287   3.148
   20SOL     OW  958   3.426   1.849   4.151
   20SOL    HW1  959   3.347   1.908   4.134
   20SOL    HW2  960   3.457   1.809   4.065
   21SOL     OW  961   3.217   2.154   2.319
   21SOL    HW1  962   3.194   2.150   2.222
   21SOL    HW2  963   3.182   2.239   2.358
   22SOL     OW  964   2.275   0.528   0.180
   22SOL    HW1  965   2.305   0.554   0.272
   22SOL    HW2  966   2.336   0.458   0.144
   23SOL     OW  967   4.232   6.903   3.718
   23SOL    HW1  968   4.228   6.806   3.743
   23SOL    HW2  969   4.291   6.914   3.638
   24SOL     OW  970   5.036   1.558   3.734
   24SOL    HW1  971   4.944   1.526   3.712
   24SOL    HW2  972   5.052   1.646   3.691
   25SOL     OW  973   3.058   6.130   5.604
   25SOL    HW1  974   3.121   6.187   5.656
   25SOL    HW2  975   2.990   6.091   5.665
   26SOL     OW  976   6.189   1.304   0.753
   26SOL    HW1  977   6.216   1.393   0.715
   26SOL    HW2  978   6.120   1.318   0.824
   27SOL     OW  979   0.295   1.475   1.730
   27SOL    HW1  980   0.344   1.471   1.817
   27SOL    HW2  981   0.361   1.471   1.655
   28SOL     OW  982   3.810   0.769   6.859
   28SOL    HW1  983   3.808   0.685   6.804
   28SOL    HW2  984   3.841   0.748   6.951
   29SOL     OW  985   5.695   2.474   2.060
   29SOL    HW1  986   5.619   2.434   2.110
   29SOL    HW2  987   5.723   2.559   2.105
   30SOL     OW  988   4.168   6.963   5.414
   30SOL    HW1  989   4.169   6.960   5.314
   30SOL    HW2  990   4.124   6.881   5.450
   31SOL     OW  991   0.496   2.126   6.095
   31SOL    HW1  992   0.590   2.138   6.065
   31SOL    HW2  993   0.476   2.028   6.105
   32SOL     OW  994   0.280   1.218   2.892
   32SOL    HW1  995   0.235   1.179   2.972
   32SOL    HW2  996   0.279   1.318   2.898
   33SOL     OW  997   2.205   3.728   0.121
   33SOL    HW1  998   2.169   3.644   0.080
   33SOL    HW2  999   2.150   3.753   0.200
   34SOL     OW 1000   2.154   1.065   3.739
   34SOL    HW1 1001   2.240   1.087   3.693
   34SOL    HW2 1002   2.154   1.106   3.830
   35SOL     OW 1003   3.844   1.799   6.929
   35SOL    HW1 1004   3.913   1.783   6.859
   35SOL    HW2 1005   3.765   1.845   6.888
   36SOL     OW 1006   0.547   0.710   6.391
   36SOL    HW1 1007   0.554   0.809   6.376
   36SOL    HW2 1008   0.488   0.670   6.321
   37SOL     OW 1009   2.113   1.112   0.043
   37SOL    HW1 1010   2.053   1.059   7.006
   37SOL    HW2 1011   2.061   1.186   0.085
   38SOL     OW 1012   0.446   5.156   2.809
   38SOL    HW1 1013   0.526   5.207   2.839
   38SOL    HW2 1014   0.414   5.193   2.722
   39SOL     OW 1015   6.358   4.457   6.626
   39SOL    HW1 1016   6.391   4.540   6.581
   39SOL    HW2 1017   6.360   4.381   6.560
   40SOL     OW 1018   5.957   2.296   1.326
   40SOL    HW1 1019   5.858   2.300   1.332
   40SOL    HW2 1020   5.989   2.359   1.256
   41SOL     OW 1021   0.452   6.544   4.384
   41SOL    HW1 1022   0.384   6.503   4.445
   41SOL    HW2 1023   0.536   6.563   4.436
   42SOL     OW 1024   2.750   6.252   6.357
   42SOL    HW1 1025   2.664   6.260   6.307
   42SOL    HW2 1026   2.730   6.228   6.453
   43SOL     OW 1027   5.977   6.276   5.745
   43SOL    HW1 1028   5.902   6.234   5.693
   43SOL    HW2 1029   6.037   6.325   5.682
   44SOL     OW 1030   5.999   2.401   6.026
   44SOL    HW1 1031   5.929   2.473   6.025
   44SOL    HW2 1032   6.089   2.443   6.016
   45SOL     OW 1033   3.208   0.285   3.198
   45SOL    HW1 1034   3.171   0.236   3.119
   45SOL    HW2 1035   3.306   0.264   3.207
   46SOL     OW 1036   1.406   3.577   4.477
   46SOL    HW1 1037   1.435   3.673   4.477
   46SOL    HW2 1038   1.409   3.542   4.571
   47SOL     OW 1039   5.186   4.192   2.834
   47SOL    HW1 1040   5.138   4.262   2.888
   47SOL    HW2 1041   5.141   4.104   2.848
   48SOL     OW 1042   0.344   3.024   5.296
   48SOL    HW1 1043   0.251   2.995   5.275
   48SOL    HW2 1044   0.407   2.986   5.229
   49SOL     OW 1045   4.634   3.981   1.771
   49SOL    HW1 1046   4.585   4.067   1.787
   49SOL    HW2 1047   4.698   3.993   1.695
   50SOL     OW 1048   6.453   2.775   5.572
   50SOL    HW1 1049   6.459   2.691   5.626
   50SOL    HW2 1050   6.415   2.849   5.628
   51SOL     OW 1051   3.240   6.137   3.116
   51SOL    HW1 1052   3.216   6.073   3.189
   51SOL    HW2 1053   3.201   6.226   3.136
   52SOL     OW 1054   5.023   2.842   3.412
   52SOL    HW1 1055   5.084   2.796   3.347
   52SOL    HW2 1056   5.034   2.800   3.503
   53SOL     OW 1057   4.489   0.460   4.726
   53SOL    HW1 1058   4.496   0.534   4.660
   53SOL    HW2 1059   4.396   0.423   4.725
   54SOL     OW 1060   4.070   4.952   0.607
   54SOL    HW1 1061   4.139   4.880   0.605
   54SOL    HW2 1062   3.998   4.931   0.540
   55SOL     OW 1063   3.532   1.162   6.075
   55SOL    HW1 1064   3.574   1.207   6.154
   55SOL    HW2 1065   3.541   1.222   5.995
   56SOL     OW 1066   1.367   0.821   1.617
   56SOL    HW1 1067   1.308   0.832   1.697
   56SOL    HW2 1068   1.322   0.759   1.552
   57SOL     OW 1069   5.398   0.796   1.502
   57SOL    HW1 1070   5.436   0.827   1.415
   57SOL    HW2 1071   5.469   0.753   1.557
   58SOL     OW 1072   6.853   6.466   5.388
   58SOL    HW1 1073   6.847   6.377   5.343
   58SOL    HW2 1074   6.944   6.478   5.426
   59SOL     OW 1075   1.982   1.300   5.895
   59SOL    HW1 1076   1.961   1.396   5.912
   59SOL    HW2 1077   1.982   1.250   5.981
   60SOL     OW 1078   5.983   1.270   6.129
   60SOL    HW1 1079   5.916   1.198   6.109
   60SOL    HW2 1080   6.049   1.237   6.196
   61SOL     OW 1081   5.062   1.486   4.461
   61SOL    HW1 1082   4.967   1.488   4.493
   61SOL    HW2 1083   5.084   1.574   4.419
   62SOL     OW 1084   0.680   0.548   3.881
   62SOL    HW1 1085   0.743   0.513   3.951
   62SOL    HW2 1086   0.599   0.586   3.925
   63SOL     OW 1087   6.691   1.376   3.665
   63SOL    HW1 1088   6.638   1.292   3.656
   63SOL    HW2 1089   6.679   1.431   3.583
   64SOL     OW 1090   0.498   4.025   6.407
   64SOL    HW1 1091   0.458   4.117   6.408
   64SOL    HW2 1092   0.587   4.028   6.362
   65SOL     OW 1093   6.747   4.510   5.420
   65SOL    HW1 1094   6.793   4.424   5.399
   65SOL    HW2 1095   6.651   4.493   5.442
   66SOL     OW 1096   3.522   0.411   6.617
   66SOL    HW1 1097   3.527   0.511   6.611
   66SOL    HW2 1098   3.607   0.376   6.656
   67SOL     OW 1099   5.535   5.050   5.371
   67SOL    HW1 1100   5.552   5.140   5.412
   67SOL    HW2 1101   5.622   5.005   5.353
   68SOL     OW 1102   5.781   0.573   6.626
   68SOL    HW1 1103   5.851   0.507   6.651
   68SOL    HW2 1104   5.818   0.638   6.560
   69SOL     OW 1105   1.654   4.025   6.845
   69SOL    HW1 1106   1.644   4.035   6.745
   69SOL    HW2 1107   1.750   4.020   6.869
   70SOL     OW 1108   6.680   4.723   3.577
   70SOL    HW1 1109   6.611   4.663   3.618
   70SOL    HW2 1110   6.703   4.795   3.641
   71SOL     OW 1111   3.748   1.955   2.632
   71SOL    HW1 1112   3.832   1.987   2.676
   71SOL    HW2 1113   3.767   1.935   2.536
   72SOL     OW 1114   2.866   5.688   4.648
   72SOL    HW1 1115   2.963   5.683   4.626
   72SOL    HW2 1116   2.854   5.692   4.747
   73SOL     OW 1117   3.348   1.724   0.724
   73SOL    HW1 1118   3.337   1.822   0.708
   73SOL    HW2 1119   3.444   1.704   0.749
   74SOL     OW 1120   5.359   6.146   6.413
   74SOL    HW1 1121   5.329   6.051   6.409
   74SOL    HW2 1122   5.398   6.172   6.324
   75SOL     OW 1123   3.625   6.526   6.224
   75SOL    HW1 1124   3.563   6.485   6.157
   75SOL    HW2 1125   3.649   6.619   6.195
   76SOL     OW 1126   1.952   2.875   1.365
   76SOL    HW1 1127   1.882   2.930   1.410
   76SOL    HW2 1128   1.909   2.806   1.307
   77SOL     OW 1129   5.296   6.230   4.572
   77SOL    HW1 1130   5.203   6.265   4.583
   77SOL    HW2 1131   5.302   6.178   4.487
   78SOL     OW 1132   5.680   0.535   5.474
   78SOL    HW1 1133   5.708   0.597   5.547
   78SOL    HW2 1134   5.657   0.446   5.513
   79SOL     OW 1135   3.321   0.193   0.505
   79SOL    HW1 1136   3.337   0.289   0.525
   79SOL    HW2 1137   3.238   0.184   0.450
   80SOL     OW 1138   5.264   1.450   4.755
   80SOL    HW1 1139   5.221   1.530   4.712
   80SOL    HW2 1140   5.230   1.367   4.712
   81SOL     OW 1141   2.143   6.963   2.669
   81SOL    HW1 1142   2.169   0.021   2.720
   81SOL    HW2 1143   2.209   6.891   2.685
   82SOL     OW 1144   6.590   5.388   0.382
   82SOL    HW1 1145   6.590   5.474   0.434
   82SOL    HW2 1146   6.672   5.335   0.405
   83SOL     OW 1147   6.197   0.378   0.547
   83SOL    HW1 1148   6.285   0.342   0.514
   83SOL    HW2 1149   6.198   0.382   0.647
   84SOL     OW 1150   4.902   3.290   3.487
   84SOL    HW1 1151   4.869   3.230   3.414
   84SOL    HW2 1152   4.999   3.309   3.473
   85SOL     OW 1153   1.623   1.914   5.373
   85SOL    HW1 1154   1.655   1.864   5.293
   85SOL    HW2 1155   1.681   1.993   5.389
   86SOL     OW 1156   0.716   0.623   5.668
   86SOL    HW1 1157   0.767   0.614   5.582
   86SOL    HW2 1158   0.781   0.633   5.744
   87SOL     OW 1159   4.941   3.664   0.478
   87SOL    HW1 1160   4.987   3.705   0.557
   87SOL    HW2 1161   4.887   3.585   0.509
   88SOL     OW 1162   4.195   1.918   6.601
   88SOL    HW1 1163   4.143   1.998   6.633
   88SOL    HW2 1164   4.281   1.949   6.561
   89SOL     OW 1165   0.940   3.029   6.601
   89SOL    HW1 1166   0.943   3.094   6.525
   89SOL    HW2 1167   1.008   3.054   6.669
   90SOL     OW 1168   4.159   6.171   4.097
   90SOL    HW1 1169   4.060   6.156   4.099
   90SOL    HW2 1170   4.202   6.099   4.043
   91SOL     OW 1171   4.844   4.013   4.189
   91SOL    HW1 1172   4.896   4.098   4.187
   91SOL    HW2 1173   4.903   3.938   4.159
   92SOL     OW 1174   3.210   4.118   0.423
   92SOL    HW1 1175   3.166   4.182   0.360
   92SOL    HW2 1176   3.178   4.025   0.405
   93SOL     OW 1177   2.603   4.289   6.685
   93SOL    HW1 1178   2.532   4.221   6.665
   93SOL    HW2 1179   2.686   4.266   6.633
   94SOL     OW 1180   2.540   6.278   6.179
   94SOL    HW1 1181   2.446   6.246   6.180
   94SOL    HW2 1182   2.576   6.273   6.086
   95SOL     OW 1183   0.805   1.287   2.712
   95SOL    HW1 1184   0.759   1.205   2.677
   95SOL    HW2 1185   0.748   1.330   2.781
   96SOL     OW 1186   2.985   7.023   5.521
   96SOL    HW1 1187   2.972   0.063   5.596
   96SOL    HW2 1188   3.058   0.032   5.461
   97SOL     OW 1189   1.001   3.710   5.672
   97SOL    HW1 1190   0.987   3.796   5.624
   97SOL    HW2 1191   0.933   3.701   5.745
   98SOL     OW 1192   6.627   3.696   6.847
   98SOL    HW1 1193   6.577   3.713   6.932
   98SOL    HW2 1194   6.563   3.683   6.772
   99SOL     OW 1195   4.462   3.822   0.825
   99SOL    HW1 1196   4.378   3.770   0.844
   99SOL    HW2 1197   4.491   3.868   0.909
  100SOL     OW 1198   0.415   0.222   5.684
  100SOL    HW1 1199   0.394   0.259   5.593
  100SOL    HW2 1200   0.477   0.285   5.731
  101SOL     OW 1201   1.648   5.570   2.885
  101SOL    HW1 1202   1.657   5.632   2.807
  101SOL    HW2 1203   1.591   5.492   2.858
  102SOL     OW 1204   4.485   0.817   2.449
  102SOL    HW1 1205   4.511   0.785   2.358
  102SOL    HW2 1206   4.390   0.848   2.448
  103SOL     OW 1207   3.508   0.881   2.295
  103SOL    HW1 1208   3.474   0.847   2.207
  103SOL    HW2 1209   3.606   0.865   2.301
  104SOL     OW 1210   7.018   5.261   2.495
  104SOL    HW1 1211   0.020   5.329   2.564
  104SOL    HW2 1212   0.009   5.169   2.533
  105SOL     OW 1213   6.510   2.185   6.124
  105SOL    HW1 1214   6.455   2.119   6.175
  105SOL    HW2 1215   6.487   2.278   6.153
  106SOL     OW 1216   3.466   6.287   4.871
  106SOL    HW1 1217   3.468   6.265   4.774
  106SOL    HW2 1218   3.375   6.267   4.907
  107SOL     OW 1219   1.627   2.072   2.156
  107SOL    HW1 1220   1.722   2.079   2.187
  107SOL    HW2 1221   1.610   2.142   2.086
  108SOL     OW 1222   3.887   5.174   6.109
  108SOL    HW1 1223   3.982   5.150   6.130
  108SOL    HW2 1224   3.881   5.199   6.012
  109SOL     OW 1225   0.803   1.308   1.567
  109SOL    HW1 1226   0.896   1.331   1.540
  109SOL    HW2 1227   0.740   1.326   1.491
  110SOL     OW 1228   3.858   6.433   5.328
  110SOL    HW1 1229   3.814   6.379   5.256
  110SOL    HW2 1230   3.895   6.371   5.398
  111SOL     OW 1231   3.365   0.439   5.319
  111SOL    HW1 1232   3.450   0.423   5.370
  111SOL    HW2 1233   3.287   0.424   5.379
  112SOL     OW 1234   6.095   6.580   6.297
  112SOL    HW1 1235   6.010   6.539   6.263
  112SOL    HW2 1236   6.173   6.524   6.270
  113SOL     OW 1237   6.797   4.867   3.364
  113SOL    HW1 1238   6.768   4.812   3.441
  113SOL    HW2 1239   6.743   4.951   3.360
  114SOL     OW 1240   0.932   0.527   1.672
  114SOL    HW1 1241   0.935   0.447   1.613
  114SOL    HW2 1242   0.983   0.509   1.756
  115SOL     OW 1243   3.259   1.538   3.470
  115SOL    HW1 1244   3.285   1.448   3.505
  115SOL    HW2 1245   3.160   1.549   3.476
  116SOL     OW 1246   6.239   5.353   2.098
  116SOL    HW1 1247   6.222   5.367   2.195
  116SOL    HW2 1248   6.247   5.255   2.080
  117SOL     OW 1249   1.598   1.508   6.451
  117SOL    HW1 1250   1.671   1.502   6.519
  117SOL    HW2 1251   1.521   1.451   6.479
  118SOL     OW 1252   1.594   1.465   2.903
  118SOL    HW1 1253   1.496   1.484   2.895
  118SOL    HW2 1254   1.632   1.514   2.981
  119SOL     OW 1255   1.173   1.920   6.034
  119SOL    HW1 1256   1.207   1.872   6.115
  119SOL    HW2 1257   1.212   1.878   5.952
  120SOL     OW 1258   6.308   6.857   0.302
  120SOL    HW1 1259   6.393   6.875   0.252
  120SOL    HW2 1260   6.307   6.909   0.387
  121SOL     OW 1261   2.399   3.764   6.788
  121SOL    HW1 1262   2.471   3.800   6.729
  121SOL    HW2 1263   2.429   3.679   6.830
  122SOL     OW 1264   1.898   4.686   6.858
  122SOL    HW1 1265   1.808   4.726   6.844
  122SOL    HW2 1266   1.935   4.657   6.769
  123SOL     OW 1267   0.418   2.147   1.533
  123SOL    HW1 1268   0.463   2.193   1.456
  123SOL    HW2 1269   0.319   2.143   1.515
  124SOL     OW 1270   5.190   3.302   0.344
  124SOL    HW1 1271   5.216   3.399   0.334
  124SOL    HW2 1272   5.092   3.296   0.362
  125SOL     OW 1273   2.519   1.882   1.957
  125SOL    HW1 1274   2.442   1.855   1.900
  125SOL    HW2 1275   2.593   1.917   1.899
  126SOL     OW 1276   2.671   4.191   1.126
  126SOL    HW1 1277   2.717   4.266   1.079
  126SOL    HW2 1278   2.582   4.221   1.158
  127SOL     OW 1279   6.874   5.662   5.810
  127SOL    HW1 1280   6.883   5.745   5.754
  127SOL    HW2 1281   6.956   5.650   5.866
  128SOL     OW 1282   4.400   2.367   1.381
  128SOL    HW1 1283   4.467   2.377   1.307
  128SOL    HW2 1284   4.414   2.279   1.427
  129SOL     OW 1285   3.690   3.323   6.025
  129SOL    HW1 1286   3.788   3.324   6.008
  129SOL    HW2 1287   3.658   3.228   6.029
  130SOL     OW 1288   0.525   1.293   4.481
  130SOL    HW1 1289   0.610   1.259   4.519
  130SOL    HW2 1290   0.449   1.269   4.541
  131SOL     OW 1291   5.390   1.298   2.306
  131SOL    HW1 1292   5.300   1.295   2.350
  131SOL    HW2 1293   5.410   1.391   2.275
  132SOL     OW 1294   2.286   2.971   0.702
  132SOL    HW1 1295   2.271   3.066   0.675
  132SOL    HW2 1296   2.287   2.964   0.801
  133SOL     OW 1297   4.512   6.458   4.230
  133SOL    HW1 1298   4.528   6.556   4.235
  133SOL    HW2 1299   4.436   6.439   4.167
  134SOL     OW 1300   5.691   1.462   2.296
  134SOL    HW1 1301   5.653   1.369   2.296
  134SOL    HW2 1302   5.651   1.514   2.371
  135SOL     OW 1303   5.628   3.031   1.927
  135SOL    HW1 1304   5.634   2.974   2.009
  135SOL    HW2 1305   5.708   3.016   1.869
  136SOL     OW 1306   3.436   3.853   6.276
  136SOL    HW1 1307   3.478   3.762   6.282
  136SOL    HW2 1308   3.453   3.892   6.186
  137SOL     OW 1309   5.252   0.939   4.815
  137SOL    HW1 1310   5.214   0.908   4.901
  137SOL    HW2 1311   5.345   0.904   4.805
  138SOL     OW 1312   0.489   4.378   3.488
  138SOL    HW1 1313   0.440   4.461   3.460
  138SOL    HW2 1314   0.451   4.299   3.442
  139SOL     OW 1315   2.770   6.584   5.117
  139SOL    HW1 1316   2.685   6.599   5.167
  139SOL    HW2 1317   2.764   6.499   5.065
  140SOL     OW 1318   0.304   5.809   3.490
  140SOL    HW1 1319   0.392   5.762   3.497
  140SOL    HW2 1320   0.320   5.908   3.485
  141SOL     OW 1321   6.014   3.357   4.963
  141SOL    HW1 1322   6.010   3.259   4.942
  141SOL    HW2 1323   6.092   3.375   5.024
  142SOL     OW 1324   1.993   4.966   0.512
  142SOL    HW1 1325   2.078   4.917   0.492
  142SOL    HW2 1326   1.971   5.028   0.437
  143SOL     OW 1327   5.840   4.297   1.694
  143SOL    HW1 1328   5.806   4.292   1.600
  143SOL    HW2 1329   5.916   4.232   1.706
  144SOL     OW 1330   1.500   6.562   6.655
  144SOL    HW1 1331   1.542   6.517   6.734
  144SOL    HW2 1332   1.571   6.605   6.599
  145SOL     OW 1333   0.529   5.084   0.224
  145SOL    HW1 1334   0.530   5.178   0.256
  145SOL    HW2 1335   0.564   5.079   0.130
  146SOL     OW 1336   4.917   0.188   6.166
  146SOL    HW1 1337   4.935   0.225   6.075
  146SOL    HW2 1338   4.958   0.098   6.174
  147SOL     OW 1339   5.760   3.107   6.751
  147SOL    HW1 1340   5.840   3.068   6.705
  147SOL    HW2 1341   5.786   3.192   6.797
  148SOL     OW 1342   0.513   4.812   6.703
  148SOL    HW1 1343   0.527   4.757   6.620
  148SOL    HW2 1344   0.598   4.860   6.725
  149SOL     OW 1345   3.003   1.811   4.534
  149SOL    HW1 1346   2.989   1.784   4.630
  149SOL    HW2 1347   3.053   1.897   4.531
  150SOL     OW 1348   5.572   5.603   6.211
  150SOL    HW1 1349   5.485   5.562   6.238
  150SOL    HW2 1350   5.568   5.702   6.226
  151SOL     OW 1351   3.343   2.349   1.134
  151SOL    HW1 1352   3.344   2.374   1.038
  151SOL    HW2 1353   3.374   2.426   1.189
  152SOL     OW 1354   1.788   1.675   3.506
  152SOL    HW1 1355   1.770   1.717   3.595
  152SOL    HW2 1356   1.857   1.729   3.457
  153SOL     OW 1357   2.906   0.377   1.431
  153SOL    HW1 1358   2.944   0.303   1.375
  153SOL    HW2 1359   2.977   0.410   1.494
  154SOL     OW 1360   0.663   2.096   3.117
  154SOL    HW1 1361   0.680   2.098   3.216
  154SOL    HW2 1362   0.592   2.162   3.094
  155SOL     OW 1363   0.163   1.047   3.097
  155SOL    HW1 1364   0.074   1.076   3.133
  155SOL    HW2 1365   0.204   0.981   3.159
  156SOL     OW 1366   0.014   1.990   1.068
  156SOL    HW1 1367   0.081   1.987   1.142
  156SOL    HW2 1368   0.008   1.899   1.025
  157SOL     OW 1369   5.901   3.150   1.929
  157SOL    HW1 1370   5.984   3.198   1.960
  157SOL    HW2 1371   5.916   3.052   1.936
  158SOL     OW 1372   2.847   6.173   2.036
  158SOL    HW1 1373   2.839   6.076   2.013
  158SOL    HW2 1374   2.760   6.219   2.018
  159SOL     OW 1375   4.656   4.343   1.648
  159SOL    HW1 1376   4.593   4.310   1.718
  159SOL    HW2 1377   4.714   4.414   1.688
  160SOL     OW 1378   6.510   5.172   0.228
  160SOL    HW1 1379   6.565   5.099   0.267
  160SOL    HW2 1380   6.481   5.235   0.300
  161SOL     OW 1381   1.897   5.261   5.088
  161SOL    HW1 1382   1.896   5.317   5.171
  161SOL    HW2 1383   1.981   5.281   5.037
  162SOL     OW 1384   3.945   6.756   0.193
  162SOL    HW1 1385   3.877   6.695   0.234
  162SOL    HW2 1386   3.965   6.727   0.100
  163SOL     OW 1387   5.441   5.726   1.271
  163SOL    HW1 1388   5.393   5.813   1.265
  163SOL    HW2 1389   5.510   5.721   1.199
  164SOL     OW 1390   6.426   4.921   0.834
  164SOL    HW1 1391   6.522   4.915   0.807
  164SOL    HW2 1392   6.377   4.841   0.800
  165SOL     OW 1393   5.448   3.132   1.204
  165SOL    HW1 1394   5.404   3.150   1.116
  165SOL    HW2 1395   5.440   3.034   1.226
  166SOL     OW 1396   0.232   4.950   3.153
  166SOL    HW1 1397   0.211   4.963   3.056
  166SOL    HW2 1398   0.240   5.039   3.198
  167SOL     OW 1399   5.708   2.341   0.328
  167SOL    HW1 1400   5.747   2.407   0.392
  167SOL    HW2 1401   5.646   2.280   0.377
  168SOL     OW 1402   2.486   3.620   0.911
  168SOL    HW1 1403   2.571   3.568   0.907
  168SOL    HW2 1404   2.500   3.705   0.963
  169SOL     OW 1405   3.948   0.314   2.093
  169SOL    HW1 1406   3.869   0.317   2.032
  169SOL    HW2 1407   3.918   0.298   2.187
  170SOL     OW 1408   0.567   1.142   3.728
  170SOL    HW1 1409   0.492   1.162   3.665
  170SOL    HW2 1410   0.530   1.100   3.811
  171SOL     OW 1411   3.849   4.204   0.640
  171SOL    HW1 1412   3.910   4.239   0.711
  171SOL    HW2 1413   3.895   4.130   0.590
  172SOL     OW 1414   6.642   2.132   4.088
  172SOL    HW1 1415   6.716   2.083   4.135
  172SOL    HW2 1416   6.559   2.077   4.092
  173SOL     OW 1417   6.554   1.842   4.164
  173SOL    HW1 1418   6.596   1.835   4.074
  173SOL    HW2 1419   6.610   1.793   4.231
  174SOL     OW 1420   3.408   5.560   4.006
  174SOL    HW1 1421   3.310   5.560   4.022
  174SOL    HW2 1422   3.439   5.466   3.989
  175SOL     OW 1423   2.086   0.080   2.079
  175SOL    HW1 1424   2.137   0.149   2.028
  175SOL    HW2 1425   2.139   7.019   2.084
  176SOL     OW 1426   0.931   4.189   1.542
  176SOL    HW1 1427   1.020   4.233   1.558
  176SOL    HW2 1428   0.927   4.102   1.591
  177SOL     OW 1429   5.802   2.895   2.646
  177SOL    HW1 1430   5.728   2.904   2.578
  177SOL    HW2 1431   5.824   2.798   2.658
  178SOL     OW 1432   3.723   2.499   6.360
  178SOL    HW1 1433   3.782   2.512   6.281
  178SOL    HW2 1434   3.776   2.456   6.434
  179SOL     OW 1435   2.477   1.821   5.801
  179SOL    HW1 1436   2.482   1.782   5.893
  179SOL    HW2 1437   2.438   1.754   5.738
  180SOL     OW 1438   1.435   0.009   6.235
  180SOL    HW1 1439   1.356   6.972   6.245
  180SOL    HW2 1440   1.438   0.072   6.313
  181SOL     OW 1441   3.497   1.487   6.445
  181SOL    HW1 1442   3.520   1.551   6.371
  181SOL    HW2 1443   3.424   1.526   6.500
  182SOL     OW 1444   3.882   2.080   4.333
  182SOL    HW1 1445   3.789   2.101   4.304
  182SOL    HW2 1446   3.900   2.124   4.421
  183SOL     OW 1447   3.544   2.115   3.519
  183SOL    HW1 1448   3.540   2.049   3.594
  183SOL    HW2 1449   3.506   2.075   3.436
  184SOL     OW 1450   1.637   6.569   4.623
  184SOL    HW1 1451   1.662   6.522   4.707
  184SOL    HW2 1452   1.715   6.567   4.559
  185SOL     OW 1453   0.863   2.082   6.147
  185SOL    HW1 1454   0.927   2.140   6.197
  185SOL    HW2 1455   0.834   2.006   6.205
  186SOL     OW 1456   6.342   1.110   3.285
  186SOL    HW1 1457   6.263   1.075   3.336
  186SOL    HW2 1458   6.322   1.109   3.187
  187SOL     OW 1459   4.732   0.873   3.057
  187SOL    HW1 1460   4.667   0.890   3.132
  187SOL    HW2 1461   4.786   0.792   3.079
  188SOL     OW 1462   6.430   1.855   2.208
  188SOL    HW1 1463   6.516   1.818   2.243
  188SOL    HW2 1464   6.447   1.943   2.162
  189SOL     OW 1465   2.028   5.227   2.651
  189SOL    HW1 1466   2.113   5.234   2.597
  189SOL    HW2 1467   2.032   5.291   2.727
  190SOL     OW 1468   4.277   1.489   4.624
  190SOL    HW1 1469   4.192   1.462   4.668
  190SOL    HW2 1470   4.273   1.467   4.526
  191SOL     OW 1471   5.379   5.752   5.973
  191SOL    HW1 1472   5.417   5.723   5.886
  191SOL    HW2 1473   5.280   5.737   5.973
  192SOL     OW 1474   0.021   6.150   1.979
  192SOL    HW1 1475   7.003   6.072   2.025
  192SOL    HW2 1476   0.099   6.118   1.925
  193SOL     OW 1477   4.566   2.332   5.324
  193SOL    HW1 1478   4.537   2.423   5.293
  193SOL    HW2 1479   4.531   2.316   5.416
  194SOL     OW 1480   3.375   0.452   2.784
  194SOL    HW1 1481   3.399   0.492   2.873
  194SOL    HW2 1482   3.315   0.513   2.734
  195SOL     OW 1483   1.794   6.705   4.181
  195SOL    HW1 1484   1.779   6.687   4.278
  195SOL    HW2 1485   1.855   6.783   4.170
  196SOL     OW 1486   2.731   1.573   6.626
  196SOL    HW1 1487   2.750   1.487   6.675
  196SOL    HW2 1488   2.692   1.639   6.689
  197SOL     OW 1489   2.021   0.787   0.324
  197SOL    HW1 1490   2.022   0.800   0.424
  197SOL    HW2 1491   1.931   0.815   0.289
  198SOL     OW 1492   4.736   1.487   2.966
  198SOL    HW1 1493   4.681   1.424   2.912
  198SOL    HW2 1494   4.679   1.565   2.993
  199SOL     OW 1495   1.090   2.118   4.413
  199SOL    HW1 1496   1.180   2.154   4.386
  199SOL    HW2 1497   1.059   2.166   4.495
  200SOL     OW 1498   1.433   3.850   0.600
  200SOL    HW1 1499   1.340   3.885   0.615
  200SOL    HW2 1500   1.461   3.795   0.679
  201SOL     OW 1501   0.436   6.462   5.718
  201SOL    HW1 1502   0.412   6.552   5.755
  201SOL    HW2 1503   0.532   6.462   5.690
  202SOL     OW 1504   3.676   1.758   6.579
  202SOL    HW1 1505   3.716   1.666   6.576
  202SOL    HW2 1506   3.608   1.767   6.507
  203SOL     OW 1507   6.256   2.003   5.183
  203SOL    HW1 1508   6.321   1.984   5.257
  203SOL    HW2 1509   6.163   2.002   5.219
  204SOL     OW 1510   0.884   6.811   4.063
  204SOL    HW1 1511   0.901   6.829   3.966
  204SOL    HW2 1512   0.852   6.717   4.073
  205SOL     OW 1513   1.656   2.709   2.724
  205SOL    HW1 1514   1.557   2.718   2.731
  205SOL    HW2 1515   1.685   2.627   2.774
  206SOL     OW 1516   0.906   3.725   1.112
  206SOL    HW1 1517   0.894   3.756   1.206
  206SOL    HW2 1518   0.817   3.702   1.072
  207SOL     OW 1519   5.808   0.587   3.881
  207SOL    HW1 1520   5.807   0.618   3.786
  207SOL    HW2 1521   5.713   0.578   3.913
  208SOL     OW 1522   0.229   3.696   5.916
  208SOL    HW1 1523   0.183   3.754   5.984
  208SOL    HW2 1524   0.326   3.721   5.912
  209SOL     OW 1525   6.832   4.424   3.094
  209SOL    HW1 1526   6.809   4.440   3.190
  209SOL    HW2 1527   6.852   4.512   3.050
  210SOL     OW 1528   4.644   2.187   0.635
  210SOL    HW1 1529   4.548   2.175   0.660
  210SOL    HW2 1530   4.674   2.278   0.664
  211SOL     OW 1531   1.154   6.633   2.355
  211SOL    HW1 1532   1.182   6.537   2.357
  211SOL    HW2 1533   1.192   6.680   2.435
  212SOL     OW 1534   1.191   3.475   2.491
  212SOL    HW1 1535   1.270   3.440   2.540
  212SOL    HW2 1536   1.109   3.469   2.549
  213SOL     OW 1537   1.721   5.973   1.098
  213SOL    HW1 1538   1.695   5.949   1.004
  213SOL    HW2 1539   1.745   5.890   1.149
  214SOL     OW 1540   3.409   5.195   2.964
  214SOL    HW1 1541   3.462   5.266   3.010
  214SOL    HW2 1542   3.342   5.238   2.903
  215SOL     OW 1543   2.974   4.008   0.986
  215SOL    HW1 1544   2.892   3.972   1.032
  215SOL    HW2 1545   3.054   3.954   1.012
  216SOL     OW 1546   0.881   6.147   2.881
  216SOL    HW1 1547   0.978   6.125   2.871
  216SOL    HW2 1548   0.829   6.098   2.811
  217SOL     OW 1549   1.278   2.347   4.704
  217SOL    HW1 1550   1.324   2.281   4.643
  217SOL    HW2 1551   1.188   2.310   4.730
  218SOL     OW 1552   0.869   2.701   4.188
  218SOL    HW1 1553   0.791   2.759   4.165
  218SOL    HW2 1554   0.951   2.757   4.197
  219SOL     OW 1555   4.160   0.242   0.481
  219SOL    HW1 1556   4.102   0.162   0.474
  219SOL    HW2 1557   4.252   0.215   0.510
  220SOL     OW 1558   2.486   0.127   1.019
  220SOL    HW1 1559   2.581   0.097   1.024
  220SOL    HW2 1560   2.483   0.227   1.013
  221SOL     OW 1561   6.078   4.289   1.337
  221SOL    HW1 1562   6.096   4.212   1.398
  221SOL    HW2 1563   6.164   4.318   1.294
  222SOL     OW 1564   1.790   4.619   5.625
  222SOL    HW1 1565   1.759   4.566   5.704
  222SOL    HW2 1566   1.849   4.694   5.656
  223SOL     OW 1567   6.932   3.303   5.687
  223SOL    HW1 1568   6.853   3.283   5.628
  223SOL    HW2 1569   7.014   3.262   5.647
  224SOL     OW 1570   3.371   1.027   6.718
  224SOL    HW1 1571   3.391   1.027   6.816
  224SOL    HW2 1572   3.433   1.090   6.671
  225SOL     OW 1573   4.285   3.906   6.294
  225SOL    HW1 1574   4.340   3.874   6.217
  225SOL    HW2 1575   4.324   3.870   6.379
  226SOL     OW 1576   0.692   1.623   6.182
  226SOL    HW1 1577   0.648   1.694   6.238
  226SOL    HW2 1578   0.789   1.642   6.175
  227SOL     OW 1579   1.881   4.433   2.316
  227SOL    HW1 1580   1.919   4.525   2.331
  227SOL    HW2 1581   1.932   4.367   2.372
  228SOL     OW 1582   2.172   0.222   2.317
  228SOL    HW1 1583   2.122   0.191   2.236
  228SOL    HW2 1584   2.109   0.271   2.378
  229SOL     OW 1585   5.292   5.616   5.555
  229SOL    HW1 1586   5.239   5.579   5.632
  229SOL    HW2 1587   5.229   5.641   5.481
  230SOL     OW 1588   4.442   5.831   4.513
  230SOL    HW1 1589   4.397   5.770   4.578
  230SOL    HW2 1590   4.391   5.833   4.428
  231SOL     OW 1591   6.240   1.481   6.385
  231SOL    HW1 1592   6.279   1.402   6.432
  231SOL    HW2 1593   6.201   1.544   6.452
  232SOL     OW 1594   0.353   3.374   6.752
  232SOL    HW1 1595   0.327   3.347   6.660
  232SOL    HW2 1596   0.289   3.442   6.787
  233SOL     OW 1597   4.385   1.365   3.058
  233SOL    HW1 1598   4.313   1.299   3.078
  233SOL    HW2 1599   4.344   1.454   3.038
  234SOL     OW 1600   5.783   0.594   6.979
  234SOL    HW1 1601   5.693   0.618   7.017
  234SOL    HW2 1602   5.826   0.676   6.942
  235SOL     OW 1603   4.947   2.987   2.186
  235SOL    HW1 1604   4.905   2.904   2.223
  235SOL    HW2 1605   4.891   3.022   2.111
  236SOL     OW 1606   5.127   2.982   6.833
  236SOL    HW1 1607   5.081   3.027   6.910
  236SOL    HW2 1608   5.225   2.983   6.847
  237SOL     OW 1609   6.861   4.113   1.701
  237SOL    HW1 1610   6.881   4.067   1.788
  237SOL    HW2 1611   6.803   4.192   1.717
  238SOL     OW 1612   6.217   1.592   0.298
  238SOL    HW1 1613   6.310   1.579   0.263
  238SOL    HW2 1614   6.178   1.676   0.260
  239SOL     OW 1615   0.724   4.748   0.258
  239SOL    HW1 1616   0.717   4.657   0.299
  239SOL    HW2 1617   0.662   4.755   0.180
  240SOL     OW 1618   1.023   3.132   3.304
  240SOL    HW1 1619   1.113   3.174   3.316
  240SOL    HW2 1620   0.976   3.128   3.392
  241SOL     OW 1621   3.094   2.167   4.767
  241SOL    HW1 1622   3.007   2.208   4.738
  241SOL    HW2 1623   3.124   2.210   4.852
  242SOL     OW 1624   3.587   3.447   3.796
  242SOL    HW1 1625   3.602   3.352   3.771
  242SOL    HW2 1626   3.510   3.453   3.860
  243SOL     OW 1627   4.899   1.596   0.604
  243SOL    HW1 1628   4.890   1.496   0.601
  243SOL    HW2 1629   4.847   1.636   0.529
  244SOL     OW 1630   5.922   4.161   5.670
  244SOL    HW1 1631   5.878   4.227   5.731
  244SOL    HW2 1632   5.852   4.111   5.619
  245SOL     OW 1633   4.322   2.259   4.013
  245SOL    HW1 1634   4.340   2.344   4.062
  245SOL    HW2 1635   4.263   2.201   4.068
  246SOL     OW 1636   4.775   1.755   3.519
  246SOL    HW1 1637   4.765   1.676   3.579
  246SOL    HW2 1638   4.760   1.839   3.572
  247SOL     OW 1639   2.505   1.811   1.016
  247SOL    HW1 1640   2.574   1.774   0.954
  247SOL    HW2 1641   2.510   1.911   1.016
  248SOL     OW 1642   3.139   1.385   3.046
  248SOL    HW1 1643   3.226   1.430   3.064
  248SOL    HW2 1644   3.138   1.351   2.952
  249SOL     OW 1645   5.523   6.925   5.248
  249SOL    HW1 1646   5.461   6.855   5.286
  249SOL    HW2 1647   5.469   6.994   5.199
  250SOL     OW 1648   4.692   3.109   0.611
  250SOL    HW1 1649   4.728   3.191   0.567
  250SOL    HW2 1650   4.758   3.074   0.677
  251SOL     OW 1651   4.493   3.534   5.332
  251SOL    HW1 1652   4.453   3.620   5.364
  251SOL    HW2 1653   4.569   3.552   5.270
  252SOL     OW 1654   6.917   6.343   4.895
  252SOL    HW1 1655   6.866   6.417   4.939
  252SOL    HW2 1656   6.920   6.358   4.797
  253SOL     OW 1657   3.482   5.505   6.883
  253SOL    HW1 1658   3.403   5.487   6.826
  253SOL    HW2 1659   3.560   5.532   6.825
  254SOL     OW 1660   6.237   2.277   3.622
  254SOL    HW1 1661   6.314   2.342   3.623
  254SOL    HW2 1662   6.207   2.263   3.528
  255SOL     OW 1663   2.175   4.810   5.525
  255SOL    HW1 1664   2.108   4.762   5.468
  255SOL    HW2 1665   2.266   4.770   5.510
  256SOL     OW 1666   5.661   3.624   6.025
  256SOL    HW1 1667   5.658   3.707   5.970
  256SOL    HW2 1668   5.571   3.608   6.065
  257SOL     OW 1669   5.108   0.143   3.392
  257SOL    HW1 1670   5.034   0.186   3.445
  257SOL    HW2 1671   5.112   0.186   3.301
  258SOL     OW 1672   2.347   4.189   5.443
  258SOL    HW1 1673   2.425   4.239   5.403
  258SOL    HW2 1674   2.364   4.091   5.435
  259SOL     OW 1675   6.180   0.839   2.500
  259SOL    HW1 1676   6.207   0.842   2.404
  259SOL    HW2 1677   6.121   0.760   2.516
  260SOL     OW 1678   4.260   5.569   3.125
  260SOL    HW1 1679   4.222   5.652   3.165
  260SOL    HW2 1680   4.345   5.545   3.171
  261SOL     OW 1681   5.931   3.050   0.892
  261SOL    HW1 1682   5.966   2.973   0.839
  261SOL    HW2 1683   5.847   3.084   0.850
  262SOL     OW 1684   1.259   4.340   0.444
  262SOL    HW1 1685   1.332   4.366   0.506
  262SOL    HW2 1686   1.170   4.354   0.488
  263SOL     OW 1687   1.852   0.315   4.888
  263SOL    HW1 1688   1.908   0.266   4.821
  263SOL    HW2 1689   1.836   0.256   4.967
  264SOL     OW 1690   5.998   2.631   6.974
  264SOL    HW1 1691   6.038   2.552   6.928
  264SOL    HW2 1692   6.034   2.715   6.933
  265SOL     OW 1693   5.104   6.471   2.931
  265SOL    HW1 1694   5.050   6.553   2.949
  265SOL    HW2 1695   5.076   6.432   2.843
  266SOL     OW 1696   4.401   2.874   5.756
  266SOL    HW1 1697   4.463   2.838   5.825
  266SOL    HW2 1698   4.454   2.907   5.678
  267SOL     OW 1699   0.950   1.852   5.893
  267SOL    HW1 1700   0.981   1.757   5.900
  267SOL    HW2 1701   1.012   1.911   5.945
  268SOL     OW 1702   3.156   0.968   6.160
  268SOL    HW1 1703   3.155   1.021   6.075
  268SOL    HW2 1704   3.063   0.949   6.188
  269SOL     OW 1705   2.130   3.931   0.970
  269SOL    HW1 1706   2.142   4.002   1.040
  269SOL    HW2 1707   2.091   3.972   0.888
  270SOL     OW 1708   1.391   5.997   0.655
  270SOL    HW1 1709   1.411   5.899   0.665
  270SOL    HW2 1710   1.382   6.020   0.559
  271SOL     OW 1711   6.871   1.292   6.135
  271SOL    HW1 1712   6.902   1.362   6.071
  271SOL    HW2 1713   6.949   1.251   6.182
  272SOL     OW 1714   3.682   6.443   4.303
  272SOL    HW1 1715   3.763   6.428   4.360
  272SOL    HW2 1716   3.708   6.439   4.206
  273SOL     OW 1717   2.268   4.708   4.522
  273SOL    HW1 1718   2.353   4.707   4.469
  273SOL    HW2 1719   2.236   4.615   4.536
  274SOL     OW 1720   3.846   1.251   3.061
  274SOL    HW1 1721   3.933   1.211   3.090
  274SOL    HW2 1722   3.843   1.347   3.089
  275SOL     OW 1723   6.499   5.910   3.656
  275SOL    HW1 1724   6.557   5.844   3.609
  275SOL    HW2 1725   6.460   5.869   3.738
  276SOL     OW 1726   0.252   6.710   3.133
  276SOL    HW1 1727   0.160   6.671   3.130
  276SOL    HW2 1728   0.246   6.807   3.156
  277SOL     OW 1729   1.977   4.136   0.781
  277SOL    HW1 1730   1.984   4.094   0.690
  277SOL    HW2 1731   1.881   4.147   0.806
  278SOL     OW 1732   7.019   3.905   1.160
  278SOL    HW1 1733   6.921   3.923   1.152
  278SOL    HW2 1734   0.012   3.808   1.143
  279SOL     OW 1735   5.782   3.075   4.548
  279SOL    HW1 1736   5.781   3.173   4.525
  279SOL    HW2 1737   5.717   3.027   4.489
  280SOL     OW 1738   2.532   5.751   2.739
  280SOL    HW1 1739   2.458   5.739   2.673
  280SOL    HW2 1740   2.617   5.717   2.700
  281SOL     OW 1741   2.792   4.567   1.630
  281SOL    HW1 1742   2.723   4.633   1.661
  281SOL    HW2 1743   2.847   4.536   1.707
  282SOL     OW 1744   3.510   1.557   5.674
  282SOL    HW1 1745   3.455   1.607   5.606
  282SOL    HW2 1746   3.469   1.468   5.691
  283SOL     OW 1747   5.935   2.789   6.422
  283SOL    HW1 1748   6.005   2.827   6.361
  283SOL    HW2 1749   5.909   2.698   6.391
  284SOL     OW 1750   1.453   3.723   3.808
  284SOL    HW1 1751   1.453   3.789   3.733
  284SOL    HW2 1752   1.374   3.662   3.799
  285SOL     OW 1753   5.564   5.428   4.156
  285SOL    HW1 1754   5.548   5.338   4.197
  285SOL    HW2 1755   5.554   5.422   4.056
  286SOL     OW 1756   3.697   4.958   6.767
  286SOL    HW1 1757   3.748   4.873   6.757
  286SOL    HW2 1758   3.680   4.998   6.676
  287SOL     OW 1759   1.182   3.860   1.198
  287SOL    HW1 1760   1.089   3.832   1.219
  287SOL    HW2 1761   1.224   3.901   1.279
  288SOL     OW 1762   3.646   1.623   7.001
  288SOL    HW1 1763   3.653   1.600   0.074
  288SOL    HW2 1764   3.729   1.671   6.972
  289SOL     OW 1765   2.252   4.160   5.719
  289SOL    HW1 1766   2.230   4.066   5.742
  289SOL    HW2 1767   2.258   4.170   5.619
  290SOL     OW 1768   6.296   1.941   4.908
  290SOL    HW1 1769   6.270   2.016   4.848
  290SOL    HW2 1770   6.288   1.970   5.004
  291SOL     OW 1771   0.422   1.767   4.710
  291SOL    HW1 1772   0.469   1.853   4.689
  291SOL    HW2 1773   0.333   1.766   4.666
  292SOL     OW 1774   2.018   1.978   2.796
  292SOL    HW1 1775   2.063   2.035   2.865
  292SOL    HW2 1776   2.080   1.965   2.718
  293SOL     OW 1777   4.546   5.854   3.323
  293SOL    HW1 1778   4.515   5.947   3.304
  293SOL    HW2 1779   4.473   5.803   3.368
  294SOL     OW 1780   7.000   6.237   0.019
  294SOL    HW1 1781   6.927   6.271   0.079
  294SOL    HW2 1782   0.046   6.307   0.007
  295SOL     OW 1783   3.617   1.126   3.039
  295SOL    HW1 1784   3.712   1.148   3.061
  295SOL    HW2 1785   3.595   1.162   2.949
  296SOL     OW 1786   3.054   1.438   2.567
  296SOL    HW1 1787   3.066   1.478   2.658
  296SOL    HW2 1788   3.132   1.460   2.509
  297SOL     OW 1789   2.295   4.335   4.259
  297SOL    HW1 1790   2.267   4.239   4.249
  297SOL    HW2 1791   2.365   4.356   4.191
  298SOL     OW 1792   4.248   6.169   1.795
  298SOL    HW1 1793   4.208   6.111   1.866
  298SOL    HW2 1794   4.213   6.142   1.705
  299SOL     OW 1795   5.107   3.618   5.726
  299SOL    HW1 1796   5.126   3.520   5.734
  299SOL    HW2 1797   5.013   3.632   5.693
  300SOL     OW 1798   6.288   0.289   2.356
  300SOL    HW1 1799   6.190   0.277   2.342
  300SOL    HW2 1800   6.308   0.294   2.454
  301SOL     OW 1801   5.137   3.681   0.716
  301SOL    HW1 1802   5.215   3.742   0.713
  301SOL    HW2 1803   5.161   3.598   0.767
  302SOL     OW 1804   1.223   0.327   3.063
  302SOL    HW1 1805   1.283   0.344   2.985
  302SOL    HW2 1806   1.214   0.228   3.077
  303SOL     OW 1807   5.768   0.590   2.340
  303SOL    HW1 1808   5.811   0.503   2.362
  303SOL    HW2 1809   5.821   0.636   2.269
  304SOL     OW 1810   2.113   0.436   3.436
  304SOL    HW1 1811   2.099   0.521   3.386
  304SOL    HW2 1812   2.121   0.455   3.534
  305SOL     OW 1813   0.598   3.527   6.425
  305SOL    HW1 1814   0.511   3.488   6.394
  305SOL    HW2 1815   0.674   3.471   6.389
  306SOL     OW 1816   1.416   1.112   3.681
  306SOL    HW1 1817   1.468   1.138   3.599
  306SOL    HW2 1818   1.468   1.046   3.734
  307SOL     OW 1819   4.960   6.726   1.338
  307SOL    HW1 1820   5.051   6.707   1.374
  307SOL    HW2 1821   4.893   6.668   1.384
  308SOL     OW 1822   0.218   4.466   4.712
  308SOL    HW1 1823   0.250   4.487   4.620
  308SOL    HW2 1824   0.123   4.433   4.708
  309SOL     OW 1825   3.679   4.544   5.393
  309SOL    HW1 1826   3.724   4.506   5.474
  309SOL    HW2 1827   3.666   4.472   5.325
  310SOL     OW 1828   6.487   6.698   5.877
  310SOL    HW1 1829   6.540   6.782   5.863
  310SOL    HW2 1830   6.549   6.622   5.897
  311SOL     OW 1831   6.704   4.933   1.747
  311SOL    HW1 1832   6.738   5.020   1.714
  311SOL    HW2 1833   6.624   4.949   1.805
  312SOL     OW 1834   4.920   1.715   5.750
  312SOL    HW1 1835   4.967   1.789   5.703
  312SOL    HW2 1836   4.840   1.752   5.798
  313SOL     OW 1837   2.539   4.219   1.763
  313SOL    HW1 1838   2.598   4.152   1.717
  313SOL    HW2 1839   2.559   4.220   1.861
  314SOL     OW 1840   3.344   6.100   0.557
  314SOL    HW1 1841   3.271   6.032   0.552
  314SOL    HW2 1842   3.338   6.161   0.478
  315SOL     OW 1843   0.609   2.105   3.727
  315SOL    HW1 1844   0.697   2.089   3.683
  315SOL    HW2 1845   0.581   2.200   3.712
  316SOL     OW 1846   2.295   2.926   4.516
  316SOL    HW1 1847   2.302   2.860   4.591
  316SOL    HW2 1848   2.322   2.882   4.431
  317SOL     OW 1849   0.767   1.289   6.715
  317SOL    HW1 1850   0.813   1.228   6.650
  317SOL    HW2 1851   0.680   1.249   6.742
  318SOL     OW 1852   1.073   4.969   1.035
  318SOL    HW1 1853   1.065   4.991   1.132
  318SOL    HW2 1854   1.003   4.903   1.009
  319SOL     OW 1855   0.647   0.513   2.135
  319SOL    HW1 1856   0.675   0.464   2.052
  319SOL    HW2 1857   0.595   0.594   2.108
  320SOL     OW 1858   5.572   2.596   0.142
  320SOL    HW1 1859   5.495   2.579   0.203
  320SOL    HW2 1860   5.628   2.513   0.136
  321SOL     OW 1861   2.176   1.794   2.530
  321SOL    HW1 1862   2.116   1.872   2.514
  321SOL    HW2 1863   2.245   1.789   2.458
  322SOL     OW 1864   3.410   2.888   4.208
  322SOL    HW1 1865   3.508   2.905   4.211
  322SOL    HW2 1866   3.375   2.906   4.117
  323SOL     OW 1867   0.927   4.418   0.287
  323SOL    HW1 1868   0.858   4.382   0.224
  323SOL    HW2 1869   0.966   4.343   0.340
  324SOL     OW 1870   1.343   2.807   4.076
  324SOL    HW1 1871   1.422   2.752   4.103
  324SOL    HW2 1872   1.306   2.772   3.990
  325SOL     OW 1873   2.215   3.166   1.232
  325SOL    HW1 1874   2.149   3.139   1.303
  325SOL    HW2 1875   2.304   3.127   1.254
  326SOL     OW 1876   1.902   6.055   0.151
  326SOL    HW1 1877   1.883   6.153   0.160
  326SOL    HW2 1878   1.819   6.003   0.171
  327SOL     OW 1879   0.758   4.771   4.118
  327SOL    HW1 1880   0.842   4.805   4.159
  327SOL    HW2 1881   0.708   4.716   4.185
  328SOL     OW 1882   3.172   5.395   2.582
  328SOL    HW1 1883   3.227   5.466   2.539
  328SOL    HW2 1884   3.232   5.327   2.624
  329SOL     OW 1885   3.418   3.776   3.536
  329SOL    HW1 1886   3.440   3.866   3.573
  329SOL    HW2 1887   3.477   3.757   3.457
  330SOL     OW 1888   3.545   6.316   2.002
  330SOL    HW1 1889   3.598   6.375   1.941
  330SOL    HW2 1890   3.448   6.337   1.994
  331SOL     OW 1891   4.830   5.123   6.254
  331SOL    HW1 1892   4.861   5.032   6.281
  331SOL    HW2 1893   4.887   5.192   6.297
  332SOL     OW 1894   3.777   2.113   3.998
  332SOL    HW1 1895   3.700   2.120   4.060
  332SOL    HW2 1896   3.837   2.037   4.026
  333SOL     OW 1897   4.101   0.271   6.591
  333SOL    HW1 1898   4.163   0.330   6.644
  333SOL    HW2 1899   4.057   0.325   6.520
  334SOL     OW 1900   3.112   6.736   2.135
  334SOL    HW1 1901   3.028   6.787   2.115
  334SOL    HW2 1902   3.139   6.754   2.230
  335SOL     OW 1903   3.239   5.929   3.809
  335SOL    HW1 1904   3.225   5.917   3.907
  335SOL    HW2 1905   3.299   6.007   3.793
  336SOL     OW 1906   2.480   1.218   3.358
  336SOL    HW1 1907   2.519   1.229   3.449
  336SOL    HW2 1908   2.538   1.157   3.304
  337SOL     OW 1909   0.250   3.543   0.996
  337SOL    HW1 1910   0.227   3.446   1.002
  337SOL    HW2 1911   0.168   3.598   1.014
  338SOL     OW 1912   2.829   3.283   1.541
  338SOL    HW1 1913   2.767   3.235   1.603
  338SOL    HW2 1914   2.908   3.317   1.593
  339SOL     OW 1915   3.684   6.985   3.446
  339SOL    HW1 1916   3.687   0.008   3.534
  339SOL    HW2 1917   3.777   6.972   3.412
  340SOL     OW 1918   5.293   4.133   5.035
  340SOL    HW1 1919   5.249   4.158   4.948
  340SOL    HW2 1920   5.328   4.040   5.028
  341SOL     OW 1921   6.241   6.166   3.896
  341SOL    HW1 1922   6.174   6.178   3.969
  341SOL    HW2 1923   6.297   6.248   3.888
  342SOL     OW 1924   5.570   4.336   0.048
  342SOL    HW1 1925   5.568   4.389   0.133
  342SOL    HW2 1926   5.664   4.310   0.027
  343SOL     OW 1927   2.971   6.412   1.761
  343SOL    HW1 1928   3.018   6.329   1.789
  343SOL    HW2 1929   3.009   6.490   1.812
  344SOL     OW 1930   2.198   5.275   0.889
  344SOL    HW1 1931   2.158   5.223   0.814
  344SOL    HW2 1932   2.235   5.361   0.854
  345SOL     OW 1933   0.207   0.751   5.791
  345SOL    HW1 1934   0.270   0.809   5.739
  345SOL    HW2 1935   0.140   0.710   5.729
  346SOL     OW 1936   1.492   0.381   2.279
  346SOL    HW1 1937   1.436   0.327   2.216
  346SOL    HW2 1938   1.466   0.359   2.373
  347SOL     OW 1939   5.666   6.961   6.771
  347SOL    HW1 1940   5.727   0.011   6.744
  347SOL    HW2 1941   5.706   6.873   6.744
  348SOL     OW 1942   4.190   5.268   1.633
  348SOL    HW1 1943   4.137   5.191   1.598
  348SOL    HW2 1944   4.142   5.354   1.611
  349SOL     OW 1945   6.954   4.456   2.295
  349SOL    HW1 1946   6.965   4.431   2.198
  349SOL    HW2 1947   6.967   4.375   2.352
  350SOL     OW 1948   3.782   3.782   1.551
  350SOL    HW1 1949   3.869   3.788   1.600
  350SOL    HW2 1950   3.769   3.688   1.520
  351SOL     OW 1951   2.624   2.257   0.479
  351SOL    HW1 1952   2.723   2.265   0.479
  351SOL    HW2 1953   2.598   2.160   0.478
  352SOL     OW 1954   3.689   0.966   4.838
  352SOL    HW1 1955   3.639   0.885   4.869
  352SOL    HW2 1956   3.634   1.015   4.771
  353SOL     OW 1957   2.137   7.000   0.334
  353SOL    HW1 1958   2.071   6.926   0.335
  353SOL    HW2 1959   2.199   6.988   0.256
  354SOL     OW 1960   4.115   2.420   0.693
  354SOL    HW1 1961   4.045   2.374   0.748
  354SOL    HW2 1962   4.121   2.516   0.720
  355SOL     OW 1963   6.669   3.251   2.650
  355SOL    HW1 1964   6.715   3.212   2.730
  355SOL    HW2 1965   6.611   3.328   2.680
  356SOL     OW 1966   4.473   5.565   5.112
  356SOL    HW1 1967   4.568   5.595   5.100
  356SOL    HW2 1968   4.437   5.601   5.198
  357SOL     OW 1969   0.166   6.132   5.464
  357SOL    HW1 1970   0.127   6.177   5.545
  357SOL    HW2 1971   0.218   6.198   5.411
  358SOL     OW 1972   6.283   0.051   1.216
  358SOL    HW1 1973   6.195   0.034   1.171
  358SOL    HW2 1974   6.268   0.104   1.300
  359SOL     OW 1975   1.644   2.414   2.245
  359SOL    HW1 1976   1.720   2.413   2.180
  359SOL    HW2 1977   1.567   2.464   2.205
  360SOL     OW 1978   3.093   6.394   6.327
  360SOL    HW1 1979   3.105   6.359   6.420
  360SOL    HW2 1980   3.134   6.331   6.262
  361SOL     OW 1981   5.837   5.690   3.258
  361SOL    HW1 1982   5.878   5.634   3.330
  361SOL    HW2 1983   5.875   5.663   3.170
  362SOL     OW 1984   3.086   4.321   0.276
  362SOL    HW1 1985   3.019   4.274   0.218
  362SOL    HW2 1986   3.125   4.399   0.227
  363SOL     OW 1987   3.411   4.979   4.170
  363SOL    HW1 1988   3.479   4.973   4.097
  363SOL    HW2 1989   3.319   4.981   4.130
  364SOL     OW 1990   0.812   6.141   5.627
  364SOL    HW1 1991   0.864   6.222   5.599
  364SOL    HW2 1992   0.823   6.069   5.558
  365SOL     OW 1993   4.763   6.356   3.206
  365SOL    HW1 1994   4.845   6.398   3.244
  365SOL    HW2 1995   4.758   6.374   3.108
  366SOL     OW 1996   5.864   0.854   6.956
  366SOL    HW1 1997   5.776   0.902   6.962
  366SOL    HW2 1998   5.932   0.903   7.011
  367SOL     OW 1999   4.879   3.057   0.901
  367SOL    HW1 2000   4.790   3.014   0.912
  367SOL    HW2 2001   4.910   3.094   0.989
  368SOL     OW 2002   1.561   4.738   4.914
  368SOL    HW1 2003   1.579   4.730   4.816
  368SOL    HW2 2004   1.463   4.734   4.930
  369SOL     OW 2005   6.243   4.297   1.703
  369SOL    HW1 2006   6.170   4.231   1.721
  369SOL    HW2 2007   6.203   4.385   1.676
  370SOL     OW 2008   2.676   0.766   5.205
  370SOL    HW1 2009   2.648   0.716   5.287
  370SOL    HW2 2010   2.703   0.700   5.134
  371SOL     OW 2011   2.554   3.505   6.932
  371SOL    HW1 2012   2.598   3.561   7.003
  371SOL    HW2 2013   2.495   3.437   6.976
  372SOL     OW 2014   0.226   0.233   4.992
  372SOL    HW1 2015   0.182   0.323   4.993
  372SOL    HW2 2016   0.157   0.162   5.005
  373SOL     OW 2017   0.260   6.485   6.429
  373SOL    HW1 2018   0.292   6.391   6.444
  373SOL    HW2 2019   0.337   6.542   6.401
  374SOL     OW 2020   4.290   0.044   2.323
  374SOL    HW1 2021   4.222   0.053   2.249
  374SOL    HW2 2022   4.268   6.987   2.378
  375SOL     OW 2023   6.869   4.633   4.222
  375SOL    HW1 2024   6.788   4.610   4.168
  375SOL    HW2 2025   6.930   4.554   4.228
  376SOL     OW 2026   1.766   3.031   3.916
  376SOL    HW1 2027   1.782   3.046   3.819
  376SOL    HW2 2028   1.801   3.110   3.968
  377SOL     OW 2029   5.308   2.433   2.673
  377SOL    HW1 2030   5.385   2.405   2.616
  377SOL    HW2 2031   5.247   2.492   2.620
  378SOL     OW 2032   4.012   3.056   5.400
  378SOL    HW1 2033   3.945   2.982   5.389
  378SOL    HW2 2034   3.965   3.143   5.411
  379SOL     OW 2035   5.922   3.267   1.291
  379SOL    HW1 2036   5.979   3.247   1.212
  379SOL    HW2 2037   5.827   3.282   1.262
  380SOL     OW 2038   1.919   1.575   1.322
  380SOL    HW1 2039   1.842   1.635   1.302
  380SOL    HW2 2040   1.898   1.483   1.289
  381SOL     OW 2041   2.304   5.045   2.101
  381SOL    HW1 2042   2.378   5.108   2.124
  381SOL    HW2 2043   2.339   4.952   2.097
  382SOL     OW 2044   3.265   6.295   0.368
  382SOL    HW1 2045   3.251   6.383   0.413
  382SOL    HW2 2046   3.269   6.308   0.269
  383SOL     OW 2047   6.334   2.817   6.636
  383SOL    HW1 2048   6.339   2.845   6.540
  383SOL    HW2 2049   6.427   2.800   6.670
  384SOL     OW 2050   1.185   4.886   5.443
  384SOL    HW1 2051   1.253   4.910   5.374
  384SOL    HW2 2052   1.219   4.907   5.534
  385SOL     OW 2053   5.064   6.384   0.185
  385SOL    HW1 2054   5.041   6.477   0.213
  385SOL    HW2 2055   5.145   6.386   0.126
  386SOL     OW 2056   4.125   6.848   5.154
  386SOL    HW1 2057   4.074   6.869   5.070
  386SOL    HW2 2058   4.084   6.768   5.198
  387SOL     OW 2059   0.157   6.949   3.958
  387SOL    HW1 2060   0.132   6.959   4.054
  387SOL    HW2 2061   0.075   6.938   3.902
  388SOL     OW 2062   6.870   2.338   5.176
  388SOL    HW1 2063   6.969   2.355   5.175
  388SOL    HW2 2064   6.825   2.402   5.114
  389SOL     OW 2065   4.367   4.467   1.796
  389SOL    HW1 2066   4.309   4.414   1.734
  389SOL    HW2 2067   4.394   4.410   1.873
  390SOL     OW 2068   3.582   1.084   0.934
  390SOL    HW1 2069   3.563   1.159   0.997
  390SOL    HW2 2070   3.618   1.006   0.985
  391SOL     OW 2071   2.807   4.101   5.683
  391SOL    HW1 2072   2.723   4.122   5.733
  391SOL    HW2 2073   2.786   4.090   5.586
  392SOL     OW 2074   1.568   3.545   2.429
  392SOL    HW1 2075   1.636   3.615   2.447
  392SOL    HW2 2076   1.613   3.461   2.400
  393SOL     OW 2077   0.549   4.657   0.996
  393SOL    HW1 2078   0.569   4.601   0.916
  393SOL    HW2 2079   0.631   4.664   1.053
  394SOL     OW 2080   6.871   3.179   0.074
  394SOL    HW1 2081   6.798   3.246   0.058
  394SOL    HW2 2082   6.843   3.090   0.037
  395SOL     OW 2083   4.678   4.539   1.975
  395SOL    HW1 2084   4.631   4.457   2.007
  395SOL    HW2 2085   4.723   4.519   1.888
  396SOL     OW 2086   2.947   2.094   1.954
  396SOL    HW1 2087   2.934   2.182   2.000
  396SOL    HW2 2088   2.872   2.033   1.978
  397SOL     OW 2089   4.723   1.303   5.506
  397SOL    HW1 2090   4.778   1.258   5.436
  397SOL    HW2 2091   4.648   1.242   5.533
  398SOL     OW 2092   0.821   0.424   4.533
  398SOL    HW1 2093   0.811   0.456   4.627
  398SOL    HW2 2094   0.866   0.334   4.533
  399SOL     OW 2095   5.554   6.011   4.010
  399SOL    HW1 2096   5.474   6.063   3.981
  399SOL    HW2 2097   5.595   5.966   3.930
  400SOL     OW 2098   6.191   0.444   4.535
  400SOL    HW1 2099   6.127   0.514   4.504
  400SOL    HW2 2100   6.284   0.470   4.509
  401SOL     OW 2101   6.659   0.356   5.571
  401SOL    HW1 2102   6.677   0.319   5.662
  401SOL    HW2 2103   6.712   0.440   5.559
  402SOL     OW 2104   6.518   0.203   2.629
  402SOL    HW1 2105   6.559   0.293   2.615
  402SOL    HW2 2106   6.497   0.191   2.727
  403SOL     OW 2107   2.921   0.885   5.965
  403SOL    HW1 2108   2.859   0.813   5.935
  403SOL    HW2 2109   2.868   0.963   5.997
  404SOL     OW 2110   3.664   6.362   5.800
  404SOL    HW1 2111   3.586   6.355   5.738
  404SOL    HW2 2112   3.706   6.452   5.791
  405SOL     OW 2113   1.736   3.734   3.442
  405SOL    HW1 2114   1.705   3.827   3.429
  405SOL    HW2 2115   1.825   3.721   3.397
  406SOL     OW 2116   0.990   5.447   5.492
  406SOL    HW1 2117   0.947   5.396   5.417
  406SOL    HW2 2118   1.085   5.418   5.502
  407SOL     OW 2119   1.487   3.352   3.532
  407SOL    HW1 2120   1.442   3.311   3.612
  407SOL    HW2 2121   1.539   3.432   3.561
  408SOL     OW 2122   3.382   1.784   2.631
  408SOL    HW1 2123   3.342   1.846   2.563
  408SOL    HW2 2124   3.481   1.784   2.620
  409SOL     OW 2125   1.248   3.772   2.481
  409SOL    HW1 2126   1.255   3.681   2.522
  409SOL    HW2 2127   1.153   3.790   2.456
  410SOL     OW 2128   1.494   2.659   0.988
  410SOL    HW1 2129   1.495   2.736   1.052
  410SOL    HW2 2130   1.418   2.598   1.010
  411SOL     OW 2131   0.339   1.798   1.900
  411SOL    HW1 2132   0.322   1.808   1.802
  411SOL    HW2 2133   0.319   1.885   1.946
  412SOL     OW 2134   2.531   4.866   2.995
  412SOL    HW1 2135   2.446   4.818   3.015
  412SOL    HW2 2136   2.600   4.801   2.963
  413SOL     OW 2137   3.899   5.161   2.279
  413SOL    HW1 2138   3.869   5.066   2.275
  413SOL    HW2 2139   3.998   5.164   2.297
  414SOL     OW 2140   2.671   6.894   3.834
  414SOL    HW1 2141   2.601   6.901   3.764
  414SOL    HW2 2142   2.673   6.978   3.889
  415SOL     OW 2143   6.613   1.477   0.732
  415SOL    HW1 2144   6.683   1.427   0.783
  415SOL    HW2 2145   6.629   1.575   0.742
  416SOL     OW 2146   4.945   3.885   5.053
  416SOL    HW1 2147   4.891   3.803   5.037
  416SOL    HW2 2148   4.999   3.875   5.137
  417SOL     OW 2149   3.257   2.526   6.701
  417SOL    HW1 2150   3.203   2.463   6.757
  417SOL    HW2 2151   3.340   2.480   6.670
  418SOL     OW 2152   3.627   0.134   4.202
  418SOL    HW1 2153   3.592   0.207   4.261
  418SOL    HW2 2154   3.563   0.117   4.127
  419SOL     OW 2155   0.662   6.905   1.722
  419SOL    HW1 2156   0.595   6.974   1.750
  419SOL    HW2 2157   0.754   6.938   1.738
  420SOL     OW 2158   5.580   0.354   6.492
  420SOL    HW1 2159   5.643   0.425   6.524
  420SOL    HW2 2160   5.613   0.315   6.406
  421SOL     OW 2161   5.017   4.214   4.216
  421SOL    HW1 2162   5.040   4.285   4.150
  421SOL    HW2 2163   5.092   4.203   4.282
  422SOL     OW 2164   4.989   2.232   1.350
  422SOL    HW1 2165   5.059   2.226   1.421
  422SOL    HW2 2166   4.935   2.314   1.364
  423SOL     OW 2167   2.996   1.540   6.047
  423SOL    HW1 2168   3.019   1.443   6.050
  423SOL    HW2 2169   3.006   1.573   5.953
  424SOL     OW 2170   1.654   4.373   2.997
  424SOL    HW1 2171   1.657   4.287   3.049
  424SOL    HW2 2172   1.656   4.450   3.060
  425SOL     OW 2173   4.130   0.363   5.300
  425SOL    HW1 2174   4.076   0.291   5.345
  425SOL    HW2 2175   4.168   0.327   5.215
  426SOL     OW 2176   2.493   1.923   4.816
  426SOL    HW1 2177   2.456   1.896   4.905
  426SOL    HW2 2178   2.534   2.014   4.824
  427SOL     OW 2179   3.993   1.788   3.473
  427SOL    HW1 2180   3.920   1.832   3.525
  427SOL    HW2 2181   3.959   1.703   3.433
  428SOL     OW 2182   3.014   1.167   5.290
  428SOL    HW1 2183   3.104   1.177   5.249
  428SOL    HW2 2184   2.964   1.254   5.283
  429SOL     OW 2185   1.379   5.782   3.226
  429SOL    HW1 2186   1.352   5.718   3.297
  429SOL    HW2 2187   1.333   5.870   3.240
  430SOL     OW 2188   1.798   0.254   3.873
  430SOL    HW1 2189   1.777   0.350   3.854
  430SOL    HW2 2190   1.790   0.237   3.972
  431SOL     OW 2191   2.665   2.084   1.280
  431SOL    HW1 2192   2.605   2.111   1.354
  431SOL    HW2 2193   2.624   2.110   1.192
  432SOL     OW 2194   4.130   2.225   1.455
  432SOL    HW1 2195   4.196   2.276   1.399
  432SOL    HW2 2196   4.104   2.280   1.534
  433SOL     OW 2197   2.254   6.903   6.854
  433SOL    HW1 2198   2.222   6.976   6.795
  433SOL    HW2 2199   2.268   6.820   6.800
  434SOL     OW 2200   4.179   6.598   4.042
  434SOL    HW1 2201   4.092   6.549   4.042
  434SOL    HW2 2202   4.203   6.624   4.135
  435SOL     OW 2203   3.630   1.640   6.261
  435SOL    HW1 2204   3.594   1.733   6.268
  435SOL    HW2 2205   3.681   1.631   6.175
  436SOL     OW 2206   3.901   6.508   3.841
  436SOL    HW1 2207   3.984   6.499   3.786
  436SOL    HW2 2208   3.845   6.583   3.805
  437SOL     OW 2209   0.331   0.486   4.339
  437SOL    HW1 2210   0.263   0.430   4.292
  437SOL    HW2 2211   0.419   0.478   4.292
  438SOL     OW 2212   0.942   4.526   2.915
  438SOL    HW1 2213   0.990   4.464   2.977
  438SOL    HW2 2214   0.852   4.488   2.894
  439SOL     OW 2215   5.524   0.391   3.160
  439SOL    HW1 2216   5.549   0.316   3.099
  439SOL    HW2 2217   5.532   0.478   3.111
  440SOL     OW 2218   4.798   0.829   6.767
  440SOL    HW1 2219   4.827   0.879   6.849
  440SOL    HW2 2220   4.810   0.886   6.686
  441SOL     OW 2221   0.022   4.447   2.662
  441SOL    HW1 2222   6.970   4.452   2.597
  441SOL    HW2 2223   0.003   4.373   2.727
  442SOL     OW 2224   5.761   3.806   5.349
  442SOL    HW1 2225   5.815   3.857   5.281
  442SOL    HW2 2226   5.714   3.730   5.304
  443SOL     OW 2227   5.289   4.253   3.187
  443SOL    HW1 2228   5.231   4.280   3.264
  443SOL    HW2 2229   5.234   4.203   3.120
  444SOL     OW 2230   3.847   1.117   1.364
  444SOL    HW1 2231   3.815   1.178   1.292
  444SOL    HW2 2232   3.931   1.154   1.403
  445SOL     OW 2233   1.757   5.282   2.711
  445SOL    HW1 2234   1.716   5.338   2.638
  445SOL    HW2 2235   1.854   5.269   2.693
  446SOL     OW 2236   6.040   6.436   2.699
  446SOL    HW1 2237   6.024   6.456   2.602
  446SOL    HW2 2238   6.125   6.384   2.708
  447SOL     OW 2239   5.802   3.715   0.058
  447SOL    HW1 2240   5.776   3.677   0.147
  447SOL    HW2 2241   5.726   3.706   7.018
  448SOL     OW 2242   2.854   0.954   2.335
  448SOL    HW1 2243   2.762   0.990   2.317
  448SOL    HW2 2244   2.912   1.027   2.372
  449SOL     OW 2245   1.903   2.739   4.291
  449SOL    HW1 2246   1.888   2.651   4.247
  449SOL    HW2 2247   1.923   2.808   4.221
  450SOL     OW 2248   1.283   4.230   2.816
  450SOL    HW1 2249   1.185   4.249   2.808
  450SOL    HW2 2250   1.333   4.317   2.822
  451SOL     OW 2251   0.656   2.038   3.403
  451SOL    HW1 2252   0.756   2.038   3.409
  451SOL    HW2 2253   0.620   1.968   3.465
  452SOL     OW 2254   4.107   6.446   3.617
  452SOL    HW1 2255   4.035   6.415   3.556
  452SOL    HW2 2256   4.195   6.446   3.569
  453SOL     OW 2257   4.176   6.852   6.983
  453SOL    HW1 2258   4.202   6.759   7.010
  453SOL    HW2 2259   4.083   6.852   6.947
  454SOL     OW 2260   6.876   4.678   6.650
  454SOL    HW1 2261   6.933   4.691   6.731
  454SOL    HW2 2262   6.877   4.762   6.595
  455SOL     OW 2263   6.623   4.703   5.887
  455SOL    HW1 2264   6.672   4.789   5.872
  455SOL    HW2 2265   6.548   4.717   5.951
  456SOL     OW 2266   2.953   1.156   2.517
  456SOL    HW1 2267   2.988   1.250   2.522
  456SOL    HW2 2268   2.854   1.157   2.529
  457SOL     OW 2269   2.461   6.624   5.976
  457SOL    HW1 2270   2.416   6.537   5.994
  457SOL    HW2 2271   2.538   6.635   6.039
  458SOL     OW 2272   1.945   1.847   3.187
  458SOL    HW1 2273   1.893   1.791   3.123
  458SOL    HW2 2274   2.021   1.793   3.224
  459SOL     OW 2275   1.955   6.925   4.778
  459SOL    HW1 2276   2.025   6.893   4.842
  459SOL    HW2 2277   1.968   7.022   4.760
  460SOL     OW 2278   1.431   2.020   4.981
  460SOL    HW1 2279   1.528   2.035   4.960
  460SOL    HW2 2280   1.416   2.039   5.078
  461SOL     OW 2281   0.906   4.633   6.096
  461SOL    HW1 2282   0.953   4.703   6.042
  461SOL    HW2 2283   0.903   4.661   6.192
  462SOL     OW 2284   3.416   3.528   4.489
  462SOL    HW1 2285   3.417   3.544   4.588
  462SOL    HW2 2286   3.409   3.616   4.441
  463SOL     OW 2287   6.206   6.556   2.346
  463SOL    HW1 2288   6.269   6.617   2.395
  463SOL    HW2 2289   6.239   6.543   2.252
  464SOL     OW 2290   3.415   6.163   6.513
  464SOL    HW1 2291   3.328   6.183   6.558
  464SOL    HW2 2292   3.489   6.174   6.579
  465SOL     OW 2293   1.560   2.319   0.499
  465SOL    HW1 2294   1.484   2.383   0.503
  465SOL    HW2 2295   1.529   2.232   0.461
  466SOL     OW 2296   3.499   5.863   4.746
  466SOL    HW1 2297   3.459   5.886   4.836
  466SOL    HW2 2298   3.522   5.947   4.698
  467SOL     OW 2299   6.561   1.087   2.644
  467SOL    HW1 2300   6.601   1.092   2.552
  467SOL    HW2 2301   6.497   1.010   2.648
  468SOL     OW 2302   3.721   0.247   6.676
  468SOL    HW1 2303   3.814   0.215   6.696
  468SOL    HW2 2304   3.670   0.174   6.631
  469SOL     OW 2305   2.644   5.079   5.993
  469SOL    HW1 2306   2.630   5.167   5.947
  469SOL    HW2 2307   2.739   5.050   5.983
  470SOL     OW 2308   2.609   4.964   3.282
  470SOL    HW1 2309   2.613   4.940   3.185
  470SOL    HW2 2310   2.701   4.980   3.316
  471SOL     OW 2311   3.034   2.191   4.175
  471SOL    HW1 2312   3.131   2.176   4.191
  471SOL    HW2 2313   3.018   2.211   4.079
  472SOL     OW 2314   6.444   4.344   6.044
  472SOL    HW1 2315   6.487   4.379   6.127
  472SOL    HW2 2316   6.451   4.244   6.043
  473SOL     OW 2317   6.952   2.260   2.563
  473SOL    HW1 2318   6.969   2.270   2.465
  473SOL    HW2 2319   0.014   2.240   2.611
  474SOL     OW 2320   6.147   6.472   4.648
  474SOL    HW1 2321   6.081   6.408   4.610
  474SOL    HW2 2322   6.179   6.534   4.576
  475SOL     OW 2323   5.952   1.360   0.916
  475SOL    HW1 2324   5.858   1.385   0.892
  475SOL    HW2 2325   5.988   1.428   0.980
  476SOL     OW 2326   0.494   3.949   1.632
  476SOL    HW1 2327   0.450   3.883   1.693
  476SOL    HW2 2328   0.447   4.037   1.640
  477SOL     OW 2329   1.651   4.921   3.784
  477SOL    HW1 2330   1.750   4.921   3.800
  477SOL    HW2 2331   1.603   4.925   3.871
  478SOL     OW 2332   4.672   5.903   2.354
  478SOL    HW1 2333   4.590   5.899   2.295
  478SOL    HW2 2334   4.647   5.878   2.447
  479SOL     OW 2335   4.035   3.639   3.933
  479SOL    HW1 2336   3.937   3.628   3.921
  479SOL    HW2 2337   4.054   3.673   4.025
  480SOL     OW 2338   1.707   0.097   2.773
  480SOL    HW1 2339   1.720   0.196   2.772
  480SOL    HW2 2340   1.786   0.052   2.730
  481SOL     OW 2341   0.605   6.706   0.555
  481SOL    HW1 2342   0.585   6.615   0.589
  481SOL    HW2 2343   0.675   6.700   0.483
  482SOL     OW 2344   5.208   4.660   1.938
  482SOL    HW1 2345   5.212   4.563   1.915
  482SOL    HW2 2346   5.299   4.692   1.962
  483SOL     OW 2347   6.080   2.113   3.049
  483SOL    HW1 2348   6.152   2.176   3.023
  483SOL    HW2 2349   6.117   2.041   3.108
  484SOL     OW 2350   2.210   4.061   4.267
  484SOL    HW1 2351   2.120   4.099   4.248
  484SOL    HW2 2352   2.208   3.962   4.256
  485SOL     OW 2353   5.356   3.286   2.448
  485SOL    HW1 2354   5.297   3.208   2.426
  485SOL    HW2 2355   5.440   3.281   2.394
  486SOL     OW 2356   6.407   6.227   6.001
  486SOL    HW1 2357   6.472   6.160   6.038
  486SOL    HW2 2358   6.349   6.183   5.933
  487SOL     OW 2359   0.112   6.408   4.598
  487SOL    HW1 2360   0.077   6.336   4.539
  487SOL    HW2 2361   0.086   6.497   4.561
  488SOL     OW 2362   1.557   6.233   3.424
  488SOL    HW1 2363   1.618   6.293   3.476
  488SOL    HW2 2364   1.488   6.289   3.377
  489SOL     OW 2365   0.177   5.701   5.841
  489SOL    HW1 2366   0.151   5.669   5.932
  489SOL    HW2 2367   0.193   5.622   5.782
  490SOL     OW 2368   1.577   4.846   5.795
  490SOL    HW1 2369   1.533   4.781   5.733
  490SOL    HW2 2370   1.636   4.907   5.743
  491SOL     OW 2371   0.454   2.558   0.839
  491SOL    HW1 2372   0.365   2.537   0.800
  491SOL    HW2 2373   0.475   2.492   0.911
  492SOL     OW 2374   1.679   1.556   5.530
  492SOL    HW1 2375   1.589   1.532   5.494
  492SOL    HW2 2376   1.749   1.530   5.464
  493SOL     OW 2377   2.219   6.427   4.772
  493SOL    HW1 2378   2.255   6.334   4.759
  493SOL    HW2 2379   2.232   6.455   4.867
  494SOL     OW 2380   2.363   0.037   4.808
  494SOL    HW1 2381   2.430   0.027   4.734
  494SOL    HW2 2382   2.323   0.129   4.805
  495SOL     OW 2383   4.117   5.787   5.544
  495SOL    HW1 2384   4.105   5.801   5.446
  495SOL    HW2 2385   4.171   5.704   5.559
  496SOL     OW 2386   5.109   1.649   2.829
  496SOL    HW1 2387   5.103   1.609   2.921
  496SOL    HW2 2388   5.017   1.652   2.789
  497SOL     OW 2389   3.177   0.983   6.497
  497SOL    HW1 2390   3.092   1.010   6.542
  497SOL    HW2 2391   3.251   0.983   6.563
  498SOL     OW 2392   0.744   6.077   1.921
  498SOL    HW1 2393   0.803   6.145   1.965
  498SOL    HW2 2394   0.682   6.124   1.858
  499SOL     OW 2395   3.460   5.789   6.972
  499SOL    HW1 2396   3.489   5.693   6.964
  499SOL    HW2 2397   3.360   5.792   6.974
  500SOL     OW 2398   5.888   1.889   0.142
  500SOL    HW1 2399   5.846   1.978   0.160
  500SOL    HW2 2400   5.829   1.836   0.082
  501SOL     OW 2401   0.850   0.222   2.668
  501SOL    HW1 2402   0.778   0.156   2.650
  501SOL    HW2 2403   0.863   0.232   2.767
  502SOL     OW 2404   2.232   5.068   6.831
  502SOL    HW1 2405   2.150   5.068   6.888
  502SOL    HW2 2406   2.208   5.034   6.740
  503SOL     OW 2407   3.615   5.389   0.059
  503SOL    HW1 2408   3.547   5.425   7.019
  503SOL    HW2 2409   3.630   5.292   0.040
  504SOL     OW 2410   5.838   6.334   2.209
  504SOL    HW1 2411   5.896   6.311   2.131
  504SOL    HW2 2412   5.767   6.264   2.220
  505SOL     OW 2413   5.053   6.654   5.174
  505SOL    HW1 2414   4.985   6.644   5.247
  505SOL    HW2 2415   5.098   6.566   5.157
  506SOL     OW 2416   3.445   5.560   2.760
  506SOL    HW1 2417   3.490   5.561   2.849
  506SOL    HW2 2418   3.351   5.528   2.770
  507SOL     OW 2419   3.709   0.872   1.056
  507SOL    HW1 2420   3.783   0.856   0.990
  507SOL    HW2 2421   3.713   0.801   1.127
  508SOL     OW 2422   0.367   4.674   4.247
  508SOL    HW1 2423   0.395   4.770   4.251
  508SOL    HW2 2424   0.327   4.655   4.157
  509SOL     OW 2425   4.373   0.231   6.300
  509SOL    HW1 2426   4.355   0.135   6.322
  509SOL    HW2 2427   4.465   0.240   6.262
  510SOL     OW 2428   6.622   4.445   6.942
  510SOL    HW1 2429   6.525   4.426   6.929
  510SOL    HW2 2430   6.676   4.369   6.904
  511SOL     OW 2431   0.975   1.654   0.366
  511SOL    HW1 2432   1.065   1.617   0.343
  511SOL    HW2 2433   0.922   1.667   0.283
  512SOL     OW 2434   6.414   2.215   6.474
  512SOL    HW1 2435   6.389   2.146   6.407
  512SOL    HW2 2436   6.513   2.223   6.478
  513SOL     OW 2437   5.356   0.026   3.085
  513SOL    HW1 2438   5.437   0.055   3.136
  513SOL    HW2 2439   5.326   6.960   3.117
  514SOL     OW 2440   6.562   6.956   4.221
  514SOL    HW1 2441   6.619   6.889   4.268
  514SOL    HW2 2442   6.472   6.959   4.264
  515SOL     OW 2443   3.436   6.850   0.017
  515SOL    HW1 2444   3.486   6.774   0.058
  515SOL    HW2 2445   3.371   6.814   6.974
  516SOL     OW 2446   2.266   5.480   1.532
  516SOL    HW1 2447   2.316   5.539   1.468
  516SOL    HW2 2448   2.253   5.529   1.618
  517SOL     OW 2449   3.080   5.224   2.356
  517SOL    HW1 2450   3.106   5.293   2.424
  517SOL    HW2 2451   3.141   5.230   2.277
  518SOL     OW 2452   2.261   3.031   3.459
  518SOL    HW1 2453   2.247   3.128   3.481
  518SOL    HW2 2454   2.188   2.977   3.501
  519SOL     OW 2455   0.511   6.535   3.493
  519SOL    HW1 2456   0.430   6.492   3.452
  519SOL    HW2 2457   0.575   6.561   3.421
  520SOL     OW 2458   1.454   2.824   0.076
  520SOL    HW1 2459   1.462   2.808   0.175
  520SOL    HW2 2460   1.375   2.775   0.040
  521SOL     OW 2461   5.031   4.974   5.235
  521SOL    HW1 2462   5.091   4.976   5.155
  521SOL    HW2 2463   4.939   5.003   5.207
  522SOL     OW 2464   4.124   3.754   1.389
  522SOL    HW1 2465   4.155   3.661   1.408
  522SOL    HW2 2466   4.106   3.765   1.291
  523SOL     OW 2467   0.019   6.713   1.549
  523SOL    HW1 2468   7.019   6.627   1.595
  523SOL    HW2 2469   0.113   6.738   1.572
  524SOL     OW 2470   6.886   2.761   2.185
  524SOL    HW1 2471   6.815   2.820   2.224
  524SOL    HW2 2472   6.846   2.673   2.158
  525SOL     OW 2473   1.530   3.775   6.720
  525SOL    HW1 2474   1.611   3.718   6.731
  525SOL    HW2 2475   1.538   3.856   6.778
  526SOL     OW 2476   3.091   0.329   4.591
  526SOL    HW1 2477   3.029   0.301   4.665
  526SOL    HW2 2478   3.183   0.341   4.628
  527SOL     OW 2479   1.297   2.092   6.773
  527SOL    HW1 2480   1.319   2.007   6.726
  527SOL    HW2 2481   1.219   2.135   6.728
  528SOL     OW 2482   0.067   3.128   4.241
  528SOL    HW1 2483   6.993   3.121   4.226
  528SOL    HW2 2484   0.088   3.097   4.334
  529SOL     OW 2485   2.419   0.332   5.676
  529SOL    HW1 2486   2.426   0.233   5.687
  529SOL    HW2 2487   2.397   0.374   5.765
  530SOL     OW 2488   3.719   3.506   1.509
  530SOL    HW1 2489   3.623   3.525   1.489
  530SOL    HW2 2490   3.725   3.450   1.592
  531SOL     OW 2491   2.372   0.886   2.060
  531SOL    HW1 2492   2.375   0.957   1.989
  531SOL    HW2 2493   2.292   0.901   2.119
  532SOL     OW 2494   3.082   2.708   0.255
  532SOL    HW1 2495   3.167   2.672   0.294
  532SOL    HW2 2496   3.082   2.693   0.156
  533SOL     OW 2497   4.078   0.510   3.689
  533SOL    HW1 2498   4.107   0.428   3.640
  533SOL    HW2 2499   4.098   0.499   3.787
  534SOL     OW 2500   0.670   5.678   1.287
  534SOL    HW1 2501   0.689   5.582   1.267
  534SOL    HW2 2502   0.581   5.702   1.249
  535SOL     OW 2503   5.519   3.942   3.271
  535SOL    HW1 2504   5.473   3.944   3.183
  535SOL    HW2 2505   5.538   4.036   3.301
  536SOL     OW 2506   6.348   6.233   3.312
  536SOL    HW1 2507   6.267   6.254   3.367
  536SOL    HW2 2508   6.419   6.195   3.370
  537SOL     OW 2509   3.171   0.501   3.992
  537SOL    HW1 2510   3.267   0.474   4.005
  537SOL    HW2 2511   3.129   0.443   3.923
  538SOL     OW 2512   2.456   5.187   5.582
  538SOL    HW1 2513   2.475   5.268   5.527
  538SOL    HW2 2514   2.358   5.166   5.579
  539SOL     OW 2515   0.952   5.922   0.466
  539SOL    HW1 2516   0.910   5.877   0.387
  539SOL    HW2 2517   0.931   6.019   0.465
  540SOL     OW 2518   1.291   0.544   3.271
  540SOL    HW1 2519   1.271   0.490   3.352
  540SOL    HW2 2520   1.245   0.503   3.192
  541SOL     OW 2521   3.861   6.474   4.699
  541SOL    HW1 2522   3.839   6.386   4.742
  541SOL    HW2 2523   3.862   6.463   4.600
  542SOL     OW 2524   2.885   6.504   6.724
  542SOL    HW1 2525   2.810   6.521   6.661
  542SOL    HW2 2526   2.899   6.585   6.781
  543SOL     OW 2527   5.949   2.671   4.035
  543SOL    HW1 2528   5.995   2.759   4.019
  543SOL    HW2 2529   6.017   2.599   4.043
  544SOL     OW 2530   0.249   4.821   0.135
  544SOL    HW1 2531   0.276   4.837   0.040
  544SOL    HW2 2532   0.287   4.893   0.193
  545SOL     OW 2533   5.157   1.479   1.451
  545SOL    HW1 2534   5.076   1.537   1.459
  545SOL    HW2 2535   5.140   1.391   1.496
  546SOL     OW 2536   0.397   4.220   2.302
  546SOL    HW1 2537   0.392   4.124   2.329
  546SOL    HW2 2538   0.430   4.226   2.208
  547SOL     OW 2539   3.934   1.399   0.272
  547SOL    HW1 2540   3.944   1.367   0.177
  547SOL    HW2 2541   3.898   1.492   0.272
  548SOL     OW 2542   3.756   2.844   7.010
  548SOL    HW1 2543   3.735   2.941   6.998
  548SOL    HW2 2544   3.710   2.809   0.069
  549SOL     OW 2545   6.296   2.097   0.692
  549SOL    HW1 2546   6.373   2.073   0.751
  549SOL    HW2 2547   6.292   2.034   0.615
  550SOL     OW 2548   0.206   4.654   2.755
  550SOL    HW1 2549   0.149   4.572   2.756
  550SOL    HW2 2550   0.270   4.651   2.832
  551SOL     OW 2551   6.783   0.929   0.149
  551SOL    HW1 2552   6.740   0.973   0.071
  551SOL    HW2 2553   6.803   0.998   0.219
  552SOL     OW 2554   5.726   5.504   5.522
  552SOL    HW1 2555   5.667   5.456   5.457
  552SOL    HW2 2556   5.726   5.602   5.501
  553SOL     OW 2557   3.320   1.357   5.742
  553SOL    HW1 2558   3.269   1.314   5.817
  553SOL    HW2 2559   3.304   1.307   5.657
  554SOL     OW 2560   5.676   5.996   0.888
  554SOL    HW1 2561   5.581   6.013   0.912
  554SOL    HW2 2562   5.700   6.048   0.806
  555SOL     OW 2563   2.578   5.396   5.438
  555SOL    HW1 2564   2.620   5.485   5.456
  555SOL    HW2 2565   2.543   5.395   5.344
  556SOL     OW 2566   4.959   2.039   3.871
  556SOL    HW1 2567   5.026   1.978   3.828
  556SOL    HW2 2568   4.972   2.037   3.970
  557SOL     OW 2569   6.941   5.325   5.858
  557SOL    HW1 2570   6.857   5.306   5.908
  557SOL    HW2 2571   6.920   5.364   5.769
  558SOL     OW 2572   3.705   3.518   2.973
  558SOL    HW1 2573   3.621   3.488   2.929
  558SOL    HW2 2574   3.714   3.473   3.062
  559SOL     OW 2575   6.173   6.426   5.546
  559SOL    HW1 2576   6.184   6.474   5.459
  559SOL    HW2 2577   6.172   6.493   5.621
  560SOL     OW 2578   6.700   2.605   3.317
  560SOL    HW1 2579   6.662   2.603   3.225
  560SOL    HW2 2580   6.791   2.563   3.316
  561SOL     OW 2581   0.266   3.277   6.518
  561SOL    HW1 2582   0.347   3.221   6.499
  561SOL    HW2 2583   0.239   3.326   6.435
  562SOL     OW 2584   4.661   6.597   5.815
  562SOL    HW1 2585   4.615   6.595   5.726
  562SOL    HW2 2586   4.703   6.687   5.829
  563SOL     OW 2587   1.782   1.917   4.401
  563SOL    HW1 2588   1.743   1.945   4.489
  563SOL    HW2 2589   1.735   1.965   4.327
  564SOL     OW 2590   0.369   1.300   5.635
  564SOL    HW1 2591   0.333   1.250   5.556
  564SOL    HW2 2592   0.462   1.271   5.653
  565SOL     OW 2593   3.225   2.948   3.663
  565SOL    HW1 2594   3.193   2.999   3.742
  565SOL    HW2 2595   3.269   2.863   3.694
  566SOL     OW 2596   3.171   5.379   3.111
  566SOL    HW1 2597   3.197   5.449   3.044
  566SOL    HW2 2598   3.084   5.338   3.085
  567SOL     OW 2599   2.571   2.726   6.836
  567SOL    HW1 2600   2.522   2.784   6.902
  567SOL    HW2 2601   2.580   2.634   6.874
  568SOL     OW 2602   5.969   6.931   0.546
  568SOL    HW1 2603   5.973   0.006   0.534
  568SOL    HW2 2604   6.024   6.905   0.625
  569SOL     OW 2605   0.094   2.267   0.064
  569SOL    HW1 2606   0.165   2.284   7.020
  569SOL    HW2 2607   0.057   2.175   0.051
  570SOL     OW 2608   2.957   0.493   6.215
  570SOL    HW1 2609   3.024   0.420   6.200
  570SOL    HW2 2610   2.975   0.568   6.151
  571SOL     OW 2611   2.804   4.791   3.158
  571SOL    HW1 2612   2.894   4.830   3.174
  571SOL    HW2 2613   2.793   4.769   3.061
  572SOL     OW 2614   1.654   6.131   4.244
  572SOL    HW1 2615   1.711   6.213   4.252
  572SOL    HW2 2616   1.558   6.155   4.264
  573SOL     OW 2617   6.305   2.170   5.557
  573SOL    HW1 2618   6.349   2.095   5.607
  573SOL    HW2 2619   6.210   2.178   5.587
  574SOL     OW 2620   3.161   1.767   5.068
  574SOL    HW1 2621   3.247   1.763   5.016
  574SOL    HW2 2622   3.131   1.862   5.076
  575SOL     OW 2623   3.265   3.333   0.564
  575SOL    HW1 2624   3.170   3.356   0.545
  575SOL    HW2 2625   3.321   3.415   0.556
  576SOL     OW 2626   2.115   3.290   2.942
  576SOL    HW1 2627   2.165   3.233   3.007
  576SOL    HW2 2628   2.033   3.326   2.985
  577SOL     OW 2629   0.864   1.234   2.053
  577SOL    HW1 2630   0.885   1.137   2.037
  577SOL    HW2 2631   0.916   1.291   1.990
  578SOL     OW 2632   1.882   5.442   0.260
  578SOL    HW1 2633   1.887   5.378   0.183
  578SOL    HW2 2634   1.955   5.422   0.325
  579SOL     OW 2635   2.752   4.763   2.613
  579SOL    HW1 2636   2.765   4.862   2.612
  579SOL    HW2 2637   2.781   4.725   2.525
  580SOL     OW 2638   4.079   5.315   4.960
  580SOL    HW1 2639   4.111   5.226   4.928
  580SOL    HW2 2640   4.156   5.377   4.971
  581SOL     OW 2641   0.955   2.679   3.548
  581SOL    HW1 2642   0.910   2.753   3.497
  581SOL    HW2 2643   1.022   2.719   3.612
  582SOL     OW 2644   5.427   4.887   3.550
  582SOL    HW1 2645   5.494   4.955   3.581
  582SOL    HW2 2646   5.356   4.932   3.497
  583SOL     OW 2647   3.228   5.021   5.726
  583SOL    HW1 2648   3.269   4.982   5.644
  583SOL    HW2 2649   3.199   4.948   5.788
  584SOL     OW 2650   3.545   0.161   6.352
  584SOL    HW1 2651   3.496   0.138   6.436
  584SOL    HW2 2652   3.491   0.134   6.273
  585SOL     OW 2653   2.708   6.959   1.716
  585SOL    HW1 2654   2.739   6.947   1.622
  585SOL    HW2 2655   2.640   6.889   1.739
  586SOL     OW 2656   4.304   0.486   1.503
  586SOL    HW1 2657   4.265   0.420   1.568
  586SOL    HW2 2658   4.386   0.526   1.543
  587SOL     OW 2659   5.357   2.265   2.035
  587SOL    HW1 2660   5.390   2.207   1.961
  587SOL    HW2 2661   5.432   2.282   2.099
  588SOL     OW 2662   1.145   5.398   1.162
  588SOL    HW1 2663   1.193   5.362   1.242
  588SOL    HW2 2664   1.166   5.495   1.151
  589SOL     OW 2665   3.309   6.138   1.397
  589SOL    HW1 2666   3.302   6.038   1.397
  589SOL    HW2 2667   3.218   6.178   1.401
  590SOL     OW 2668   5.887   1.902   0.940
  590SOL    HW1 2669   5.964   1.842   0.915
  590SOL    HW2 2670   5.814   1.893   0.872
  591SOL     OW 2671   4.330   5.445   4.382
  591SOL    HW1 2672   4.338   5.482   4.290
  591SOL    HW2 2673   4.244   5.475   4.423
  592SOL     OW 2674   4.965   1.459   4.042
  592SOL    HW1 2675   4.992   1.554   4.058
  592SOL    HW2 2676   4.886   1.456   3.982
  593SOL     OW 2677   4.123   2.172   4.984
  593SOL    HW1 2678   4.154   2.264   5.008
  593SOL    HW2 2679   4.195   2.106   5.004
  594SOL     OW 2680   5.651   1.807   1.475
  594SOL    HW1 2681   5.579   1.823   1.409
  594SOL    HW2 2682   5.701   1.724   1.451
  595SOL     OW 2683   5.147   6.229   2.769
  595SOL    HW1 2684   5.047   6.224   2.772
  595SOL    HW2 2685   5.185   6.195   2.855
  596SOL     OW 2686   6.894   4.017   4.271
  596SOL    HW1 2687   6.802   4.049   4.293
  596SOL    HW2 2688   6.893   3.918   4.255
  597SOL     OW 2689   3.126   6.630   5.820
  597SOL    HW1 2690   3.094   6.686   5.896
  597SOL    HW2 2691   3.224   6.642   5.809
  598SOL     OW 2692   3.091   3.414   4.672
  598SOL    HW1 2693   3.077   3.483   4.601
  598SOL    HW2 2694   3.041   3.331   4.648
  599SOL     OW 2695   1.937   6.181   2.092
  599SOL    HW1 2696   1.928   6.251   2.021
  599SOL    HW2 2697   1.901   6.094   2.057
  600SOL     OW 2698   6.997   4.067   4.877
  600SOL    HW1 2699   0.014   4.156   4.897
  600SOL    HW2 2700   6.975   4.021   4.963
  601SOL     OW 2701   1.097   0.735   4.739
  601SOL    HW1 2702   1.168   0.740   4.669
  601SOL    HW2 2703   1.139   0.721   4.829
  602SOL     OW 2704   2.448   6.804   5.057
  602SOL    HW1 2705   2.461   6.771   5.151
  602SOL    HW2 2706   2.408   6.896   5.060
  603SOL     OW 2707   1.617   1.059   5.063
  603SOL    HW1 2708   1.636   1.153   5.033
  603SOL    HW2 2709   1.642   1.049   5.159
  604SOL     OW 2710   0.110   2.468   1.659
  604SOL    HW1 2711   0.068   2.377   1.646
  604SOL    HW2 2712   0.124   2.484   1.756
  605SOL     OW 2713   0.016   4.205   2.064
  605SOL    HW1 2714   0.030   4.203   2.163
  605SOL    HW2 2715   0.032   4.297   2.030
  606SOL     OW 2716   3.970   6.855   4.931
  606SOL    HW1 2717   3.884   6.879   4.976
  606SOL    HW2 2718   3.951   6.799   4.850
  607SOL     OW 2719   1.447   5.056   6.425
  607SOL    HW1 2720   1.541   5.087   6.442
  607SOL    HW2 2721   1.422   4.987   6.492
  608SOL     OW 2722   4.024   0.020   6.570
  608SOL    HW1 2723   4.068   0.109   6.563
  608SOL    HW2 2724   3.950   0.014   6.503
  609SOL     OW 2725   3.821   2.520   1.493
  609SOL    HW1 2726   3.905   2.567   1.464
  609SOL    HW2 2727   3.832   2.488   1.587
  610SOL     OW 2728   4.544   2.417   0.192
  610SOL    HW1 2729   4.603   2.475   0.136
  610SOL    HW2 2730   4.467   2.470   0.227
  611SOL     OW 2731   3.770   6.787   2.529
  611SOL    HW1 2732   3.673   6.783   2.504
  611SOL    HW2 2733   3.781   6.759   2.625
  612SOL     OW 2734   3.605   5.049   5.680
  612SOL    HW1 2735   3.680   4.998   5.637
  612SOL    HW2 2736   3.537   4.985   5.715
  613SOL     OW 2737   5.331   5.629   4.743
  613SOL    HW1 2738   5.358   5.593   4.653
  613SOL    HW2 2739   5.360   5.724   4.750
  614SOL     OW 2740   5.071   5.257   5.018
  614SOL    HW1 2741   5.134   5.296   4.951
  614SOL    HW2 2742   5.053   5.324   5.089
  615SOL     OW 2743   0.188   4.525   0.808
  615SOL    HW1 2744   0.093   4.528   0.837
  615SOL    HW2 2745   0.200   4.453   0.740
  616SOL     OW 2746   6.547   2.785   3.456
  616SOL    HW1 2747   6.492   2.842   3.395
  616SOL    HW2 2748   6.613   2.732   3.403
  617SOL     OW 2749   2.590   5.691   5.705
  617SOL    HW1 2750   2.585   5.595   5.680
  617SOL    HW2 2751   2.544   5.705   5.793
  618SOL     OW 2752   1.911   1.656   1.755
  618SOL    HW1 2753   1.865   1.740   1.724
  618SOL    HW2 2754   1.844   1.591   1.790
  619SOL     OW 2755   1.637   2.031   6.760
  619SOL    HW1 2756   1.589   1.978   6.690
  619SOL    HW2 2757   1.686   1.969   6.821
  620SOL     OW 2758   4.707   2.705   0.733
  620SOL    HW1 2759   4.639   2.715   0.806
  620SOL    HW2 2760   4.716   2.609   0.708
  621SOL     OW 2761   5.963   4.970   0.262
  621SOL    HW1 2762   5.866   4.952   0.245
  621SOL    HW2 2763   6.002   5.021   0.186
  622SOL     OW 2764   1.970   1.411   0.048
  622SOL    HW1 2765   2.054   1.428   0.100
  622SOL    HW2 2766   1.896   1.467   0.086
  623SOL     OW 2767   0.982   4.919   6.032
  623SOL    HW1 2768   0.895   4.893   5.991
  623SOL    HW2 2769   0.967   4.990   6.100
  624SOL     OW 2770   0.611   2.385   2.756
  624SOL    HW1 2771   0.641   2.460   2.698
  624SOL    HW2 2772   0.520   2.355   2.728
  625SOL     OW 2773   2.545   1.669   2.571
  625SOL    HW1 2774   2.511   1.662   2.477
  625SOL    HW2 2775   2.605   1.592   2.591
  626SOL     OW 2776   1.913   6.181   3.442
  626SOL    HW1 2777   1.895   6.267   3.393
  626SOL    HW2 2778   1.951   6.114   3.378
  627SOL     OW 2779   5.372   0.861   0.564
  627SOL    HW1 2780   5.396   0.765   0.551
  627SOL    HW2 2781   5.456   0.916   0.563
  628SOL     OW 2782   4.864   5.289   4.724
  628SOL    HW1 2783   4.882   5.373   4.777
  628SOL    HW2 2784   4.910   5.295   4.636
  629SOL     OW 2785   0.634   0.255   1.438
  629SOL    HW1 2786   0.548   0.295   1.470
  629SOL    HW2 2787   0.621   0.156   1.426
  630SOL     OW 2788   4.673   1.548   1.869
  630SOL    HW1 2789   4.643   1.473   1.809
  630SOL    HW2 2790   4.636   1.534   1.961
  631SOL     OW 2791   2.668   6.958   5.233
  631SOL    HW1 2792   2.753   7.004   5.206
  631SOL    HW2 2793   2.591   7.000   5.185
  632SOL     OW 2794   2.250   1.151   0.491
  632SOL    HW1 2795   2.274   1.142   0.587
  632SOL    HW2 2796   2.308   1.090   0.436
  633SOL     OW 2797   3.449   5.504   0.764
  633SOL    HW1 2798   3.492   5.462   0.845
  633SOL    HW2 2799   3.379   5.442   0.728
  634SOL     OW 2800   4.547   5.497   1.451
  634SOL    HW1 2801   4.521   5.555   1.374
  634SOL    HW2 2802   4.595   5.416   1.417
  635SOL     OW 2803   3.479   0.227   3.131
  635SOL    HW1 2804   3.470   0.197   3.036
  635SOL    HW2 2805   3.567   0.272   3.144
  636SOL     OW 2806   5.017   5.238   6.610
  636SOL    HW1 2807   5.096   5.270   6.663
  636SOL    HW2 2808   5.034   5.145   6.579
  637SOL     OW 2809   4.985   4.746   1.805
  637SOL    HW1 2810   5.077   4.725   1.840
  637SOL    HW2 2811   4.935   4.797   1.875
  638SOL     OW 2812   4.809   0.963   2.111
  638SOL    HW1 2813   4.742   1.038   2.118
  638SOL    HW2 2814   4.886   0.981   2.172
  639SOL     OW 2815   4.549   4.637   1.664
  639SOL    HW1 2816   4.646   4.612   1.669
  639SOL    HW2 2817   4.494   4.566   1.709
  640SOL     OW 2818   2.283   3.888   6.063
  640SOL    HW1 2819   2.263   3.984   6.081
  640SOL    HW2 2820   2.233   3.858   5.981
  641SOL     OW 2821   0.769   5.681   4.870
  641SOL    HW1 2822   0.837   5.680   4.797
  641SOL    HW2 2823   0.798   5.619   4.943
  642SOL     OW 2824   0.366   4.699   5.138
  642SOL    HW1 2825   0.466   4.710   5.132
  642SOL    HW2 2826   0.327   4.699   5.047
  643SOL     OW 2827   6.878   5.986   5.145
  643SOL    HW1 2828   6.900   5.998   5.048
  643SOL    HW2 2829   6.788   5.943   5.153
  644SOL     OW 2830   1.092   6.377   2.936
  644SOL    HW1 2831   1.107   6.280   2.957
  644SOL    HW2 2832   1.139   6.434   3.004
  645SOL     OW 2833   4.690   2.482   4.525
  645SOL    HW1 2834   4.753   2.525   4.590
  645SOL    HW2 2835   4.689   2.383   4.540
  646SOL     OW 2836   1.702   1.440   3.643
  646SOL    HW1 2837   1.778   1.376   3.655
  646SOL    HW2 2838   1.725   1.506   3.572
  647SOL     OW 2839   6.222   2.852   6.921
  647SOL    HW1 2840   6.295   2.793   6.956
  647SOL    HW2 2841   6.223   2.851   6.821
  648SOL     OW 2842   5.821   3.509   2.352
  648SOL    HW1 2843   5.734   3.547   2.382
  648SOL    HW2 2844   5.804   3.431   2.292
  649SOL     OW 2845   3.808   4.277   1.088
  649SOL    HW1 2846   3.791   4.200   1.026
  649SOL    HW2 2847   3.867   4.247   1.163
  650SOL     OW 2848   4.584   4.971   0.663
  650SOL    HW1 2849   4.535   4.952   0.578
  650SOL    HW2 2850   4.682   4.962   0.649
  651SOL     OW 2851   0.392   6.335   1.096
  651SOL    HW1 2852   0.420   6.408   1.034
  651SOL    HW2 2853   0.418   6.359   1.190
  652SOL     OW 2854   4.398   0.005   2.796
  652SOL    HW1 2855   4.487   0.020   2.753
  652SOL    HW2 2856   4.347   6.960   2.744
  653SOL     OW 2857   3.436   5.230   4.290
  653SOL    HW1 2858   3.345   5.270   4.277
  653SOL    HW2 2859   3.435   5.134   4.260
  654SOL     OW 2860   6.606   5.695   6.419
  654SOL    HW1 2861   6.656   5.643   6.350
  654SOL    HW2 2862   6.553   5.632   6.476
  655SOL     OW 2863   0.927   0.270   1.500
  655SOL    HW1 2864   0.938   0.174   1.529
  655SOL    HW2 2865   0.833   0.286   1.471
  656SOL     OW 2866   2.390   6.072   2.023
  656SOL    HW1 2867   2.367   6.103   2.115
  656SOL    HW2 2868   2.307   6.039   1.977
  657SOL     OW 2869   2.423   1.755   1.299
  657SOL    HW1 2870   2.450   1.844   1.261
  657SOL    HW2 2871   2.431   1.758   1.399
  658SOL     OW 2872   3.282   4.111   6.801
  658SOL    HW1 2873   3.367   4.082   6.845
  658SOL    HW2 2874   3.244   4.035   6.749
  659SOL     OW 2875   2.379   6.678   6.355
  659SOL    HW1 2876   2.426   6.590   6.359
  659SOL    HW2 2877   2.299   6.675   6.415
  660SOL     OW 2878   4.170   6.049   2.055
  660SOL    HW1 2879   4.082   6.092   2.075
  660SOL    HW2 2880   4.161   5.950   2.058
  661SOL     OW 2881   4.694   5.497   3.516
  661SOL    HW1 2882   4.765   5.559   3.483
  661SOL    HW2 2883   4.727   5.403   3.513
  662SOL     OW 2884   3.627   1.029   5.687
  662SOL    HW1 2885   3.563   1.016   5.763
  662SOL    HW2 2886   3.583   1.082   5.615
  663SOL     OW 2887   1.834   4.337   4.846
  663SOL    HW1 2888   1.899   4.372   4.914
  663SOL    HW2 2889   1.770   4.409   4.821
  664SOL     OW 2890   0.485   6.072   6.400
  664SOL    HW1 2891   0.525   6.157   6.363
  664SOL    HW2 2892   0.498   5.998   6.334
  665SOL     OW 2893   3.827   5.335   3.387
  665SOL    HW1 2894   3.755   5.385   3.435
  665SOL    HW2 2895   3.806   5.238   3.387
  666SOL     OW 2896   3.963   0.997   2.551
  666SOL    HW1 2897   3.894   0.973   2.620
  666SOL    HW2 2898   3.925   1.066   2.489
  667SOL     OW 2899   0.518   5.271   1.755
  667SOL    HW1 2900   0.517   5.351   1.695
  667SOL    HW2 2901   0.552   5.297   1.845
  668SOL     OW 2902   5.480   4.544   6.215
  668SOL    HW1 2903   5.413   4.610   6.248
  668SOL    HW2 2904   5.543   4.520   6.289
  669SOL     OW 2905   5.429   1.063   3.092
  669SOL    HW1 2906   5.387   1.144   3.133
  669SOL    HW2 2907   5.372   0.983   3.108
  670SOL     OW 2908   2.349   1.784   3.271
  670SOL    HW1 2909   2.341   1.874   3.228
  670SOL    HW2 2910   2.263   1.735   3.260
  671SOL     OW 2911   2.878   6.635   1.560
  671SOL    HW1 2912   2.942   6.711   1.571
  671SOL    HW2 2913   2.913   6.555   1.609
  672SOL     OW 2914   0.480   5.862   1.955
  672SOL    HW1 2915   0.496   5.777   2.005
  672SOL    HW2 2916   0.475   5.843   1.857
  673SOL     OW 2917   5.237   6.781   1.020
  673SOL    HW1 2918   5.205   6.872   0.995
  673SOL    HW2 2919   5.218   6.718   0.945
  674SOL     OW 2920   6.661   1.692   4.671
  674SOL    HW1 2921   6.597   1.762   4.639
  674SOL    HW2 2922   6.639   1.667   4.766
  675SOL     OW 2923   6.150   2.265   2.173
  675SOL    HW1 2924   6.084   2.307   2.235
  675SOL    HW2 2925   6.182   2.179   2.211
  676SOL     OW 2926   2.534   4.677   4.655
  676SOL    HW1 2927   2.503   4.602   4.713
  676SOL    HW2 2928   2.631   4.665   4.635
  677SOL     OW 2929   4.773   1.090   1.748
  677SOL    HW1 2930   4.846   1.037   1.790
  677SOL    HW2 2931   4.791   1.100   1.650
  678SOL     OW 2932   2.948   4.520   5.473
  678SOL    HW1 2933   2.976   4.613   5.497
  678SOL    HW2 2934   2.927   4.516   5.375
  679SOL     OW 2935   5.610   1.898   4.709
  679SOL    HW1 2936   5.531   1.840   4.733
  679SOL    HW2 2937   5.693   1.857   4.745
  680SOL     OW 2938   5.331   6.303   4.036
  680SOL    HW1 2939   5.350   6.331   3.942
  680SOL    HW2 2940   5.252   6.242   4.038
  681SOL     OW 2941   5.075   5.583   2.436
  681SOL    HW1 2942   5.022   5.551   2.514
  681SOL    HW2 2943   5.024   5.654   2.388
  682SOL     OW 2944   0.102   1.346   1.990
  682SOL    HW1 2945   0.005   1.367   2.006
  682SOL    HW2 2946   0.139   1.297   2.069
  683SOL     OW 2947   4.458   3.100   1.431
  683SOL    HW1 2948   4.381   3.036   1.429
  683SOL    HW2 2949   4.477   3.125   1.526
  684SOL     OW 2950   6.253   0.209   6.787
  684SOL    HW1 2951   6.260   0.230   6.885
  684SOL    HW2 2952   6.331   0.154   6.759
  685SOL     OW 2953   3.390   1.102   3.593
  685SOL    HW1 2954   3.299   1.143   3.600
  685SOL    HW2 2955   3.400   1.057   3.504
  686SOL     OW 2956   4.421   1.250   3.735
  686SOL    HW1 2957   4.399   1.223   3.828
  686SOL    HW2 2958   4.409   1.349   3.724
  687SOL     OW 2959   0.864   1.988   4.345
  687SOL    HW1 2960   0.950   2.035   4.362
  687SOL    HW2 2961   0.881   1.890   4.333
  688SOL     OW 2962   0.401   0.993   6.122
  688SOL    HW1 2963   0.499   0.977   6.110
  688SOL    HW2 2964   0.384   1.091   6.130
  689SOL     OW 2965   1.153   4.597   5.656
  689SOL    HW1 2966   1.070   4.609   5.601
  689SOL    HW2 2967   1.152   4.506   5.697
  690SOL     OW 2968   6.147   3.333   2.982
  690SOL    HW1 2969   6.170   3.386   2.900
  690SOL    HW2 2970   6.063   3.282   2.966
  691SOL     OW 2971   4.260   1.454   0.511
  691SOL    HW1 2972   4.276   1.551   0.530
  691SOL    HW2 2973   4.211   1.444   0.424
  692SOL     OW 2974   3.370   1.686   5.488
  692SOL    HW1 2975   3.410   1.637   5.411
  692SOL    HW2 2976   3.271   1.692   5.476
  693SOL     OW 2977   4.278   6.139   3.711
  693SOL    HW1 2978   4.270   6.123   3.613
  693SOL    HW2 2979   4.353   6.203   3.728
  694SOL     OW 2980   3.495   6.508   4.484
  694SOL    HW1 2981   3.524   6.576   4.551
  694SOL    HW2 2982   3.568   6.493   4.417
  695SOL     OW 2983   3.154   5.937   4.394
  695SOL    HW1 2984   3.148   5.895   4.303
  695SOL    HW2 2985   3.235   5.995   4.398
  696SOL     OW 2986   5.125   4.252   3.414
  696SOL    HW1 2987   5.126   4.154   3.434
  696SOL    HW2 2988   5.032   4.287   3.425
  697SOL     OW 2989   0.853   3.956   1.672
  697SOL    HW1 2990   0.765   3.929   1.633
  697SOL    HW2 2991   0.910   3.874   1.685
  698SOL     OW 2992   4.898   6.592   1.065
  698SOL    HW1 2993   4.928   6.600   1.160
  698SOL    HW2 2994   4.830   6.519   1.058
  699SOL     OW 2995   2.517   3.143   6.657
  699SOL    HW1 2996   2.453   3.156   6.733
  699SOL    HW2 2997   2.468   3.103   6.579
  700SOL     OW 2998   3.175   7.005   2.633
  700SOL    HW1 2999   3.214   6.988   2.542
  700SOL    HW2 3000   3.200   0.073   2.663
  701SOL     OW 3001   5.993   4.890   0.962
  701SOL    HW1 3002   6.051   4.820   1.003
  701SOL    HW2 3003   6.039   4.979   0.967
  702SOL     OW 3004   2.733   0.521   4.551
  702SOL    HW1 3005   2.826   0.528   4.512
  702SOL    HW2 3006   2.722   0.588   4.624
  703SOL     OW 3007   2.895   3.294   5.633
  703SOL    HW1 3008   2.799   3.312   5.657
  703SOL    HW2 3009   2.926   3.212   5.682
  704SOL     OW 3010   1.550   2.961   6.238
  704SOL    HW1 3011   1.528   2.873   6.195
  704SOL    HW2 3012   1.475   2.989   6.298
  705SOL     OW 3013   6.859   6.499   4.177
  705SOL    HW1 3014   6.899   6.590   4.185
  705SOL    HW2 3015   6.897   6.453   4.096
  706SOL     OW 3016   4.312   1.094   5.410
  706SOL    HW1 3017   4.254   1.060   5.484
  706SOL    HW2 3018   4.307   1.032   5.332
  707SOL     OW 3019   3.954   5.431   3.183
  707SOL    HW1 3020   3.973   5.528   3.197
  707SOL    HW2 3021   3.904   5.396   3.263
  708SOL     OW 3022   2.888   1.163   3.632
  708SOL    HW1 3023   2.890   1.251   3.680
  708SOL    HW2 3024   2.848   1.176   3.541
  709SOL     OW 3025   1.938   6.614   1.391
  709SOL    HW1 3026   2.016   6.675   1.376
  709SOL    HW2 3027   1.956   6.557   1.472
  710SOL     OW 3028   4.874   2.616   1.667
  710SOL    HW1 3029   4.808   2.658   1.729
  710SOL    HW2 3030   4.899   2.680   1.595
  711SOL     OW 3031   0.015   2.846   5.894
  711SOL    HW1 3032   6.957   2.833   5.838
  711SOL    HW2 3033   0.010   2.934   5.941
  712SOL     OW 3034   4.598   2.862   1.205
  712SOL    HW1 3035   4.633   2.876   1.297
  712SOL    HW2 3036   4.579   2.950   1.162
  713SOL     OW 3037   4.294   2.764   5.367
  713SOL    HW1 3038   4.229   2.812   5.426
  713SOL    HW2 3039   4.244   2.698   5.310
  714SOL     OW 3040   6.240   5.089   3.752
  714SOL    HW1 3041   6.207   5.125   3.665
  714SOL    HW2 3042   6.310   5.019   3.735
  715SOL     OW 3043   6.230   5.075   5.605
  715SOL    HW1 3044   6.323   5.095   5.575
  715SOL    HW2 3045   6.224   4.979   5.634
  716SOL     OW 3046   2.127   0.809   2.673
  716SOL    HW1 3047   2.049   0.872   2.668
  716SOL    HW2 3048   2.094   0.717   2.696
  717SOL     OW 3049   5.783   4.546   4.562
  717SOL    HW1 3050   5.700   4.506   4.602
  717SOL    HW2 3051   5.773   4.549   4.462
  718SOL     OW 3052   4.710   2.591   4.277
  718SOL    HW1 3053   4.712   2.691   4.280
  718SOL    HW2 3054   4.689   2.555   4.368
  719SOL     OW 3055   6.753   0.538   2.425
  719SOL    HW1 3056   6.791   0.591   2.501
  719SOL    HW2 3057   6.825   0.484   2.382
  720SOL     OW 3058   2.095   0.711   5.950
  720SOL    HW1 3059   2.124   0.635   6.007
  720SOL    HW2 3060   2.175   0.756   5.910
  721SOL     OW 3061   0.592   2.054   2.029
  721SOL    HW1 3062   0.644   1.969   2.041
  721SOL    HW2 3063   0.495   2.036   2.042
  722SOL     OW 3064   4.333   0.501   6.235
  722SOL    HW1 3065   4.325   0.449   6.320
  722SOL    HW2 3066   4.249   0.553   6.219
  723SOL     OW 3067   2.413   5.721   3.578
  723SOL    HW1 3068   2.409   5.806   3.527
  723SOL    HW2 3069   2.473   5.656   3.532
  724SOL     OW 3070   0.445   0.568   3.341
  724SOL    HW1 3071   0.458   0.590   3.244
  724SOL    HW2 3072   0.452   0.469   3.354
  725SOL     OW 3073   2.532   4.594   1.987
  725SOL    HW1 3074   2.495   4.566   1.899
  725SOL    HW2 3075   2.631   4.579   1.987
  726SOL     OW 3076   2.650   4.997   0.824
  726SOL    HW1 3077   2.612   4.919   0.874
  726SOL    HW2 3078   2.724   4.965   0.765
  727SOL     OW 3079   4.575   5.448   6.508
  727SOL    HW1 3080   4.584   5.453   6.409
  727SOL    HW2 3081   4.529   5.531   6.542
  728SOL     OW 3082   0.103   3.102   4.512
  728SOL    HW1 3083   0.157   3.132   4.591
  728SOL    HW2 3084   0.008   3.091   4.538
  729SOL     OW 3085   6.879   3.180   0.728
  729SOL    HW1 3086   6.918   3.111   0.789
  729SOL    HW2 3087   6.948   3.210   0.663
  730SOL     OW 3088   5.347   0.315   2.616
  730SOL    HW1 3089   5.355   0.266   2.703
  730SOL    HW2 3090   5.433   0.309   2.565
  731SOL     OW 3091   4.639   4.035   6.351
  731SOL    HW1 3092   4.694   4.115   6.326
  731SOL    HW2 3093   4.699   3.964   6.390
  732SOL     OW 3094   5.451   1.948   2.382
  732SOL    HW1 3095   5.405   1.865   2.412
  732SOL    HW2 3096   5.389   2.026   2.390
  733SOL     OW 3097   5.679   6.880   3.987
  733SOL    HW1 3098   5.747   6.945   3.953
  733SOL    HW2 3099   5.722   6.820   4.055
  734SOL     OW 3100   6.528   4.472   2.554
  734SOL    HW1 3101   6.441   4.428   2.575
  734SOL    HW2 3102   6.527   4.566   2.589
  735SOL     OW 3103   5.708   0.452   1.493
  735SOL    HW1 3104   5.698   0.373   1.432
  735SOL    HW2 3105   5.687   0.536   1.443
  736SOL     OW 3106   1.513   1.641   4.164
  736SOL    HW1 3107   1.509   1.549   4.124
  736SOL    HW2 3108   1.560   1.636   4.253
  737SOL     OW 3109   5.845   1.804   5.621
  737SOL    HW1 3110   5.783   1.747   5.675
  737SOL    HW2 3111   5.896   1.746   5.558
  738SOL     OW 3112   3.151   4.292   0.902
  738SOL    HW1 3113   3.165   4.214   0.842
  738SOL    HW2 3114   3.054   4.297   0.929
  739SOL     OW 3115   3.292   0.008   5.008
  739SOL    HW1 3116   3.288   0.107   5.025
  739SOL    HW2 3117   3.272   7.014   4.912
  740SOL     OW 3118   5.596   2.288   2.600
  740SOL    HW1 3119   5.647   2.204   2.586
  740SOL    HW2 3120   5.654   2.355   2.646
  741SOL     OW 3121   2.018   0.888   4.807
  741SOL    HW1 3122   2.054   0.979   4.787
  741SOL    HW2 3123   1.921   0.894   4.828
  742SOL     OW 3124   1.193   6.133   1.101
  742SOL    HW1 3125   1.291   6.150   1.109
  742SOL    HW2 3126   1.169   6.051   1.153
  743SOL     OW 3127   0.718   6.380   3.634
  743SOL    HW1 3128   0.639   6.433   3.603
  743SOL    HW2 3129   0.800   6.437   3.628
  744SOL     OW 3130   6.777   1.324   0.895
  744SOL    HW1 3131   6.850   1.256   0.894
  744SOL    HW2 3132   6.698   1.287   0.944
  745SOL     OW 3133   1.950   5.634   5.300
  745SOL    HW1 3134   1.892   5.715   5.305
  745SOL    HW2 3135   2.037   5.657   5.257
  746SOL     OW 3136   5.503   4.248   5.169
  746SOL    HW1 3137   5.493   4.347   5.161
  746SOL    HW2 3138   5.433   4.202   5.114
  747SOL     OW 3139   5.111   5.106   3.613
  747SOL    HW1 3140   5.112   5.071   3.706
  747SOL    HW2 3141   5.068   5.039   3.552
  748SOL     OW 3142   5.214   4.967   2.779
  748SOL    HW1 3143   5.231   4.912   2.697
  748SOL    HW2 3144   5.201   4.906   2.857
  749SOL     OW 3145   4.863   3.579   3.455
  749SOL    HW1 3146   4.858   3.490   3.500
  749SOL    HW2 3147   4.856   3.568   3.356
  750SOL     OW 3148   2.775   1.228   1.525
  750SOL    HW1 3149   2.768   1.274   1.437
  750SOL    HW2 3150   2.740   1.135   1.517
  751SOL     OW 3151   5.202   2.550   0.580
  751SOL    HW1 3152   5.174   2.461   0.617
  751SOL    HW2 3153   5.127   2.615   0.589
  752SOL     OW 3154   3.797   2.095   6.065
  752SOL    HW1 3155   3.864   2.023   6.085
  752SOL    HW2 3156   3.792   2.109   5.967
  753SOL     OW 3157   3.096   3.354   4.963
  753SOL    HW1 3158   3.087   3.364   4.864
  753SOL    HW2 3159   3.055   3.433   5.008
  754SOL     OW 3160   5.857   0.984   6.692
  754SOL    HW1 3161   5.886   0.904   6.745
  754SOL    HW2 3162   5.772   0.962   6.643
  755SOL     OW 3163   3.019   4.230   5.258
  755SOL    HW1 3164   3.081   4.250   5.334
  755SOL    HW2 3165   2.976   4.314   5.227
  756SOL     OW 3166   3.341   5.042   0.025
  756SOL    HW1 3167   3.342   4.992   6.962
  756SOL    HW2 3168   3.375   4.982   0.098
  757SOL     OW 3169   2.145   6.767   2.408
  757SOL    HW1 3170   2.193   6.681   2.428
  757SOL    HW2 3171   2.065   6.775   2.467
  758SOL     OW 3172   3.874   1.340   3.876
  758SOL    HW1 3173   3.880   1.277   3.798
  758SOL    HW2 3174   3.905   1.431   3.848
  759SOL     OW 3175   0.127   2.609   3.149
  759SOL    HW1 3176   0.199   2.568   3.205
  759SOL    HW2 3177   0.159   2.697   3.113
  760SOL     OW 3178   6.787   6.644   3.908
  760SOL    HW1 3179   6.843   6.562   3.898
  760SOL    HW2 3180   6.696   6.619   3.942
  761SOL     OW 3181   5.624   4.391   5.487
  761SOL    HW1 3182   5.640   4.293   5.483
  761SOL    HW2 3183   5.704   4.437   5.526
  762SOL     OW 3184   2.909   6.396   5.573
  762SOL    HW1 3185   2.820   6.397   5.620
  762SOL    HW2 3186   2.979   6.362   5.635
  763SOL     OW 3187   5.464   0.112   6.564
  763SOL    HW1 3188   5.462   0.095   6.662
  763SOL    HW2 3189   5.500   0.204   6.547
  764SOL     OW 3190   6.065   1.128   5.801
  764SOL    HW1 3191   6.084   1.030   5.797
  764SOL    HW2 3192   5.967   1.144   5.801
  765SOL     OW 3193   0.807   6.986   0.917
  765SOL    HW1 3194   0.753   6.947   0.991
  765SOL    HW2 3195   0.904   6.965   0.932
  766SOL     OW 3196   2.444   2.506   5.461
  766SOL    HW1 3197   2.520   2.443   5.446
  766SOL    HW2 3198   2.450   2.581   5.395
  767SOL     OW 3199   6.955   6.683   3.442
  767SOL    HW1 3200   6.918   6.767   3.402
  767SOL    HW2 3201   0.023   6.702   3.478
  768SOL     OW 3202   2.237   6.108   2.782
  768SOL    HW1 3203   2.156   6.163   2.801
  768SOL    HW2 3204   2.297   6.108   2.862
  769SOL     OW 3205   3.459   1.715   5.179
  769SOL    HW1 3206   3.420   1.626   5.202
  769SOL    HW2 3207   3.434   1.739   5.085
  770SOL     OW 3208   1.716   5.294   4.193
  770SOL    HW1 3209   1.738   5.252   4.281
  770SOL    HW2 3210   1.784   5.365   4.172
  771SOL     OW 3211   1.565   5.222   3.181
  771SOL    HW1 3212   1.541   5.307   3.228
  771SOL    HW2 3213   1.617   5.243   3.099
  772SOL     OW 3214   5.416   5.239   0.029
  772SOL    HW1 3215   5.489   5.275   0.087
  772SOL    HW2 3216   5.437   5.146   0.002
  773SOL     OW 3217   1.131   3.458   3.205
  773SOL    HW1 3218   1.147   3.431   3.300
  773SOL    HW2 3219   1.209   3.430   3.149
  774SOL     OW 3220   2.219   1.942   3.994
  774SOL    HW1 3221   2.245   1.916   4.087
  774SOL    HW2 3222   2.295   1.989   3.950
  775SOL     OW 3223   1.944   3.856   3.956
  775SOL    HW1 3224   1.851   3.836   3.986
  775SOL    HW2 3225   1.948   3.854   3.856
  776SOL     OW 3226   0.727   6.919   6.359
  776SOL    HW1 3227   0.729   6.821   6.340
  776SOL    HW2 3228   0.692   6.968   6.280
  777SOL     OW 3229   1.325   3.460   0.407
  777SOL    HW1 3230   1.344   3.417   0.318
  777SOL    HW2 3231   1.243   3.517   0.400
  778SOL     OW 3232   2.945   6.915   1.861
  778SOL    HW1 3233   2.874   6.945   1.797
  778SOL    HW2 3234   3.031   6.904   1.812
  779SOL     OW 3235   0.497   2.475   1.806
  779SOL    HW1 3236   0.569   2.476   1.876
  779SOL    HW2 3237   0.411   2.505   1.847
  780SOL     OW 3238   1.465   2.218   4.537
  780SOL    HW1 3239   1.563   2.236   4.536
  780SOL    HW2 3240   1.436   2.184   4.448
  781SOL     OW 3241   6.945   4.273   0.236
  781SOL    HW1 3242   6.887   4.242   0.311
  781SOL    HW2 3243   6.897   4.344   0.184
  782SOL     OW 3244   2.075   3.709   5.932
  782SOL    HW1 3245   2.033   3.658   6.007
  782SOL    HW2 3246   2.056   3.663   5.845
  783SOL     OW 3247   5.402   4.790   6.332
  783SOL    HW1 3248   5.434   4.877   6.295
  783SOL    HW2 3249   5.419   4.787   6.430
  784SOL     OW 3250   2.810   5.929   1.914
  784SOL    HW1 3251   2.721   5.905   1.954
  784SOL    HW2 3252   2.875   5.855   1.931
  785SOL     OW 3253   0.906   0.214   4.268
  785SOL    HW1 3254   0.957   0.262   4.196
  785SOL    HW2 3255   0.812   0.198   4.238
  786SOL     OW 3256   6.109   0.690   3.588
  786SOL    HW1 3257   6.136   0.680   3.684
  786SOL    HW2 3258   6.096   0.599   3.548
  787SOL     OW 3259   2.316   0.887   0.322
  787SOL    HW1 3260   2.230   0.845   0.295
  787SOL    HW2 3261   2.349   0.946   0.247
  788SOL     OW 3262   3.933   3.150   1.524
  788SOL    HW1 3263   3.893   3.060   1.542
  788SOL    HW2 3264   3.897   3.185   1.438
  789SOL     OW 3265   4.495   5.342   2.008
  789SOL    HW1 3266   4.497   5.274   1.934
  789SOL    HW2 3267   4.587   5.354   2.044
  790SOL     OW 3268   0.673   2.547   1.192
  790SOL    HW1 3269   0.603   2.485   1.157
  790SOL    HW2 3270   0.696   2.521   1.286
  791SOL     OW 3271   2.943   5.720   5.319
  791SOL    HW1 3272   3.001   5.762   5.250
  791SOL    HW2 3273   3.001   5.678   5.389
  792SOL     OW 3274   0.688   1.560   0.288
  792SOL    HW1 3275   0.689   1.570   0.387
  792SOL    HW2 3276   0.762   1.500   0.259
  793SOL     OW 3277   4.373   5.526   4.091
  793SOL    HW1 3278   4.391   5.609   4.144
  793SOL    HW2 3279   4.367   5.550   3.994
  794SOL     OW 3280   3.207   3.435   3.970
  794SOL    HW1 3281   3.181   3.435   3.874
  794SOL    HW2 3282   3.124   3.439   4.026
  795SOL     OW 3283   3.866   0.469   6.059
  795SOL    HW1 3284   3.848   0.546   5.998
  795SOL    HW2 3285   3.781   0.439   6.101
  796SOL     OW 3286   1.360   2.983   6.441
  796SOL    HW1 3287   1.276   3.036   6.452
  796SOL    HW2 3288   1.436   3.031   6.485
  797SOL     OW 3289   4.535   0.546   0.984
  797SOL    HW1 3290   4.549   0.448   0.971
  797SOL    HW2 3291   4.622   0.590   1.006
  798SOL     OW 3292   2.851   6.255   1.492
  798SOL    HW1 3293   2.945   6.237   1.521
  798SOL    HW2 3294   2.801   6.297   1.567
  799SOL     OW 3295   0.524   2.369   6.616
  799SOL    HW1 3296   0.614   2.360   6.573
  799SOL    HW2 3297   0.535   2.399   6.711
  800SOL     OW 3298   5.916   1.473   1.819
  800SOL    HW1 3299   5.942   1.544   1.884
  800SOL    HW2 3300   5.989   1.405   1.814
  801SOL     OW 3301   1.788   5.266   5.709
  801SOL    HW1 3302   1.707   5.304   5.754
  801SOL    HW2 3303   1.841   5.340   5.669
  802SOL     OW 3304   5.612   2.091   6.807
  802SOL    HW1 3305   5.580   2.044   6.889
  802SOL    HW2 3306   5.593   2.035   6.727
  803SOL     OW 3307   3.136   0.509   5.779
  803SOL    HW1 3308   3.144   0.546   5.687
  803SOL    HW2 3309   3.227   0.493   5.817
  804SOL     OW 3310   6.082   0.237   1.678
  804SOL    HW1 3311   6.000   0.210   1.627
  804SOL    HW2 3312   6.060   0.242   1.775
  805SOL     OW 3313   2.882   0.484   3.442
  805SOL    HW1 3314   2.907   0.572   3.481
  805SOL    HW2 3315   2.857   0.421   3.516
  806SOL     OW 3316   0.756   0.195   5.550
  806SOL    HW1 3317   0.838   0.143   5.527
  806SOL    HW2 3318   0.711   0.153   5.629
  807SOL     OW 3319   0.811   6.391   4.704
  807SOL    HW1 3320   0.742   6.330   4.664
  807SOL    HW2 3321   0.786   6.411   4.799
  808SOL     OW 3322   5.903   2.823   0.480
  808SOL    HW1 3323   5.822   2.771   0.451
  808SOL    HW2 3324   5.963   2.763   0.534
  809SOL     OW 3325   0.330   4.944   6.940
  809SOL    HW1 3326   0.329   4.941   6.840
  809SOL    HW2 3327   0.305   5.036   6.970
  810SOL     OW 3328   2.305   3.113   0.348
  810SOL    HW1 3329   2.229   3.155   0.397
  810SOL    HW2 3330   2.384   3.174   0.348
  811SOL     OW 3331   5.115   4.964   4.873
  811SOL    HW1 3332   5.203   5.003   4.847
  811SOL    HW2 3333   5.050   5.037   4.893
  812SOL     OW 3334   0.767   2.238   1.966
  812SOL    HW1 3335   0.697   2.167   1.976
  812SOL    HW2 3336   0.832   2.232   2.041
  813SOL     OW 3337   2.186   1.166   4.753
  813SOL    HW1 3338   2.234   1.203   4.674
  813SOL    HW2 3339   2.241   1.094   4.795
  814SOL     OW 3340   7.000   5.753   2.948
  814SOL    HW1 3341   6.991   5.827   3.015
  814SOL    HW2 3342   0.024   5.786   2.867
  815SOL     OW 3343   5.130   2.269   3.582
  815SOL    HW1 3344   5.221   2.289   3.617
  815SOL    HW2 3345   5.061   2.310   3.641
  816SOL     OW 3346   4.521   3.981   0.282
  816SOL    HW1 3347   4.593   3.923   0.319
  816SOL    HW2 3348   4.537   3.998   0.185
  817SOL     OW 3349   0.678   5.418   1.181
  817SOL    HW1 3350   0.745   5.345   1.167
  817SOL    HW2 3351   0.624   5.431   1.098
  818SOL     OW 3352   5.652   2.695   3.585
  818SOL    HW1 3353   5.712   2.615   3.591
  818SOL    HW2 3354   5.556   2.666   3.588
  819SOL     OW 3355   6.009   2.454   1.542
  819SOL    HW1 3356   5.986   2.546   1.511
  819SOL    HW2 3357   5.969   2.387   1.480
  820SOL     OW 3358   2.381   2.082   4.478
  820SOL    HW1 3359   2.357   2.003   4.533
  820SOL    HW2 3360   2.317   2.157   4.497
  821SOL     OW 3361   5.627   4.208   4.649
  821SOL    HW1 3362   5.665   4.200   4.557
  821SOL    HW2 3363   5.650   4.126   4.702
  822SOL     OW 3364   0.930   4.161   3.275
  822SOL    HW1 3365   0.929   4.071   3.320
  822SOL    HW2 3366   0.889   4.228   3.336
  823SOL     OW 3367   0.945   3.235   5.632
  823SOL    HW1 3368   1.023   3.290   5.599
  823SOL    HW2 3369   0.909   3.180   5.557
  824SOL     OW 3370   5.593   1.169   5.039
  824SOL    HW1 3371   5.651   1.210   5.110
  824SOL    HW2 3372   5.556   1.241   4.981
  825SOL     OW 3373   6.214   6.155   0.948
  825SOL    HW1 3374   6.261   6.222   1.005
  825SOL    HW2 3375   6.115   6.165   0.959
  826SOL     OW 3376   3.997   1.529   5.754
  826SOL    HW1 3377   4.060   1.462   5.792
  826SOL    HW2 3378   4.006   1.615   5.805
  827SOL     OW 3379   3.208   4.110   4.604
  827SOL    HW1 3380   3.264   4.074   4.678
  827SOL    HW2 3381   3.111   4.097   4.626
  828SOL     OW 3382   6.400   5.167   4.352
  828SOL    HW1 3383   6.482   5.108   4.352
  828SOL    HW2 3384   6.331   5.127   4.292
  829SOL     OW 3385   3.607   2.884   2.321
  829SOL    HW1 3386   3.703   2.870   2.348
  829SOL    HW2 3387   3.603   2.946   2.243
  830SOL     OW 3388   5.966   4.753   6.734
  830SOL    HW1 3389   5.983   4.765   6.637
  830SOL    HW2 3390   6.046   4.713   6.778
  831SOL     OW 3391   5.128   6.499   1.557
  831SOL    HW1 3392   5.113   6.419   1.498
  831SOL    HW2 3393   5.047   6.558   1.555
  832SOL     OW 3394   4.021   1.523   4.724
  832SOL    HW1 3395   3.983   1.599   4.671
  832SOL    HW2 3396   3.948   1.459   4.747
  833SOL     OW 3397   1.483   3.940   6.079
  833SOL    HW1 3398   1.439   3.853   6.057
  833SOL    HW2 3399   1.539   3.970   6.002
  834SOL     OW 3400   4.431   3.476   6.793
  834SOL    HW1 3401   4.468   3.558   6.837
  834SOL    HW2 3402   4.506   3.423   6.754
  835SOL     OW 3403   1.417   0.123   4.585
  835SOL    HW1 3404   1.468   0.098   4.503
  835SOL    HW2 3405   1.479   0.127   4.663
  836SOL     OW 3406   3.677   2.275   5.481
  836SOL    HW1 3407   3.764   2.301   5.524
  836SOL    HW2 3408   3.695   2.237   5.391
  837SOL     OW 3409   1.371   0.244   1.528
  837SOL    HW1 3410   1.279   0.254   1.489
  837SOL    HW2 3411   1.396   0.147   1.528
  838SOL     OW 3412   2.201   5.498   3.920
  838SOL    HW1 3413   2.198   5.550   3.835
  838SOL    HW2 3414   2.162   5.552   3.994
  839SOL     OW 3415   2.118   0.822   1.290
  839SOL    HW1 3416   2.154   0.830   1.197
  839SOL    HW2 3417   2.152   0.898   1.345
  840SOL     OW 3418   5.900   5.542   0.243
  840SOL    HW1 3419   5.924   5.448   0.220
  840SOL    HW2 3420   5.975   5.603   0.217
  841SOL     OW 3421   4.468   5.334   5.896
  841SOL    HW1 3422   4.369   5.347   5.900
  841SOL    HW2 3423   4.488   5.247   5.851
  842SOL     OW 3424   3.019   6.948   7.000
  842SOL    HW1 3425   3.094   7.008   6.971
  842SOL    HW2 3426   2.951   7.002   0.025
  843SOL     OW 3427   2.102   1.851   1.592
  843SOL    HW1 3428   2.056   1.803   1.668
  843SOL    HW2 3429   2.134   1.784   1.525
  844SOL     OW 3430   0.231   6.811   1.161
  844SOL    HW1 3431   0.181   6.786   1.078
  844SOL    HW2 3432   0.235   6.733   1.223
  845SOL     OW 3433   4.052   1.740   3.088
  845SOL    HW1 3434   4.021   1.755   2.994
  845SOL    HW2 3435   4.042   1.825   3.140
  846SOL     OW 3436   3.305   1.393   6.184
  846SOL    HW1 3437   3.395   1.366   6.219
  846SOL    HW2 3438   3.236   1.380   6.254
  847SOL     OW 3439   2.557   3.471   1.657
  847SOL    HW1 3440   2.484   3.459   1.724
  847SOL    HW2 3441   2.610   3.386   1.650
  848SOL     OW 3442   5.929   6.708   5.950
  848SOL    HW1 3443   5.955   6.757   5.867
  848SOL    HW2 3444   5.858   6.759   5.998
  849SOL     OW 3445   5.527   3.842   0.339
  849SOL    HW1 3446   5.427   3.841   0.332
  849SOL    HW2 3447   5.559   3.750   0.364
  850SOL     OW 3448   6.545   0.972   4.582
  850SOL    HW1 3449   6.464   1.006   4.533
  850SOL    HW2 3450   6.519   0.894   4.638
  851SOL     OW 3451   6.575   3.253   0.086
  851SOL    HW1 3452   6.575   3.153   0.086
  851SOL    HW2 3453   6.502   3.287   0.027
  852SOL     OW 3454   6.627   4.625   0.959
  852SOL    HW1 3455   6.618   4.716   0.918
  852SOL    HW2 3456   6.675   4.633   1.046
  853SOL     OW 3457   1.957   4.465   0.475
  853SOL    HW1 3458   1.903   4.548   0.467
  853SOL    HW2 3459   2.033   4.480   0.538
  854SOL     OW 3460   6.013   6.463   0.101
  854SOL    HW1 3461   6.006   6.540   0.164
  854SOL    HW2 3462   5.925   6.416   0.095
  855SOL     OW 3463   6.898   0.743   0.295
  855SOL    HW1 3464   6.855   0.791   0.218
  855SOL    HW2 3465   6.877   0.791   0.380
  856SOL     OW 3466   1.946   6.727   6.712
  856SOL    HW1 3467   2.043   6.704   6.717
  856SOL    HW2 3468   1.923   6.793   6.783
  857SOL     OW 3469   6.929   4.293   2.871
  857SOL    HW1 3470   6.907   4.196   2.863
  857SOL    HW2 3471   6.875   4.333   2.945
  858SOL     OW 3472   3.473   4.117   0.934
  858SOL    HW1 3473   3.432   4.206   0.956
  858SOL    HW2 3474   3.459   4.054   1.010
  859SOL     OW 3475   4.716   6.162   5.719
  859SOL    HW1 3476   4.684   6.189   5.810
  859SOL    HW2 3477   4.638   6.156   5.657
  860SOL     OW 3478   5.341   2.899   5.821
  860SOL    HW1 3479   5.268   2.913   5.888
  860SOL    HW2 3480   5.424   2.869   5.869
  861SOL     OW 3481   2.088   5.075   2.904
  861SOL    HW1 3482   2.105   5.159   2.854
  861SOL    HW2 3483   2.019   5.020   2.855
  862SOL     OW 3484   1.954   4.878   3.712
  862SOL    HW1 3485   1.934   4.873   3.615
  862SOL    HW2 3486   2.053   4.887   3.725
  863SOL     OW 3487   6.689   0.280   5.854
  863SOL    HW1 3488   6.592   0.279   5.879
  863SOL    HW2 3489   6.743   0.242   5.929
  864SOL     OW 3490   4.135   6.653   5.514
  864SOL    HW1 3491   4.197   6.704   5.573
  864SOL    HW2 3492   4.105   6.570   5.561
  865SOL     OW 3493   2.299   6.105   4.940
  865SOL    HW1 3494   2.326   6.131   4.848
  865SOL    HW2 3495   2.200   6.108   4.948
  866SOL     OW 3496   2.815   6.840   0.616
  866SOL    HW1 3497   2.911   6.814   0.613
  866SOL    HW2 3498   2.805   6.929   0.660
  867SOL     OW 3499   5.956   2.185   0.897
  867SOL    HW1 3500   5.910   2.102   0.929
  867SOL    HW2 3501   5.964   2.183   0.798
  868SOL     OW 3502   0.441   2.269   2.196
  868SOL    HW1 3503   0.497   2.352   2.203
  868SOL    HW2 3504   0.492   2.191   2.233
  869SOL     OW 3505   6.822   3.887   3.709
  869SOL    HW1 3506   6.727   3.859   3.728
  869SOL    HW2 3507   6.874   3.889   3.794
  870SOL     OW 3508   3.650   5.223   1.538
  870SOL    HW1 3509   3.666   5.231   1.636
  870SOL    HW2 3510   3.614   5.133   1.516
  871SOL     OW 3511   4.769   2.255   4.078
  871SOL    HW1 3512   4.857   2.283   4.117
  871SOL    HW2 3513   4.715   2.335   4.056
  872SOL     OW 3514   0.114   1.986   4.555
  872SOL    HW1 3515   0.085   2.074   4.592
  872SOL    HW2 3516   0.164   2.000   4.469
  873SOL     OW 3517   4.882   6.431   5.858
  873SOL    HW1 3518   4.857   6.359   5.922
  873SOL    HW2 3519   4.811   6.501   5.857
  874SOL     OW 3520   6.339   4.289   6.839
  874SOL    HW1 3521   6.348   4.373   6.784
  874SOL    HW2 3522   6.363   4.210   6.783
  875SOL     OW 3523   5.154   5.002   1.238
  875SOL    HW1 3524   5.098   5.004   1.321
  875SOL    HW2 3525   5.139   5.087   1.187
  876SOL     OW 3526   0.527   5.612   2.097
  876SOL    HW1 3527   0.621   5.601   2.064
  876SOL    HW2 3528   0.464   5.568   2.034
  877SOL     OW 3529   3.103   4.550   6.627
  877SOL    HW1 3530   3.009   4.544   6.592
  877SOL    HW2 3531   3.126   4.646   6.643
  878SOL     OW 3532   4.212   0.044   4.118
  878SOL    HW1 3533   4.181   7.011   4.194
  878SOL    HW2 3534   4.153   0.124   4.110
  879SOL     OW 3535   3.688   0.408   1.614
  879SOL    HW1 3536   3.772   0.453   1.583
  879SOL    HW2 3537   3.620   0.477   1.639
  880SOL     OW 3538   3.537   4.024   3.867
  880SOL    HW1 3539   3.634   4.002   3.872
  880SOL    HW2 3540   3.507   4.019   3.772
  881SOL     OW 3541   4.780   2.939   4.759
  881SOL    HW1 3542   4.828   2.973   4.840
  881SOL    HW2 3543   4.708   3.004   4.733
  882SOL     OW 3544   0.931   3.407   4.173
  882SOL    HW1 3545   0.936   3.332   4.107
  882SOL    HW2 3546   0.901   3.370   4.261
  883SOL     OW 3547   3.029   0.717   2.300
  883SOL    HW1 3548   2.972   0.782   2.350
  883SOL    HW2 3549   3.093   0.767   2.241
  884SOL     OW 3550   4.820   3.131   5.710
  884SOL    HW1 3551   4.856   3.069   5.640
  884SOL    HW2 3552   4.752   3.191   5.669
  885SOL     OW 3553   3.253   1.230   5.502
  885SOL    HW1 3554   3.254   1.257   5.406
  885SOL    HW2 3555   3.261   1.131   5.510
  886SOL     OW 3556   3.767   0.606   0.182
  886SOL    HW1 3557   3.800   0.546   0.254
  886SOL    HW2 3558   3.716   0.553   0.114
  887SOL     OW 3559   4.047   0.246   4.049
  887SOL    HW1 3560   4.094   0.335   4.051
  887SOL    HW2 3561   3.950   0.260   4.031
  888SOL     OW 3562   0.792   5.957   2.687
  888SOL    HW1 3563   0.700   5.918   2.687
  888SOL    HW2 3564   0.815   5.988   2.595
  889SOL     OW 3565   0.590   3.983   0.937
  889SOL    HW1 3566   0.651   3.904   0.941
  889SOL    HW2 3567   0.495   3.953   0.943
  890SOL     OW 3568   1.696   5.121   3.588
  890SOL    HW1 3569   1.717   5.087   3.497
  890SOL    HW2 3570   1.664   5.045   3.646
  891SOL     OW 3571   5.404   5.682   0.585
  891SOL    HW1 3572   5.444   5.703   0.674
  891SOL    HW2 3573   5.382   5.585   0.580
  892SOL     OW 3574   2.562   3.623   5.409
  892SOL    HW1 3575   2.613   3.689   5.464
  892SOL    HW2 3576   2.625   3.559   5.366
  893SOL     OW 3577   2.428   6.953   2.996
  893SOL    HW1 3578   2.462   7.002   2.916
  893SOL    HW2 3579   2.403   6.860   2.970
  894SOL     OW 3580   0.875   3.329   1.382
  894SOL    HW1 3581   0.904   3.250   1.328
  894SOL    HW2 3582   0.789   3.364   1.347
  895SOL     OW 3583   0.765   4.312   3.437
  895SOL    HW1 3584   0.698   4.370   3.483
  895SOL    HW2 3585   0.743   4.216   3.453
  896SOL     OW 3586   5.754   4.672   0.457
  896SOL    HW1 3587   5.660   4.704   0.466
  896SOL    HW2 3588   5.812   4.717   0.526
  897SOL     OW 3589   4.731   1.387   0.127
  897SOL    HW1 3590   4.662   1.379   0.055
  897SOL    HW2 3591   4.768   1.296   0.148
  898SOL     OW 3592   3.119   6.072   2.885
  898SOL    HW1 3593   3.165   6.109   2.966
  898SOL    HW2 3594   3.125   6.138   2.810
  899SOL     OW 3595   0.168   6.217   6.790
  899SOL    HW1 3596   0.107   6.204   6.868
  899SOL    HW2 3597   0.115   6.244   6.710
  900SOL     OW 3598   6.149   6.604   0.509
  900SOL    HW1 3599   6.213   6.647   0.573
  900SOL    HW2 3600   6.183   6.615   0.415
  901SOL     OW 3601   2.168   0.878   2.944
  901SOL    HW1 3602   2.127   0.892   2.854
  901SOL    HW2 3603   2.213   0.963   2.973
  902SOL     OW 3604   0.002   2.549   0.679
  902SOL    HW1 3605   7.019   2.598   0.592
  902SOL    HW2 3606   6.948   2.572   0.736
  903SOL     OW 3607   6.673   2.334   6.517
  903SOL    HW1 3608   6.733   2.255   6.531
  903SOL    HW2 3609   6.653   2.376   6.606
  904SOL     OW 3610   2.692   2.318   3.412
  904SOL    HW1 3611   2.785   2.314   3.377
  904SOL    HW2 3612   2.656   2.225   3.424
  905SOL     OW 3613   5.307   2.102   0.172
  905SOL    HW1 3614   5.231   2.137   0.117
  905SOL    HW2 3615   5.334   2.171   0.240
  906SOL     OW 3616   0.318   2.227   5.691
  906SOL    HW1 3617   0.414   2.253   5.681
  906SOL    HW2 3618   0.312   2.132   5.722
  907SOL     OW 3619   4.982   3.942   0.233
  907SOL    HW1 3620   4.958   3.952   0.329
  907SOL    HW2 3621   4.946   3.855   0.198
  908SOL     OW 3622   2.727   4.708   2.909
  908SOL    HW1 3623   2.656   4.638   2.902
  908SOL    HW2 3624   2.781   4.710   2.825
  909SOL     OW 3625   4.292   5.840   0.661
  909SOL    HW1 3626   4.245   5.900   0.596
  909SOL    HW2 3627   4.249   5.849   0.751
  910SOL     OW 3628   2.956   2.914   1.321
  910SOL    HW1 3629   2.909   3.002   1.331
  910SOL    HW2 3630   3.035   2.911   1.383
  911SOL     OW 3631   1.104   5.892   6.571
  911SOL    HW1 3632   1.158   5.868   6.652
  911SOL    HW2 3633   1.007   5.892   6.595
  912SOL     OW 3634   5.778   2.391   2.807
  912SOL    HW1 3635   5.838   2.313   2.788
  912SOL    HW2 3636   5.738   2.381   2.898
  913SOL     OW 3637   4.361   6.146   2.928
  913SOL    HW1 3638   4.400   6.123   3.017
  913SOL    HW2 3639   4.394   6.235   2.899
  914SOL     OW 3640   1.949   0.329   6.334
  914SOL    HW1 3641   2.036   0.370   6.306
  914SOL    HW2 3642   1.885   0.332   6.257
  915SOL     OW 3643   5.891   4.089   6.355
  915SOL    HW1 3644   5.858   4.052   6.268
  915SOL    HW2 3645   5.816   4.137   6.401
  916SOL     OW 3646   1.882   2.403   2.061
  916SOL    HW1 3647   1.920   2.488   2.097
  916SOL    HW2 3648   1.894   2.400   1.962
  917SOL     OW 3649   0.166   6.291   0.856
  917SOL    HW1 3650   0.254   6.245   0.867
  917SOL    HW2 3651   0.156   6.322   0.761
  918SOL     OW 3652   2.901   0.066   0.417
  918SOL    HW1 3653   2.942   7.005   0.451
  918SOL    HW2 3654   2.966   0.112   0.356
  919SOL     OW 3655   5.673   1.227   3.160
  919SOL    HW1 3656   5.712   1.286   3.090
  919SOL    HW2 3657   5.593   1.179   3.122
  920SOL     OW 3658   1.916   4.901   1.652
  920SOL    HW1 3659   1.989   4.968   1.642
  920SOL    HW2 3660   1.901   4.882   1.749
  921SOL     OW 3661   5.147   5.429   4.566
  921SOL    HW1 3662   5.243   5.439   4.540
  921SOL    HW2 3663   5.117   5.336   4.544
  922SOL     OW 3664   3.738   3.904   4.613
  922SOL    HW1 3665   3.713   3.841   4.540
  922SOL    HW2 3666   3.675   3.893   4.690
  923SOL     OW 3667   2.379   2.724   6.190
  923SOL    HW1 3668   2.418   2.649   6.135
  923SOL    HW2 3669   2.301   2.763   6.141
  924SOL     OW 3670   6.260   3.735   2.148
  924SOL    HW1 3671   6.173   3.687   2.142
  924SOL    HW2 3672   6.246   3.823   2.193
  925SOL     OW 3673   6.680   2.666   0.046
  925SOL    HW1 3674   6.640   2.615   0.122
  925SOL    HW2 3675   6.758   2.616   0.009
  926SOL     OW 3676   6.918   1.793   1.276
  926SOL    HW1 3677   6.993   1.769   1.215
  926SOL    HW2 3678   6.881   1.882   1.250
  927SOL     OW 3679   6.037   4.038   3.617
  927SOL    HW1 3680   6.050   4.053   3.715
  927SOL    HW2 3681   5.991   3.950   3.602
  928SOL     OW 3682   2.657   6.405   0.620
  928SOL    HW1 3683   2.615   6.486   0.662
  928SOL    HW2 3684   2.757   6.409   0.633
  929SOL     OW 3685   6.842   0.588   0.020
  929SOL    HW1 3686   6.781   0.530   0.075
  929SOL    HW2 3687   6.787   0.651   6.990
  930SOL     OW 3688   4.541   5.742   6.617
  930SOL    HW1 3689   4.628   5.755   6.664
  930SOL    HW2 3690   4.468   5.786   6.669
  931SOL     OW 3691   6.528   2.041   3.761
  931SOL    HW1 3692   6.582   1.976   3.814
  931SOL    HW2 3693   6.511   2.004   3.670
  932SOL     OW 3694   3.222   1.734   3.674
  932SOL    HW1 3695   3.211   1.693   3.583
  932SOL    HW2 3696   3.133   1.766   3.707
  933SOL     OW 3697   1.397   4.475   2.488
  933SOL    HW1 3698   1.454   4.425   2.424
  933SOL    HW2 3699   1.454   4.513   2.561
  934SOL     OW 3700   2.899   6.003   5.808
  934SOL    HW1 3701   2.804   6.020   5.835
  934SOL    HW2 3702   2.931   5.919   5.850
  935SOL     OW 3703   5.113   3.997   3.478
  935SOL    HW1 3704   5.111   4.000   3.578
  935SOL    HW2 3705   5.173   3.924   3.448
  936SOL     OW 3706   1.685   0.006   6.100
  936SOL    HW1 3707   1.613   0.047   6.157
  936SOL    HW2 3708   1.696   6.934   6.124
  937SOL     OW 3709   5.060   1.318   5.860
  937SOL    HW1 3710   5.073   1.384   5.934
  937SOL    HW2 3711   4.969   1.330   5.821
  938SOL     OW 3712   6.986   5.571   3.929
  938SOL    HW1 3713   6.932   5.487   3.933
  938SOL    HW2 3714   0.043   5.556   3.871
  939SOL     OW 3715   6.918   6.955   4.762
  939SOL    HW1 3716   6.993   6.986   4.703
  939SOL    HW2 3717   6.908   6.856   4.754
  940SOL     OW 3718   0.922   4.707   0.912
  940SOL    HW1 3719   0.910   4.643   0.836
  940SOL    HW2 3720   0.897   4.799   0.883
  941SOL     OW 3721   4.731   0.248   6.678
  941SOL    HW1 3722   4.649   0.191   6.676
  941SOL    HW2 3723   4.706   0.344   6.667
  942SOL     OW 3724   6.553   6.451   1.272
  942SOL    HW1 3725   6.537   6.395   1.190
  942SOL    HW2 3726   6.546   6.548   1.247
  943SOL     OW 3727   2.478   4.796   2.622
  943SOL    HW1 3728   2.573   4.785   2.593
  943SOL    HW2 3729   2.470   4.879   2.678
  944SOL     OW 3730   0.633   5.608   4.345
  944SOL    HW1 3731   0.559   5.560   4.300
  944SOL    HW2 3732   0.693   5.649   4.276
  945SOL     OW 3733   0.925   5.003   5.357
  945SOL    HW1 3734   1.013   4.982   5.400
  945SOL    HW2 3735   0.941   5.046   5.268
  946SOL     OW 3736   4.965   4.436   4.474
  946SOL    HW1 3737   4.972   4.376   4.394
  946SOL    HW2 3738   5.011   4.523   4.454
  947SOL     OW 3739   4.142   3.409   3.514
  947SOL    HW1 3740   4.148   3.388   3.611
  947SOL    HW2 3741   4.129   3.324   3.462
  948SOL     OW 3742   5.172   1.194   2.645
  948SOL    HW1 3743   5.178   1.285   2.686
  948SOL    HW2 3744   5.132   1.202   2.554
  949SOL     OW 3745   2.977   6.349   0.187
  949SOL    HW1 3746   3.041   6.283   0.148
  949SOL    HW2 3747   2.885   6.332   0.152
  950SOL     OW 3748   6.310   5.807   2.085
  950SOL    HW1 3749   6.242   5.762   2.143
  950SOL    HW2 3750   6.401   5.795   2.126
  951SOL     OW 3751   1.452   7.004   3.591
  951SOL    HW1 3752   1.514   0.047   3.632
  951SOL    HW2 3753   1.468   6.999   3.493
  952SOL     OW 3754   3.928   1.847   2.864
  952SOL    HW1 3755   3.876   1.764   2.843
  952SOL    HW2 3756   3.873   1.908   2.920
  953SOL     OW 3757   6.924   6.070   4.901
  953SOL    HW1 3758   7.020   6.044   4.899
  953SOL    HW2 3759   6.916   6.169   4.885
  954SOL     OW 3760   4.310   5.471   2.613
  954SOL    HW1 3761   4.387   5.501   2.557
  954SOL    HW2 3762   4.264   5.551   2.652
  955SOL     OW 3763   1.910   4.182   0.501
  955SOL    HW1 3764   1.952   4.271   0.481
  955SOL    HW2 3765   1.821   4.197   0.545
  956SOL     OW 3766   0.182   1.071   1.256
  956SOL    HW1 3767   0.163   1.097   1.351
  956SOL    HW2 3768   0.187   1.152   1.199
  957SOL     OW 3769   6.203   1.208   2.054
  957SOL    HW1 3770   6.132   1.139   2.063
  957SOL    HW2 3771   6.248   1.221   2.143
  958SOL     OW 3772   5.102   6.371   1.843
  958SOL    HW1 3773   5.044   6.301   1.885
  958SOL    HW2 3774   5.065   6.396   1.754
  959SOL     OW 3775   3.254   6.985   4.719
  959SOL    HW1 3776   3.269   6.890   4.691
  959SOL    HW2 3777   3.326   0.020   4.680
  960SOL     OW 3778   1.050   0.511   0.855
  960SOL    HW1 3779   1.051   0.607   0.831
  960SOL    HW2 3780   1.140   0.471   0.837
  961SOL     OW 3781   3.402   6.974   3.426
  961SOL    HW1 3782   3.501   6.982   3.438
  961SOL    HW2 3783   3.357   0.033   3.462
  962SOL     OW 3784   6.244   6.927   5.193
  962SOL    HW1 3785   6.305   6.974   5.130
  962SOL    HW2 3786   6.281   6.836   5.214
  963SOL     OW 3787   4.348   1.710   1.592
  963SOL    HW1 3788   4.399   1.720   1.507
  963SOL    HW2 3789   4.385   1.773   1.661
  964SOL     OW 3790   4.990   4.488   5.294
  964SOL    HW1 3791   4.975   4.583   5.265
  964SOL    HW2 3792   5.013   4.433   5.214
  965SOL     OW 3793   5.945   2.251   2.362
  965SOL    HW1 3794   5.883   2.193   2.309
  965SOL    HW2 3795   6.000   2.194   2.424
  966SOL     OW 3796   5.050   2.008   3.512
  966SOL    HW1 3797   4.969   2.046   3.467
  966SOL    HW2 3798   5.109   2.083   3.544
  967SOL     OW 3799   3.909   4.395   6.343
  967SOL    HW1 3800   3.894   4.485   6.302
  967SOL    HW2 3801   3.994   4.395   6.394
  968SOL     OW 3802   3.350   0.350   1.483
  968SOL    HW1 3803   3.287   0.352   1.405
  968SOL    HW2 3804   3.433   0.400   1.458
  969SOL     OW 3805   3.302   5.210   5.926
  969SOL    HW1 3806   3.394   5.177   5.944
  969SOL    HW2 3807   3.284   5.208   5.827
  970SOL     OW 3808   6.281   0.690   5.667
  970SOL    HW1 3809   6.334   0.756   5.613
  970SOL    HW2 3810   6.332   0.604   5.672
  971SOL     OW 3811   6.983   3.950   2.783
  971SOL    HW1 3812   6.887   3.944   2.758
  971SOL    HW2 3813   6.993   3.929   2.881
  972SOL     OW 3814   6.599   2.603   1.053
  972SOL    HW1 3815   6.591   2.514   1.099
  972SOL    HW2 3816   6.517   2.619   0.997
  973SOL     OW 3817   0.459   4.030   6.067
  973SOL    HW1 3818   0.362   4.052   6.070
  973SOL    HW2 3819   0.511   4.114   6.049
  974SOL     OW 3820   0.480   4.803   3.241
  974SOL    HW1 3821   0.518   4.881   3.291
  974SOL    HW2 3822   0.402   4.834   3.187
  975SOL     OW 3823   2.275   0.072   1.495
  975SOL    HW1 3824   2.329   0.146   1.534
  975SOL    HW2 3825   2.333   0.016   1.435
  976SOL     OW 3826   6.462   4.305   1.496
  976SOL    HW1 3827   6.362   4.307   1.506
  976SOL    HW2 3828   6.501   4.382   1.546
  977SOL     OW 3829   0.843   1.731   2.040
  977SOL    HW1 3830   0.881   1.661   2.101
  977SOL    HW2 3831   0.757   1.698   2.001
  978SOL     OW 3832   5.539   2.117   1.568
  978SOL    HW1 3833   5.458   2.069   1.534
  978SOL    HW2 3834   5.600   2.051   1.612
  979SOL     OW 3835   6.882   3.091   6.316
  979SOL    HW1 3836   6.795   3.106   6.365
  979SOL    HW2 3837   6.955   3.140   6.363
  980SOL     OW 3838   4.123   1.100   4.674
  980SOL    HW1 3839   4.037   1.131   4.632
  980SOL    HW2 3840   4.142   1.153   4.756
  981SOL     OW 3841   6.662   6.906   5.083
  981SOL    HW1 3842   6.692   6.982   5.141
  981SOL    HW2 3843   6.722   6.827   5.098
  982SOL     OW 3844   0.251   1.968   5.303
  982SOL    HW1 3845   0.305   1.921   5.374
  982SOL    HW2 3846   0.172   2.012   5.346
  983SOL     OW 3847   6.656   3.469   3.089
  983SOL    HW1 3848   6.560   3.445   3.079
  983SOL    HW2 3849   6.667   3.531   3.167
  984SOL     OW 3850   1.754   2.142   2.944
  984SOL    HW1 3851   1.804   2.144   3.031
  984SOL    HW2 3852   1.810   2.096   2.875
  985SOL     OW 3853   5.974   3.713   4.221
  985SOL    HW1 3854   6.020   3.717   4.133
  985SOL    HW2 3855   5.956   3.618   4.246
  986SOL     OW 3856   4.949   4.054   1.287
  986SOL    HW1 3857   4.931   4.074   1.383
  986SOL    HW2 3858   4.864   4.056   1.235
  987SOL     OW 3859   5.514   6.002   3.366
  987SOL    HW1 3860   5.454   5.941   3.314
  987SOL    HW2 3861   5.533   6.083   3.312
  988SOL     OW 3862   3.463   3.999   1.964
  988SOL    HW1 3863   3.512   4.076   2.004
  988SOL    HW2 3864   3.516   3.961   1.888
  989SOL     OW 3865   0.014   2.259   0.593
  989SOL    HW1 3866   6.963   2.192   0.600
  989SOL    HW2 3867   7.012   2.343   0.641
  990SOL     OW 3868   3.226   0.577   3.103
  990SOL    HW1 3869   3.232   0.623   3.192
  990SOL    HW2 3870   3.237   0.478   3.116
  991SOL     OW 3871   6.906   4.168   3.758
  991SOL    HW1 3872   6.888   4.155   3.856
  991SOL    HW2 3873   6.872   4.089   3.707
  992SOL     OW 3874   0.773   2.793   1.125
  992SOL    HW1 3875   0.792   2.841   1.210
  992SOL    HW2 3876   0.739   2.701   1.144
  993SOL     OW 3877   1.193   4.277   1.460
  993SOL    HW1 3878   1.277   4.270   1.406
  993SOL    HW2 3879   1.211   4.332   1.542
  994SOL     OW 3880   3.546   6.470   1.123
  994SOL    HW1 3881   3.517   6.375   1.110
  994SOL    HW2 3882   3.548   6.517   1.034
  995SOL     OW 3883   4.700   3.458   5.962
  995SOL    HW1 3884   4.709   3.359   5.955
  995SOL    HW2 3885   4.744   3.501   5.884
  996SOL     OW 3886   4.618   5.735   5.447
  996SOL    HW1 3887   4.549   5.750   5.377
  996SOL    HW2 3888   4.691   5.803   5.437
  997SOL     OW 3889   1.482   6.766   3.264
  997SOL    HW1 3890   1.535   6.682   3.273
  997SOL    HW2 3891   1.541   6.839   3.229
  998SOL     OW 3892   6.038   6.985   6.081
  998SOL    HW1 3893   5.949   6.949   6.050
  998SOL    HW2 3894   6.037   6.993   6.181
  999SOL     OW 3895   4.746   3.669   1.493
  999SOL    HW1 3896   4.731   3.767   1.493
  999SOL    HW2 3897   4.839   3.649   1.522
 1000SOL     OW 3898   4.051   1.440   1.431
 1000SOL    HW1 3899   4.065   1.376   1.356
 1000SOL    HW2 3900   4.094   1.405   1.514
 1001SOL     OW 3901   2.589   6.244   1.998
 1001SOL    HW1 3902   2.543   6.331   2.016
 1001SOL    HW2 3903   2.520   6.171   1.990
 1002SOL     OW 3904   5.183   2.094   1.717
 1002SOL    HW1 3905   5.257   2.077   1.782
 1002SOL    HW2 3906   5.126   2.170   1.749
 1003SOL     OW 3907   1.430   6.318   2.603
 1003SOL    HW1 3908   1.391   6.226   2.602
 1003SOL    HW2 3909   1.370   6.379   2.655
 1004SOL     OW 3910   6.527   1.363   2.658
 1004SOL    HW1 3911   6.531   1.400   2.750
 1004SOL    HW2 3912   6.524   1.263   2.662
 1005SOL     OW 3913   1.670   4.076   4.031
 1005SOL    HW1 3914   1.576   4.097   4.056
 1005SOL    HW2 3915   1.717   4.159   4.003
 1006SOL     OW 3916   2.429   4.120   0.585
 1006SOL    HW1 3917   2.334   4.102   0.610
 1006SOL    HW2 3918   2.443   4.100   0.488
 1007SOL     OW 3919   4.390   1.537   6.796
 1007SOL    HW1 3920   4.372   1.492   6.709
 1007SOL    HW2 3921   4.336   1.621   6.802
 1008SOL     OW 3922   0.726   3.823   5.381
 1008SOL    HW1 3923   0.776   3.904   5.412
 1008SOL    HW2 3924   0.773   3.784   5.301
 1009SOL     OW 3925   6.068   5.114   5.156
 1009SOL    HW1 3926   6.165   5.116   5.133
 1009SOL    HW2 3927   6.057   5.119   5.255
 1010SOL     OW 3928   2.298   2.316   1.684
 1010SOL    HW1 3929   2.395   2.340   1.686
 1010SOL    HW2 3930   2.287   2.217   1.691
 1011SOL     OW 3931   0.993   5.366   2.925
 1011SOL    HW1 3932   1.017   5.393   3.018
 1011SOL    HW2 3933   1.046   5.420   2.860
 1012SOL     OW 3934   6.705   7.009   2.329
 1012SOL    HW1 3935   6.651   0.067   2.348
 1012SOL    HW2 3936   6.778   7.000   2.396
 1013SOL     OW 3937   7.002   0.945   6.126
 1013SOL    HW1 3938   6.912   0.968   6.089
 1013SOL    HW2 3939   0.049   0.999   6.080
 1014SOL     OW 3940   1.289   4.495   4.499
 1014SOL    HW1 3941   1.265   4.554   4.576
 1014SOL    HW2 3942   1.297   4.400   4.530
 1015SOL     OW 3943   3.142   0.268   6.274
 1015SOL    HW1 3944   3.190   0.326   6.340
 1015SOL    HW2 3945   3.161   0.172   6.294
 1016SOL     OW 3946   5.108   4.460   1.018
 1016SOL    HW1 3947   5.076   4.517   0.943
 1016SOL    HW2 3948   5.175   4.394   0.983
 1017SOL     OW 3949   2.323   1.771   1.817
 1017SOL    HW1 3950   2.306   1.719   1.734
 1017SOL    HW2 3951   2.270   1.732   1.892
 1018SOL     OW 3952   0.087   4.666   3.811
 1018SOL    HW1 3953   0.049   4.703   3.726
 1018SOL    HW2 3954   0.064   4.569   3.818
 1019SOL     OW 3955   6.784   5.217   0.465
 1019SOL    HW1 3956   6.778   5.215   0.565
 1019SOL    HW2 3957   6.878   5.238   0.438
 1020SOL     OW 3958   6.720   0.451   1.270
 1020SOL    HW1 3959   6.669   0.433   1.186
 1020SOL    HW2 3960   6.730   0.550   1.282
 1021SOL     OW 3961   6.569   5.799   2.172
 1021SOL    HW1 3962   6.612   5.709   2.160
 1021SOL    HW2 3963   6.540   5.809   2.267
 1022SOL     OW 3964   3.081   6.341   5.804
 1022SOL    HW1 3965   3.034   6.311   5.887
 1022SOL    HW2 3966   3.088   6.441   5.804
 1023SOL     OW 3967   6.685   1.080   2.409
 1023SOL    HW1 3968   6.672   1.133   2.325
 1023SOL    HW2 3969   6.780   1.089   2.439
 1024SOL     OW 3970   0.752   1.137   4.593
 1024SOL    HW1 3971   0.792   1.152   4.683
 1024SOL    HW2 3972   0.744   1.039   4.576
 1025SOL     OW 3973   4.984   3.472   0.244
 1025SOL    HW1 3974   5.000   3.545   0.311
 1025SOL    HW2 3975   4.957   3.388   0.292
 1026SOL     OW 3976   3.001   2.623   1.725
 1026SOL    HW1 3977   2.993   2.582   1.634
 1026SOL    HW2 3978   2.971   2.558   1.794
 1027SOL     OW 3979   1.205   6.103   1.745
 1027SOL    HW1 3980   1.144   6.181   1.726
 1027SOL    HW2 3981   1.217   6.093   1.843
 1028SOL     OW 3982   1.313   6.296   3.315
 1028SOL    HW1 3983   1.258   6.355   3.255
 1028SOL    HW2 3984   1.338   6.213   3.266
 1029SOL     OW 3985   0.984   2.172   5.730
 1029SOL    HW1 3986   0.952   2.080   5.748
 1029SOL    HW2 3987   1.035   2.205   5.810
 1030SOL     OW 3988   3.286   3.278   1.723
 1030SOL    HW1 3989   3.192   3.299   1.697
 1030SOL    HW2 3990   3.287   3.196   1.780
 1031SOL     OW 3991   3.672   3.343   1.731
 1031SOL    HW1 3992   3.649   3.262   1.785
 1031SOL    HW2 3993   3.592   3.403   1.725
 1032SOL     OW 3994   2.352   1.393   5.140
 1032SOL    HW1 3995   2.278   1.330   5.114
 1032SOL    HW2 3996   2.435   1.340   5.159
 1033SOL     OW 3997   1.568   6.090   2.331
 1033SOL    HW1 3998   1.540   6.183   2.356
 1033SOL    HW2 3999   1.642   6.094   2.264
 1034SOL     OW 4000   2.537   6.266   4.273
 1034SOL    HW1 4001   2.558   6.263   4.371
 1034SOL    HW2 4002   2.590   6.339   4.230
 1035SOL     OW 4003   0.667   2.506   6.037
 1035SOL    HW1 4004   0.697   2.418   6.000
 1035SOL    HW2 4005   0.583   2.492   6.090
 1036SOL     OW 4006   4.768   1.300   1.270
 1036SOL    HW1 4007   4.778   1.399   1.280
 1036SOL    HW2 4008   4.736   1.279   1.178
 1037SOL     OW 4009   1.938   2.130   2.182
 1037SOL    HW1 4010   2.019   2.084   2.146
 1037SOL    HW2 4011   1.933   2.222   2.145
 1038SOL     OW 4012   1.933   1.309   6.795
 1038SOL    HW1 4013   1.977   1.239   6.739
 1038SOL    HW2 4014   1.999   1.345   6.861
 1039SOL     OW 4015   3.102   3.127   3.829
 1039SOL    HW1 4016   3.004   3.145   3.843
 1039SOL    HW2 4017   3.147   3.210   3.798
 1040SOL     OW 4018   5.073   0.617   3.332
 1040SOL    HW1 4019   5.110   0.565   3.409
 1040SOL    HW2 4020   5.028   0.699   3.366
 1041SOL     OW 4021   6.922   6.780   4.301
 1041SOL    HW1 4022   6.964   6.828   4.223
 1041SOL    HW2 4023   6.994   6.750   4.363
 1042SOL     OW 4024   4.869   4.898   2.681
 1042SOL    HW1 4025   4.788   4.947   2.715
 1042SOL    HW2 4026   4.934   4.964   2.645
 1043SOL     OW 4027   3.409   1.385   3.061
 1043SOL    HW1 4028   3.444   1.342   2.978
 1043SOL    HW2 4029   3.427   1.326   3.140
 1044SOL     OW 4030   6.114   5.839   1.409
 1044SOL    HW1 4031   6.095   5.774   1.336
 1044SOL    HW2 4032   6.144   5.926   1.369
 1045SOL     OW 4033   2.585   0.212   3.077
 1045SOL    HW1 4034   2.493   0.235   3.111
 1045SOL    HW2 4035   2.585   0.217   2.977
 1046SOL     OW 4036   2.671   0.974   1.084
 1046SOL    HW1 4037   2.676   0.984   0.985
 1046SOL    HW2 4038   2.587   1.017   1.118
 1047SOL     OW 4039   3.089   0.027   4.036
 1047SOL    HW1 4040   3.127   6.981   3.976
 1047SOL    HW2 4041   3.042   7.007   4.113
 1048SOL     OW 4042   2.543   5.969   2.378
 1048SOL    HW1 4043   2.636   6.007   2.378
 1048SOL    HW2 4044   2.485   6.022   2.439
 1049SOL     OW 4045   4.465   7.005   4.246
 1049SOL    HW1 4046   4.391   6.957   4.293
 1049SOL    HW2 4047   4.497   6.949   4.169
 1050SOL     OW 4048   3.809   5.243   2.998
 1050SOL    HW1 4049   3.890   5.289   3.033
 1050SOL    HW2 4050   3.728   5.272   3.049
 1051SOL     OW 4051   6.904   6.322   0.468
 1051SOL    HW1 4052   6.893   6.332   0.369
 1051SOL    HW2 4053   6.817   6.295   0.509
 1052SOL     OW 4054   4.076   0.391   5.650
 1052SOL    HW1 4055   4.172   0.416   5.655
 1052SOL    HW2 4056   4.066   0.310   5.592
 1053SOL     OW 4057   5.575   3.382   1.891
 1053SOL    HW1 4058   5.599   3.452   1.824
 1053SOL    HW2 4059   5.541   3.301   1.843
 1054SOL     OW 4060   3.159   3.832   1.096
 1054SOL    HW1 4061   3.249   3.792   1.083
 1054SOL    HW2 4062   3.091   3.759   1.104
 1055SOL     OW 4063   5.331   5.519   6.358
 1055SOL    HW1 4064   5.238   5.536   6.326
 1055SOL    HW2 4065   5.361   5.594   6.417
 1056SOL     OW 4066   2.182   3.839   0.707
 1056SOL    HW1 4067   2.220   3.845   0.799
 1056SOL    HW2 4068   2.125   3.757   0.699
 1057SOL     OW 4069   3.458   1.778   2.104
 1057SOL    HW1 4070   3.371   1.770   2.152
 1057SOL    HW2 4071   3.502   1.864   2.127
 1058SOL     OW 4072   4.073   2.177   3.346
 1058SOL    HW1 4073   4.118   2.206   3.430
 1058SOL    HW2 4074   3.974   2.175   3.360
 1059SOL     OW 4075   2.762   6.731   2.023
 1059SOL    HW1 4076   2.784   6.812   1.969
 1059SOL    HW2 4077   2.728   6.658   1.963
 1060SOL     OW 4078   0.549   5.210   4.363
 1060SOL    HW1 4079   0.582   5.232   4.271
 1060SOL    HW2 4080   0.564   5.289   4.423
 1061SOL     OW 4081   6.283   4.274   0.085
 1061SOL    HW1 4082   6.309   4.280   7.012
 1061SOL    HW2 4083   6.207   4.210   0.094
 1062SOL     OW 4084   4.131   6.557   4.858
 1062SOL    HW1 4085   4.142   6.630   4.925
 1062SOL    HW2 4086   4.037   6.557   4.824
 1063SOL     OW 4087   0.607   0.070   5.817
 1063SOL    HW1 4088   0.575   0.041   5.906
 1063SOL    HW2 4089   0.536   0.123   5.771
 1064SOL     OW 4090   0.527   4.530   1.582
 1064SOL    HW1 4091   0.569   4.585   1.510
 1064SOL    HW2 4092   0.428   4.545   1.583
 1065SOL     OW 4093   3.629   1.007   3.687
 1065SOL    HW1 4094   3.602   0.911   3.685
 1065SOL    HW2 4095   3.558   1.062   3.643
 1066SOL     OW 4096   5.125   6.798   2.052
 1066SOL    HW1 4097   5.146   6.819   1.957
 1066SOL    HW2 4098   5.058   6.724   2.056
 1067SOL     OW 4099   2.838   1.171   0.066
 1067SOL    HW1 4100   2.813   1.254   0.016
 1067SOL    HW2 4101   2.788   1.093   0.029
 1068SOL     OW 4102   6.348   4.082   1.177
 1068SOL    HW1 4103   6.289   4.080   1.096
 1068SOL    HW2 4104   6.354   4.176   1.211
 1069SOL     OW 4105   5.901   4.776   0.703
 1069SOL    HW1 4106   5.961   4.796   0.781
 1069SOL    HW2 4107   5.891   4.858   0.647
 1070SOL     OW 4108   2.299   6.992   2.323
 1070SOL    HW1 4109   2.246   0.049   2.350
 1070SOL    HW2 4110   2.284   6.919   2.390
 1071SOL     OW 4111   0.256   2.278   4.766
 1071SOL    HW1 4112   0.307   2.253   4.684
 1071SOL    HW2 4113   0.258   2.203   4.832
 1072SOL     OW 4114   2.187   0.345   1.586
 1072SOL    HW1 4115   2.156   0.440   1.592
 1072SOL    HW2 4116   2.132   0.296   1.518
 1073SOL     OW 4117   5.707   1.888   2.816
 1073SOL    HW1 4118   5.769   1.824   2.769
 1073SOL    HW2 4119   5.716   1.877   2.915
 1074SOL     OW 4120   2.648   5.015   2.505
 1074SOL    HW1 4121   2.669   4.989   2.411
 1074SOL    HW2 4122   2.720   5.074   2.541
 1075SOL     OW 4123   5.795   1.456   4.752
 1075SOL    HW1 4124   5.777   1.488   4.659
 1075SOL    HW2 4125   5.826   1.361   4.749
 1076SOL     OW 4126   2.175   3.723   5.603
 1076SOL    HW1 4127   2.086   3.678   5.616
 1076SOL    HW2 4128   2.165   3.797   5.537
 1077SOL     OW 4129   6.934   0.461   0.346
 1077SOL    HW1 4130   6.932   0.554   0.308
 1077SOL    HW2 4131   6.989   0.402   0.286
 1078SOL     OW 4132   6.430   7.009   3.391
 1078SOL    HW1 4133   6.504   6.996   3.457
 1078SOL    HW2 4134   6.342   7.000   3.437
 1079SOL     OW 4135   1.306   5.313   2.730
 1079SOL    HW1 4136   1.310   5.360   2.818
 1079SOL    HW2 4137   1.290   5.216   2.745
 1080SOL     OW 4138   2.357   5.770   5.263
 1080SOL    HW1 4139   2.447   5.807   5.283
 1080SOL    HW2 4140   2.359   5.671   5.272
 1081SOL     OW 4141   7.001   5.712   4.373
 1081SOL    HW1 4142   6.922   5.770   4.390
 1081SOL    HW2 4143   0.030   5.702   4.458
 1082SOL     OW 4144   6.147   1.492   6.122
 1082SOL    HW1 4145   6.059   1.446   6.132
 1082SOL    HW2 4146   6.205   1.469   6.200
 1083SOL     OW 4147   4.545   4.473   0.536
 1083SOL    HW1 4148   4.482   4.469   0.613
 1083SOL    HW2 4149   4.521   4.401   0.470
 1084SOL     OW 4150   6.242   6.661   6.511
 1084SOL    HW1 4151   6.183   6.642   6.433
 1084SOL    HW2 4152   6.194   6.640   6.596
 1085SOL     OW 4153   1.710   3.700   4.256
 1085SOL    HW1 4154   1.680   3.795   4.256
 1085SOL    HW2 4155   1.737   3.673   4.348
 1086SOL     OW 4156   6.933   4.345   6.282
 1086SOL    HW1 4157   6.889   4.255   6.287
 1086SOL    HW2 4158   6.959   4.365   6.188
 1087SOL     OW 4159   1.411   1.487   5.384
 1087SOL    HW1 4160   1.355   1.410   5.415
 1087SOL    HW2 4161   1.466   1.458   5.305
 1088SOL     OW 4162   0.371   5.171   3.298
 1088SOL    HW1 4163   0.458   5.132   3.327
 1088SOL    HW2 4164   0.348   5.249   3.356
 1089SOL     OW 4165   0.544   5.471   4.897
 1089SOL    HW1 4166   0.591   5.388   4.868
 1089SOL    HW2 4167   0.598   5.551   4.870
 1090SOL     OW 4168   5.791   2.060   3.399
 1090SOL    HW1 4169   5.818   2.105   3.484
 1090SOL    HW2 4170   5.697   2.028   3.406
 1091SOL     OW 4171   2.175   3.259   3.557
 1091SOL    HW1 4172   2.205   3.214   3.641
 1091SOL    HW2 4173   2.130   3.345   3.580
 1092SOL     OW 4174   0.595   4.940   1.411
 1092SOL    HW1 4175   0.654   5.019   1.431
 1092SOL    HW2 4176   0.504   4.956   1.447
 1093SOL     OW 4177   2.993   0.171   1.271
 1093SOL    HW1 4178   3.063   0.103   1.290
 1093SOL    HW2 4179   3.023   0.228   1.194
 1094SOL     OW 4180   0.604   6.946   2.782
 1094SOL    HW1 4181   0.630   6.963   2.877
 1094SOL    HW2 4182   0.633   6.854   2.756
 1095SOL     OW 4183   0.061   2.412   6.305
 1095SOL    HW1 4184   0.042   2.489   6.244
 1095SOL    HW2 4185   0.122   2.347   6.258
 1096SOL     OW 4186   2.890   5.406   0.814
 1096SOL    HW1 4187   2.901   5.317   0.856
 1096SOL    HW2 4188   2.956   5.470   0.854
 1097SOL     OW 4189   1.996   5.614   3.395
 1097SOL    HW1 4190   1.936   5.558   3.451
 1097SOL    HW2 4191   1.941   5.665   3.328
 1098SOL     OW 4192   5.932   4.048   6.814
 1098SOL    HW1 4193   6.000   4.028   6.885
 1098SOL    HW2 4194   5.941   3.981   6.740
 1099SOL     OW 4195   4.416   1.113   6.047
 1099SOL    HW1 4196   4.511   1.128   6.019
 1099SOL    HW2 4197   4.399   1.016   6.061
 1100SOL     OW 4198   3.628   1.480   3.917
 1100SOL    HW1 4199   3.606   1.452   4.010
 1100SOL    HW2 4200   3.715   1.438   3.889
 1101SOL     OW 4201   5.411   3.753   5.438
 1101SOL    HW1 4202   5.329   3.808   5.456
 1101SOL    HW2 4203   5.487   3.813   5.414
 1102SOL     OW 4204   2.482   0.793   4.868
 1102SOL    HW1 4205   2.464   0.888   4.893
 1102SOL    HW2 4206   2.395   0.748   4.845
 1103SOL     OW 4207   2.869   1.773   6.915
 1103SOL    HW1 4208   2.770   1.779   6.901
 1103SOL    HW2 4209   2.898   1.845   6.977
 1104SOL     OW 4210   1.148   3.935   3.214
 1104SOL    HW1 4211   1.102   3.913   3.301
 1104SOL    HW2 4212   1.081   3.933   3.140
 1105SOL     OW 4213   5.427   2.371   4.843
 1105SOL    HW1 4214   5.468   2.285   4.814
 1105SOL    HW2 4215   5.350   2.393   4.783
 1106SOL     OW 4216   0.390   1.389   0.193
 1106SOL    HW1 4217   0.299   1.404   0.231
 1106SOL    HW2 4218   0.432   1.476   0.168
 1107SOL     OW 4219   1.133   0.302   6.397
 1107SOL    HW1 4220   1.227   0.311   6.430
 1107SOL    HW2 4221   1.101   0.391   6.365
 1108SOL     OW 4222   3.825   6.756   4.172
 1108SOL    HW1 4223   3.897   6.810   4.129
 1108SOL    HW2 4224   3.844   6.659   4.162
 1109SOL     OW 4225   5.980   1.484   3.662
 1109SOL    HW1 4226   5.911   1.427   3.707
 1109SOL    HW2 4227   5.944   1.518   3.575
 1110SOL     OW 4228   3.262   1.051   2.907
 1110SOL    HW1 4229   3.170   1.076   2.876
 1110SOL    HW2 4230   3.262   1.046   3.007
 1111SOL     OW 4231   4.578   4.045   6.076
 1111SOL    HW1 4232   4.538   3.963   6.035
 1111SOL    HW2 4233   4.591   4.031   6.174
 1112SOL     OW 4234   6.385   6.662   3.527
 1112SOL    HW1 4235   6.384   6.639   3.429
 1112SOL    HW2 4236   6.368   6.579   3.580
 1113SOL     OW 4237   6.442   3.837   2.550
 1113SOL    HW1 4238   6.470   3.782   2.629
 1113SOL    HW2 4239   6.382   3.782   2.492
 1114SOL     OW 4240   4.305   2.132   5.853
 1114SOL    HW1 4241   4.266   2.057   5.800
 1114SOL    HW2 4242   4.232   2.176   5.906
 1115SOL     OW 4243   3.899   4.574   5.830
 1115SOL    HW1 4244   3.891   4.503   5.900
 1115SOL    HW2 4245   3.965   4.644   5.860
 1116SOL     OW 4246   5.077   0.919   0.048
 1116SOL    HW1 4247   5.160   0.899   0.100
 1116SOL    HW2 4248   5.055   0.842   7.012
 1117SOL     OW 4249   1.191   2.299   1.011
 1117SOL    HW1 4250   1.098   2.335   1.017
 1117SOL    HW2 4251   1.218   2.291   0.915
 1118SOL     OW 4252   2.462   5.858   6.346
 1118SOL    HW1 4253   2.536   5.854   6.280
 1118SOL    HW2 4254   2.455   5.771   6.394
 1119SOL     OW 4255   4.607   4.369   2.478
 1119SOL    HW1 4256   4.527   4.335   2.528
 1119SOL    HW2 4257   4.576   4.417   2.396
 1120SOL     OW 4258   6.457   5.746   1.338
 1120SOL    HW1 4259   6.543   5.784   1.304
 1120SOL    HW2 4260   6.386   5.759   1.269
 1121SOL     OW 4261   0.885   5.258   4.342
 1121SOL    HW1 4262   0.818   5.313   4.393
 1121SOL    HW2 4263   0.839   5.211   4.266
 1122SOL     OW 4264   5.933   2.897   2.003
 1122SOL    HW1 4265   5.966   2.873   2.094
 1122SOL    HW2 4266   5.992   2.856   1.934
 1123SOL     OW 4267   4.644   2.227   3.475
 1123SOL    HW1 4268   4.552   2.189   3.484
 1123SOL    HW2 4269   4.639   2.316   3.430
 1124SOL     OW 4270   1.728   3.224   5.062
 1124SOL    HW1 4271   1.776   3.207   4.976
 1124SOL    HW2 4272   1.661   3.297   5.048
 1125SOL     OW 4273   1.619   3.562   5.092
 1125SOL    HW1 4274   1.531   3.529   5.059
 1125SOL    HW2 4275   1.608   3.603   5.182
 1126SOL     OW 4276   4.246   5.539   5.665
 1126SOL    HW1 4277   4.211   5.528   5.758
 1126SOL    HW2 4278   4.231   5.454   5.614
 1127SOL     OW 4279   5.859   6.440   3.978
 1127SOL    HW1 4280   5.810   6.354   3.967
 1127SOL    HW2 4281   5.941   6.439   3.921
 1128SOL     OW 4282   5.885   1.107   4.188
 1128SOL    HW1 4283   5.868   1.091   4.091
 1128SOL    HW2 4284   5.810   1.161   4.226
 1129SOL     OW 4285   1.941   6.495   0.658
 1129SOL    HW1 4286   1.928   6.413   0.603
 1129SOL    HW2 4287   1.993   6.563   0.606
 1130SOL     OW 4288   1.707   5.463   2.018
 1130SOL    HW1 4289   1.760   5.408   2.083
 1130SOL    HW2 4290   1.611   5.438   2.023
 1131SOL     OW 4291   1.590   0.011   4.384
 1131SOL    HW1 4292   1.548   7.003   4.299
 1131SOL    HW2 4293   1.597   6.958   4.448
 1132SOL     OW 4294   4.743   0.889   2.518
 1132SOL    HW1 4295   4.647   0.867   2.498
 1132SOL    HW2 4296   4.791   0.806   2.545
 1133SOL     OW 4297   1.489   0.139   5.664
 1133SOL    HW1 4298   1.542   0.139   5.749
 1133SOL    HW2 4299   1.519   0.216   5.606
 1134SOL     OW 4300   5.378   6.722   1.823
 1134SOL    HW1 4301   5.297   6.779   1.809
 1134SOL    HW2 4302   5.357   6.648   1.887
 1135SOL     OW 4303   2.553   6.028   4.154
 1135SOL    HW1 4304   2.617   6.041   4.078
 1135SOL    HW2 4305   2.551   6.110   4.210
 1136SOL     OW 4306   3.543   5.961   3.347
 1136SOL    HW1 4307   3.508   6.000   3.262
 1136SOL    HW2 4308   3.516   6.018   3.424
 1137SOL     OW 4309   0.708   5.910   6.955
 1137SOL    HW1 4310   0.691   5.943   6.862
 1137SOL    HW2 4311   0.629   5.856   6.986
 1138SOL     OW 4312   1.539   2.919   5.356
 1138SOL    HW1 4313   1.480   2.909   5.276
 1138SOL    HW2 4314   1.571   3.013   5.363
 1139SOL     OW 4315   2.311   4.772   4.111
 1139SOL    HW1 4316   2.276   4.735   4.025
 1139SOL    HW2 4317   2.261   4.856   4.134
 1140SOL     OW 4318   1.885   1.192   1.912
 1140SOL    HW1 4319   1.801   1.158   1.869
 1140SOL    HW2 4320   1.958   1.197   1.844
 1141SOL     OW 4321   6.063   5.491   6.245
 1141SOL    HW1 4322   6.150   5.540   6.252
 1141SOL    HW2 4323   5.988   5.557   6.240
 1142SOL     OW 4324   2.500   6.913   3.613
 1142SOL    HW1 4325   2.456   6.996   3.578
 1142SOL    HW2 4326   2.530   6.856   3.536
 1143SOL     OW 4327   1.552   3.204   2.376
 1143SOL    HW1 4328   1.452   3.214   2.368
 1143SOL    HW2 4329   1.580   3.115   2.341
 1144SOL     OW 4330   5.459   4.246   2.873
 1144SOL    HW1 4331   5.365   4.217   2.890
 1144SOL    HW2 4332   5.507   4.174   2.823
 1145SOL     OW 4333   1.261   2.805   0.559
 1145SOL    HW1 4334   1.201   2.766   0.489
 1145SOL    HW2 4335   1.240   2.902   0.571
 1146SOL     OW 4336   0.749   1.763   0.999
 1146SOL    HW1 4337   0.661   1.810   1.002
 1146SOL    HW2 4338   0.818   1.817   1.047
 1147SOL     OW 4339   2.607   5.686   1.189
 1147SOL    HW1 4340   2.576   5.780   1.181
 1147SOL    HW2 4341   2.698   5.685   1.230
 1148SOL     OW 4342   4.315   6.423   1.926
 1148SOL    HW1 4343   4.301   6.342   1.870
 1148SOL    HW2 4344   4.360   6.494   1.872
 1149SOL     OW 4345   6.257   3.035   1.834
 1149SOL    HW1 4346   6.286   3.103   1.767
 1149SOL    HW2 4347   6.232   3.080   1.920
 1150SOL     OW 4348   1.144   4.613   0.225
 1150SOL    HW1 4349   1.051   4.575   0.233
 1150SOL    HW2 4350   1.204   4.546   0.182
 1151SOL     OW 4351   6.156   5.033   4.246
 1151SOL    HW1 4352   6.086   5.103   4.232
 1151SOL    HW2 4353   6.135   4.981   4.329
 1152SOL     OW 4354   4.629   6.897   0.479
 1152SOL    HW1 4355   4.697   6.928   0.545
 1152SOL    HW2 4356   4.657   6.924   0.387
 1153SOL     OW 4357   0.047   0.234   1.227
 1153SOL    HW1 4358   0.023   0.193   1.139
 1153SOL    HW2 4359   0.016   0.329   1.229
 1154SOL     OW 4360   1.095   3.588   2.268
 1154SOL    HW1 4361   1.035   3.514   2.237
 1154SOL    HW2 4362   1.151   3.556   2.344
 1155SOL     OW 4363   2.001   6.571   4.712
 1155SOL    HW1 4364   2.061   6.492   4.720
 1155SOL    HW2 4365   2.031   6.643   4.774
 1156SOL     OW 4366   4.553   2.017   5.114
 1156SOL    HW1 4367   4.565   2.068   5.199
 1156SOL    HW2 4368   4.616   1.940   5.112
 1157SOL     OW 4369   4.693   0.832   5.225
 1157SOL    HW1 4370   4.690   0.842   5.324
 1157SOL    HW2 4371   4.673   0.737   5.201
 1158SOL     OW 4372   5.466   6.408   4.246
 1158SOL    HW1 4373   5.436   6.373   4.156
 1158SOL    HW2 4374   5.513   6.335   4.295
 1159SOL     OW 4375   6.020   6.340   3.183
 1159SOL    HW1 4376   5.968   6.327   3.098
 1159SOL    HW2 4377   6.103   6.392   3.163
 1160SOL     OW 4378   4.373   6.464   1.141
 1160SOL    HW1 4379   4.278   6.480   1.166
 1160SOL    HW2 4380   4.383   6.371   1.105
 1161SOL     OW 4381   6.865   5.248   6.411
 1161SOL    HW1 4382   6.841   5.302   6.491
 1161SOL    HW2 4383   6.891   5.156   6.440
 1162SOL     OW 4384   2.195   2.794   5.972
 1162SOL    HW1 4385   2.237   2.845   5.897
 1162SOL    HW2 4386   2.172   2.702   5.942
 1163SOL     OW 4387   6.049   4.104   1.736
 1163SOL    HW1 4388   6.086   4.077   1.647
 1163SOL    HW2 4389   5.999   4.028   1.777
 1164SOL     OW 4390   5.509   2.155   4.722
 1164SOL    HW1 4391   5.571   2.077   4.708
 1164SOL    HW2 4392   5.419   2.122   4.750
 1165SOL     OW 4393   4.501   6.267   3.828
 1165SOL    HW1 4394   4.593   6.233   3.808
 1165SOL    HW2 4395   4.508   6.349   3.885
 1166SOL     OW 4396   1.681   6.412   6.963
 1166SOL    HW1 4397   1.685   6.343   0.012
 1166SOL    HW2 4398   1.697   6.502   7.003
 1167SOL     OW 4399   4.919   3.891   1.706
 1167SOL    HW1 4400   4.924   3.991   1.713
 1167SOL    HW2 4401   4.850   3.856   1.769
 1168SOL     OW 4402   6.237   2.043   2.325
 1168SOL    HW1 4403   6.248   1.963   2.267
 1168SOL    HW2 4404   6.326   2.070   2.363
 1169SOL     OW 4405   6.042   1.830   5.913
 1169SOL    HW1 4406   6.105   1.755   5.933
 1169SOL    HW2 4407   5.951   1.794   5.896
 1170SOL     OW 4408   4.614   0.110   2.664
 1170SOL    HW1 4409   4.682   0.183   2.676
 1170SOL    HW2 4410   4.617   0.076   2.570
 1171SOL     OW 4411   2.366   0.106   0.544
 1171SOL    HW1 4412   2.279   0.069   0.578
 1171SOL    HW2 4413   2.391   0.059   0.460
 1172SOL     OW 4414   5.084   3.354   0.929
 1172SOL    HW1 4415   5.065   3.276   0.988
 1172SOL    HW2 4416   5.126   3.427   0.982
 1173SOL     OW 4417   1.862   0.723   1.211
 1173SOL    HW1 4418   1.947   0.756   1.253
 1173SOL    HW2 4419   1.784   0.758   1.263
 1174SOL     OW 4420   3.598   3.888   1.751
 1174SOL    HW1 4421   3.646   3.892   1.664
 1174SOL    HW2 4422   3.661   3.855   1.822
 1175SOL     OW 4423   4.404   3.245   5.774
 1175SOL    HW1 4424   4.433   3.214   5.865
 1175SOL    HW2 4425   4.424   3.173   5.707
 1176SOL     OW 4426   4.500   3.170   6.038
 1176SOL    HW1 4427   4.600   3.167   6.033
 1176SOL    HW2 4428   4.471   3.179   6.133
 1177SOL     OW 4429   6.302   3.477   5.386
 1177SOL    HW1 4430   6.214   3.514   5.416
 1177SOL    HW2 4431   6.325   3.397   5.441
 1178SOL     OW 4432   2.691   3.463   0.654
 1178SOL    HW1 4433   2.678   3.562   0.641
 1178SOL    HW2 4434   2.688   3.418   0.565
 1179SOL     OW 4435   2.351   5.764   0.124
 1179SOL    HW1 4436   2.309   5.729   0.208
 1179SOL    HW2 4437   2.450   5.750   0.127
 1180SOL     OW 4438   2.900   5.938   2.822
 1180SOL    HW1 4439   2.983   5.979   2.858
 1180SOL    HW2 4440   2.854   5.885   2.894
 1181SOL     OW 4441   0.064   5.490   6.020
 1181SOL    HW1 4442   0.013   5.476   6.105
 1181SOL    HW2 4443   0.029   5.429   5.950
 1182SOL     OW 4444   4.188   5.820   3.223
 1182SOL    HW1 4445   4.101   5.783   3.257
 1182SOL    HW2 4446   4.180   5.919   3.213
 1183SOL     OW 4447   1.971   4.682   0.894
 1183SOL    HW1 4448   1.883   4.651   0.858
 1183SOL    HW2 4449   1.965   4.779   0.916
 1184SOL     OW 4450   0.616   0.628   4.754
 1184SOL    HW1 4451   0.610   0.529   4.741
 1184SOL    HW2 4452   0.709   0.652   4.784
 1185SOL     OW 4453   0.406   1.114   6.822
 1185SOL    HW1 4454   0.332   1.057   6.788
 1185SOL    HW2 4455   0.494   1.077   6.793
 1186SOL     OW 4456   4.861   5.808   5.257
 1186SOL    HW1 4457   4.804   5.876   5.304
 1186SOL    HW2 4458   4.957   5.826   5.277
 1187SOL     OW 4459   6.494   6.646   0.089
 1187SOL    HW1 4460   6.520   6.740   0.114
 1187SOL    HW2 4461   6.404   6.647   0.047
 1188SOL     OW 4462   3.560   6.463   5.049
 1188SOL    HW1 4463   3.603   6.534   4.995
 1188SOL    HW2 4464   3.529   6.389   4.989
 1189SOL     OW 4465   6.601   2.677   3.034
 1189SOL    HW1 4466   6.578   2.773   3.015
 1189SOL    HW2 4467   6.689   2.655   2.992
 1190SOL     OW 4468   2.290   6.015   3.797
 1190SOL    HW1 4469   2.328   5.950   3.862
 1190SOL    HW2 4470   2.228   5.967   3.735
 1191SOL     OW 4471   4.392   4.561   3.646
 1191SOL    HW1 4472   4.410   4.659   3.639
 1191SOL    HW2 4473   4.296   4.546   3.669
 1192SOL     OW 4474   3.565   5.377   3.084
 1192SOL    HW1 4475   3.528   5.429   3.161
 1192SOL    HW2 4476   3.617   5.439   3.024
 1193SOL     OW 4477   6.254   3.991   4.632
 1193SOL    HW1 4478   6.317   3.965   4.559
 1193SOL    HW2 4479   6.188   3.917   4.648
 1194SOL     OW 4480   5.360   6.847   1.363
 1194SOL    HW1 4481   5.314   6.935   1.357
 1194SOL    HW2 4482   5.299   6.775   1.330
 1195SOL     OW 4483   6.265   4.581   1.647
 1195SOL    HW1 4484   6.353   4.578   1.601
 1195SOL    HW2 4485   6.206   4.649   1.604
 1196SOL     OW 4486   0.070   5.953   3.137
 1196SOL    HW1 4487   0.104   5.984   3.225
 1196SOL    HW2 4488   0.143   5.906   3.087
 1197SOL     OW 4489   4.110   0.440   5.930
 1197SOL    HW1 4490   4.100   0.441   5.830
 1197SOL    HW2 4491   4.019   0.437   5.972
 1198SOL     OW 4492   1.203   3.288   1.725
 1198SOL    HW1 4493   1.216   3.267   1.822
 1198SOL    HW2 4494   1.273   3.242   1.671
 1199SOL     OW 4495   4.515   4.770   1.971
 1199SOL    HW1 4496   4.566   4.846   2.012
 1199SOL    HW2 4497   4.570   4.687   1.974
 1200SOL     OW 4498   3.357   3.499   3.221
 1200SOL    HW1 4499   3.373   3.403   3.199
 1200SOL    HW2 4500   3.294   3.538   3.154
 1201SOL     OW 4501   1.001   1.279   4.311
 1201SOL    HW1 4502   0.926   1.278   4.244
 1201SOL    HW2 4503   0.984   1.210   4.381
 1202SOL     OW 4504   0.979   5.566   6.491
 1202SOL    HW1 4505   1.049   5.548   6.422
 1202SOL    HW2 4506   1.017   5.625   6.562
 1203SOL     OW 4507   5.786   6.268   0.072
 1203SOL    HW1 4508   5.719   6.223   0.013
 1203SOL    HW2 4509   5.772   6.239   0.167
 1204SOL     OW 4510   3.129   6.902   0.977
 1204SOL    HW1 4511   3.116   6.974   0.909
 1204SOL    HW2 4512   3.040   6.872   1.011
 1205SOL     OW 4513   5.742   3.981   1.360
 1205SOL    HW1 4514   5.721   4.078   1.368
 1205SOL    HW2 4515   5.672   3.928   1.409
 1206SOL     OW 4516   3.195   2.810   5.305
 1206SOL    HW1 4517   3.196   2.857   5.216
 1206SOL    HW2 4518   3.241   2.865   5.373
 1207SOL     OW 4519   1.970   6.691   1.089
 1207SOL    HW1 4520   1.947   6.602   1.051
 1207SOL    HW2 4521   1.899   6.720   1.153
 1208SOL     OW 4522   3.214   3.808   0.621
 1208SOL    HW1 4523   3.190   3.815   0.524
 1208SOL    HW2 4524   3.280   3.879   0.644
 1209SOL     OW 4525   4.419   0.690   5.465
 1209SOL    HW1 4526   4.387   0.707   5.372
 1209SOL    HW2 4527   4.507   0.736   5.479
 1210SOL     OW 4528   2.532   0.359   2.740
 1210SOL    HW1 4529   2.504   0.395   2.829
 1210SOL    HW2 4530   2.570   0.433   2.684
 1211SOL     OW 4531   1.488   3.872   1.544
 1211SOL    HW1 4532   1.485   3.794   1.606
 1211SOL    HW2 4533   1.567   3.862   1.483
 1212SOL     OW 4534   6.309   0.177   6.334
 1212SOL    HW1 4535   6.338   0.090   6.293
 1212SOL    HW2 4536   6.209   0.180   6.338
 1213SOL     OW 4537   6.480   2.295   0.273
 1213SOL    HW1 4538   6.573   2.268   0.295
 1213SOL    HW2 4539   6.421   2.283   0.354
 1214SOL     OW 4540   6.933   2.964   0.430
 1214SOL    HW1 4541   6.982   3.038   0.475
 1214SOL    HW2 4542   6.840   2.994   0.408
 1215SOL     OW 4543   1.308   3.932   3.901
 1215SOL    HW1 4544   1.233   3.890   3.952
 1215SOL    HW2 4545   1.382   3.865   3.889
 1216SOL     OW 4546   5.153   0.925   1.272
 1216SOL    HW1 4547   5.090   1.003   1.266
 1216SOL    HW2 4548   5.246   0.958   1.290
 1217SOL     OW 4549   1.504   5.071   1.033
 1217SOL    HW1 4550   1.542   5.073   1.126
 1217SOL    HW2 4551   1.436   5.145   1.025
 1218SOL     OW 4552   1.922   4.668   4.642
 1218SOL    HW1 4553   1.922   4.642   4.545
 1218SOL    HW2 4554   1.972   4.754   4.653
 1219SOL     OW 4555   5.540   4.965   2.221
 1219SOL    HW1 4556   5.520   4.992   2.315
 1219SOL    HW2 4557   5.609   5.027   2.183
 1220SOL     OW 4558   0.668   5.296   3.479
 1220SOL    HW1 4559   0.615   5.368   3.523
 1220SOL    HW2 4560   0.764   5.323   3.471
 1221SOL     OW 4561   4.678   3.329   5.583
 1221SOL    HW1 4562   4.712   3.418   5.553
 1221SOL    HW2 4563   4.581   3.320   5.559
 1222SOL     OW 4564   6.494   6.517   6.801
 1222SOL    HW1 4565   6.517   6.519   6.898
 1222SOL    HW2 4566   6.398   6.489   6.790
 1223SOL     OW 4567   3.675   0.545   0.950
 1223SOL    HW1 4568   3.679   0.633   0.902
 1223SOL    HW2 4569   3.592   0.541   1.005
 1224SOL     OW 4570   2.371   5.891   0.628
 1224SOL    HW1 4571   2.308   5.886   0.706
 1224SOL    HW2 4572   2.356   5.976   0.579
 1225SOL     OW 4573   3.446   3.944   5.991
 1225SOL    HW1 4574   3.529   3.967   5.941
 1225SOL    HW2 4575   3.413   3.854   5.961
 1226SOL     OW 4576   2.594   5.240   0.996
 1226SOL    HW1 4577   2.616   5.288   1.081
 1226SOL    HW2 4578   2.638   5.150   0.995
 1227SOL     OW 4579   0.185   3.907   6.815
 1227SOL    HW1 4580   0.209   3.948   6.903
 1227SOL    HW2 4581   0.250   3.937   6.745
 1228SOL     OW 4582   4.013   2.533   6.890
 1228SOL    HW1 4583   4.031   2.443   6.929
 1228SOL    HW2 4584   4.006   2.600   6.963
 1229SOL     OW 4585   3.999   4.683   6.235
 1229SOL    HW1 4586   4.074   4.743   6.209
 1229SOL    HW2 4587   3.913   4.734   6.233
 1230SOL     OW 4588   4.343   0.804   3.930
 1230SOL    HW1 4589   4.440   0.816   3.910
 1230SOL    HW2 4590   4.289   0.862   3.868
 1231SOL     OW 4591   1.154   3.757   4.998
 1231SOL    HW1 4592   1.202   3.767   5.085
 1231SOL    HW2 4593   1.134   3.847   4.960
 1232SOL     OW 4594   1.382   1.685   5.580
 1232SOL    HW1 4595   1.365   1.608   5.641
 1232SOL    HW2 4596   1.389   1.652   5.486
 1233SOL     OW 4597   1.861   3.325   4.628
 1233SOL    HW1 4598   1.898   3.234   4.643
 1233SOL    HW2 4599   1.775   3.335   4.677
 1234SOL     OW 4600   6.596   4.051   4.955
 1234SOL    HW1 4601   6.576   4.035   5.052
 1234SOL    HW2 4602   6.515   4.086   4.909
 1235SOL     OW 4603   0.130   6.092   2.626
 1235SOL    HW1 4604   0.197   6.018   2.636
 1235SOL    HW2 4605   0.173   6.179   2.652
 1236SOL     OW 4606   5.419   0.996   6.634
 1236SOL    HW1 4607   5.329   0.962   6.664
 1236SOL    HW2 4608   5.453   1.063   6.700
 1237SOL     OW 4609   2.957   5.099   6.828
 1237SOL    HW1 4610   2.930   5.192   6.803
 1237SOL    HW2 4611   3.036   5.103   6.890
 1238SOL     OW 4612   1.799   0.943   1.027
 1238SOL    HW1 4613   1.699   0.943   1.035
 1238SOL    HW2 4614   1.836   0.862   1.073
 1239SOL     OW 4615   7.006   6.237   6.606
 1239SOL    HW1 4616   6.935   6.255   6.675
 1239SOL    HW2 4617   6.995   6.301   6.530
 1240SOL     OW 4618   5.564   5.966   2.028
 1240SOL    HW1 4619   5.657   5.930   2.020
 1240SOL    HW2 4620   5.498   5.896   2.003
 1241SOL     OW 4621   6.847   3.225   4.104
 1241SOL    HW1 4622   6.755   3.221   4.066
 1241SOL    HW2 4623   6.907   3.275   4.042
 1242SOL     OW 4624   1.776   3.853   0.825
 1242SOL    HW1 4625   1.697   3.808   0.784
 1242SOL    HW2 4626   1.771   3.952   0.808
 1243SOL     OW 4627   1.437   6.196   5.492
 1243SOL    HW1 4628   1.376   6.266   5.456
 1243SOL    HW2 4629   1.435   6.116   5.433
 1244SOL     OW 4630   0.445   6.292   3.216
 1244SOL    HW1 4631   0.350   6.309   3.244
 1244SOL    HW2 4632   0.491   6.239   3.286
 1245SOL     OW 4633   4.135   3.564   6.164
 1245SOL    HW1 4634   4.197   3.510   6.108
 1245SOL    HW2 4635   4.092   3.634   6.108
 1246SOL     OW 4636   2.352   6.419   1.991
 1246SOL    HW1 4637   2.315   6.330   2.016
 1246SOL    HW2 4638   2.324   6.488   2.058
 1247SOL     OW 4639   2.805   0.257   6.571
 1247SOL    HW1 4640   2.834   0.222   6.482
 1247SOL    HW2 4641   2.878   0.242   6.638
 1248SOL     OW 4642   2.182   6.916   3.996
 1248SOL    HW1 4643   2.161   6.882   3.905
 1248SOL    HW2 4644   2.099   6.954   4.037
 1249SOL     OW 4645   5.485   2.638   2.321
 1249SOL    HW1 4646   5.506   2.732   2.294
 1249SOL    HW2 4647   5.386   2.625   2.321
 1250SOL     OW 4648   0.572   4.663   4.741
 1250SOL    HW1 4649   0.546   4.610   4.661
 1250SOL    HW2 4650   0.490   4.697   4.787
 1251SOL     OW 4651   3.721   0.371   4.515
 1251SOL    HW1 4652   3.751   0.276   4.514
 1251SOL    HW2 4653   3.641   0.382   4.455
 1252SOL     OW 4654   3.324   3.681   5.887
 1252SOL    HW1 4655   3.414   3.641   5.904
 1252SOL    HW2 4656   3.290   3.650   5.798
 1253SOL     OW 4657   4.169   5.776   1.935
 1253SOL    HW1 4658   4.225   5.693   1.933
 1253SOL    HW2 4659   4.136   5.796   1.843
 1254SOL     OW 4660   6.305   2.940   2.464
 1254SOL    HW1 4661   6.272   2.904   2.377
 1254SOL    HW2 4662   6.227   2.975   2.517
 1255SOL     OW 4663   6.675   1.003   4.823
 1255SOL    HW1 4664   6.642   0.970   4.735
 1255SOL    HW2 4665   6.772   1.026   4.817
 1256SOL     OW 4666   6.993   0.038   3.189
 1256SOL    HW1 4667   6.952   0.110   3.134
 1256SOL    HW2 4668   0.056   0.070   3.227
 1257SOL     OW 4669   0.468   0.116   3.684
 1257SOL    HW1 4670   0.500   0.209   3.706
 1257SOL    HW2 4671   0.543   0.051   3.698
 1258SOL     OW 4672   0.514   5.502   3.630
 1258SOL    HW1 4673   0.446   5.442   3.590
 1258SOL    HW2 4674   0.483   5.531   3.721
 1259SOL     OW 4675   4.041   1.879   4.552
 1259SOL    HW1 4676   4.091   1.896   4.637
 1259SOL    HW2 4677   3.943   1.881   4.570
 1260SOL     OW 4678   0.973   1.675   0.047
 1260SOL    HW1 4679   0.896   1.614   0.030
 1260SOL    HW2 4680   1.057   1.631   0.014
 1261SOL     OW 4681   0.120   5.436   0.033
 1261SOL    HW1 4682   0.161   5.455   6.967
 1261SOL    HW2 4683   0.020   5.447   0.027
 1262SOL     OW 4684   5.346   5.280   2.240
 1262SOL    HW1 4685   5.350   5.228   2.326
 1262SOL    HW2 4686   5.386   5.370   2.254
 1263SOL     OW 4687   0.757   1.700   2.512
 1263SOL    HW1 4688   0.810   1.616   2.512
 1263SOL    HW2 4689   0.809   1.773   2.468
 1264SOL     OW 4690   1.102   4.019   5.763
 1264SOL    HW1 4691   1.175   3.966   5.720
 1264SOL    HW2 4692   1.141   4.087   5.825
 1265SOL     OW 4693   6.807   5.305   4.289
 1265SOL    HW1 4694   6.771   5.266   4.373
 1265SOL    HW2 4695   6.737   5.301   4.217
 1266SOL     OW 4696   0.644   0.864   4.409
 1266SOL    HW1 4697   0.599   0.950   4.386
 1266SOL    HW2 4698   0.578   0.804   4.455
 1267SOL     OW 4699   5.510   0.485   2.028
 1267SOL    HW1 4700   5.475   0.524   1.943
 1267SOL    HW2 4701   5.530   0.559   2.093
 1268SOL     OW 4702   3.909   2.391   5.589
 1268SOL    HW1 4703   3.970   2.374   5.512
 1268SOL    HW2 4704   3.913   2.488   5.615
 1269SOL     OW 4705   5.223   2.427   4.254
 1269SOL    HW1 4706   5.230   2.459   4.159
 1269SOL    HW2 4707   5.165   2.490   4.305
 1270SOL     OW 4708   1.918   4.887   2.250
 1270SOL    HW1 4709   1.961   4.953   2.190
 1270SOL    HW2 4710   1.884   4.933   2.332
 1271SOL     OW 4711   1.775   0.522   1.035
 1271SOL    HW1 4712   1.708   0.468   1.086
 1271SOL    HW2 4713   1.807   0.598   1.092
 1272SOL     OW 4714   6.221   3.560   6.518
 1272SOL    HW1 4715   6.150   3.575   6.586
 1272SOL    HW2 4716   6.180   3.526   6.433
 1273SOL     OW 4717   1.314   4.258   4.832
 1273SOL    HW1 4718   1.338   4.258   4.735
 1273SOL    HW2 4719   1.396   4.274   4.886
 1274SOL     OW 4720   0.233   4.521   1.627
 1274SOL    HW1 4721   0.230   4.484   1.720
 1274SOL    HW2 4722   0.210   4.449   1.562
 1275SOL     OW 4723   2.517   0.290   3.816
 1275SOL    HW1 4724   2.499   0.248   3.727
 1275SOL    HW2 4725   2.434   0.289   3.871
 1276SOL     OW 4726   5.445   4.721   4.398
 1276SOL    HW1 4727   5.427   4.720   4.496
 1276SOL    HW2 4728   5.373   4.670   4.351
 1277SOL     OW 4729   0.914   5.719   7.021
 1277SOL    HW1 4730   0.887   5.678   0.084
 1277SOL    HW2 4731   0.838   5.772   6.983
 1278SOL     OW 4732   1.154   0.102   3.240
 1278SOL    HW1 4733   1.190   0.028   3.297
 1278SOL    HW2 4734   1.100   0.063   3.166
 1279SOL     OW 4735   2.615   3.780   6.009
 1279SOL    HW1 4736   2.656   3.871   6.001
 1279SOL    HW2 4737   2.515   3.790   6.016
 1280SOL     OW 4738   3.260   0.759   3.792
 1280SOL    HW1 4739   3.212   0.824   3.733
 1280SOL    HW2 4740   3.203   0.737   3.870
 1281SOL     OW 4741   2.954   5.967   3.804
 1281SOL    HW1 4742   3.053   5.958   3.790
 1281SOL    HW2 4743   2.916   5.877   3.827
 1282SOL     OW 4744   6.498   2.970   0.574
 1282SOL    HW1 4745   6.416   3.017   0.606
 1282SOL    HW2 4746   6.472   2.903   0.505
 1283SOL     OW 4747   6.273   3.875   5.148
 1283SOL    HW1 4748   6.284   3.840   5.055
 1283SOL    HW2 4749   6.262   3.974   5.145
 1284SOL     OW 4750   3.703   0.869   1.444
 1284SOL    HW1 4751   3.741   0.803   1.380
 1284SOL    HW2 4752   3.736   0.961   1.421
 1285SOL     OW 4753   3.800   1.417   4.862
 1285SOL    HW1 4754   3.809   1.364   4.946
 1285SOL    HW2 4755   3.835   1.509   4.876
 1286SOL     OW 4756   5.023   2.723   1.473
 1286SOL    HW1 4757   5.123   2.728   1.477
 1286SOL    HW2 4758   4.987   2.804   1.426
 1287SOL     OW 4759   5.741   4.669   5.224
 1287SOL    HW1 4760   5.768   4.645   5.131
 1287SOL    HW2 4761   5.664   4.612   5.252
 1288SOL     OW 4762   4.416   4.520   6.287
 1288SOL    HW1 4763   4.441   4.586   6.358
 1288SOL    HW2 4764   4.473   4.535   6.207
 1289SOL     OW 4765   6.611   0.665   1.585
 1289SOL    HW1 4766   6.527   0.631   1.627
 1289SOL    HW2 4767   6.668   0.587   1.558
 1290SOL     OW 4768   1.591   0.679   0.300
 1290SOL    HW1 4769   1.509   0.688   0.356
 1290SOL    HW2 4770   1.616   0.583   0.291
 1291SOL     OW 4771   6.377   4.883   4.528
 1291SOL    HW1 4772   6.430   4.966   4.508
 1291SOL    HW2 4773   6.293   4.884   4.475
 1292SOL     OW 4774   0.134   5.615   2.569
 1292SOL    HW1 4775   0.127   5.527   2.616
 1292SOL    HW2 4776   0.059   5.625   2.504
 1293SOL     OW 4777   2.253   1.875   0.099
 1293SOL    HW1 4778   2.195   1.946   0.060
 1293SOL    HW2 4779   2.213   1.785   0.080
 1294SOL     OW 4780   2.125   4.583   6.664
 1294SOL    HW1 4781   2.074   4.500   6.685
 1294SOL    HW2 4782   2.223   4.564   6.663
 1295SOL     OW 4783   0.255   3.977   1.217
 1295SOL    HW1 4784   0.277   3.945   1.124
 1295SOL    HW2 4785   0.158   3.964   1.235
 1296SOL     OW 4786   5.121   6.713   5.534
 1296SOL    HW1 4787   5.109   6.694   5.437
 1296SOL    HW2 4788   5.131   6.628   5.585
 1297SOL     OW 4789   0.892   6.928   2.398
 1297SOL    HW1 4790   0.864   6.957   2.490
 1297SOL    HW2 4791   0.870   6.831   2.386
 1298SOL     OW 4792   5.115   5.729   3.145
 1298SOL    HW1 4793   5.101   5.828   3.138
 1298SOL    HW2 4794   5.101   5.687   3.055
 1299SOL     OW 4795   2.184   3.348   4.065
 1299SOL    HW1 4796   2.283   3.363   4.068
 1299SOL    HW2 4797   2.157   3.290   4.141
 1300SOL     OW 4798   2.229   3.556   1.077
 1300SOL    HW1 4799   2.180   3.643   1.074
 1300SOL    HW2 4800   2.318   3.566   1.034
 1301SOL     OW 4801   0.647   0.511   1.297
 1301SOL    HW1 4802   0.636   0.417   1.329
 1301SOL    HW2 4803   0.645   0.573   1.376
 1302SOL     OW 4804   5.520   0.318   5.499
 1302SOL    HW1 4805   5.569   0.293   5.416
 1302SOL    HW2 4806   5.450   0.386   5.478
 1303SOL     OW 4807   4.038   0.013   1.699
 1303SOL    HW1 4808   4.099   0.070   1.644
 1303SOL    HW2 4809   4.061   6.941   1.686
 1304SOL     OW 4810   1.071   1.251   1.028
 1304SOL    HW1 4811   1.017   1.182   1.075
 1304SOL    HW2 4812   1.161   1.257   1.070
 1305SOL     OW 4813   5.032   4.313   5.964
 1305SOL    HW1 4814   5.076   4.297   6.052
 1305SOL    HW2 4815   5.082   4.384   5.914
 1306SOL     OW 4816   0.765   5.976   4.972
 1306SOL    HW1 4817   0.728   5.981   5.065
 1306SOL    HW2 4818   0.765   5.881   4.941
 1307SOL     OW 4819   1.902   3.252   4.027
 1307SOL    HW1 4820   1.851   3.216   4.105
 1307SOL    HW2 4821   1.912   3.351   4.037
 1308SOL     OW 4822   6.269   6.003   6.527
 1308SOL    HW1 4823   6.181   6.020   6.573
 1308SOL    HW2 4824   6.304   5.913   6.555
 1309SOL     OW 4825   5.207   4.850   6.039
 1309SOL    HW1 4826   5.291   4.897   6.067
 1309SOL    HW2 4827   5.203   4.845   5.939
 1310SOL     OW 4828   0.353   3.812   4.036
 1310SOL    HW1 4829   0.428   3.828   4.100
 1310SOL    HW2 4830   0.358   3.879   3.962
 1311SOL     OW 4831   6.486   5.493   6.767
 1311SOL    HW1 4832   6.543   5.571   6.744
 1311SOL    HW2 4833   6.541   5.424   6.815
 1312SOL     OW 4834   1.132   1.177   6.079
 1312SOL    HW1 4835   1.118   1.079   6.091
 1312SOL    HW2 4836   1.218   1.205   6.120
 1313SOL     OW 4837   6.140   5.697   3.099
 1313SOL    HW1 4838   6.239   5.704   3.115
 1313SOL    HW2 4839   6.120   5.615   3.046
 1314SOL     OW 4840   3.039   1.700   4.814
 1314SOL    HW1 4841   3.104   1.720   4.887
 1314SOL    HW2 4842   3.081   1.637   4.749
 1315SOL     OW 4843   6.727   0.431   3.689
 1315SOL    HW1 4844   6.645   0.476   3.726
 1315SOL    HW2 4845   6.788   0.408   3.764
 1316SOL     OW 4846   4.016   0.180   5.465
 1316SOL    HW1 4847   4.077   0.104   5.445
 1316SOL    HW2 4848   3.923   0.146   5.478
 1317SOL     OW 4849   2.050   4.338   5.755
 1317SOL    HW1 4850   2.123   4.272   5.770
 1317SOL    HW2 4851   2.032   4.347   5.657
 1318SOL     OW 4852   2.171   3.307   0.061
 1318SOL    HW1 4853   2.106   3.232   0.076
 1318SOL    HW2 4854   2.121   3.389   0.032
 1319SOL     OW 4855   0.026   5.958   0.139
 1319SOL    HW1 4856   6.989   5.925   0.066
 1319SOL    HW2 4857   0.074   6.040   0.108
 1320SOL     OW 4858   3.326   2.821   6.643
 1320SOL    HW1 4859   3.412   2.815   6.693
 1320SOL    HW2 4860   3.282   2.730   6.642
 1321SOL     OW 4861   4.869   1.976   6.798
 1321SOL    HW1 4862   4.779   1.962   6.755
 1321SOL    HW2 4863   4.915   1.888   6.809
 1322SOL     OW 4864   3.265   1.242   5.199
 1322SOL    HW1 4865   3.317   1.162   5.168
 1322SOL    HW2 4866   3.215   1.281   5.121
 1323SOL     OW 4867   3.551   0.092   0.559
 1323SOL    HW1 4868   3.460   0.126   0.535
 1323SOL    HW2 4869   3.550   7.016   0.561
 1324SOL     OW 4870   1.345   3.900   0.289
 1324SOL    HW1 4871   1.328   3.995   0.266
 1324SOL    HW2 4872   1.389   3.894   0.379
 1325SOL     OW 4873   3.143   6.139   5.353
 1325SOL    HW1 4874   3.121   6.127   5.449
 1325SOL    HW2 4875   3.240   6.117   5.337
 1326SOL     OW 4876   4.706   4.378   5.082
 1326SOL    HW1 4877   4.728   4.380   4.985
 1326SOL    HW2 4878   4.772   4.319   5.130
 1327SOL     OW 4879   0.321   0.067   1.142
 1327SOL    HW1 4880   0.245   0.120   1.179
 1327SOL    HW2 4881   0.302   6.993   1.152
 1328SOL     OW 4882   1.476   3.180   5.839
 1328SOL    HW1 4883   1.507   3.230   5.920
 1328SOL    HW2 4884   1.554   3.132   5.798
 1329SOL     OW 4885   0.310   1.482   2.880
 1329SOL    HW1 4886   0.374   1.541   2.930
 1329SOL    HW2 4887   0.275   1.531   2.801
 1330SOL     OW 4888   0.419   1.993   0.681
 1330SOL    HW1 4889   0.497   1.965   0.625
 1330SOL    HW2 4890   0.390   2.085   0.653
 1331SOL     OW 4891   4.309   2.137   2.797
 1331SOL    HW1 4892   4.342   2.230   2.810
 1331SOL    HW2 4893   4.383   2.079   2.763
 1332SOL     OW 4894   1.942   0.459   0.386
 1332SOL    HW1 4895   1.950   0.538   0.446
 1332SOL    HW2 4896   2.025   0.403   0.394
 1333SOL     OW 4897   3.383   3.926   3.266
 1333SOL    HW1 4898   3.422   4.018   3.267
 1333SOL    HW2 4899   3.454   3.860   3.289
 1334SOL     OW 4900   6.905   1.846   3.301
 1334SOL    HW1 4901   6.989   1.863   3.352
 1334SOL    HW2 4902   6.907   1.753   3.263
 1335SOL     OW 4903   1.882   3.033   1.649
 1335SOL    HW1 4904   1.886   3.091   1.731
 1335SOL    HW2 4905   1.933   2.948   1.666
 1336SOL     OW 4906   4.128   1.073   5.655
 1336SOL    HW1 4907   4.032   1.047   5.657
 1336SOL    HW2 4908   4.136   1.172   5.645
 1337SOL     OW 4909   6.607   1.058   2.945
 1337SOL    HW1 4910   6.651   0.968   2.950
 1337SOL    HW2 4911   6.626   1.099   2.856
 1338SOL     OW 4912   6.355   4.145   4.167
 1338SOL    HW1 4913   6.291   4.163   4.243
 1338SOL    HW2 4914   6.316   4.181   4.082
 1339SOL     OW 4915   0.339   0.507   0.199
 1339SOL    HW1 4916   0.346   0.421   0.150
 1339SOL    HW2 4917   0.271   0.565   0.155
 1340SOL     OW 4918   4.914   1.724   2.373
 1340SOL    HW1 4919   4.863   1.692   2.452
 1340SOL    HW2 4920   4.852   1.764   2.306
 1341SOL     OW 4921   4.675   6.288   0.389
 1341SOL    HW1 4922   4.714   6.292   0.297
 1341SOL    HW2 4923   4.710   6.365   0.443
 1342SOL     OW 4924   3.148   5.670   0.166
 1342SOL    HW1 4925   3.155   5.666   0.266
 1342SOL    HW2 4926   3.082   5.602   0.134
 1343SOL     OW 4927   6.187   5.289   3.088
 1343SOL    HW1 4928   6.279   5.255   3.110
 1343SOL    HW2 4929   6.122   5.251   3.154
 1344SOL     OW 4930   0.654   6.335   4.211
 1344SOL    HW1 4931   0.616   6.306   4.124
 1344SOL    HW2 4932   0.582   6.376   4.267
 1345SOL     OW 4933   0.597   4.955   2.097
 1345SOL    HW1 4934   0.499   4.937   2.101
 1345SOL    HW2 4935   0.621   4.987   2.005
 1346SOL     OW 4936   1.923   5.115   6.044
 1346SOL    HW1 4937   1.940   5.207   6.010
 1346SOL    HW2 4938   2.010   5.068   6.060
 1347SOL     OW 4939   1.806   0.585   5.848
 1347SOL    HW1 4940   1.726   0.643   5.865
 1347SOL    HW2 4941   1.816   0.571   5.749
 1348SOL     OW 4942   0.300   5.915   5.531
 1348SOL    HW1 4943   0.382   5.886   5.481
 1348SOL    HW2 4944   0.243   5.971   5.471
 1349SOL     OW 4945   5.722   2.778   4.157
 1349SOL    HW1 4946   5.813   2.751   4.128
 1349SOL    HW2 4947   5.723   2.799   4.255
 1350SOL     OW 4948   3.916   4.610   0.288
 1350SOL    HW1 4949   3.972   4.578   0.212
 1350SOL    HW2 4950   3.869   4.532   0.330
 1351SOL     OW 4951   5.882   1.836   3.637
 1351SOL    HW1 4952   5.795   1.793   3.617
 1351SOL    HW2 4953   5.872   1.935   3.633
 1352SOL     OW 4954   0.158   0.277   2.223
 1352SOL    HW1 4955   0.073   0.225   2.218
 1352SOL    HW2 4956   0.233   0.223   2.187
 1353SOL     OW 4957   0.765   2.004   0.740
 1353SOL    HW1 4958   0.827   1.926   0.745
 1353SOL    HW2 4959   0.700   1.990   0.666
 1354SOL     OW 4960   6.829   3.689   2.203
 1354SOL    HW1 4961   6.763   3.630   2.248
 1354SOL    HW2 4962   6.852   3.766   2.262
 1355SOL     OW 4963   6.295   3.901   4.286
 1355SOL    HW1 4964   6.215   3.850   4.255
 1355SOL    HW2 4965   6.319   3.970   4.218
 1356SOL     OW 4966   3.898   2.940   2.369
 1356SOL    HW1 4967   3.990   2.904   2.349
 1356SOL    HW2 4968   3.898   3.039   2.359
 1357SOL     OW 4969   6.443   3.537   5.831
 1357SOL    HW1 4970   6.494   3.610   5.877
 1357SOL    HW2 4971   6.497   3.453   5.833
 1358SOL     OW 4972   6.268   0.134   0.067
 1358SOL    HW1 4973   6.206   0.136   0.145
 1358SOL    HW2 4974   6.286   0.039   0.041
 1359SOL     OW 4975   6.058   4.737   1.533
 1359SOL    HW1 4976   6.005   4.822   1.540
 1359SOL    HW2 4977   6.059   4.706   1.438
 1360SOL     OW 4978   3.462   3.480   0.142
 1360SOL    HW1 4979   3.509   3.567   0.158
 1360SOL    HW2 4980   3.366   3.489   0.168
 1361SOL     OW 4981   0.219   5.013   4.990
 1361SOL    HW1 4982   0.288   4.947   5.020
 1361SOL    HW2 4983   0.250   5.106   5.010
 1362SOL     OW 4984   4.122   3.305   2.632
 1362SOL    HW1 4985   4.026   3.282   2.619
 1362SOL    HW2 4986   4.177   3.222   2.633
 1363SOL     OW 4987   0.073   5.603   5.017
 1363SOL    HW1 4988   7.002   5.597   4.985
 1363SOL    HW2 4989   0.100   5.517   5.058
 1364SOL     OW 4990   4.285   4.857   6.891
 1364SOL    HW1 4991   4.286   4.776   6.950
 1364SOL    HW2 4992   4.283   4.828   6.795
 1365SOL     OW 4993   0.519   4.328   6.432
 1365SOL    HW1 4994   0.582   4.343   6.509
 1365SOL    HW2 4995   0.437   4.384   6.445
 1366SOL     OW 4996   1.902   0.033   5.373
 1366SOL    HW1 4997   1.924   6.963   5.347
 1366SOL    HW2 4998   1.975   0.068   5.432
 1367SOL     OW 4999   1.636   1.800   2.481
 1367SOL    HW1 5000   1.726   1.788   2.439
 1367SOL    HW2 5001   1.638   1.878   2.544
 1368SOL     OW 5002   5.617   6.599   4.569
 1368SOL    HW1 5003   5.561   6.637   4.495
 1368SOL    HW2 5004   5.580   6.510   4.597
 1369SOL     OW 5005   0.901   6.141   3.168
 1369SOL    HW1 5006   0.867   6.125   3.075
 1369SOL    HW2 5007   0.951   6.060   3.199
 1370SOL     OW 5008   3.077   0.617   1.282
 1370SOL    HW1 5009   3.152   0.683   1.287
 1370SOL    HW2 5010   2.999   0.652   1.333
 1371SOL     OW 5011   4.222   0.677   5.961
 1371SOL    HW1 5012   4.211   0.726   5.874
 1371SOL    HW2 5013   4.194   0.582   5.949
 1372SOL     OW 5014   2.093   2.409   1.022
 1372SOL    HW1 5015   2.193   2.401   1.024
 1372SOL    HW2 5016   2.068   2.505   1.014
 1373SOL     OW 5017   6.911   5.005   0.882
 1373SOL    HW1 5018   6.941   4.920   0.925
 1373SOL    HW2 5019   6.927   5.082   0.944
 1374SOL     OW 5020   4.021   1.938   1.100
 1374SOL    HW1 5021   4.093   2.005   1.119
 1374SOL    HW2 5022   3.932   1.982   1.104
 1375SOL     OW 5023   0.038   5.108   5.983
 1375SOL    HW1 5024   0.134   5.101   5.959
 1375SOL    HW2 5025   0.000   5.193   5.947
 1376SOL     OW 5026   4.959   2.751   3.682
 1376SOL    HW1 5027   4.978   2.664   3.727
 1376SOL    HW2 5028   4.941   2.821   3.750
 1377SOL     OW 5029   0.331   4.533   5.503
 1377SOL    HW1 5030   0.370   4.523   5.594
 1377SOL    HW2 5031   0.403   4.523   5.434
 1378SOL     OW 5032   1.004   2.648   6.793
 1378SOL    HW1 5033   1.008   2.561   6.843
 1378SOL    HW2 5034   0.946   2.712   6.842
 1379SOL     OW 5035   3.295   5.776   3.373
 1379SOL    HW1 5036   3.230   5.850   3.357
 1379SOL    HW2 5037   3.367   5.807   3.435
 1380SOL     OW 5038   6.761   6.811   2.738
 1380SOL    HW1 5039   6.728   6.773   2.652
 1380SOL    HW2 5040   6.860   6.818   2.736
 1381SOL     OW 5041   5.929   2.956   0.216
 1381SOL    HW1 5042   5.861   2.947   0.143
 1381SOL    HW2 5043   5.882   2.963   0.304
 1382SOL     OW 5044   5.859   4.861   6.222
 1382SOL    HW1 5045   5.879   4.763   6.222
 1382SOL    HW2 5046   5.879   4.899   6.132
 1383SOL     OW 5047   0.631   0.485   0.113
 1383SOL    HW1 5048   0.576   0.456   0.191
 1383SOL    HW2 5049   0.579   0.473   0.029
 1384SOL     OW 5050   4.119   1.205   3.139
 1384SOL    HW1 5051   4.195   1.149   3.173
 1384SOL    HW2 5052   4.063   1.235   3.216
 1385SOL     OW 5053   6.367   2.586   3.059
 1385SOL    HW1 5054   6.319   2.560   2.975
 1385SOL    HW2 5055   6.463   2.603   3.039
 1386SOL     OW 5056   2.154   3.205   4.395
 1386SOL    HW1 5057   2.146   3.217   4.494
 1386SOL    HW2 5058   2.196   3.116   4.375
 1387SOL     OW 5059   3.516   0.762   4.910
 1387SOL    HW1 5060   3.488   0.723   4.998
 1387SOL    HW2 5061   3.437   0.803   4.865
 1388SOL     OW 5062   6.449   0.849   4.171
 1388SOL    HW1 5063   6.382   0.914   4.134
 1388SOL    HW2 5064   6.505   0.895   4.240
 1389SOL     OW 5065   5.886   6.864   4.311
 1389SOL    HW1 5066   5.820   6.929   4.348
 1389SOL    HW2 5067   5.839   6.777   4.292
 1390SOL     OW 5068   4.130   1.788   1.400
 1390SOL    HW1 5069   4.214   1.777   1.453
 1390SOL    HW2 5070   4.146   1.758   1.305
 1391SOL     OW 5071   6.140   0.821   4.850
 1391SOL    HW1 5072   6.087   0.810   4.934
 1391SOL    HW2 5073   6.202   0.744   4.839
 1392SOL     OW 5074   5.007   5.786   0.022
 1392SOL    HW1 5075   4.912   5.754   0.030
 1392SOL    HW2 5076   5.056   5.766   0.107
 1393SOL     OW 5077   6.685   1.156   5.982
 1393SOL    HW1 5078   6.601   1.204   5.958
 1393SOL    HW2 5079   6.743   1.216   6.037
 1394SOL     OW 5080   3.951   6.959   3.660
 1394SOL    HW1 5081   4.045   6.932   3.683
 1394SOL    HW2 5082   3.887   6.907   3.716
 1395SOL     OW 5083   1.411   4.470   2.899
 1395SOL    HW1 5084   1.450   4.554   2.863
 1395SOL    HW2 5085   1.484   4.410   2.932
 1396SOL     OW 5086   2.555   1.268   4.656
 1396SOL    HW1 5087   2.502   1.213   4.592
 1396SOL    HW2 5088   2.500   1.345   4.688
 1397SOL     OW 5089   0.742   5.196   4.106
 1397SOL    HW1 5090   0.805   5.193   4.028
 1397SOL    HW2 5091   0.667   5.132   4.089
 1398SOL     OW 5092   1.132   1.598   0.842
 1398SOL    HW1 5093   1.231   1.593   0.823
 1398SOL    HW2 5094   1.113   1.678   0.899
 1399SOL     OW 5095   3.728   0.443   0.707
 1399SOL    HW1 5096   3.749   0.346   0.695
 1399SOL    HW2 5097   3.698   0.460   0.800
 1400SOL     OW 5098   6.211   0.550   4.097
 1400SOL    HW1 5099   6.158   0.554   4.182
 1400SOL    HW2 5100   6.163   0.494   4.030
 1401SOL     OW 5101   5.606   0.063   3.197
 1401SOL    HW1 5102   5.644   0.011   3.121
 1401SOL    HW2 5103   5.678   0.082   3.264
 1402SOL     OW 5104   6.063   3.653   1.730
 1402SOL    HW1 5105   6.002   3.614   1.799
 1402SOL    HW2 5106   6.023   3.637   1.639
 1403SOL     OW 5107   3.640   2.710   0.214
 1403SOL    HW1 5108   3.682   2.630   0.172
 1403SOL    HW2 5109   3.595   2.684   0.299
 1404SOL     OW 5110   4.522   6.893   1.019
 1404SOL    HW1 5111   4.606   6.947   1.028
 1404SOL    HW2 5112   4.448   6.937   1.069
 1405SOL     OW 5113   2.483   3.051   1.221
 1405SOL    HW1 5114   2.552   2.981   1.203
 1405SOL    HW2 5115   2.512   3.137   1.180
 1406SOL     OW 5116   2.905   3.503   1.353
 1406SOL    HW1 5117   2.869   3.417   1.389
 1406SOL    HW2 5118   2.980   3.535   1.410
 1407SOL     OW 5119   0.623   3.301   1.197
 1407SOL    HW1 5120   0.610   3.295   1.098
 1407SOL    HW2 5121   0.632   3.397   1.224
 1408SOL     OW 5122   5.851   5.723   6.670
 1408SOL    HW1 5123   5.783   5.790   6.640
 1408SOL    HW2 5124   5.923   5.715   6.601
 1409SOL     OW 5125   0.179   0.999   5.937
 1409SOL    HW1 5126   0.251   0.995   6.006
 1409SOL    HW2 5127   0.219   0.995   5.846
 1410SOL     OW 5128   3.699   2.070   6.308
 1410SOL    HW1 5129   3.729   2.083   6.214
 1410SOL    HW2 5130   3.712   2.154   6.360
 1411SOL     OW 5131   4.128   5.969   0.523
 1411SOL    HW1 5132   4.188   5.972   0.443
 1411SOL    HW2 5133   4.033   5.970   0.493
 1412SOL     OW 5134   1.775   2.382   0.756
 1412SOL    HW1 5135   1.711   2.452   0.726
 1412SOL    HW2 5136   1.749   2.294   0.717
 1413SOL     OW 5137   1.829   1.805   4.941
 1413SOL    HW1 5138   1.785   1.888   4.976
 1413SOL    HW2 5139   1.760   1.745   4.900
 1414SOL     OW 5140   1.265   3.620   1.991
 1414SOL    HW1 5141   1.315   3.609   2.077
 1414SOL    HW2 5142   1.179   3.667   2.008
 1415SOL     OW 5143   2.077   1.801   3.810
 1415SOL    HW1 5144   2.143   1.774   3.740
 1415SOL    HW2 5145   2.121   1.862   3.876
 1416SOL     OW 5146   4.383   6.839   5.645
 1416SOL    HW1 5147   4.377   6.835   5.744
 1416SOL    HW2 5148   4.368   6.933   5.614
 1417SOL     OW 5149   3.870   2.838   6.113
 1417SOL    HW1 5150   3.803   2.899   6.155
 1417SOL    HW2 5151   3.837   2.808   6.023
 1418SOL     OW 5152   3.943   4.344   6.904
 1418SOL    HW1 5153   3.898   4.273   6.850
 1418SOL    HW2 5154   4.006   4.301   6.969
 1419SOL     OW 5155   2.155   4.657   3.454
 1419SOL    HW1 5156   2.057   4.675   3.463
 1419SOL    HW2 5157   2.168   4.565   3.417
 1420SOL     OW 5158   3.391   5.512   3.293
 1420SOL    HW1 5159   3.319   5.455   3.256
 1420SOL    HW2 5160   3.377   5.607   3.265
 1421SOL     OW 5161   1.539   5.696   5.778
 1421SOL    HW1 5162   1.495   5.706   5.867
 1421SOL    HW2 5163   1.534   5.600   5.749
 1422SOL     OW 5164   2.618   3.271   5.963
 1422SOL    HW1 5165   2.597   3.228   5.875
 1422SOL    HW2 5166   2.717   3.280   5.973
 1423SOL     OW 5167   4.673   1.284   4.584
 1423SOL    HW1 5168   4.719   1.248   4.665
 1423SOL    HW2 5169   4.670   1.214   4.513
 1424SOL     OW 5170   5.644   2.739   6.503
 1424SOL    HW1 5171   5.743   2.724   6.514
 1424SOL    HW2 5172   5.618   2.821   6.553
 1425SOL     OW 5173   4.275   6.638   3.790
 1425SOL    HW1 5174   4.245   6.605   3.879
 1425SOL    HW2 5175   4.233   6.582   3.718
 1426SOL     OW 5176   2.842   2.164   6.989
 1426SOL    HW1 5177   2.746   2.141   6.975
 1426SOL    HW2 5178   2.882   2.195   6.903
 1427SOL     OW 5179   1.530   1.172   3.444
 1427SOL    HW1 5180   1.541   1.093   3.384
 1427SOL    HW2 5181   1.516   1.254   3.389
 1428SOL     OW 5182   6.807   3.852   3.427
 1428SOL    HW1 5183   6.892   3.804   3.407
 1428SOL    HW2 5184   6.815   3.899   3.515
 1429SOL     OW 5185   5.736   1.139   0.879
 1429SOL    HW1 5186   5.810   1.198   0.913
 1429SOL    HW2 5187   5.775   1.054   0.844
 1430SOL     OW 5188   2.021   3.488   3.626
 1430SOL    HW1 5189   2.013   3.480   3.725
 1430SOL    HW2 5190   2.028   3.585   3.600
 1431SOL     OW 5191   2.374   1.798   5.443
 1431SOL    HW1 5192   2.326   1.851   5.512
 1431SOL    HW2 5193   2.339   1.822   5.352
 1432SOL     OW 5194   2.641   1.499   1.941
 1432SOL    HW1 5195   2.684   1.435   1.876
 1432SOL    HW2 5196   2.676   1.482   2.033
 1433SOL     OW 5197   3.058   0.363   4.233
 1433SOL    HW1 5198   3.138   0.318   4.275
 1433SOL    HW2 5199   3.090   0.427   4.163
 1434SOL     OW 5200   0.049   3.539   6.674
 1434SOL    HW1 5201   0.141   3.575   6.689
 1434SOL    HW2 5202   7.011   3.576   6.744
 1435SOL     OW 5203   0.972   0.001   4.947
 1435SOL    HW1 5204   1.040   0.057   4.901
 1435SOL    HW2 5205   0.980   6.930   4.916
 1436SOL     OW 5206   5.692   1.754   1.095
 1436SOL    HW1 5207   5.769   1.797   1.048
 1436SOL    HW2 5208   5.674   1.801   1.181
 1437SOL     OW 5209   4.549   0.447   5.796
 1437SOL    HW1 5210   4.614   0.415   5.727
 1437SOL    HW2 5211   4.555   0.389   5.877
 1438SOL     OW 5212   2.587   0.590   1.691
 1438SOL    HW1 5213   2.561   0.624   1.781
 1438SOL    HW2 5214   2.565   0.658   1.621
 1439SOL     OW 5215   6.816   5.149   0.072
 1439SOL    HW1 5216   6.750   5.083   0.108
 1439SOL    HW2 5217   6.889   5.163   0.138
 1440SOL     OW 5218   2.877   3.460   3.261
 1440SOL    HW1 5219   2.930   3.544   3.258
 1440SOL    HW2 5220   2.915   3.394   3.195
 1441SOL     OW 5221   0.018   2.617   3.410
 1441SOL    HW1 5222   0.005   2.711   3.442
 1441SOL    HW2 5223   0.058   2.617   3.319
 1442SOL     OW 5224   4.810   4.560   0.583
 1442SOL    HW1 5225   4.731   4.528   0.530
 1442SOL    HW2 5226   4.804   4.659   0.596
 1443SOL     OW 5227   1.027   1.848   3.341
 1443SOL    HW1 5228   1.050   1.916   3.271
 1443SOL    HW2 5229   1.111   1.813   3.382
 1444SOL     OW 5230   4.116   1.155   3.537
 1444SOL    HW1 5231   4.168   1.070   3.531
 1444SOL    HW2 5232   4.178   1.231   3.555
 1445SOL     OW 5233   6.422   2.908   2.025
 1445SOL    HW1 5234   6.356   2.876   1.957
 1445SOL    HW2 5235   6.495   2.839   2.035
 1446SOL     OW 5236   3.556   1.805   1.418
 1446SOL    HW1 5237   3.647   1.795   1.378
 1446SOL    HW2 5238   3.541   1.902   1.441
 1447SOL     OW 5239   6.461   1.208   4.875
 1447SOL    HW1 5240   6.519   1.223   4.955
 1447SOL    HW2 5241   6.474   1.115   4.842
 1448SOL     OW 5242   5.631   0.934   6.195
 1448SOL    HW1 5243   5.672   1.025   6.187
 1448SOL    HW2 5244   5.595   0.906   6.106
 1449SOL     OW 5245   4.874   5.610   1.182
 1449SOL    HW1 5246   4.964   5.643   1.156
 1449SOL    HW2 5247   4.882   5.546   1.258
 1450SOL     OW 5248   5.770   2.690   3.313
 1450SOL    HW1 5249   5.771   2.752   3.234
 1450SOL    HW2 5250   5.685   2.702   3.363
 1451SOL     OW 5251   1.563   6.586   2.530
 1451SOL    HW1 5252   1.524   6.633   2.609
 1451SOL    HW2 5253   1.534   6.490   2.531
 1452SOL     OW 5254   4.916   0.836   5.714
 1452SOL    HW1 5255   4.946   0.769   5.646
 1452SOL    HW2 5256   4.918   0.794   5.805
 1453SOL     OW 5257   5.305   4.707   5.331
 1453SOL    HW1 5258   5.231   4.729   5.395
 1453SOL    HW2 5259   5.324   4.788   5.275
 1454SOL     OW 5260   4.829   3.285   1.811
 1454SOL    HW1 5261   4.855   3.229   1.733
 1454SOL    HW2 5262   4.817   3.227   1.891
 1455SOL     OW 5263   1.441   2.091   1.767
 1455SOL    HW1 5264   1.480   2.171   1.814
 1455SOL    HW2 5265   1.349   2.113   1.735
 1456SOL     OW 5266   6.491   6.496   4.431
 1456SOL    HW1 5267   6.431   6.574   4.447
 1456SOL    HW2 5268   6.436   6.413   4.427
 1457SOL     OW 5269   2.012   0.677   3.375
 1457SOL    HW1 5270   2.056   0.704   3.290
 1457SOL    HW2 5271   1.922   0.639   3.356
 1458SOL     OW 5272   5.793   6.199   6.393
 1458SOL    HW1 5273   5.825   6.115   6.349
 1458SOL    HW2 5274   5.833   6.279   6.347
 1459SOL     OW 5275   2.578   6.522   6.799
 1459SOL    HW1 5276   2.650   6.519   6.869
 1459SOL    HW2 5277   2.621   6.534   6.709
 1460SOL     OW 5278   1.443   0.175   0.014
 1460SOL    HW1 5279   1.364   0.134   6.993
 1460SOL    HW2 5280   1.461   0.264   6.997
 1461SOL     OW 5281   5.646   4.426   2.530
 1461SOL    HW1 5282   5.709   4.360   2.489
 1461SOL    HW2 5283   5.552   4.401   2.508
 1462SOL     OW 5284   5.681   0.925   0.292
 1462SOL    HW1 5285   5.765   0.956   0.247
 1462SOL    HW2 5286   5.683   0.825   0.300
 1463SOL     OW 5287   1.128   1.210   5.054
 1463SOL    HW1 5288   1.054   1.152   5.019
 1463SOL    HW2 5289   1.215   1.181   5.014
 1464SOL     OW 5290   0.065   6.491   1.015
 1464SOL    HW1 5291   0.080   6.581   0.973
 1464SOL    HW2 5292   0.122   6.423   0.968
 1465SOL     OW 5293   0.373   0.079   4.764
 1465SOL    HW1 5294   0.321   0.119   4.840
 1465SOL    HW2 5295   0.367   0.139   4.684
 1466SOL     OW 5296   5.816   5.005   3.328
 1466SOL    HW1 5297   5.787   5.027   3.421
 1466SOL    HW2 5298   5.755   4.936   3.289
 1467SOL     OW 5299   0.819   1.571   3.958
 1467SOL    HW1 5300   0.905   1.523   3.978
 1467SOL    HW2 5301   0.751   1.504   3.928
 1468SOL     OW 5302   5.580   5.761   3.185
 1468SOL    HW1 5303   5.669   5.723   3.211
 1468SOL    HW2 5304   5.518   5.758   3.263
 1469SOL     OW 5305   0.813   1.469   2.211
 1469SOL    HW1 5306   0.858   1.392   2.166
 1469SOL    HW2 5307   0.803   1.449   2.308
 1470SOL     OW 5308   1.259   1.072   2.938
 1470SOL    HW1 5309   1.180   1.087   2.996
 1470SOL    HW2 5310   1.298   1.161   2.911
 1471SOL     OW 5311   0.648   6.986   0.093
 1471SOL    HW1 5312   0.722   0.028   0.110
 1471SOL    HW2 5313   0.566   7.015   0.142
 1472SOL     OW 5314   4.933   0.224   5.894
 1472SOL    HW1 5315   4.965   0.314   5.865
 1472SOL    HW2 5316   4.969   0.154   5.831
 1473SOL     OW 5317   6.061   4.001   3.091
 1473SOL    HW1 5318   6.152   4.043   3.096
 1473SOL    HW2 5319   6.068   3.909   3.053
 1474SOL     OW 5320   5.427   5.652   4.226
 1474SOL    HW1 5321   5.488   5.579   4.196
 1474SOL    HW2 5322   5.472   5.741   4.213
 1475SOL     OW 5323   6.957   1.056   2.401
 1475SOL    HW1 5324   0.030   1.049   2.428
 1475SOL    HW2 5325   6.929   0.970   2.357
 1476SOL     OW 5326   0.231   2.299   2.028
 1476SOL    HW1 5327   0.282   2.313   2.113
 1476SOL    HW2 5328   0.294   2.273   1.955
 1477SOL     OW 5329   2.961   6.145   4.971
 1477SOL    HW1 5330   2.914   6.192   5.046
 1477SOL    HW2 5331   2.898   6.081   4.928
 1478SOL     OW 5332   6.254   4.701   0.276
 1478SOL    HW1 5333   6.154   4.696   0.276
 1478SOL    HW2 5334   6.292   4.609   0.280
 1479SOL     OW 5335   1.875   4.740   0.430
 1479SOL    HW1 5336   1.789   4.733   0.380
 1479SOL    HW2 5337   1.892   4.836   0.454
 1480SOL     OW 5338   2.675   1.237   0.461
 1480SOL    HW1 5339   2.593   1.287   0.435
 1480SOL    HW2 5340   2.754   1.298   0.457
 1481SOL     OW 5341   5.791   2.222   6.084
 1481SOL    HW1 5342   5.708   2.278   6.086
 1481SOL    HW2 5343   5.869   2.280   6.060
 1482SOL     OW 5344   5.982   0.413   6.704
 1482SOL    HW1 5345   6.039   0.360   6.766
 1482SOL    HW2 5346   6.026   0.418   6.614
 1483SOL     OW 5347   5.870   2.025   0.519
 1483SOL    HW1 5348   5.812   2.088   0.469
 1483SOL    HW2 5349   5.942   2.076   0.566
 1484SOL     OW 5350   6.761   5.419   3.216
 1484SOL    HW1 5351   6.733   5.410   3.120
 1484SOL    HW2 5352   6.807   5.335   3.244
 1485SOL     OW 5353   5.284   2.481   3.951
 1485SOL    HW1 5354   5.354   2.538   3.907
 1485SOL    HW2 5355   5.308   2.385   3.941
 1486SOL     OW 5356   4.540   1.775   2.507
 1486SOL    HW1 5357   4.467   1.731   2.455
 1486SOL    HW2 5358   4.615   1.711   2.520
 1487SOL     OW 5359   6.572   0.998   5.346
 1487SOL    HW1 5360   6.660   1.002   5.395
 1487SOL    HW2 5361   6.498   1.019   5.410
 1488SOL     OW 5362   4.788   1.146   2.785
 1488SOL    HW1 5363   4.712   1.203   2.816
 1488SOL    HW2 5364   4.816   1.175   2.694
 1489SOL     OW 5365   3.236   5.213   5.046
 1489SOL    HW1 5366   3.200   5.200   5.138
 1489SOL    HW2 5367   3.255   5.124   5.005
 1490SOL     OW 5368   1.493   2.792   0.412
 1490SOL    HW1 5369   1.415   2.805   0.473
 1490SOL    HW2 5370   1.573   2.837   0.451
 1491SOL     OW 5371   0.025   2.879   3.509
 1491SOL    HW1 5372   6.960   2.918   3.484
 1491SOL    HW2 5373   0.051   2.912   3.600
 1492SOL     OW 5374   5.073   1.796   1.469
 1492SOL    HW1 5375   5.001   1.758   1.411
 1492SOL    HW2 5376   5.031   1.840   1.549
 1493SOL     OW 5377   5.123   0.152   5.228
 1493SOL    HW1 5378   5.082   0.060   5.228
 1493SOL    HW2 5379   5.059   0.217   5.268
 1494SOL     OW 5380   4.283   2.237   5.605
 1494SOL    HW1 5381   4.280   2.218   5.703
 1494SOL    HW2 5382   4.336   2.165   5.559
 1495SOL     OW 5383   0.969   3.076   2.640
 1495SOL    HW1 5384   0.988   3.031   2.727
 1495SOL    HW2 5385   0.890   3.136   2.651
 1496SOL     OW 5386   0.345   0.226   2.699
 1496SOL    HW1 5387   0.348   0.250   2.601
 1496SOL    HW2 5388   0.381   0.302   2.753
 1497SOL     OW 5389   6.580   4.698   4.403
 1497SOL    HW1 5390   6.629   4.611   4.415
 1497SOL    HW2 5391   6.514   4.709   4.478
 1498SOL     OW 5392   2.147   5.337   6.892
 1498SOL    HW1 5393   2.199   5.423   6.888
 1498SOL    HW2 5394   2.197   5.266   6.841
 1499SOL     OW 5395   1.541   3.884   5.306
 1499SOL    HW1 5396   1.525   3.811   5.373
 1499SOL    HW2 5397   1.552   3.971   5.353
 1500SOL     OW 5398   5.184   6.721   0.135
 1500SOL    HW1 5399   5.156   6.801   0.081
 1500SOL    HW2 5400   5.102   6.675   0.170
 1501SOL     OW 5401   3.791   0.167   6.087
 1501SOL    HW1 5402   3.751   0.205   6.171
 1501SOL    HW2 5403   3.887   0.192   6.082
 1502SOL     OW 5404   6.559   6.509   0.472
 1502SOL    HW1 5405   6.539   6.538   0.565
 1502SOL    HW2 5406   6.507   6.426   0.451
 1503SOL     OW 5407   3.296   3.060   6.557
 1503SOL    HW1 5408   3.300   2.968   6.594
 1503SOL    HW2 5409   3.206   3.101   6.578
 1504SOL     OW 5410   3.293   6.696   4.639
 1504SOL    HW1 5411   3.221   6.693   4.569
 1504SOL    HW2 5412   3.274   6.626   4.708
 1505SOL     OW 5413   5.904   5.978   6.018
 1505SOL    HW1 5414   5.978   6.024   5.969
 1505SOL    HW2 5415   5.817   6.024   5.997
 1506SOL     OW 5416   0.839   5.942   4.504
 1506SOL    HW1 5417   0.755   5.938   4.449
 1506SOL    HW2 5418   0.872   6.036   4.508
 1507SOL     OW 5419   1.988   1.514   4.982
 1507SOL    HW1 5420   1.892   1.496   4.963
 1507SOL    HW2 5421   2.012   1.606   4.952
 1508SOL     OW 5422   4.723   6.704   0.743
 1508SOL    HW1 5423   4.703   6.689   0.840
 1508SOL    HW2 5424   4.788   6.780   0.735
 1509SOL     OW 5425   4.339   3.033   0.091
 1509SOL    HW1 5426   4.246   3.067   0.097
 1509SOL    HW2 5427   4.399   3.105   0.054
 1510SOL     OW 5428   6.931   1.888   3.884
 1510SOL    HW1 5429   6.913   1.962   3.820
 1510SOL    HW2 5430   6.992   1.920   3.957
 1511SOL     OW 5431   2.444   2.565   0.605
 1511SOL    HW1 5432   2.395   2.526   0.527
 1511SOL    HW2 5433   2.383   2.570   0.684
 1512SOL     OW 5434   0.063   1.065   1.491
 1512SOL    HW1 5435   0.021   0.984   1.451
 1512SOL    HW2 5436   0.035   1.074   1.587
 1513SOL     OW 5437   3.696   0.183   3.711
 1513SOL    HW1 5438   3.652   0.098   3.742
 1513SOL    HW2 5439   3.626   0.252   3.692
 1514SOL     OW 5440   6.414   1.501   4.772
 1514SOL    HW1 5441   6.436   1.579   4.714
 1514SOL    HW2 5442   6.372   1.429   4.716
 1515SOL     OW 5443   6.873   4.695   4.770
 1515SOL    HW1 5444   6.935   4.770   4.791
 1515SOL    HW2 5445   6.918   4.608   4.788
 1516SOL     OW 5446   0.607   1.450   0.741
 1516SOL    HW1 5447   0.693   1.494   0.768
 1516SOL    HW2 5448   0.627   1.369   0.686
 1517SOL     OW 5449   4.739   5.653   3.198
 1517SOL    HW1 5450   4.812   5.644   3.265
 1517SOL    HW2 5451   4.669   5.716   3.232
 1518SOL     OW 5452   6.878   4.313   0.901
 1518SOL    HW1 5453   6.781   4.289   0.908
 1518SOL    HW2 5454   6.909   4.352   0.987
 1519SOL     OW 5455   6.005   4.427   0.505
 1519SOL    HW1 5456   5.943   4.349   0.497
 1519SOL    HW2 5457   6.059   4.435   0.422
 1520SOL     OW 5458   2.101   3.852   2.692
 1520SOL    HW1 5459   2.104   3.845   2.792
 1520SOL    HW2 5460   2.117   3.762   2.652
 1521SOL     OW 5461   2.330   3.117   6.864
 1521SOL    HW1 5462   2.254   3.180   6.881
 1521SOL    HW2 5463   2.294   3.033   6.822
 1522SOL     OW 5464   6.042   1.918   6.647
 1522SOL    HW1 5465   5.980   1.921   6.726
 1522SOL    HW2 5466   6.039   2.006   6.600
 1523SOL     OW 5467   6.356   2.658   1.490
 1523SOL    HW1 5468   6.455   2.655   1.509
 1523SOL    HW2 5469   6.323   2.565   1.477
 1524SOL     OW 5470   6.829   1.093   1.750
 1524SOL    HW1 5471   6.795   1.127   1.663
 1524SOL    HW2 5472   6.926   1.114   1.759
 1525SOL     OW 5473   4.361   1.896   6.016
 1525SOL    HW1 5474   4.352   1.867   5.921
 1525SOL    HW2 5475   4.355   1.996   6.022
 1526SOL     OW 5476   6.869   2.616   1.626
 1526SOL    HW1 5477   6.920   2.701   1.628
 1526SOL    HW2 5478   6.919   2.547   1.573
 1527SOL     OW 5479   3.365   1.947   5.349
 1527SOL    HW1 5480   3.416   1.954   5.435
 1527SOL    HW2 5481   3.370   1.854   5.315
 1528SOL     OW 5482   4.740   6.087   3.657
 1528SOL    HW1 5483   4.728   5.997   3.615
 1528SOL    HW2 5484   4.724   6.158   3.589
 1529SOL     OW 5485   3.415   0.046   6.128
 1529SOL    HW1 5486   3.342   0.078   6.067
 1529SOL    HW2 5487   3.489   0.007   6.074
 1530SOL     OW 5488   3.511   6.527   2.289
 1530SOL    HW1 5489   3.506   6.614   2.241
 1530SOL    HW2 5490   3.418   6.495   2.311
 1531SOL     OW 5491   6.145   0.185   4.448
 1531SOL    HW1 5492   6.135   0.280   4.476
 1531SOL    HW2 5493   6.165   0.128   4.527
 1532SOL     OW 5494   3.286   2.217   5.395
 1532SOL    HW1 5495   3.333   2.133   5.367
 1532SOL    HW2 5496   3.282   2.281   5.318
 1533SOL     OW 5497   6.430   3.175   6.809
 1533SOL    HW1 5498   6.409   3.255   6.752
 1533SOL    HW2 5499   6.347   3.147   6.858
 1534SOL     OW 5500   0.663   6.083   1.155
 1534SOL    HW1 5501   0.662   6.088   1.255
 1534SOL    HW2 5502   0.711   6.000   1.126
 1535SOL     OW 5503   4.544   4.477   3.986
 1535SOL    HW1 5504   4.549   4.572   3.954
 1535SOL    HW2 5505   4.469   4.430   3.940
 1536SOL     OW 5506   2.847   5.640   4.907
 1536SOL    HW1 5507   2.790   5.563   4.935
 1536SOL    HW2 5508   2.938   5.631   4.947
 1537SOL     OW 5509   1.710   5.411   4.958
 1537SOL    HW1 5510   1.787   5.360   4.997
 1537SOL    HW2 5511   1.687   5.372   4.868
 1538SOL     OW 5512   2.754   4.916   6.904
 1538SOL    HW1 5513   2.726   4.966   6.986
 1538SOL    HW2 5514   2.800   4.979   6.841
 1539SOL     OW 5515   3.770   4.684   1.642
 1539SOL    HW1 5516   3.791   4.781   1.651
 1539SOL    HW2 5517   3.694   4.660   1.704
 1540SOL     OW 5518   1.019   0.181   5.130
 1540SOL    HW1 5519   1.044   0.124   5.209
 1540SOL    HW2 5520   0.970   0.125   5.063
 1541SOL     OW 5521   4.722   2.601   1.217
 1541SOL    HW1 5522   4.676   2.690   1.222
 1541SOL    HW2 5523   4.654   2.529   1.206
 1542SOL     OW 5524   0.265   6.611   1.342
 1542SOL    HW1 5525   0.296   6.521   1.370
 1542SOL    HW2 5526   0.306   6.681   1.401
 1543SOL     OW 5527   3.625   3.756   4.110
 1543SOL    HW1 5528   3.602   3.851   4.130
 1543SOL    HW2 5529   3.541   3.704   4.093
 1544SOL     OW 5530   3.278   4.154   2.757
 1544SOL    HW1 5531   3.210   4.154   2.831
 1544SOL    HW2 5532   3.248   4.092   2.685
 1545SOL     OW 5533   6.000   0.379   4.733
 1545SOL    HW1 5534   6.044   0.413   4.650
 1545SOL    HW2 5535   6.021   0.440   4.810
 1546SOL     OW 5536   6.578   6.039   6.100
 1546SOL    HW1 5537   6.667   6.030   6.145
 1546SOL    HW2 5538   6.505   6.023   6.166
 1547SOL     OW 5539   2.790   5.727   2.669
 1547SOL    HW1 5540   2.822   5.802   2.726
 1547SOL    HW2 5541   2.841   5.726   2.583
 1548SOL     OW 5542   4.830   4.466   4.833
 1548SOL    HW1 5543   4.788   4.436   4.747
 1548SOL    HW2 5544   4.803   4.561   4.850
 1549SOL     OW 5545   6.638   2.616   1.497
 1549SOL    HW1 5546   6.711   2.635   1.562
 1549SOL    HW2 5547   6.651   2.671   1.414
 1550SOL     OW 5548   1.813   5.845   4.417
 1550SOL    HW1 5549   1.786   5.932   4.375
 1550SOL    HW2 5550   1.822   5.775   4.345
 1551SOL     OW 5551   2.078   2.964   1.036
 1551SOL    HW1 5552   2.039   3.045   1.081
 1551SOL    HW2 5553   2.173   2.983   1.012
 1552SOL     OW 5554   1.290   0.884   1.165
 1552SOL    HW1 5555   1.321   0.804   1.215
 1552SOL    HW2 5556   1.190   0.880   1.153
 1553SOL     OW 5557   6.161   1.672   6.561
 1553SOL    HW1 5558   6.183   1.608   6.635
 1553SOL    HW2 5559   6.142   1.762   6.599
 1554SOL     OW 5560   3.898   1.872   1.913
 1554SOL    HW1 5561   3.805   1.904   1.899
 1554SOL    HW2 5562   3.920   1.801   1.846
 1555SOL     OW 5563   3.545   1.213   5.465
 1555SOL    HW1 5564   3.447   1.203   5.487
 1555SOL    HW2 5565   3.571   1.309   5.472
 1556SOL     OW 5566   3.936   0.594   0.631
 1556SOL    HW1 5567   3.851   0.542   0.638
 1556SOL    HW2 5568   4.013   0.536   0.657
 1557SOL     OW 5569   1.783   2.327   1.303
 1557SOL    HW1 5570   1.840   2.300   1.225
 1557SOL    HW2 5571   1.687   2.331   1.274
 1558SOL     OW 5572   6.065   3.561   5.525
 1558SOL    HW1 5573   5.980   3.606   5.554
 1558SOL    HW2 5574   6.143   3.616   5.556
 1559SOL     OW 5575   1.825   4.609   3.209
 1559SOL    HW1 5576   1.824   4.637   3.113
 1559SOL    HW2 5577   1.759   4.662   3.261
 1560SOL     OW 5578   3.605   1.411   1.511
 1560SOL    HW1 5579   3.561   1.323   1.495
 1560SOL    HW2 5580   3.581   1.444   1.602
 1561SOL     OW 5581   5.763   5.715   1.956
 1561SOL    HW1 5582   5.666   5.695   1.946
 1561SOL    HW2 5583   5.790   5.788   1.893
 1562SOL     OW 5584   3.473   6.766   2.489
 1562SOL    HW1 5585   3.451   6.680   2.444
 1562SOL    HW2 5586   3.416   6.777   2.570
 1563SOL     OW 5587   4.143   2.297   4.243
 1563SOL    HW1 5588   4.069   2.276   4.179
 1563SOL    HW2 5589   4.211   2.354   4.197
 1564SOL     OW 5590   0.983   2.207   2.153
 1564SOL    HW1 5591   0.941   2.247   2.235
 1564SOL    HW2 5592   0.984   2.107   2.161
 1565SOL     OW 5593   3.613   0.579   3.951
 1565SOL    HW1 5594   3.629   0.660   4.007
 1565SOL    HW2 5595   3.647   0.595   3.858
 1566SOL     OW 5596   4.606   4.341   2.814
 1566SOL    HW1 5597   4.656   4.258   2.838
 1566SOL    HW2 5598   4.665   4.403   2.764
 1567SOL     OW 5599   5.193   6.126   5.391
 1567SOL    HW1 5600   5.240   6.120   5.303
 1567SOL    HW2 5601   5.245   6.185   5.453
 1568SOL     OW 5602   1.844   6.437   2.843
 1568SOL    HW1 5603   1.798   6.526   2.851
 1568SOL    HW2 5604   1.940   6.446   2.868
 1569SOL     OW 5605   2.423   0.134   3.474
 1569SOL    HW1 5606   2.425   0.234   3.463
 1569SOL    HW2 5607   2.475   0.091   3.400
 1570SOL     OW 5608   3.434   6.987   0.299
 1570SOL    HW1 5609   3.484   6.964   0.382
 1570SOL    HW2 5610   3.452   6.919   0.228
 1571SOL     OW 5611   0.934   2.311   3.844
 1571SOL    HW1 5612   0.969   2.390   3.894
 1571SOL    HW2 5613   1.010   2.257   3.809
 1572SOL     OW 5614   1.460   4.893   1.882
 1572SOL    HW1 5615   1.392   4.963   1.859
 1572SOL    HW2 5616   1.458   4.821   1.813
 1573SOL     OW 5617   4.827   4.781   1.062
 1573SOL    HW1 5618   4.879   4.741   0.986
 1573SOL    HW2 5619   4.873   4.760   1.148
 1574SOL     OW 5620   6.935   3.530   2.596
 1574SOL    HW1 5621   6.853   3.565   2.551
 1574SOL    HW2 5622   6.921   3.435   2.624
 1575SOL     OW 5623   0.646   1.234   0.602
 1575SOL    HW1 5624   0.637   1.143   0.644
 1575SOL    HW2 5625   0.605   1.233   0.511
 1576SOL     OW 5626   0.298   6.763   2.107
 1576SOL    HW1 5627   0.224   6.829   2.118
 1576SOL    HW2 5628   0.385   6.806   2.129
 1577SOL     OW 5629   4.052   0.139   6.177
 1577SOL    HW1 5630   4.119   0.165   6.107
 1577SOL    HW2 5631   4.092   0.071   6.238
 1578SOL     OW 5632   4.800   0.614   0.458
 1578SOL    HW1 5633   4.766   0.708   0.456
 1578SOL    HW2 5634   4.805   0.582   0.553
 1579SOL     OW 5635   2.068   2.835   1.686
 1579SOL    HW1 5636   2.070   2.772   1.764
 1579SOL    HW2 5637   2.130   2.802   1.615
 1580SOL     OW 5638   3.498   4.132   3.035
 1580SOL    HW1 5639   3.548   4.046   3.046
 1580SOL    HW2 5640   3.513   4.167   2.943
 1581SOL     OW 5641   0.197   4.104   6.115
 1581SOL    HW1 5642   0.202   4.172   6.042
 1581SOL    HW2 5643   0.184   4.150   6.203
 1582SOL     OW 5644   4.631   6.411   6.402
 1582SOL    HW1 5645   4.607   6.443   6.494
 1582SOL    HW2 5646   4.720   6.449   6.376
 1583SOL     OW 5647   1.176   5.836   5.392
 1583SOL    HW1 5648   1.228   5.898   5.333
 1583SOL    HW2 5649   1.228   5.753   5.409
 1584SOL     OW 5650   0.816   5.190   6.518
 1584SOL    HW1 5651   0.722   5.173   6.486
 1584SOL    HW2 5652   0.867   5.104   6.516
 1585SOL     OW 5653   4.133   0.089   3.162
 1585SOL    HW1 5654   4.074   0.037   3.224
 1585SOL    HW2 5655   4.099   0.078   3.068
 1586SOL     OW 5656   3.120   5.539   4.114
 1586SOL    HW1 5657   3.178   5.528   4.194
 1586SOL    HW2 5658   3.028   5.567   4.142
 1587SOL     OW 5659   2.187   5.874   6.483
 1587SOL    HW1 5660   2.143   5.963   6.472
 1587SOL    HW2 5661   2.270   5.871   6.427
 1588SOL     OW 5662   6.103   0.045   2.813
 1588SOL    HW1 5663   6.195   0.006   2.812
 1588SOL    HW2 5664   6.108   0.143   2.832
 1589SOL     OW 5665   6.722   4.066   2.774
 1589SOL    HW1 5666   6.715   4.084   2.872
 1589SOL    HW2 5667   6.630   4.062   2.734
 1590SOL     OW 5668   6.949   1.588   3.180
 1590SOL    HW1 5669   6.937   1.504   3.126
 1590SOL    HW2 5670   0.013   1.586   3.227
 1591SOL     OW 5671   0.588   6.129   1.397
 1591SOL    HW1 5672   0.540   6.200   1.345
 1591SOL    HW2 5673   0.563   6.136   1.494
 1592SOL     OW 5674   1.347   4.160   0.237
 1592SOL    HW1 5675   1.406   4.184   0.160
 1592SOL    HW2 5676   1.377   4.210   0.319
 1593SOL     OW 5677   0.601   0.176   6.637
 1593SOL    HW1 5678   0.666   0.138   6.703
 1593SOL    HW2 5679   0.516   0.122   6.639
 1594SOL     OW 5680   6.663   0.326   1.668
 1594SOL    HW1 5681   6.638   0.245   1.614
 1594SOL    HW2 5682   6.595   0.342   1.739
 1595SOL     OW 5683   1.369   3.925   6.912
 1595SOL    HW1 5684   1.373   3.966   6.820
 1595SOL    HW2 5685   1.432   3.973   6.973
 1596SOL     OW 5686   5.867   4.468   2.196
 1596SOL    HW1 5687   5.959   4.503   2.214
 1596SOL    HW2 5688   5.870   4.403   2.120
 1597SOL     OW 5689   3.412   6.435   0.763
 1597SOL    HW1 5690   3.347   6.496   0.808
 1597SOL    HW2 5691   3.395   6.341   0.793
 1598SOL     OW 5692   1.909   5.583   6.933
 1598SOL    HW1 5693   1.928   5.557   6.838
 1598SOL    HW2 5694   1.885   5.501   6.985
 1599SOL     OW 5695   4.115   5.112   3.990
 1599SOL    HW1 5696   4.091   5.037   3.928
 1599SOL    HW2 5697   4.149   5.074   4.076
 1600SOL     OW 5698   3.339   7.014   2.885
 1600SOL    HW1 5699   3.310   6.971   2.800
 1600SOL    HW2 5700   3.425   6.974   2.915
 1601SOL     OW 5701   6.147   6.479   4.092
 1601SOL    HW1 5702   6.123   6.382   4.098
 1601SOL    HW2 5703   6.160   6.504   3.996
 1602SOL     OW 5704   4.231   5.301   3.828
 1602SOL    HW1 5705   4.169   5.237   3.873
 1602SOL    HW2 5706   4.187   5.391   3.822
 1603SOL     OW 5707   2.830   6.241   4.079
 1603SOL    HW1 5708   2.855   6.163   4.136
 1603SOL    HW2 5709   2.890   6.244   3.999
 1604SOL     OW 5710   3.793   4.863   2.180
 1604SOL    HW1 5711   3.731   4.810   2.122
 1604SOL    HW2 5712   3.755   4.868   2.273
 1605SOL     OW 5713   4.517   4.908   1.564
 1605SOL    HW1 5714   4.473   4.851   1.634
 1605SOL    HW2 5715   4.577   4.851   1.508
 1606SOL     OW 5716   4.240   6.213   4.566
 1606SOL    HW1 5717   4.329   6.180   4.535
 1606SOL    HW2 5718   4.211   6.290   4.510
 1607SOL     OW 5719   4.623   6.030   2.961
 1607SOL    HW1 5720   4.562   6.022   2.883
 1607SOL    HW2 5721   4.680   5.948   2.968
 1608SOL     OW 5722   6.552   0.357   2.908
 1608SOL    HW1 5723   6.579   0.261   2.918
 1608SOL    HW2 5724   6.460   0.369   2.944
 1609SOL     OW 5725   2.865   6.677   0.904
 1609SOL    HW1 5726   2.862   6.663   0.805
 1609SOL    HW2 5727   2.937   6.620   0.943
 1610SOL     OW 5728   4.494   6.900   0.117
 1610SOL    HW1 5729   4.578   6.863   0.077
 1610SOL    HW2 5730   4.441   6.947   0.045
 1611SOL     OW 5731   0.837   4.096   1.267
 1611SOL    HW1 5732   0.832   4.143   1.355
 1611SOL    HW2 5733   0.750   4.049   1.250
 1612SOL     OW 5734   3.114   6.261   1.159
 1612SOL    HW1 5735   3.099   6.181   1.101
 1612SOL    HW2 5736   3.032   6.281   1.212
 1613SOL     OW 5737   0.217   5.826   2.728
 1613SOL    HW1 5738   0.183   5.737   2.696
 1613SOL    HW2 5739   0.248   5.818   2.822
 1614SOL     OW 5740   5.604   2.753   6.887
 1614SOL    HW1 5741   5.651   2.732   6.802
 1614SOL    HW2 5742   5.600   2.671   6.945
 1615SOL     OW 5743   0.461   4.968   6.308
 1615SOL    HW1 5744   0.399   4.965   6.230
 1615SOL    HW2 5745   0.505   4.879   6.320
 1616SOL     OW 5746   2.579   1.373   4.946
 1616SOL    HW1 5747   2.547   1.428   4.869
 1616SOL    HW2 5748   2.630   1.432   5.010
 1617SOL     OW 5749   4.747   6.540   3.482
 1617SOL    HW1 5750   4.749   6.586   3.572
 1617SOL    HW2 5751   4.837   6.501   3.463
 1618SOL     OW 5752   2.365   6.095   3.070
 1618SOL    HW1 5753   2.428   6.019   3.052
 1618SOL    HW2 5754   2.411   6.182   3.055
 1619SOL     OW 5755   1.043   5.295   0.021
 1619SOL    HW1 5756   1.097   5.268   0.101
 1619SOL    HW2 5757   0.983   5.372   0.044
 1620SOL     OW 5758   3.474   5.176   0.963
 1620SOL    HW1 5759   3.495   5.079   0.971
 1620SOL    HW2 5760   3.536   5.218   0.897
 1621SOL     OW 5761   5.909   6.428   1.171
 1621SOL    HW1 5762   5.880   6.523   1.169
 1621SOL    HW2 5763   5.958   6.410   1.257
 1622SOL     OW 5764   1.018   3.582   4.759
 1622SOL    HW1 5765   1.108   3.598   4.800
 1622SOL    HW2 5766   0.958   3.660   4.778
 1623SOL     OW 5767   0.539   2.025   4.621
 1623SOL    HW1 5768   0.478   2.079   4.562
 1623SOL    HW2 5769   0.556   2.076   4.706
 1624SOL     OW 5770   4.193   1.129   0.958
 1624SOL    HW1 5771   4.101   1.162   0.938
 1624SOL    HW2 5772   4.246   1.203   1.001
 1625SOL     OW 5773   2.224   5.101   0.654
 1625SOL    HW1 5774   2.175   5.019   0.684
 1625SOL    HW2 5775   2.265   5.085   0.564
 1626SOL     OW 5776   3.204   2.208   1.340
 1626SOL    HW1 5777   3.225   2.255   1.254
 1626SOL    HW2 5778   3.106   2.187   1.344
 1627SOL     OW 5779   4.626   2.610   3.813
 1627SOL    HW1 5780   4.630   2.679   3.741
 1627SOL    HW2 5781   4.630   2.519   3.772
 1628SOL     OW 5782   5.118   5.727   6.557
 1628SOL    HW1 5783   5.181   5.664   6.601
 1628SOL    HW2 5784   5.144   5.821   6.578
 1629SOL     OW 5785   2.733   1.851   2.714
 1629SOL    HW1 5786   2.691   1.794   2.644
 1629SOL    HW2 5787   2.716   1.947   2.694
 1630SOL     OW 5788   0.630   4.516   0.327
 1630SOL    HW1 5789   0.532   4.530   0.340
 1630SOL    HW2 5790   0.645   4.453   0.252
 1631SOL     OW 5791   0.407   3.555   0.629
 1631SOL    HW1 5792   0.356   3.506   0.558
 1631SOL    HW2 5793   0.486   3.601   0.588
 1632SOL     OW 5794   6.156   4.301   2.503
 1632SOL    HW1 5795   6.240   4.283   2.451
 1632SOL    HW2 5796   6.108   4.378   2.461
 1633SOL     OW 5797   4.910   3.553   3.962
 1633SOL    HW1 5798   4.915   3.476   4.025
 1633SOL    HW2 5799   4.981   3.544   3.892
 1634SOL     OW 5800   4.855   0.672   4.629
 1634SOL    HW1 5801   4.843   0.616   4.711
 1634SOL    HW2 5802   4.931   0.735   4.643
 1635SOL     OW 5803   3.894   5.298   5.223
 1635SOL    HW1 5804   3.938   5.297   5.133
 1635SOL    HW2 5805   3.886   5.204   5.257
 1636SOL     OW 5806   5.042   5.588   1.533
 1636SOL    HW1 5807   5.070   5.527   1.607
 1636SOL    HW2 5808   4.959   5.551   1.490
 1637SOL     OW 5809   0.108   6.942   2.246
 1637SOL    HW1 5810   0.031   6.999   2.217
 1637SOL    HW2 5811   0.192   6.996   2.246
 1638SOL     OW 5812   6.602   3.374   1.790
 1638SOL    HW1 5813   6.504   3.352   1.788
 1638SOL    HW2 5814   6.617   3.462   1.744
 1639SOL     OW 5815   5.484   3.783   2.224
 1639SOL    HW1 5816   5.430   3.865   2.243
 1639SOL    HW2 5817   5.535   3.796   2.138
 1640SOL     OW 5818   6.408   0.240   0.684
 1640SOL    HW1 5819   6.316   0.223   0.719
 1640SOL    HW2 5820   6.474   0.187   0.738
 1641SOL     OW 5821   0.132   2.470   2.858
 1641SOL    HW1 5822   0.135   2.545   2.924
 1641SOL    HW2 5823   0.038   2.456   2.827
 1642SOL     OW 5824   5.638   2.567   5.744
 1642SOL    HW1 5825   5.731   2.541   5.719
 1642SOL    HW2 5826   5.640   2.634   5.818
 1643SOL     OW 5827   3.592   5.279   4.503
 1643SOL    HW1 5828   3.524   5.282   4.430
 1643SOL    HW2 5829   3.610   5.184   4.528
 1644SOL     OW 5830   5.908   3.111   0.486
 1644SOL    HW1 5831   5.919   3.012   0.500
 1644SOL    HW2 5832   5.815   3.138   0.511
 1645SOL     OW 5833   2.772   1.091   6.015
 1645SOL    HW1 5834   2.719   1.074   6.099
 1645SOL    HW2 5835   2.710   1.125   5.944
 1646SOL     OW 5836   0.954   5.516   0.500
 1646SOL    HW1 5837   1.027   5.513   0.568
 1646SOL    HW2 5838   0.957   5.433   0.444
 1647SOL     OW 5839   6.263   2.505   4.498
 1647SOL    HW1 5840   6.297   2.470   4.585
 1647SOL    HW2 5841   6.254   2.604   4.502
 1648SOL     OW 5842   5.318   6.182   0.744
 1648SOL    HW1 5843   5.341   6.259   0.805
 1648SOL    HW2 5844   5.229   6.200   0.701
 1649SOL     OW 5845   3.107   0.637   3.351
 1649SOL    HW1 5846   3.051   0.556   3.366
 1649SOL    HW2 5847   3.049   0.713   3.323
 1650SOL     OW 5848   2.646   5.486   6.681
 1650SOL    HW1 5849   2.610   5.578   6.699
 1650SOL    HW2 5850   2.722   5.492   6.616
 1651SOL     OW 5851   1.017   2.915   3.980
 1651SOL    HW1 5852   0.922   2.903   3.954
 1651SOL    HW2 5853   1.052   2.830   4.019
 1652SOL     OW 5854   0.836   2.859   1.382
 1652SOL    HW1 5855   0.879   2.948   1.395
 1652SOL    HW2 5856   0.766   2.845   1.453
 1653SOL     OW 5857   6.680   5.206   2.583
 1653SOL    HW1 5858   6.585   5.221   2.559
 1653SOL    HW2 5859   6.732   5.291   2.572
 1654SOL     OW 5860   0.504   3.111   2.067
 1654SOL    HW1 5861   0.551   3.027   2.039
 1654SOL    HW2 5862   0.471   3.101   2.161
 1655SOL     OW 5863   6.909   0.702   4.556
 1655SOL    HW1 5864   6.830   0.642   4.549
 1655SOL    HW2 5865   6.990   0.653   4.522
 1656SOL     OW 5866   2.137   5.398   4.541
 1656SOL    HW1 5867   2.175   5.487   4.568
 1656SOL    HW2 5868   2.193   5.359   4.468
 1657SOL     OW 5869   0.025   0.586   5.703
 1657SOL    HW1 5870   6.953   0.603   5.723
 1657SOL    HW2 5871   0.039   0.488   5.687
 1658SOL     OW 5872   6.844   0.046   0.425
 1658SOL    HW1 5873   6.813   0.094   0.343
 1658SOL    HW2 5874   6.770   0.045   0.492
 1659SOL     OW 5875   4.197   6.834   6.623
 1659SOL    HW1 5876   4.142   6.751   6.634
 1659SOL    HW2 5877   4.139   6.915   6.632
 1660SOL     OW 5878   1.645   6.708   2.035
 1660SOL    HW1 5879   1.633   6.610   2.020
 1660SOL    HW2 5880   1.624   6.757   1.950
 1661SOL     OW 5881   3.299   5.173   2.712
 1661SOL    HW1 5882   3.268   5.082   2.741
 1661SOL    HW2 5883   3.384   5.164   2.660
 1662SOL     OW 5884   6.875   1.461   5.511
 1662SOL    HW1 5885   6.893   1.557   5.490
 1662SOL    HW2 5886   6.888   1.445   5.609
 1663SOL     OW 5887   4.545   4.993   1.203
 1663SOL    HW1 5888   4.642   4.971   1.194
 1663SOL    HW2 5889   4.502   4.930   1.268
 1664SOL     OW 5890   0.484   6.987   5.083
 1664SOL    HW1 5891   0.471   0.063   5.086
 1664SOL    HW2 5892   0.395   6.943   5.080
 1665SOL     OW 5893   2.343   3.852   1.343
 1665SOL    HW1 5894   2.275   3.884   1.409
 1665SOL    HW2 5895   2.357   3.754   1.355
 1666SOL     OW 5896   5.604   0.198   6.233
 1666SOL    HW1 5897   5.651   0.274   6.188
 1666SOL    HW2 5898   5.520   0.176   6.183
 1667SOL     OW 5899   0.516   6.839   0.816
 1667SOL    HW1 5900   0.570   6.830   0.900
 1667SOL    HW2 5901   0.554   6.778   0.746
 1668SOL     OW 5902   4.978   4.493   3.715
 1668SOL    HW1 5903   5.006   4.424   3.783
 1668SOL    HW2 5904   4.951   4.446   3.631
 1669SOL     OW 5905   0.343   3.681   5.432
 1669SOL    HW1 5906   0.251   3.692   5.470
 1669SOL    HW2 5907   0.339   3.688   5.333
 1670SOL     OW 5908   1.838   4.688   6.210
 1670SOL    HW1 5909   1.805   4.764   6.153
 1670SOL    HW2 5910   1.881   4.619   6.151
 1671SOL     OW 5911   4.923   1.654   1.969
 1671SOL    HW1 5912   4.907   1.743   2.011
 1671SOL    HW2 5913   4.838   1.619   1.929
 1672SOL     OW 5914   0.606   2.854   0.047
 1672SOL    HW1 5915   0.511   2.879   0.066
 1672SOL    HW2 5916   0.640   2.909   6.995
 1673SOL     OW 5917   2.331   1.514   4.383
 1673SOL    HW1 5918   2.414   1.469   4.417
 1673SOL    HW2 5919   2.284   1.559   4.459
 1674SOL     OW 5920   4.808   2.780   2.572
 1674SOL    HW1 5921   4.824   2.853   2.505
 1674SOL    HW2 5922   4.828   2.691   2.530
 1675SOL     OW 5923   5.659   0.717   1.384
 1675SOL    HW1 5924   5.589   0.670   1.329
 1675SOL    HW2 5925   5.693   0.796   1.334
 1676SOL     OW 5926   2.143   2.152   2.995
 1676SOL    HW1 5927   2.075   2.145   3.068
 1676SOL    HW2 5928   2.111   2.215   2.925
 1677SOL     OW 5929   4.130   3.688   3.503
 1677SOL    HW1 5930   4.125   3.588   3.513
 1677SOL    HW2 5931   4.102   3.713   3.410
 1678SOL     OW 5932   0.501   6.528   0.916
 1678SOL    HW1 5933   0.509   6.521   0.816
 1678SOL    HW2 5934   0.574   6.587   0.951
 1679SOL     OW 5935   2.020   2.017   5.128
 1679SOL    HW1 5936   2.000   2.005   5.226
 1679SOL    HW2 5937   1.934   2.027   5.078
 1680SOL     OW 5938   4.991   2.965   4.591
 1680SOL    HW1 5939   5.060   2.893   4.601
 1680SOL    HW2 5940   4.917   2.949   4.656
 1681SOL     OW 5941   1.904   5.998   3.872
 1681SOL    HW1 5942   1.838   5.972   3.801
 1681SOL    HW2 5943   1.945   6.085   3.848
 1682SOL     OW 5944   2.539   6.704   5.287
 1682SOL    HW1 5945   2.597   6.785   5.294
 1682SOL    HW2 5946   2.523   6.666   5.378
 1683SOL     OW 5947   5.641   4.926   2.724
 1683SOL    HW1 5948   5.736   4.905   2.701
 1683SOL    HW2 5949   5.597   4.843   2.760
 1684SOL     OW 5950   1.670   5.062   1.730
 1684SOL    HW1 5951   1.734   4.998   1.687
 1684SOL    HW2 5952   1.604   5.010   1.785
 1685SOL     OW 5953   1.088   1.715   5.584
 1685SOL    HW1 5954   1.144   1.764   5.517
 1685SOL    HW2 5955   1.128   1.726   5.675
 1686SOL     OW 5956   4.740   4.914   3.535
 1686SOL    HW1 5957   4.720   4.816   3.538
 1686SOL    HW2 5958   4.669   4.965   3.584
 1687SOL     OW 5959   0.078   3.547   2.374
 1687SOL    HW1 5960   0.030   3.535   2.288
 1687SOL    HW2 5961   0.019   3.519   2.450
 1688SOL     OW 5962   2.469   2.296   3.687
 1688SOL    HW1 5963   2.470   2.387   3.646
 1688SOL    HW2 5964   2.424   2.232   3.625
 1689SOL     OW 5965   6.220   0.640   2.183
 1689SOL    HW1 5966   6.282   0.710   2.219
 1689SOL    HW2 5967   6.213   0.649   2.084
 1690SOL     OW 5968   0.597   3.878   4.201
 1690SOL    HW1 5969   0.580   3.883   4.299
 1690SOL    HW2 5970   0.643   3.792   4.180
 1691SOL     OW 5971   5.119   3.142   4.770
 1691SOL    HW1 5972   5.150   3.095   4.853
 1691SOL    HW2 5973   5.090   3.074   4.703
 1692SOL     OW 5974   5.946   5.104   2.028
 1692SOL    HW1 5975   6.017   5.041   1.997
 1692SOL    HW2 5976   5.954   5.191   1.979
 1693SOL     OW 5977   6.516   0.909   5.806
 1693SOL    HW1 5978   6.549   1.003   5.796
 1693SOL    HW2 5979   6.441   0.893   5.742
 1694SOL     OW 5980   5.770   1.027   4.885
 1694SOL    HW1 5981   5.714   1.080   4.949
 1694SOL    HW2 5982   5.775   0.932   4.916
 1695SOL     OW 5983   3.867   0.505   6.664
 1695SOL    HW1 5984   3.821   0.416   6.669
 1695SOL    HW2 5985   3.873   0.534   6.569
 1696SOL     OW 5986   4.507   5.776   7.020
 1696SOL    HW1 5987   4.446   5.718   0.050
 1696SOL    HW2 5988   4.597   5.732   7.012
 1697SOL     OW 5989   6.082   2.082   1.378
 1697SOL    HW1 5990   6.014   2.015   1.408
 1697SOL    HW2 5991   6.036   2.169   1.358
 1698SOL     OW 5992   3.199   0.816   2.062
 1698SOL    HW1 5993   3.296   0.799   2.080
 1698SOL    HW2 5994   3.188   0.906   2.020
 1699SOL     OW 5995   2.794   0.941   6.773
 1699SOL    HW1 5996   2.782   0.908   6.867
 1699SOL    HW2 5997   2.888   0.972   6.760
 1700SOL     OW 5998   6.114   3.345   3.237
 1700SOL    HW1 5999   6.136   3.336   3.140
 1700SOL    HW2 6000   6.099   3.254   3.276
 1701SOL     OW 6001   6.629   4.692   4.886
 1701SOL    HW1 6002   6.645   4.653   4.977
 1701SOL    HW2 6003   6.715   4.695   4.835
 1702SOL     OW 6004   1.780   1.869   5.891
 1702SOL    HW1 6005   1.805   1.837   5.799
 1702SOL    HW2 6006   1.714   1.944   5.883
 1703SOL     OW 6007   3.150   1.688   6.451
 1703SOL    HW1 6008   3.053   1.672   6.470
 1703SOL    HW2 6009   3.162   1.708   6.354
 1704SOL     OW 6010   2.768   1.612   0.701
 1704SOL    HW1 6011   2.691   1.640   0.643
 1704SOL    HW2 6012   2.853   1.621   0.649
 1705SOL     OW 6013   3.550   1.477   1.770
 1705SOL    HW1 6014   3.472   1.433   1.813
 1705SOL    HW2 6015   3.605   1.524   1.839
 1706SOL     OW 6016   4.382   2.076   0.719
 1706SOL    HW1 6017   4.397   2.031   0.631
 1706SOL    HW2 6018   4.324   2.018   0.777
 1707SOL     OW 6019   4.532   1.189   2.370
 1707SOL    HW1 6020   4.536   1.288   2.354
 1707SOL    HW2 6021   4.509   1.172   2.466
 1708SOL     OW 6022   3.326   5.220   2.187
 1708SOL    HW1 6023   3.310   5.287   2.114
 1708SOL    HW2 6024   3.375   5.141   2.151
 1709SOL     OW 6025   5.306   5.923   0.859
 1709SOL    HW1 6026   5.330   6.018   0.836
 1709SOL    HW2 6027   5.223   5.897   0.810
 1710SOL     OW 6028   4.451   5.346   3.027
 1710SOL    HW1 6029   4.437   5.247   3.022
 1710SOL    HW2 6030   4.480   5.370   3.120
 1711SOL     OW 6031   3.389   6.038   6.110
 1711SOL    HW1 6032   3.438   5.954   6.131
 1711SOL    HW2 6033   3.437   6.116   6.150
 1712SOL     OW 6034   0.348   2.230   4.504
 1712SOL    HW1 6035   0.262   2.266   4.467
 1712SOL    HW2 6036   0.424   2.260   4.446
 1713SOL     OW 6037   3.956   0.603   2.920
 1713SOL    HW1 6038   3.884   0.670   2.935
 1713SOL    HW2 6039   3.916   0.511   2.913
 1714SOL     OW 6040   3.552   2.784   6.829
 1714SOL    HW1 6041   3.592   2.773   6.738
 1714SOL    HW2 6042   3.625   2.787   6.897
 1715SOL     OW 6043   1.263   6.516   2.034
 1715SOL    HW1 6044   1.313   6.603   2.033
 1715SOL    HW2 6045   1.167   6.532   2.057
 1716SOL     OW 6046   4.749   0.591   4.079
 1716SOL    HW1 6047   4.721   0.510   4.028
 1716SOL    HW2 6048   4.682   0.610   4.151
 1717SOL     OW 6049   3.893   5.992   5.516
 1717SOL    HW1 6050   3.971   5.940   5.483
 1717SOL    HW2 6051   3.814   5.931   5.525
 1718SOL     OW 6052   2.137   2.575   2.128
 1718SOL    HW1 6053   2.092   2.633   2.197
 1718SOL    HW2 6054   2.172   2.492   2.172
 1719SOL     OW 6055   0.839   4.813   1.882
 1719SOL    HW1 6056   0.758   4.853   1.840
 1719SOL    HW2 6057   0.823   4.716   1.901
 1720SOL     OW 6058   6.851   2.757   5.704
 1720SOL    HW1 6059   6.764   2.731   5.744
 1720SOL    HW2 6060   6.837   2.831   5.637
 1721SOL     OW 6061   1.006   1.586   1.726
 1721SOL    HW1 6062   0.959   1.670   1.752
 1721SOL    HW2 6063   1.078   1.607   1.660
 1722SOL     OW 6064   3.080   2.017   2.914
 1722SOL    HW1 6065   3.032   2.105   2.909
 1722SOL    HW2 6066   3.165   2.023   2.862
 1723SOL     OW 6067   5.108   2.209   0.051
 1723SOL    HW1 6068   5.019   2.179   0.016
 1723SOL    HW2 6069   5.096   2.290   0.109
 1724SOL     OW 6070   6.297   2.404   1.459
 1724SOL    HW1 6071   6.336   2.316   1.431
 1724SOL    HW2 6072   6.204   2.390   1.492
 1725SOL     OW 6073   2.408   5.335   6.538
 1725SOL    HW1 6074   2.426   5.328   6.440
 1725SOL    HW2 6075   2.490   5.309   6.588
 1726SOL     OW 6076   5.580   4.360   3.757
 1726SOL    HW1 6077   5.577   4.411   3.843
 1726SOL    HW2 6078   5.663   4.304   3.755
 1727SOL     OW 6079   2.940   3.578   3.555
 1727SOL    HW1 6080   3.014   3.603   3.493
 1727SOL    HW2 6081   2.853   3.578   3.506
 1728SOL     OW 6082   4.749   3.197   5.295
 1728SOL    HW1 6083   4.742   3.097   5.294
 1728SOL    HW2 6084   4.680   3.234   5.358
 1729SOL     OW 6085   1.892   3.920   2.045
 1729SOL    HW1 6086   1.823   3.990   2.061
 1729SOL    HW2 6087   1.983   3.960   2.053
 1730SOL     OW 6088   2.674   4.826   5.738
 1730SOL    HW1 6089   2.584   4.852   5.774
 1730SOL    HW2 6090   2.700   4.737   5.775
 1731SOL     OW 6091   6.010   4.013   3.890
 1731SOL    HW1 6092   6.072   4.086   3.921
 1731SOL    HW2 6093   5.984   3.956   3.969
 1732SOL     OW 6094   1.982   5.135   6.701
 1732SOL    HW1 6095   1.964   5.057   6.640
 1732SOL    HW2 6096   2.023   5.210   6.649
 1733SOL     OW 6097   2.580   3.507   0.208
 1733SOL    HW1 6098   2.532   3.431   0.164
 1733SOL    HW2 6099   2.538   3.594   0.181
 1734SOL     OW 6100   6.859   2.972   1.331
 1734SOL    HW1 6101   6.848   3.006   1.424
 1734SOL    HW2 6102   6.926   2.898   1.331
 1735SOL     OW 6103   3.893   5.551   6.740
 1735SOL    HW1 6104   3.907   5.458   6.774
 1735SOL    HW2 6105   3.802   5.583   6.764
 1736SOL     OW 6106   5.061   3.593   1.078
 1736SOL    HW1 6107   5.071   3.574   1.176
 1736SOL    HW2 6108   5.071   3.691   1.062
 1737SOL     OW 6109   4.568   1.509   4.350
 1737SOL    HW1 6110   4.627   1.578   4.392
 1737SOL    HW2 6111   4.504   1.475   4.419
 1738SOL     OW 6112   0.978   3.582   3.964
 1738SOL    HW1 6113   0.968   3.496   4.013
 1738SOL    HW2 6114   1.053   3.574   3.898
 1739SOL     OW 6115   5.087   0.133   4.391
 1739SOL    HW1 6116   5.055   0.221   4.425
 1739SOL    HW2 6117   5.078   0.130   4.292
 1740SOL     OW 6118   6.908   2.136   4.245
 1740SOL    HW1 6119   6.900   2.157   4.148
 1740SOL    HW2 6120   6.849   2.196   4.298
 1741SOL     OW 6121   1.121   1.910   4.603
 1741SOL    HW1 6122   1.060   1.831   4.596
 1741SOL    HW2 6123   1.125   1.957   4.515
 1742SOL     OW 6124   6.148   5.893   6.250
 1742SOL    HW1 6125   6.150   5.967   6.182
 1742SOL    HW2 6126   6.139   5.932   6.341
 1743SOL     OW 6127   1.458   0.901   3.059
 1743SOL    HW1 6128   1.529   0.910   2.989
 1743SOL    HW2 6129   1.368   0.914   3.017
 1744SOL     OW 6130   5.064   2.287   3.309
 1744SOL    HW1 6131   5.102   2.294   3.401
 1744SOL    HW2 6132   4.992   2.218   3.308
 1745SOL     OW 6133   6.358   6.339   1.447
 1745SOL    HW1 6134   6.391   6.266   1.507
 1745SOL    HW2 6135   6.435   6.381   1.400
 1746SOL     OW 6136   1.443   4.116   3.269
 1746SOL    HW1 6137   1.522   4.153   3.318
 1746SOL    HW2 6138   1.419   4.027   3.307
 1747SOL     OW 6139   3.184   1.132   2.096
 1747SOL    HW1 6140   3.172   1.138   2.195
 1747SOL    HW2 6141   3.109   1.180   2.050
 1748SOL     OW 6142   6.986   1.649   4.183
 1748SOL    HW1 6143   6.985   1.747   4.161
 1748SOL    HW2 6144   6.963   1.596   4.102
 1749SOL     OW 6145   2.699   5.184   1.332
 1749SOL    HW1 6146   2.726   5.129   1.253
 1749SOL    HW2 6147   2.657   5.125   1.401
 1750SOL     OW 6148   4.620   0.690   5.871
 1750SOL    HW1 6149   4.586   0.686   5.965
 1750SOL    HW2 6150   4.613   0.600   5.829
 1751SOL     OW 6151   5.974   2.587   5.029
 1751SOL    HW1 6152   5.899   2.607   5.092
 1751SOL    HW2 6153   6.008   2.672   4.989
 1752SOL     OW 6154   6.473   0.835   1.336
 1752SOL    HW1 6155   6.538   0.784   1.280
 1752SOL    HW2 6156   6.417   0.770   1.389
 1753SOL     OW 6157   6.126   1.310   1.734
 1753SOL    HW1 6158   6.216   1.282   1.767
 1753SOL    HW2 6159   6.082   1.234   1.687
 1754SOL     OW 6160   2.995   5.622   5.620
 1754SOL    HW1 6161   2.931   5.698   5.629
 1754SOL    HW2 6162   2.954   5.551   5.564
 1755SOL     OW 6163   6.051   6.872   5.373
 1755SOL    HW1 6164   6.101   6.919   5.301
 1755SOL    HW2 6165   5.953   6.882   5.358
 1756SOL     OW 6166   5.543   0.544   5.957
 1756SOL    HW1 6167   5.568   0.520   5.863
 1756SOL    HW2 6168   5.611   0.508   6.020
 1757SOL     OW 6169   2.522   5.394   5.180
 1757SOL    HW1 6170   2.513   5.325   5.108
 1757SOL    HW2 6171   2.606   5.447   5.165
 1758SOL     OW 6172   1.904   6.547   4.450
 1758SOL    HW1 6173   1.940   6.552   4.543
 1758SOL    HW2 6174   1.976   6.573   4.385
 1759SOL     OW 6175   1.261   6.246   0.308
 1759SOL    HW1 6176   1.186   6.287   0.256
 1759SOL    HW2 6177   1.303   6.314   0.367
 1760SOL     OW 6178   6.398   0.618   5.209
 1760SOL    HW1 6179   6.442   0.538   5.169
 1760SOL    HW2 6180   6.436   0.701   5.168
 1761SOL     OW 6181   6.659   2.344   1.457
 1761SOL    HW1 6182   6.663   2.276   1.529
 1761SOL    HW2 6183   6.602   2.421   1.487
 1762SOL     OW 6184   0.515   1.430   5.352
 1762SOL    HW1 6185   0.565   1.453   5.436
 1762SOL    HW2 6186   0.564   1.469   5.274
 1763SOL     OW 6187   0.551   3.743   4.567
 1763SOL    HW1 6188   0.535   3.708   4.660
 1763SOL    HW2 6189   0.628   3.807   4.569
 1764SOL     OW 6190   1.303   4.881   2.570
 1764SOL    HW1 6191   1.294   4.931   2.484
 1764SOL    HW2 6192   1.399   4.859   2.587
 1765SOL     OW 6193   5.552   2.801   1.641
 1765SOL    HW1 6194   5.516   2.739   1.712
 1765SOL    HW2 6195   5.642   2.769   1.611
 1766SOL     OW 6196   4.161   5.034   4.253
 1766SOL    HW1 6197   4.068   5.045   4.288
 1766SOL    HW2 6198   4.224   5.094   4.303
 1767SOL     OW 6199   0.231   4.963   2.416
 1767SOL    HW1 6200   0.175   5.011   2.348
 1767SOL    HW2 6201   0.173   4.933   2.492
 1768SOL     OW 6202   4.886   6.648   2.045
 1768SOL    HW1 6203   4.845   6.692   2.125
 1768SOL    HW2 6204   4.860   6.552   2.042
 1769SOL     OW 6205   5.701   0.062   6.425
 1769SOL    HW1 6206   5.623   0.069   6.487
 1769SOL    HW2 6207   5.679   0.110   6.339
 1770SOL     OW 6208   1.977   5.027   6.414
 1770SOL    HW1 6209   2.044   5.101   6.402
 1770SOL    HW2 6210   1.888   5.058   6.382
 1771SOL     OW 6211   0.813   3.978   5.759
 1771SOL    HW1 6212   0.907   3.995   5.788
 1771SOL    HW2 6213   0.792   3.880   5.768
 1772SOL     OW 6214   2.514   4.630   4.219
 1772SOL    HW1 6215   2.487   4.537   4.194
 1772SOL    HW2 6216   2.438   4.693   4.199
 1773SOL     OW 6217   0.218   6.907   5.081
 1773SOL    HW1 6218   0.150   6.859   5.137
 1773SOL    HW2 6219   0.220   6.866   4.990
 1774SOL     OW 6220   5.807   5.546   1.182
 1774SOL    HW1 6221   5.827   5.508   1.092
 1774SOL    HW2 6222   5.888   5.540   1.240
 1775SOL     OW 6223   2.140   5.259   6.531
 1775SOL    HW1 6224   2.119   5.299   6.442
 1775SOL    HW2 6225   2.227   5.296   6.565
 1776SOL     OW 6226   4.170   1.133   5.952
 1776SOL    HW1 6227   4.176   1.153   5.854
 1776SOL    HW2 6228   4.259   1.105   5.987
 1777SOL     OW 6229   4.558   6.736   6.798
 1777SOL    HW1 6230   4.466   6.725   6.837
 1777SOL    HW2 6231   4.591   6.829   6.816
 1778SOL     OW 6232   6.029   0.415   3.882
 1778SOL    HW1 6233   5.974   0.344   3.839
 1778SOL    HW2 6234   5.974   0.497   3.894
 1779SOL     OW 6235   5.702   6.239   3.715
 1779SOL    HW1 6236   5.722   6.297   3.636
 1779SOL    HW2 6237   5.611   6.261   3.750
 1780SOL     OW 6238   1.939   5.362   5.371
 1780SOL    HW1 6239   1.921   5.459   5.351
 1780SOL    HW2 6240   1.990   5.355   5.457
 1781SOL     OW 6241   4.462   0.413   3.959
 1781SOL    HW1 6242   4.456   0.329   4.013
 1781SOL    HW2 6243   4.373   0.457   3.956
 1782SOL     OW 6244   1.666   1.820   2.955
 1782SOL    HW1 6245   1.753   1.789   2.918
 1782SOL    HW2 6246   1.657   1.919   2.940
 1783SOL     OW 6247   1.600   4.571   6.613
 1783SOL    HW1 6248   1.573   4.503   6.681
 1783SOL    HW2 6249   1.626   4.526   6.528
 1784SOL     OW 6250   2.248   0.481   0.958
 1784SOL    HW1 6251   2.344   0.482   0.984
 1784SOL    HW2 6252   2.237   0.427   0.874
 1785SOL     OW 6253   1.443   6.449   4.276
 1785SOL    HW1 6254   1.499   6.522   4.238
 1785SOL    HW2 6255   1.415   6.386   4.203
 1786SOL     OW 6256   0.958   5.832   0.809
 1786SOL    HW1 6257   0.941   5.929   0.826
 1786SOL    HW2 6258   0.980   5.818   0.712
 1787SOL     OW 6259   1.911   3.675   5.705
 1787SOL    HW1 6260   1.881   3.721   5.621
 1787SOL    HW2 6261   1.846   3.602   5.728
 1788SOL     OW 6262   4.449   4.083   0.694
 1788SOL    HW1 6263   4.534   4.066   0.645
 1788SOL    HW2 6264   4.428   4.005   0.753
 1789SOL     OW 6265   6.762   3.614   1.947
 1789SOL    HW1 6266   6.802   3.655   2.028
 1789SOL    HW2 6267   6.667   3.586   1.966
 1790SOL     OW 6268   2.849   2.278   4.349
 1790SOL    HW1 6269   2.912   2.250   4.277
 1790SOL    HW2 6270   2.800   2.361   4.321
 1791SOL     OW 6271   5.475   6.899   3.425
 1791SOL    HW1 6272   5.534   6.869   3.350
 1791SOL    HW2 6273   5.379   6.886   3.400
 1792SOL     OW 6274   6.855   1.236   5.040
 1792SOL    HW1 6275   6.829   1.224   4.944
 1792SOL    HW2 6276   6.886   1.330   5.054
 1793SOL     OW 6277   0.049   1.044   5.404
 1793SOL    HW1 6278   0.138   1.010   5.373
 1793SOL    HW2 6279   0.038   1.023   5.501
 1794SOL     OW 6280   0.390   6.762   6.164
 1794SOL    HW1 6281   0.385   6.726   6.071
 1794SOL    HW2 6282   0.344   6.850   6.168
 1795SOL     OW 6283   5.754   4.831   6.900
 1795SOL    HW1 6284   5.716   4.739   6.914
 1795SOL    HW2 6285   5.830   4.826   6.835
 1796SOL     OW 6286   0.515   6.280   6.063
 1796SOL    HW1 6287   0.587   6.309   5.999
 1796SOL    HW2 6288   0.512   6.343   6.140
 1797SOL     OW 6289   2.324   6.163   4.680
 1797SOL    HW1 6290   2.417   6.184   4.651
 1797SOL    HW2 6291   2.267   6.147   4.600
 1798SOL     OW 6292   2.946   3.812   4.607
 1798SOL    HW1 6293   2.871   3.747   4.609
 1798SOL    HW2 6294   2.954   3.857   4.696
 1799SOL     OW 6295   2.941   0.975   0.216
 1799SOL    HW1 6296   2.922   1.048   0.150
 1799SOL    HW2 6297   2.896   0.996   0.302
 1800SOL     OW 6298   5.188   3.582   4.734
 1800SOL    HW1 6299   5.261   3.611   4.672
 1800SOL    HW2 6300   5.206   3.489   4.766
 1801SOL     OW 6301   0.946   1.944   2.156
 1801SOL    HW1 6302   0.901   1.874   2.101
 1801SOL    HW2 6303   0.967   1.906   2.246
 1802SOL     OW 6304   6.910   4.831   3.920
 1802SOL    HW1 6305   6.921   4.846   4.019
 1802SOL    HW2 6306   6.984   4.772   3.887
 1803SOL     OW 6307   0.941   6.798   2.982
 1803SOL    HW1 6308   0.912   6.720   2.926
 1803SOL    HW2 6309   0.962   6.766   3.075
 1804SOL     OW 6310   2.258   3.178   5.889
 1804SOL    HW1 6311   2.290   3.138   5.803
 1804SOL    HW2 6312   2.217   3.268   5.872
 1805SOL     OW 6313   0.157   5.974   6.514
 1805SOL    HW1 6314   0.196   5.948   6.425
 1805SOL    HW2 6315   0.124   6.068   6.509
 1806SOL     OW 6316   6.817   1.964   2.372
 1806SOL    HW1 6317   6.761   1.881   2.372
 1806SOL    HW2 6318   6.912   1.940   2.353
 1807SOL     OW 6319   6.470   3.578   2.007
 1807SOL    HW1 6320   6.388   3.528   1.978
 1807SOL    HW2 6321   6.446   3.673   2.027
 1808SOL     OW 6322   5.093   1.911   5.726
 1808SOL    HW1 6323   5.183   1.873   5.745
 1808SOL    HW2 6324   5.102   1.994   5.671
 1809SOL     OW 6325   3.939   1.802   5.863
 1809SOL    HW1 6326   3.965   1.821   5.957
 1809SOL    HW2 6327   3.851   1.845   5.842
 1810SOL     OW 6328   0.446   6.951   3.960
 1810SOL    HW1 6329   0.473   6.951   3.864
 1810SOL    HW2 6330   0.347   6.942   3.966
 1811SOL     OW 6331   4.232   5.638   2.841
 1811SOL    HW1 6332   4.269   5.731   2.837
 1811SOL    HW2 6333   4.224   5.610   2.937
 1812SOL     OW 6334   4.565   7.020   5.197
 1812SOL    HW1 6335   4.485   6.959   5.200
 1812SOL    HW2 6336   4.555   0.068   5.266
 1813SOL     OW 6337   4.773   4.271   2.249
 1813SOL    HW1 6338   4.701   4.277   2.180
 1813SOL    HW2 6339   4.733   4.275   2.340
 1814SOL     OW 6340   0.505   6.449   0.637
 1814SOL    HW1 6341   0.411   6.473   0.610
 1814SOL    HW2 6342   0.542   6.383   0.572
 1815SOL     OW 6343   5.809   5.959   1.820
 1815SOL    HW1 6344   5.774   6.046   1.853
 1815SOL    HW2 6345   5.842   5.969   1.726
 1816SOL     OW 6346   4.367   5.777   6.145
 1816SOL    HW1 6347   4.393   5.682   6.130
 1816SOL    HW2 6348   4.319   5.812   6.063
 1817SOL     OW 6349   1.387   1.918   3.765
 1817SOL    HW1 6350   1.291   1.888   3.762
 1817SOL    HW2 6351   1.440   1.854   3.821
 1818SOL     OW 6352   2.258   6.854   0.676
 1818SOL    HW1 6353   2.246   6.932   0.737
 1818SOL    HW2 6354   2.351   6.818   0.685
 1819SOL     OW 6355   2.322   4.732   3.252
 1819SOL    HW1 6356   2.262   4.797   3.206
 1819SOL    HW2 6357   2.282   4.706   3.340
 1820SOL     OW 6358   3.556   0.826   4.018
 1820SOL    HW1 6359   3.585   0.913   3.979
 1820SOL    HW2 6360   3.458   0.814   4.001
 1821SOL     OW 6361   3.955   2.108   2.499
 1821SOL    HW1 6362   3.961   2.130   2.596
 1821SOL    HW2 6363   3.904   2.180   2.452
 1822SOL     OW 6364   0.381   3.096   2.302
 1822SOL    HW1 6365   0.300   3.130   2.255
 1822SOL    HW2 6366   0.356   3.065   2.394
 1823SOL     OW 6367   4.101   6.589   2.577
 1823SOL    HW1 6368   4.047   6.511   2.545
 1823SOL    HW2 6369   4.084   6.668   2.517
 1824SOL     OW 6370   3.847   3.092   0.772
 1824SOL    HW1 6371   3.765   3.046   0.737
 1824SOL    HW2 6372   3.831   3.122   0.866
 1825SOL     OW 6373   2.049   1.946   4.852
 1825SOL    HW1 6374   2.077   2.001   4.931
 1825SOL    HW2 6375   1.973   1.885   4.879
 1826SOL     OW 6376   3.476   2.240   1.656
 1826SOL    HW1 6377   3.542   2.269   1.726
 1826SOL    HW2 6378   3.452   2.318   1.598
 1827SOL     OW 6379   5.555   4.393   0.735
 1827SOL    HW1 6380   5.563   4.296   0.754
 1827SOL    HW2 6381   5.646   4.430   0.712
 1828SOL     OW 6382   1.240   3.360   5.267
 1828SOL    HW1 6383   1.188   3.275   5.276
 1828SOL    HW2 6384   1.177   3.438   5.262
 1829SOL     OW 6385   3.053   0.929   3.661
 1829SOL    HW1 6386   3.028   0.936   3.564
 1829SOL    HW2 6387   3.033   1.015   3.707
 1830SOL     OW 6388   5.430   6.695   5.049
 1830SOL    HW1 6389   5.347   6.741   5.017
 1830SOL    HW2 6390   5.488   6.760   5.098
 1831SOL     OW 6391   4.918   5.396   2.038
 1831SOL    HW1 6392   4.866   5.467   1.992
 1831SOL    HW2 6393   5.015   5.420   2.037
 1832SOL     OW 6394   2.857   2.878   0.559
 1832SOL    HW1 6395   2.837   2.809   0.628
 1832SOL    HW2 6396   2.777   2.938   0.548
 1833SOL     OW 6397   5.125   0.279   0.872
 1833SOL    HW1 6398   5.096   0.326   0.789
 1833SOL    HW2 6399   5.171   0.194   0.848
 1834SOL     OW 6400   2.374   2.793   6.636
 1834SOL    HW1 6401   2.453   2.769   6.694
 1834SOL    HW2 6402   2.396   2.876   6.584
 1835SOL     OW 6403   7.004   5.715   1.050
 1835SOL    HW1 6404   6.924   5.772   1.031
 1835SOL    HW2 6405   6.977   5.618   1.047
 1836SOL     OW 6406   5.253   2.488   1.502
 1836SOL    HW1 6407   5.162   2.457   1.530
 1836SOL    HW2 6408   5.322   2.425   1.537
 1837SOL     OW 6409   2.598   1.839   6.479
 1837SOL    HW1 6410   2.544   1.777   6.421
 1837SOL    HW2 6411   2.612   1.797   6.568
 1838SOL     OW 6412   6.348   0.769   0.540
 1838SOL    HW1 6413   6.400   0.851   0.517
 1838SOL    HW2 6414   6.308   0.779   0.632
 1839SOL     OW 6415   6.145   1.090   6.842
 1839SOL    HW1 6416   6.080   1.130   6.907
 1839SOL    HW2 6417   6.126   0.992   6.832
 1840SOL     OW 6418   4.294   0.213   3.752
 1840SOL    HW1 6419   4.228   0.139   3.766
 1840SOL    HW2 6420   4.280   0.252   3.661
 1841SOL     OW 6421   2.016   1.473   2.322
 1841SOL    HW1 6422   1.995   1.493   2.418
 1841SOL    HW2 6423   2.053   1.556   2.279
 1842SOL     OW 6424   1.461   5.539   0.271
 1842SOL    HW1 6425   1.460   5.564   0.174
 1842SOL    HW2 6426   1.522   5.460   0.284
 1843SOL     OW 6427   3.854   1.233   4.645
 1843SOL    HW1 6428   3.837   1.313   4.704
 1843SOL    HW2 6429   3.786   1.163   4.664
 1844SOL     OW 6430   5.734   1.485   6.785
 1844SOL    HW1 6431   5.828   1.452   6.785
 1844SOL    HW2 6432   5.671   1.409   6.771
 1845SOL     OW 6433   1.826   1.398   3.251
 1845SOL    HW1 6434   1.814   1.490   3.215
 1845SOL    HW2 6435   1.771   1.334   3.197
 1846SOL     OW 6436   4.557   1.465   2.362
 1846SOL    HW1 6437   4.482   1.519   2.324
 1846SOL    HW2 6438   4.595   1.512   2.441
 1847SOL     OW 6439   2.510   0.528   5.509
 1847SOL    HW1 6440   2.572   0.472   5.455
 1847SOL    HW2 6441   2.456   0.470   5.571
 1848SOL     OW 6442   2.536   5.796   4.312
 1848SOL    HW1 6443   2.532   5.879   4.256
 1848SOL    HW2 6444   2.598   5.810   4.389
 1849SOL     OW 6445   4.809   2.808   1.903
 1849SOL    HW1 6446   4.761   2.893   1.921
 1849SOL    HW2 6447   4.826   2.761   1.989
 1850SOL     OW 6448   4.779   1.761   1.658
 1850SOL    HW1 6449   4.717   1.751   1.735
 1850SOL    HW2 6450   4.860   1.813   1.686
 1851SOL     OW 6451   6.879   3.961   5.110
 1851SOL    HW1 6452   6.792   3.969   5.159
 1851SOL    HW2 6453   6.898   3.865   5.090
 1852SOL     OW 6454   1.800   5.667   2.427
 1852SOL    HW1 6455   1.812   5.726   2.347
 1852SOL    HW2 6456   1.885   5.618   2.446
 1853SOL     OW 6457   0.380   2.538   4.310
 1853SOL    HW1 6458   0.408   2.443   4.322
 1853SOL    HW2 6459   0.345   2.574   4.397
 1854SOL     OW 6460   0.587   6.319   3.858
 1854SOL    HW1 6461   0.640   6.351   3.780
 1854SOL    HW2 6462   0.573   6.220   3.850
 1855SOL     OW 6463   4.889   3.365   5.104
 1855SOL    HW1 6464   4.806   3.327   5.144
 1855SOL    HW2 6465   4.877   3.462   5.085
 1856SOL     OW 6466   3.366   2.623   6.997
 1856SOL    HW1 6467   3.414   2.678   6.928
 1856SOL    HW2 6468   3.423   2.545   7.022
 1857SOL     OW 6469   5.005   1.285   0.355
 1857SOL    HW1 6470   4.943   1.320   0.426
 1857SOL    HW2 6471   5.096   1.325   0.368
 1858SOL     OW 6472   4.416   2.479   4.461
 1858SOL    HW1 6473   4.514   2.487   4.482
 1858SOL    HW2 6474   4.367   2.451   4.543
 1859SOL     OW 6475   5.582   2.062   3.650
 1859SOL    HW1 6476   5.606   2.021   3.738
 1859SOL    HW2 6477   5.660   2.112   3.613
 1860SOL     OW 6478   1.244   1.410   4.747
 1860SOL    HW1 6479   1.168   1.350   4.722
 1860SOL    HW2 6480   1.283   1.379   4.834
 1861SOL     OW 6481   6.332   0.135   3.092
 1861SOL    HW1 6482   6.420   0.176   3.116
 1861SOL    HW2 6483   6.339   0.091   3.003
 1862SOL     OW 6484   2.384   6.354   6.667
 1862SOL    HW1 6485   2.384   6.269   6.720
 1862SOL    HW2 6486   2.447   6.419   6.709
 1863SOL     OW 6487   0.559   3.040   1.283
 1863SOL    HW1 6488   0.602   3.128   1.264
 1863SOL    HW2 6489   0.555   3.025   1.382
 1864SOL     OW 6490   3.515   5.809   2.819
 1864SOL    HW1 6491   3.431   5.802   2.873
 1864SOL    HW2 6492   3.520   5.733   2.755
 1865SOL     OW 6493   5.540   0.809   5.958
 1865SOL    HW1 6494   5.489   0.822   5.873
 1865SOL    HW2 6495   5.548   0.712   5.978
 1866SOL     OW 6496   0.084   4.439   3.230
 1866SOL    HW1 6497   0.086   4.418   3.328
 1866SOL    HW2 6498   0.142   4.374   3.181
 1867SOL     OW 6499   2.237   2.239   0.674
 1867SOL    HW1 6500   2.286   2.199   0.751
 1867SOL    HW2 6501   2.177   2.312   0.708
 1868SOL     OW 6502   5.793   4.372   5.792
 1868SOL    HW1 6503   5.741   4.420   5.863
 1868SOL    HW2 6504   5.807   4.432   5.714
 1869SOL     OW 6505   4.958   1.712   4.204
 1869SOL    HW1 6506   4.965   1.762   4.290
 1869SOL    HW2 6507   4.870   1.733   4.161
 1870SOL     OW 6508   0.373   4.944   4.223
 1870SOL    HW1 6509   0.412   5.021   4.172
 1870SOL    HW2 6510   0.301   4.978   4.284
 1871SOL     OW 6511   0.750   6.663   0.304
 1871SOL    HW1 6512   0.707   6.652   0.214
 1871SOL    HW2 6513   0.841   6.623   0.303
 1872SOL     OW 6514   2.585   2.659   1.025
 1872SOL    HW1 6515   2.652   2.686   1.095
 1872SOL    HW2 6516   2.631   2.648   0.937
 1873SOL     OW 6517   6.645   0.779   6.956
 1873SOL    HW1 6518   6.633   0.780   0.031
 1873SOL    HW2 6519   6.650   0.873   6.922
 1874SOL     OW 6520   0.784   6.297   0.204
 1874SOL    HW1 6521   0.782   6.327   0.108
 1874SOL    HW2 6522   0.741   6.207   0.211
 1875SOL     OW 6523   6.444   4.854   0.176
 1875SOL    HW1 6524   6.366   4.799   0.207
 1875SOL    HW2 6525   6.484   4.902   0.254
 1876SOL     OW 6526   6.865   5.951   6.718
 1876SOL    HW1 6527   6.786   6.009   6.699
 1876SOL    HW2 6528   6.947   5.989   6.675
 1877SOL     OW 6529   0.042   0.904   1.951
 1877SOL    HW1 6530   0.001   0.886   1.861
 1877SOL    HW2 6531   0.028   0.825   2.011
 1878SOL     OW 6532   7.005   4.737   3.552
 1878SOL    HW1 6533   0.029   4.722   3.466
 1878SOL    HW2 6534   6.946   4.817   3.544
 1879SOL     OW 6535   4.298   5.701   4.733
 1879SOL    HW1 6536   4.329   5.765   4.804
 1879SOL    HW2 6537   4.347   5.614   4.743
 1880SOL     OW 6538   0.548   1.426   4.203
 1880SOL    HW1 6539   0.455   1.455   4.182
 1880SOL    HW2 6540   0.554   1.402   4.300
 1881SOL     OW 6541   1.229   1.500   3.986
 1881SOL    HW1 6542   1.155   1.520   3.922
 1881SOL    HW2 6543   1.316   1.497   3.937
 1882SOL     OW 6544   1.731   5.814   0.073
 1882SOL    HW1 6545   1.670   5.890   0.052
 1882SOL    HW2 6546   1.743   5.757   7.015
 1883SOL     OW 6547   1.552   3.070   2.784
 1883SOL    HW1 6548   1.539   3.069   2.883
 1883SOL    HW2 6549   1.649   3.076   2.762
 1884SOL     OW 6550   3.363   0.571   0.267
 1884SOL    HW1 6551   3.405   0.508   0.332
 1884SOL    HW2 6552   3.364   0.664   0.305
 1885SOL     OW 6553   6.851   2.406   0.955
 1885SOL    HW1 6554   6.936   2.375   0.997
 1885SOL    HW2 6555   6.785   2.429   1.026
 1886SOL     OW 6556   3.031   2.928   6.914
 1886SOL    HW1 6557   3.026   3.015   6.865
 1886SOL    HW2 6558   3.004   2.941   7.009
 1887SOL     OW 6559   1.059   6.418   5.816
 1887SOL    HW1 6560   1.128   6.347   5.829
 1887SOL    HW2 6561   1.024   6.412   5.722
 1888SOL     OW 6562   2.033   2.202   5.972
 1888SOL    HW1 6563   2.027   2.241   5.880
 1888SOL    HW2 6564   2.089   2.262   6.030
 1889SOL     OW 6565   4.193   2.721   0.432
 1889SOL    HW1 6566   4.118   2.785   0.412
 1889SOL    HW2 6567   4.265   2.769   0.481
 1890SOL     OW 6568   6.796   5.431   6.622
 1890SOL    HW1 6569   6.755   5.514   6.660
 1890SOL    HW2 6570   6.776   5.354   6.682
 1891SOL     OW 6571   5.980   3.149   5.686
 1891SOL    HW1 6572   5.979   3.215   5.611
 1891SOL    HW2 6573   6.009   3.195   5.770
 1892SOL     OW 6574   4.070   5.768   1.695
 1892SOL    HW1 6575   3.975   5.755   1.667
 1892SOL    HW2 6576   4.127   5.778   1.614
 1893SOL     OW 6577   3.974   1.635   4.118
 1893SOL    HW1 6578   3.903   1.577   4.159
 1893SOL    HW2 6579   4.044   1.655   4.186
 1894SOL     OW 6580   4.133   3.630   0.597
 1894SOL    HW1 6581   4.173   3.584   0.518
 1894SOL    HW2 6582   4.190   3.613   0.678
 1895SOL     OW 6583   5.383   0.391   3.391
 1895SOL    HW1 6584   5.434   0.391   3.305
 1895SOL    HW2 6585   5.354   0.298   3.413
 1896SOL     OW 6586   6.947   1.479   5.105
 1896SOL    HW1 6587   0.017   1.462   5.136
 1896SOL    HW2 6588   6.935   1.577   5.091
 1897SOL     OW 6589   6.090   4.910   3.383
 1897SOL    HW1 6590   6.095   4.811   3.388
 1897SOL    HW2 6591   5.996   4.938   3.360
 1898SOL     OW 6592   5.818   4.482   0.727
 1898SOL    HW1 6593   5.873   4.464   0.647
 1898SOL    HW2 6594   5.801   4.580   0.736
 1899SOL     OW 6595   0.864   2.744   2.731
 1899SOL    HW1 6596   0.781   2.800   2.733
 1899SOL    HW2 6597   0.877   2.708   2.638
 1900SOL     OW 6598   2.197   5.624   6.314
 1900SOL    HW1 6599   2.292   5.597   6.328
 1900SOL    HW2 6600   2.165   5.678   6.391
 1901SOL     OW 6601   1.467   1.053   6.623
 1901SOL    HW1 6602   1.542   1.024   6.563
 1901SOL    HW2 6603   1.452   0.983   6.693
 1902SOL     OW 6604   0.896   3.088   4.294
 1902SOL    HW1 6605   0.861   3.021   4.359
 1902SOL    HW2 6606   0.828   3.104   4.223
 1903SOL     OW 6607   6.568   3.069   3.738
 1903SOL    HW1 6608   6.474   3.053   3.710
 1903SOL    HW2 6609   6.589   3.013   3.818
 1904SOL     OW 6610   6.527   6.775   3.745
 1904SOL    HW1 6611   6.452   6.806   3.803
 1904SOL    HW2 6612   6.489   6.741   3.658
 1905SOL     OW 6613   6.782   2.592   3.614
 1905SOL    HW1 6614   6.711   2.633   3.671
 1905SOL    HW2 6615   6.754   2.595   3.518
 1906SOL     OW 6616   2.674   0.495   6.664
 1906SOL    HW1 6617   2.742   0.424   6.648
 1906SOL    HW2 6618   2.610   0.465   6.735
 1907SOL     OW 6619   3.448   6.155   3.736
 1907SOL    HW1 6620   3.539   6.194   3.753
 1907SOL    HW2 6621   3.423   6.171   3.641
 1908SOL     OW 6622   4.317   1.353   6.161
 1908SOL    HW1 6623   4.330   1.256   6.140
 1908SOL    HW2 6624   4.407   1.398   6.166
 1909SOL     OW 6625   2.525   5.244   4.550
 1909SOL    HW1 6626   2.447   5.236   4.488
 1909SOL    HW2 6627   2.574   5.329   4.533
 1910SOL     OW 6628   5.330   1.745   5.969
 1910SOL    HW1 6629   5.426   1.737   5.996
 1910SOL    HW2 6630   5.295   1.835   5.996
 1911SOL     OW 6631   6.514   3.052   4.861
 1911SOL    HW1 6632   6.581   3.043   4.936
 1911SOL    HW2 6633   6.459   3.134   4.876
 1912SOL     OW 6634   3.535   6.851   3.224
 1912SOL    HW1 6635   3.485   6.927   3.266
 1912SOL    HW2 6636   3.471   6.776   3.206
 1913SOL     OW 6637   1.752   4.996   5.624
 1913SOL    HW1 6638   1.760   5.095   5.629
 1913SOL    HW2 6639   1.812   4.961   5.552
 1914SOL     OW 6640   3.742   2.478   5.967
 1914SOL    HW1 6641   3.802   2.504   6.043
 1914SOL    HW2 6642   3.735   2.554   5.903
 1915SOL     OW 6643   3.749   0.066   5.417
 1915SOL    HW1 6644   3.655   0.088   5.444
 1915SOL    HW2 6645   3.771   6.997   5.447
 1916SOL     OW 6646   3.467   6.143   1.809
 1916SOL    HW1 6647   3.433   6.201   1.735
 1916SOL    HW2 6648   3.502   6.200   1.883
 1917SOL     OW 6649   3.005   3.253   4.184
 1917SOL    HW1 6650   3.003   3.268   4.085
 1917SOL    HW2 6651   2.981   3.338   4.231
 1918SOL     OW 6652   6.011   6.217   4.398
 1918SOL    HW1 6653   5.989   6.148   4.467
 1918SOL    HW2 6654   5.969   6.304   4.424
 1919SOL     OW 6655   6.983   6.457   1.631
 1919SOL    HW1 6656   6.925   6.482   1.709
 1919SOL    HW2 6657   6.929   6.461   1.547
 1920SOL     OW 6658   6.623   6.024   4.040
 1920SOL    HW1 6659   6.608   6.087   4.116
 1920SOL    HW2 6660   6.658   5.937   4.075
 1921SOL     OW 6661   0.919   6.361   6.916
 1921SOL    HW1 6662   0.954   6.454   6.900
 1921SOL    HW2 6663   0.967   6.297   6.856
 1922SOL     OW 6664   3.665   4.002   0.593
 1922SOL    HW1 6665   3.657   3.981   0.496
 1922SOL    HW2 6666   3.731   4.076   0.606
 1923SOL     OW 6667   1.754   1.128   0.782
 1923SOL    HW1 6668   1.817   1.188   0.732
 1923SOL    HW2 6669   1.713   1.180   0.857
 1924SOL     OW 6670   0.256   4.468   1.964
 1924SOL    HW1 6671   0.324   4.540   1.949
 1924SOL    HW2 6672   0.301   4.385   1.996
 1925SOL     OW 6673   3.228   4.307   1.447
 1925SOL    HW1 6674   3.260   4.399   1.468
 1925SOL    HW2 6675   3.276   4.241   1.504
 1926SOL     OW 6676   1.208   6.683   3.864
 1926SOL    HW1 6677   1.276   6.617   3.896
 1926SOL    HW2 6678   1.252   6.771   3.848
 1927SOL     OW 6679   3.415   4.229   6.321
 1927SOL    HW1 6680   3.469   4.157   6.277
 1927SOL    HW2 6681   3.323   4.194   6.338
 1928SOL     OW 6682   6.155   3.761   5.896
 1928SOL    HW1 6683   6.239   3.808   5.870
 1928SOL    HW2 6684   6.133   3.691   5.827
 1929SOL     OW 6685   0.494   6.408   1.379
 1929SOL    HW1 6686   0.586   6.441   1.361
 1929SOL    HW2 6687   0.483   6.392   1.477
 1930SOL     OW 6688   5.528   4.269   6.050
 1930SOL    HW1 6689   5.467   4.293   6.127
 1930SOL    HW2 6690   5.578   4.351   6.021
 1931SOL     OW 6691   0.681   3.058   4.151
 1931SOL    HW1 6692   0.612   3.130   4.144
 1931SOL    HW2 6693   0.692   3.013   4.062
 1932SOL     OW 6694   5.242   4.150   1.569
 1932SOL    HW1 6695   5.254   4.084   1.643
 1932SOL    HW2 6696   5.179   4.222   1.598
 1933SOL     OW 6697   2.923   4.719   0.878
 1933SOL    HW1 6698   3.022   4.730   0.888
 1933SOL    HW2 6699   2.905   4.641   0.817
 1934SOL     OW 6700   0.848   6.199   6.161
 1934SOL    HW1 6701   0.835   6.106   6.196
 1934SOL    HW2 6702   0.822   6.202   6.065
 1935SOL     OW 6703   2.483   0.501   4.023
 1935SOL    HW1 6704   2.539   0.466   4.097
 1935SOL    HW2 6705   2.408   0.436   4.004
 1936SOL     OW 6706   6.580   5.989   4.555
 1936SOL    HW1 6707   6.483   6.013   4.550
 1936SOL    HW2 6708   6.593   5.914   4.619
 1937SOL     OW 6709   4.041   6.449   2.065
 1937SOL    HW1 6710   4.032   6.545   2.092
 1937SOL    HW2 6711   4.125   6.437   2.012
 1938SOL     OW 6712   3.861   1.176   3.626
 1938SOL    HW1 6713   3.797   1.100   3.632
 1938SOL    HW2 6714   3.948   1.143   3.589
 1939SOL     OW 6715   1.473   1.436   3.817
 1939SOL    HW1 6716   1.552   1.455   3.758
 1939SOL    HW2 6717   1.413   1.369   3.772
 1940SOL     OW 6718   6.536   5.199   6.981
 1940SOL    HW1 6719   6.519   5.205   0.056
 1940SOL    HW2 6720   6.541   5.103   6.954
 1941SOL     OW 6721   5.541   3.774   1.951
 1941SOL    HW1 6722   5.453   3.733   1.925
 1941SOL    HW2 6723   5.615   3.719   1.914
 1942SOL     OW 6724   6.441   4.884   2.330
 1942SOL    HW1 6725   6.419   4.979   2.348
 1942SOL    HW2 6726   6.519   4.856   2.386
 1943SOL     OW 6727   2.490   4.453   3.588
 1943SOL    HW1 6728   2.531   4.511   3.517
 1943SOL    HW2 6729   2.486   4.504   3.674
 1944SOL     OW 6730   6.298   0.870   0.010
 1944SOL    HW1 6731   6.281   0.939   6.963
 1944SOL    HW2 6732   6.347   0.912   0.086
 1945SOL     OW 6733   3.906   5.276   3.801
 1945SOL    HW1 6734   3.944   5.198   3.850
 1945SOL    HW2 6735   3.974   5.311   3.736
 1946SOL     OW 6736   0.985   0.169   6.921
 1946SOL    HW1 6737   1.023   0.178   6.829
 1946SOL    HW2 6738   0.945   0.256   6.949
 1947SOL     OW 6739   5.320   5.742   3.347
 1947SOL    HW1 6740   5.249   5.753   3.277
 1947SOL    HW2 6741   5.294   5.792   3.429
 1948SOL     OW 6742   6.789   5.896   4.327
 1948SOL    HW1 6743   6.729   5.970   4.358
 1948SOL    HW2 6744   6.735   5.826   4.281
 1949SOL     OW 6745   4.488   4.305   6.489
 1949SOL    HW1 6746   4.506   4.207   6.492
 1949SOL    HW2 6747   4.443   4.328   6.402
 1950SOL     OW 6748   3.155   4.120   6.345
 1950SOL    HW1 6749   3.099   4.098   6.425
 1950SOL    HW2 6750   3.179   4.036   6.297
 1951SOL     OW 6751   5.952   1.241   6.708
 1951SOL    HW1 6752   5.922   1.146   6.701
 1951SOL    HW2 6753   5.969   1.264   6.804
 1952SOL     OW 6754   3.795   2.075   0.495
 1952SOL    HW1 6755   3.844   2.107   0.415
 1952SOL    HW2 6756   3.716   2.134   0.513
 1953SOL     OW 6757   6.836   2.106   6.533
 1953SOL    HW1 6758   6.778   2.025   6.522
 1953SOL    HW2 6759   6.931   2.078   6.539
 1954SOL     OW 6760   3.938   1.903   4.133
 1954SOL    HW1 6761   3.925   1.953   4.219
 1954SOL    HW2 6762   3.936   1.804   4.151
 1955SOL     OW 6763   0.296   6.470   2.269
 1955SOL    HW1 6764   0.200   6.456   2.244
 1955SOL    HW2 6765   0.328   6.557   2.231
 1956SOL     OW 6766   5.699   5.994   2.688
 1956SOL    HW1 6767   5.732   6.021   2.778
 1956SOL    HW2 6768   5.705   6.071   2.625
 1957SOL     OW 6769   0.604   6.258   4.604
 1957SOL    HW1 6770   0.524   6.296   4.557
 1957SOL    HW2 6771   0.575   6.180   4.661
 1958SOL     OW 6772   5.422   3.471   5.356
 1958SOL    HW1 6773   5.435   3.555   5.408
 1958SOL    HW2 6774   5.435   3.489   5.259
 1959SOL     OW 6775   1.407   2.197   6.324
 1959SOL    HW1 6776   1.396   2.287   6.367
 1959SOL    HW2 6777   1.462   2.139   6.384
 1960SOL     OW 6778   5.862   5.039   0.584
 1960SOL    HW1 6779   5.923   5.111   0.552
 1960SOL    HW2 6780   5.780   5.037   0.526
 1961SOL     OW 6781   5.885   4.494   3.848
 1961SOL    HW1 6782   5.930   4.483   3.936
 1961SOL    HW2 6783   5.954   4.513   3.777
 1962SOL     OW 6784   1.387   6.106   3.100
 1962SOL    HW1 6785   1.448   6.032   3.071
 1962SOL    HW2 6786   1.333   6.138   3.022
 1963SOL     OW 6787   0.910   0.578   2.573
 1963SOL    HW1 6788   0.938   0.602   2.666
 1963SOL    HW2 6789   0.831   0.517   2.576
 1964SOL     OW 6790   4.184   2.275   2.225
 1964SOL    HW1 6791   4.204   2.282   2.323
 1964SOL    HW2 6792   4.088   2.249   2.212
 1965SOL     OW 6793   0.678   3.592   2.755
 1965SOL    HW1 6794   0.705   3.534   2.831
 1965SOL    HW2 6795   0.739   3.671   2.749
 1966SOL     OW 6796   0.121   5.379   5.172
 1966SOL    HW1 6797   0.027   5.345   5.172
 1966SOL    HW2 6798   0.157   5.382   5.265
 1967SOL     OW 6799   4.569   2.698   5.383
 1967SOL    HW1 6800   4.588   2.645   5.466
 1967SOL    HW2 6801   4.475   2.682   5.354
 1968SOL     OW 6802   2.735   6.521   0.013
 1968SOL    HW1 6803   2.704   6.614   0.034
 1968SOL    HW2 6804   2.687   6.457   0.073
 1969SOL     OW 6805   6.828   2.402   1.813
 1969SOL    HW1 6806   6.841   2.475   1.745
 1969SOL    HW2 6807   6.739   2.360   1.800
 1970SOL     OW 6808   2.111   7.013   5.083
 1970SOL    HW1 6809   2.191   0.036   5.120
 1970SOL    HW2 6810   2.139   6.953   5.008
 1971SOL     OW 6811   0.452   6.241   6.794
 1971SOL    HW1 6812   0.352   6.237   6.799
 1971SOL    HW2 6813   0.488   6.286   6.875
 1972SOL     OW 6814   0.612   4.406   3.791
 1972SOL    HW1 6815   0.606   4.489   3.847
 1972SOL    HW2 6816   0.577   4.426   3.699
 1973SOL     OW 6817   3.604   2.673   1.469
 1973SOL    HW1 6818   3.683   2.617   1.443
 1973SOL    HW2 6819   3.573   2.646   1.561
 1974SOL     OW 6820   5.456   7.010   4.102
 1974SOL    HW1 6821   5.545   6.969   4.080
 1974SOL    HW2 6822   5.468   0.085   4.112
 1975SOL     OW 6823   2.767   0.619   3.877
 1975SOL    HW1 6824   2.682   0.625   3.928
 1975SOL    HW2 6825   2.788   0.523   3.857
 1976SOL     OW 6826   0.201   6.085   0.396
 1976SOL    HW1 6827   0.275   6.091   0.464
 1976SOL    HW2 6828   0.116   6.060   0.442
 1977SOL     OW 6829   1.016   2.600   4.418
 1977SOL    HW1 6830   1.014   2.659   4.338
 1977SOL    HW2 6831   1.111   2.576   4.439
 1978SOL     OW 6832   0.272   1.258   4.626
 1978SOL    HW1 6833   0.257   1.318   4.704
 1978SOL    HW2 6834   0.211   1.179   4.632
 1979SOL     OW 6835   6.960   4.420   4.794
 1979SOL    HW1 6836   7.019   4.392   4.869
 1979SOL    HW2 6837   6.870   4.378   4.804
 1980SOL     OW 6838   3.436   0.019   1.351
 1980SOL    HW1 6839   3.430   0.022   1.251
 1980SOL    HW2 6840   3.514   0.074   1.381
 1981SOL     OW 6841   5.200   2.868   2.118
 1981SOL    HW1 6842   5.187   2.854   2.019
 1981SOL    HW2 6843   5.128   2.928   2.153
 1982SOL     OW 6844   5.624   4.833   4.797
 1982SOL    HW1 6845   5.552   4.779   4.752
 1982SOL    HW2 6846   5.684   4.873   4.728
 1983SOL     OW 6847   1.352   2.753   3.483
 1983SOL    HW1 6848   1.282   2.694   3.442
 1983SOL    HW2 6849   1.320   2.848   3.483
 1984SOL     OW 6850   4.665   1.783   5.801
 1984SOL    HW1 6851   4.571   1.814   5.782
 1984SOL    HW2 6852   4.663   1.686   5.827
 1985SOL     OW 6853   1.399   1.016   1.965
 1985SOL    HW1 6854   1.385   1.110   1.936
 1985SOL    HW2 6855   1.327   0.958   1.926
 1986SOL     OW 6856   1.324   2.152   0.016
 1986SOL    HW1 6857   1.424   2.151   0.013
 1986SOL    HW2 6858   1.287   2.117   6.953
 1987SOL     OW 6859   2.593   3.523   1.302
 1987SOL    HW1 6860   2.639   3.577   1.373
 1987SOL    HW2 6861   2.496   3.548   1.301
 1988SOL     OW 6862   4.859   3.567   6.817
 1988SOL    HW1 6863   4.880   3.501   6.889
 1988SOL    HW2 6864   4.926   3.642   6.820
 1989SOL     OW 6865   2.040   0.215   4.719
 1989SOL    HW1 6866   2.034   0.198   4.620
 1989SOL    HW2 6867   2.135   0.231   4.744
 1990SOL     OW 6868   2.924   1.139   0.890
 1990SOL    HW1 6869   2.890   1.067   0.830
 1990SOL    HW2 6870   3.024   1.138   0.889
 1991SOL     OW 6871   3.369   5.605   4.793
 1991SOL    HW1 6872   3.405   5.699   4.795
 1991SOL    HW2 6873   3.365   5.570   4.886
 1992SOL     OW 6874   2.277   6.814   5.404
 1992SOL    HW1 6875   2.349   6.828   5.472
 1992SOL    HW2 6876   2.214   6.893   5.406
 1993SOL     OW 6877   3.555   3.985   5.415
 1993SOL    HW1 6878   3.536   4.041   5.495
 1993SOL    HW2 6879   3.642   4.011   5.375
 1994SOL     OW 6880   6.873   2.031   2.000
 1994SOL    HW1 6881   6.881   2.125   2.033
 1994SOL    HW2 6882   6.932   1.971   2.055
 1995SOL     OW 6883   6.384   1.862   1.459
 1995SOL    HW1 6884   6.462   1.888   1.402
 1995SOL    HW2 6885   6.398   1.769   1.493
 1996SOL     OW 6886   3.508   4.039   6.952
 1996SOL    HW1 6887   3.569   3.986   6.892
 1996SOL    HW2 6888   3.552   4.125   6.976
 1997SOL     OW 6889   5.703   0.853   5.088
 1997SOL    HW1 6890   5.782   0.794   5.107
 1997SOL    HW2 6891   5.632   0.838   5.157
 1998SOL     OW 6892   2.740   4.210   6.442
 1998SOL    HW1 6893   2.667   4.273   6.416
 1998SOL    HW2 6894   2.742   4.133   6.378
 1999SOL     OW 6895   2.496   6.873   1.901
 1999SOL    HW1 6896   2.495   6.964   1.859
 1999SOL    HW2 6897   2.489   6.881   2.000
 2000SOL     OW 6898   4.137   1.294   4.875
 2000SOL    HW1 6899   4.063   1.311   4.940
 2000SOL    HW2 6900   4.202   1.370   4.878
 2001SOL     OW 6901   3.032   1.898   1.196
 2001SOL    HW1 6902   2.944   1.852   1.184
 2001SOL    HW2 6903   3.097   1.861   1.129
 2002SOL     OW 6904   2.090   6.017   6.186
 2002SOL    HW1 6905   2.029   6.017   6.266
 2002SOL    HW2 6906   2.043   6.058   6.108
 2003SOL     OW 6907   5.645   6.691   3.190
 2003SOL    HW1 6908   5.711   6.749   3.239
 2003SOL    HW2 6909   5.662   6.697   3.092
 2004SOL     OW 6910   3.322   0.976   5.489
 2004SOL    HW1 6911   3.260   0.902   5.513
 2004SOL    HW2 6912   3.394   0.942   5.428
 2005SOL     OW 6913   2.287   6.209   6.212
 2005SOL    HW1 6914   2.228   6.137   6.175
 2005SOL    HW2 6915   2.288   6.203   6.312
 2006SOL     OW 6916   4.191   4.701   3.756
 2006SOL    HW1 6917   4.154   4.699   3.663
 2006SOL    HW2 6918   4.286   4.731   3.754
 2007SOL     OW 6919   4.937   5.338   0.222
 2007SOL    HW1 6920   5.023   5.302   0.184
 2007SOL    HW2 6921   4.877   5.365   0.146
 2008SOL     OW 6922   6.826   6.525   3.283
 2008SOL    HW1 6923   6.872   6.571   3.359
 2008SOL    HW2 6924   6.728   6.518   3.304
 2009SOL     OW 6925   0.046   0.604   1.831
 2009SOL    HW1 6926   0.144   0.615   1.814
 2009SOL    HW2 6927   7.020   0.677   1.785
 2010SOL     OW 6928   0.991   0.785   0.781
 2010SOL    HW1 6929   0.904   0.783   0.831
 2010SOL    HW2 6930   0.986   0.855   0.710
 2011SOL     OW 6931   6.583   2.292   4.974
 2011SOL    HW1 6932   6.485   2.283   4.956
 2011SOL    HW2 6933   6.618   2.205   5.010
 2012SOL     OW 6934   1.377   4.057   1.850
 2012SOL    HW1 6935   1.293   4.109   1.833
 2012SOL    HW2 6936   1.453   4.100   1.802
 2013SOL     OW 6937   5.876   1.737   2.687
 2013SOL    HW1 6938   5.833   1.729   2.596
 2013SOL    HW2 6939   5.969   1.772   2.677
 2014SOL     OW 6940   1.753   6.001   3.628
 2014SOL    HW1 6941   1.786   6.060   3.555
 2014SOL    HW2 6942   1.662   5.966   3.604
 2015SOL     OW 6943   3.927   0.795   0.106
 2015SOL    HW1 6944   3.918   0.879   0.160
 2015SOL    HW2 6945   3.857   0.730   0.133
 2016SOL     OW 6946   0.840   5.409   3.727
 2016SOL    HW1 6947   0.936   5.421   3.751
 2016SOL    HW2 6948   0.811   5.316   3.750
 2017SOL     OW 6949   2.050   5.978   3.269
 2017SOL    HW1 6950   2.107   5.897   3.276
 2017SOL    HW2 6951   2.005   5.981   3.179
 2018SOL     OW 6952   0.018   5.704   5.405
 2018SOL    HW1 6953   0.028   5.803   5.410
 2018SOL    HW2 6954   0.093   5.665   5.352
 2019SOL     OW 6955   5.709   2.377   0.957
 2019SOL    HW1 6956   5.669   2.396   0.867
 2019SOL    HW2 6957   5.804   2.346   0.944
 2020SOL     OW 6958   2.298   5.244   4.353
 2020SOL    HW1 6959   2.272   5.147   4.353
 2020SOL    HW2 6960   2.328   5.270   4.261
 2021SOL     OW 6961   1.682   1.054   2.763
 2021SOL    HW1 6962   1.667   1.116   2.686
 2021SOL    HW2 6963   1.713   1.106   2.842
 2022SOL     OW 6964   2.546   3.749   1.643
 2022SOL    HW1 6965   2.597   3.663   1.642
 2022SOL    HW2 6966   2.448   3.729   1.640
 2023SOL     OW 6967   6.694   0.721   6.567
 2023SOL    HW1 6968   6.709   0.819   6.558
 2023SOL    HW2 6969   6.638   0.703   6.647
 2024SOL     OW 6970   6.349   0.436   3.494
 2024SOL    HW1 6971   6.357   0.385   3.580
 2024SOL    HW2 6972   6.429   0.495   3.483
 2025SOL     OW 6973   0.535   2.307   1.178
 2025SOL    HW1 6974   0.569   2.261   1.097
 2025SOL    HW2 6975   0.441   2.338   1.161
 2026SOL     OW 6976   2.207   2.654   5.555
 2026SOL    HW1 6977   2.267   2.583   5.518
 2026SOL    HW2 6978   2.141   2.682   5.486
 2027SOL     OW 6979   0.600   1.226   2.139
 2027SOL    HW1 6980   0.542   1.219   2.058
 2027SOL    HW2 6981   0.696   1.236   2.110
 2028SOL     OW 6982   3.666   1.816   0.554
 2028SOL    HW1 6983   3.707   1.901   0.521
 2028SOL    HW2 6984   3.650   1.822   0.652
 2029SOL     OW 6985   1.133   0.974   6.571
 2029SOL    HW1 6986   1.127   0.876   6.553
 2029SOL    HW2 6987   1.191   1.017   6.501
 2030SOL     OW 6988   1.981   2.128   3.640
 2030SOL    HW1 6989   1.953   2.224   3.651
 2030SOL    HW2 6990   1.968   2.079   3.726
 2031SOL     OW 6991   5.359   5.980   2.313
 2031SOL    HW1 6992   5.393   5.886   2.304
 2031SOL    HW2 6993   5.336   5.998   2.409
 2032SOL     OW 6994   5.049   6.253   0.605
 2032SOL    HW1 6995   4.983   6.291   0.670
 2032SOL    HW2 6996   5.040   6.153   0.604
 2033SOL     OW 6997   4.744   4.572   6.374
 2033SOL    HW1 6998   4.754   4.577   6.274
 2033SOL    HW2 6999   4.658   4.616   6.401
 2034SOL     OW 7000   2.119   6.301   2.956
 2034SOL    HW1 7001   2.049   6.237   2.988
 2034SOL    HW2 7002   2.188   6.313   3.027
 2035SOL     OW 7003   0.279   1.616   2.630
 2035SOL    HW1 7004   0.211   1.554   2.591
 2035SOL    HW2 7005   0.345   1.642   2.560
 2036SOL     OW 7006   0.300   5.314   0.940
 2036SOL    HW1 7007   0.342   5.317   0.849
 2036SOL    HW2 7008   0.349   5.249   0.997
 2037SOL     OW 7009   6.983   2.510   5.631
 2037SOL    HW1 7010   6.953   2.489   5.538
 2037SOL    HW2 7011   6.918   2.572   5.674
 2038SOL     OW 7012   0.479   1.744   4.973
 2038SOL    HW1 7013   0.395   1.748   5.028
 2038SOL    HW2 7014   0.458   1.773   4.879
 2039SOL     OW 7015   6.765   5.985   3.811
 2039SOL    HW1 7016   6.698   5.974   3.885
 2039SOL    HW2 7017   6.802   5.896   3.785
 2040SOL     OW 7018   3.749   3.257   4.355
 2040SOL    HW1 7019   3.701   3.334   4.396
 2040SOL    HW2 7020   3.818   3.223   4.418
 2041SOL     OW 7021   5.713   4.432   6.352
 2041SOL    HW1 7022   5.813   4.442   6.355
 2041SOL    HW2 7023   5.686   4.352   6.406
 2042SOL     OW 7024   5.113   5.217   1.083
 2042SOL    HW1 7025   5.026   5.245   1.042
 2042SOL    HW2 7026   5.173   5.296   1.092
 2043SOL     OW 7027   6.416   5.115   2.481
 2043SOL    HW1 7028   6.328   5.157   2.457
 2043SOL    HW2 7029   6.408   5.069   2.570
 2044SOL     OW 7030   5.725   6.738   2.064
 2044SOL    HW1 7031   5.809   6.718   2.115
 2044SOL    HW2 7032   5.712   6.837   2.060
 2045SOL     OW 7033   2.144   4.769   6.284
 2045SOL    HW1 7034   2.046   4.746   6.288
 2045SOL    HW2 7035   2.196   4.701   6.334
 2046SOL     OW 7036   6.946   0.203   4.309
 2046SOL    HW1 7037   6.954   0.232   4.404
 2046SOL    HW2 7038   6.850   0.206   4.282
 2047SOL     OW 7039   4.831   2.005   1.418
 2047SOL    HW1 7040   4.773   1.970   1.345
 2047SOL    HW2 7041   4.880   2.086   1.386
 2048SOL     OW 7042   4.102   0.153   0.013
 2048SOL    HW1 7043   4.173   0.171   0.080
 2048SOL    HW2 7044   4.033   0.092   0.053
 2049SOL     OW 7045   4.722   1.658   6.642
 2049SOL    HW1 7046   4.764   1.654   6.732
 2049SOL    HW2 7047   4.793   1.671   6.572
 2050SOL     OW 7048   5.837   2.466   3.665
 2050SOL    HW1 7049   5.899   2.389   3.673
 2050SOL    HW2 7050   5.763   2.457   3.732
 2051SOL     OW 7051   1.138   5.208   0.261
 2051SOL    HW1 7052   1.127   5.110   0.274
 2051SOL    HW2 7053   1.050   5.253   0.269
 2052SOL     OW 7054   0.711   3.046   6.904
 2052SOL    HW1 7055   0.690   3.038   6.807
 2052SOL    HW2 7056   0.676   3.133   6.939
 2053SOL     OW 7057   6.388   0.064   0.472
 2053SOL    HW1 7058   6.380   0.100   0.565
 2053SOL    HW2 7059   6.394   0.140   0.407
 2054SOL     OW 7060   6.104   2.836   0.775
 2054SOL    HW1 7061   6.133   2.810   0.867
 2054SOL    HW2 7062   6.168   2.903   0.737
 2055SOL     OW 7063   5.479   2.383   3.390
 2055SOL    HW1 7064   5.463   2.449   3.316
 2055SOL    HW2 7065   5.433   2.297   3.367
 2056SOL     OW 7066   2.313   1.332   3.188
 2056SOL    HW1 7067   2.384   1.279   3.232
 2056SOL    HW2 7068   2.349   1.422   3.162
 2057SOL     OW 7069   5.704   1.973   3.877
 2057SOL    HW1 7070   5.684   2.003   3.970
 2057SOL    HW2 7071   5.747   1.883   3.880
 2058SOL     OW 7072   0.285   2.061   3.378
 2058SOL    HW1 7073   0.208   2.085   3.436
 2058SOL    HW2 7074   0.348   2.138   3.371
 2059SOL     OW 7075   2.020   0.776   6.620
 2059SOL    HW1 7076   1.963   0.762   6.539
 2059SOL    HW2 7077   2.044   0.687   6.659
 2060SOL     OW 7078   0.061   4.722   1.560
 2060SOL    HW1 7079   0.133   4.658   1.588
 2060SOL    HW2 7080   0.097   4.783   1.489
 2061SOL     OW 7081   6.605   1.284   2.232
 2061SOL    HW1 7082   6.514   1.297   2.271
 2061SOL    HW2 7083   6.597   1.233   2.146
 2062SOL     OW 7084   4.584   0.197   2.359
 2062SOL    HW1 7085   4.612   0.279   2.409
 2062SOL    HW2 7086   4.529   0.222   2.280
 2063SOL     OW 7087   1.517   2.128   6.075
 2063SOL    HW1 7088   1.474   2.158   6.161
 2063SOL    HW2 7089   1.600   2.077   6.096
 2064SOL     OW 7090   1.145   2.166   5.491
 2064SOL    HW1 7091   1.090   2.228   5.435
 2064SOL    HW2 7092   1.107   2.163   5.584
 2065SOL     OW 7093   5.792   3.298   2.157
 2065SOL    HW1 7094   5.759   3.265   2.069
 2065SOL    HW2 7095   5.856   3.231   2.196
 2066SOL     OW 7096   0.602   5.882   4.133
 2066SOL    HW1 7097   0.654   5.797   4.130
 2066SOL    HW2 7098   0.629   5.934   4.214
 2067SOL     OW 7099   6.862   6.627   0.559
 2067SOL    HW1 7100   6.828   6.674   0.478
 2067SOL    HW2 7101   6.854   6.528   0.546
 2068SOL     OW 7102   2.437   1.454   5.554
 2068SOL    HW1 7103   2.506   1.448   5.482
 2068SOL    HW2 7104   2.353   1.409   5.522
 2069SOL     OW 7105   0.752   2.687   2.465
 2069SOL    HW1 7106   0.790   2.691   2.373
 2069SOL    HW2 7107   0.699   2.603   2.476
 2070SOL     OW 7108   1.187   0.085   2.402
 2070SOL    HW1 7109   1.191   0.154   2.474
 2070SOL    HW2 7110   1.097   0.041   2.403
 2071SOL     OW 7111   0.991   6.406   3.274
 2071SOL    HW1 7112   0.973   6.329   3.213
 2071SOL    HW2 7113   1.005   6.371   3.367
 2072SOL     OW 7114   4.949   5.796   2.314
 2072SOL    HW1 7115   4.860   5.842   2.312
 2072SOL    HW2 7116   4.979   5.779   2.220
 2073SOL     OW 7117   3.979   0.319   4.663
 2073SOL    HW1 7118   3.913   0.376   4.614
 2073SOL    HW2 7119   3.972   0.225   4.632
 2074SOL     OW 7120   6.774   2.057   0.295
 2074SOL    HW1 7121   6.689   2.012   0.322
 2074SOL    HW2 7122   6.766   2.156   0.310
 2075SOL     OW 7123   4.342   3.298   1.201
 2075SOL    HW1 7124   4.375   3.208   1.229
 2075SOL    HW2 7125   4.313   3.295   1.105
 2076SOL     OW 7126   5.783   5.874   6.994
 2076SOL    HW1 7127   5.854   5.809   6.968
 2076SOL    HW2 7128   5.737   5.842   0.053
 2077SOL     OW 7129   5.184   2.076   2.115
 2077SOL    HW1 7130   5.220   2.041   2.202
 2077SOL    HW2 7131   5.236   2.158   2.089
 2078SOL     OW 7132   2.696   5.845   6.200
 2078SOL    HW1 7133   2.745   5.930   6.221
 2078SOL    HW2 7134   2.762   5.774   6.175
 2079SOL     OW 7135   5.282   0.769   3.609
 2079SOL    HW1 7136   5.253   0.679   3.577
 2079SOL    HW2 7137   5.267   0.837   3.536
 2080SOL     OW 7138   2.680   2.420   4.903
 2080SOL    HW1 7139   2.689   2.439   5.001
 2080SOL    HW2 7140   2.617   2.487   4.863
 2081SOL     OW 7141   0.714   6.470   5.615
 2081SOL    HW1 7142   0.713   6.568   5.593
 2081SOL    HW2 7143   0.806   6.434   5.601
 2082SOL     OW 7144   5.785   0.655   1.671
 2082SOL    HW1 7145   5.736   0.720   1.613
 2082SOL    HW2 7146   5.782   0.564   1.628
 2083SOL     OW 7147   3.908   5.725   6.981
 2083SOL    HW1 7148   3.910   5.686   6.889
 2083SOL    HW2 7149   3.872   5.658   0.022
 2084SOL     OW 7150   6.727   2.382   2.990
 2084SOL    HW1 7151   6.792   2.306   2.984
 2084SOL    HW2 7152   6.740   2.430   3.077
 2085SOL     OW 7153   4.806   0.942   6.486
 2085SOL    HW1 7154   4.897   0.961   6.449
 2085SOL    HW2 7155   4.762   0.870   6.431
 2086SOL     OW 7156   3.368   4.691   6.453
 2086SOL    HW1 7157   3.356   4.622   6.382
 2086SOL    HW2 7158   3.464   4.718   6.457
 2087SOL     OW 7159   4.887   6.479   2.541
 2087SOL    HW1 7160   4.908   6.425   2.459
 2087SOL    HW2 7161   4.921   6.572   2.528
 2088SOL     OW 7162   3.044   6.323   0.821
 2088SOL    HW1 7163   3.025   6.255   0.751
 2088SOL    HW2 7164   3.036   6.281   0.912
 2089SOL     OW 7165   4.697   1.551   0.376
 2089SOL    HW1 7166   4.732   1.515   0.290
 2089SOL    HW2 7167   4.628   1.489   0.413
 2090SOL     OW 7168   3.906   4.015   4.432
 2090SOL    HW1 7169   3.852   3.963   4.499
 2090SOL    HW2 7170   3.967   4.078   4.480
 2091SOL     OW 7171   0.546   5.980   0.526
 2091SOL    HW1 7172   0.453   6.006   0.552
 2091SOL    HW2 7173   0.605   5.980   0.607
 2092SOL     OW 7174   5.555   6.143   0.551
 2092SOL    HW1 7175   5.476   6.170   0.606
 2092SOL    HW2 7176   5.639   6.163   0.601
 2093SOL     OW 7177   1.411   2.277   2.376
 2093SOL    HW1 7178   1.493   2.309   2.328
 2093SOL    HW2 7179   1.370   2.201   2.326
 2094SOL     OW 7180   5.930   0.726   2.151
 2094SOL    HW1 7181   6.028   0.706   2.151
 2094SOL    HW2 7182   5.899   0.738   2.056
 2095SOL     OW 7183   5.106   6.356   3.624
 2095SOL    HW1 7184   5.180   6.423   3.620
 2095SOL    HW2 7185   5.049   6.375   3.704
 2096SOL     OW 7186   4.905   3.834   2.849
 2096SOL    HW1 7187   4.885   3.737   2.863
 2096SOL    HW2 7188   4.977   3.843   2.780
 2097SOL     OW 7189   0.436   2.622   6.575
 2097SOL    HW1 7190   0.338   2.621   6.596
 2097SOL    HW2 7191   0.470   2.528   6.573
 2098SOL     OW 7192   3.913   6.406   4.429
 2098SOL    HW1 7193   3.917   6.309   4.404
 2098SOL    HW2 7194   4.005   6.444   4.435
 2099SOL     OW 7195   2.834   0.945   4.930
 2099SOL    HW1 7196   2.826   0.891   5.013
 2099SOL    HW2 7197   2.863   1.038   4.952
 2100SOL     OW 7198   3.872   3.673   6.553
 2100SOL    HW1 7199   3.952   3.721   6.518
 2100SOL    HW2 7200   3.797   3.739   6.566
 2101SOL     OW 7201   0.614   0.112   2.603
 2101SOL    HW1 7202   0.613   0.030   2.662
 2101SOL    HW2 7203   0.520   0.141   2.585
 2102SOL     OW 7204   0.452   5.651   2.587
 2102SOL    HW1 7205   0.475   5.597   2.507
 2102SOL    HW2 7206   0.354   5.672   2.586
 2103SOL     OW 7207   2.870   3.866   0.036
 2103SOL    HW1 7208   2.958   3.912   0.045
 2103SOL    HW2 7209   2.876   3.774   0.075
 2104SOL     OW 7210   1.736   3.457   6.362
 2104SOL    HW1 7211   1.750   3.538   6.305
 2104SOL    HW2 7212   1.760   3.478   6.457
 2105SOL     OW 7213   5.858   5.368   2.811
 2105SOL    HW1 7214   5.801   5.407   2.738
 2105SOL    HW2 7215   5.843   5.270   2.815
 2106SOL     OW 7216   4.093   5.192   6.735
 2106SOL    HW1 7217   4.109   5.280   6.691
 2106SOL    HW2 7218   4.163   5.175   6.804
 2107SOL     OW 7219   3.969   3.499   5.767
 2107SOL    HW1 7220   4.042   3.542   5.714
 2107SOL    HW2 7221   3.883   3.547   5.752
 2108SOL     OW 7222   6.299   5.327   5.251
 2108SOL    HW1 7223   6.207   5.330   5.289
 2108SOL    HW2 7224   6.307   5.249   5.189
 2109SOL     OW 7225   4.981   6.452   3.367
 2109SOL    HW1 7226   5.042   6.422   3.441
 2109SOL    HW2 7227   5.010   6.542   3.335
 2110SOL     OW 7228   2.894   4.291   6.827
 2110SOL    HW1 7229   2.990   4.301   6.854
 2110SOL    HW2 7230   2.843   4.373   6.854
 2111SOL     OW 7231   0.828   2.251   5.956
 2111SOL    HW1 7232   0.908   2.305   5.928
 2111SOL    HW2 7233   0.847   2.206   6.042
 2112SOL     OW 7234   4.496   2.222   1.726
 2112SOL    HW1 7235   4.525   2.164   1.802
 2112SOL    HW2 7236   4.515   2.176   1.639
 2113SOL     OW 7237   1.673   0.029   3.338
 2113SOL    HW1 7238   1.755   7.016   3.296
 2113SOL    HW2 7239   1.696   0.112   3.389
 2114SOL     OW 7240   1.675   3.997   0.579
 2114SOL    HW1 7241   1.589   3.947   0.583
 2114SOL    HW2 7242   1.681   4.060   0.657
 2115SOL     OW 7243   2.190   4.370   3.399
 2115SOL    HW1 7244   2.258   4.358   3.327
 2115SOL    HW2 7245   2.098   4.366   3.360
 2116SOL     OW 7246   6.405   3.930   2.900
 2116SOL    HW1 7247   6.469   3.965   2.968
 2116SOL    HW2 7248   6.422   3.974   2.812
 2117SOL     OW 7249   0.169   5.006   1.815
 2117SOL    HW1 7250   0.214   5.079   1.866
 2117SOL    HW2 7251   0.126   5.044   1.733
 2118SOL     OW 7252   0.352   3.522   2.474
 2118SOL    HW1 7253   0.267   3.519   2.422
 2118SOL    HW2 7254   0.426   3.481   2.420
 2119SOL     OW 7255   2.081   5.740   1.128
 2119SOL    HW1 7256   2.167   5.721   1.079
 2119SOL    HW2 7257   2.013   5.671   1.104
 2120SOL     OW 7258   6.292   4.622   2.587
 2120SOL    HW1 7259   6.288   4.721   2.603
 2120SOL    HW2 7260   6.320   4.604   2.493
 2121SOL     OW 7261   0.824   5.289   5.328
 2121SOL    HW1 7262   0.822   5.189   5.317
 2121SOL    HW2 7263   0.751   5.330   5.273
 2122SOL     OW 7264   5.953   4.709   5.375
 2122SOL    HW1 7265   6.036   4.708   5.320
 2122SOL    HW2 7266   5.874   4.692   5.316
 2123SOL     OW 7267   0.286   4.188   2.902
 2123SOL    HW1 7268   0.201   4.209   2.950
 2123SOL    HW2 7269   0.299   4.089   2.899
 2124SOL     OW 7270   1.712   1.761   1.275
 2124SOL    HW1 7271   1.712   1.861   1.277
 2124SOL    HW2 7272   1.637   1.730   1.216
 2125SOL     OW 7273   1.325   1.109   0.151
 2125SOL    HW1 7274   1.263   1.033   0.170
 2125SOL    HW2 7275   1.401   1.077   0.094
 2126SOL     OW 7276   2.513   1.229   0.185
 2126SOL    HW1 7277   2.480   1.154   0.128
 2126SOL    HW2 7278   2.611   1.244   0.168
 2127SOL     OW 7279   6.101   2.454   4.276
 2127SOL    HW1 7280   6.010   2.431   4.311
 2127SOL    HW2 7281   6.163   2.469   4.354
 2128SOL     OW 7282   0.292   4.687   4.869
 2128SOL    HW1 7283   0.223   4.755   4.847
 2128SOL    HW2 7284   0.276   4.604   4.815
 2129SOL     OW 7285   4.917   3.018   5.483
 2129SOL    HW1 7286   4.856   2.950   5.444
 2129SOL    HW2 7287   5.010   2.980   5.489
 2130SOL     OW 7288   4.927   6.746   2.502
 2130SOL    HW1 7289   4.996   6.818   2.513
 2130SOL    HW2 7290   4.851   6.763   2.566
 2131SOL     OW 7291   0.323   1.173   0.563
 2131SOL    HW1 7292   0.328   1.084   0.606
 2131SOL    HW2 7293   0.374   1.171   0.476
 2132SOL     OW 7294   3.528   3.052   0.836
 2132SOL    HW1 7295   3.488   3.129   0.886
 2132SOL    HW2 7296   3.491   3.049   0.743
 2133SOL     OW 7297   2.778   2.547   5.664
 2133SOL    HW1 7298   2.862   2.493   5.667
 2133SOL    HW2 7299   2.756   2.570   5.569
 2134SOL     OW 7300   6.798   2.077   1.193
 2134SOL    HW1 7301   6.728   2.059   1.124
 2134SOL    HW2 7302   6.889   2.062   1.152
 2135SOL     OW 7303   0.449   4.256   4.339
 2135SOL    HW1 7304   0.492   4.171   4.371
 2135SOL    HW2 7305   0.480   4.332   4.396
 2136SOL     OW 7306   2.795   5.386   1.930
 2136SOL    HW1 7307   2.709   5.365   1.977
 2136SOL    HW2 7308   2.776   5.414   1.836
 2137SOL     OW 7309   3.025   5.342   4.890
 2137SOL    HW1 7310   2.964   5.312   4.816
 2137SOL    HW2 7311   3.099   5.277   4.901
 2138SOL     OW 7312   5.887   0.456   3.210
 2138SOL    HW1 7313   5.986   0.460   3.217
 2138SOL    HW2 7314   5.861   0.394   3.137
 2139SOL     OW 7315   3.058   0.747   5.035
 2139SOL    HW1 7316   3.059   0.799   5.120
 2139SOL    HW2 7317   3.083   0.807   4.959
 2140SOL     OW 7318   3.399   0.626   5.125
 2140SOL    HW1 7319   3.378   0.552   5.189
 2140SOL    HW2 7320   3.341   0.617   5.044
 2141SOL     OW 7321   6.209   3.950   2.309
 2141SOL    HW1 7322   6.165   3.910   2.390
 2141SOL    HW2 7323   6.275   4.019   2.338
 2142SOL     OW 7324   1.645   2.784   3.976
 2142SOL    HW1 7325   1.681   2.877   3.979
 2142SOL    HW2 7326   1.598   2.769   3.889
 2143SOL     OW 7327   1.842   5.641   1.010
 2143SOL    HW1 7328   1.826   5.656   0.912
 2143SOL    HW2 7329   1.872   5.547   1.024
 2144SOL     OW 7330   0.519   5.103   4.603
 2144SOL    HW1 7331   0.534   5.135   4.510
 2144SOL    HW2 7332   0.426   5.064   4.610
 2145SOL     OW 7333   3.688   6.877   4.378
 2145SOL    HW1 7334   3.667   6.970   4.348
 2145SOL    HW2 7335   3.748   6.833   4.311
 2146SOL     OW 7336   1.885   2.053   0.599
 2146SOL    HW1 7337   1.976   2.056   0.559
 2146SOL    HW2 7338   1.885   1.994   0.680
 2147SOL     OW 7339   6.588   1.939   5.749
 2147SOL    HW1 7340   6.492   1.912   5.743
 2147SOL    HW2 7341   6.620   1.970   5.660
 2148SOL     OW 7342   0.000   2.871   6.512
 2148SOL    HW1 7343   6.940   2.876   6.458
 2148SOL    HW2 7344   0.014   2.958   6.560
 2149SOL     OW 7345   1.285   0.790   0.681
 2149SOL    HW1 7346   1.197   0.797   0.727
 2149SOL    HW2 7347   1.318   0.881   0.658
 2150SOL     OW 7348   2.635   2.834   1.590
 2150SOL    HW1 7349   2.590   2.830   1.679
 2150SOL    HW2 7350   2.628   2.927   1.554
 2151SOL     OW 7351   0.639   6.370   6.929
 2151SOL    HW1 7352   0.608   6.423   6.851
 2151SOL    HW2 7353   0.727   6.327   6.908
 2152SOL     OW 7354   3.793   5.778   1.816
 2152SOL    HW1 7355   3.771   5.754   1.911
 2152SOL    HW2 7356   3.716   5.829   1.776
 2153SOL     OW 7357   4.424   1.146   2.643
 2153SOL    HW1 7358   4.402   1.064   2.696
 2153SOL    HW2 7359   4.350   1.212   2.651
 2154SOL     OW 7360   2.599   6.795   3.362
 2154SOL    HW1 7361   2.676   6.751   3.316
 2154SOL    HW2 7362   2.520   6.734   3.360
 2155SOL     OW 7363   4.253   0.160   0.939
 2155SOL    HW1 7364   4.161   0.187   0.911
 2155SOL    HW2 7365   4.259   0.061   0.943
 2156SOL     OW 7366   6.438   0.991   3.603
 2156SOL    HW1 7367   6.439   1.032   3.512
 2156SOL    HW2 7368   6.350   1.008   3.647
 2157SOL     OW 7369   4.357   6.031   3.952
 2157SOL    HW1 7370   4.379   6.114   4.003
 2157SOL    HW2 7371   4.336   6.054   3.858
 2158SOL     OW 7372   4.276   6.923   0.797
 2158SOL    HW1 7373   4.352   6.916   0.862
 2158SOL    HW2 7374   4.310   6.910   0.704
 2159SOL     OW 7375   1.646   0.541   5.161
 2159SOL    HW1 7376   1.624   0.595   5.242
 2159SOL    HW2 7377   1.587   0.460   5.158
 2160SOL     OW 7378   5.010   5.235   0.492
 2160SOL    HW1 7379   5.039   5.141   0.473
 2160SOL    HW2 7380   4.984   5.280   0.407
 2161SOL     OW 7381   0.649   3.700   2.500
 2161SOL    HW1 7382   0.629   3.655   2.413
 2161SOL    HW2 7383   0.651   3.633   2.573
 2162SOL     OW 7384   2.593   0.039   3.288
 2162SOL    HW1 7385   2.579   6.964   3.286
 2162SOL    HW2 7386   2.604   0.074   3.195
 2163SOL     OW 7387   1.695   3.184   0.324
 2163SOL    HW1 7388   1.666   3.116   0.256
 2163SOL    HW2 7389   1.789   3.211   0.307
 2164SOL     OW 7390   2.453   2.542   0.114
 2164SOL    HW1 7391   2.510   2.472   0.157
 2164SOL    HW2 7392   2.422   2.607   0.184
 2165SOL     OW 7393   0.572   1.732   4.356
 2165SOL    HW1 7394   0.609   1.699   4.442
 2165SOL    HW2 7395   0.639   1.719   4.283
 2166SOL     OW 7396   0.791   4.361   4.077
 2166SOL    HW1 7397   0.755   4.276   4.116
 2166SOL    HW2 7398   0.756   4.372   3.984
 2167SOL     OW 7399   1.438   2.651   3.733
 2167SOL    HW1 7400   1.353   2.639   3.784
 2167SOL    HW2 7401   1.420   2.701   3.649
 2168SOL     OW 7402   1.213   2.160   3.053
 2168SOL    HW1 7403   1.287   2.110   3.010
 2168SOL    HW2 7404   1.211   2.253   3.018
 2169SOL     OW 7405   0.695   0.734   0.830
 2169SOL    HW1 7406   0.683   0.675   0.750
 2169SOL    HW2 7407   0.649   0.693   0.909
 2170SOL     OW 7408   0.592   4.430   5.036
 2170SOL    HW1 7409   0.576   4.523   5.005
 2170SOL    HW2 7410   0.657   4.385   4.975
 2171SOL     OW 7411   0.359   5.564   1.459
 2171SOL    HW1 7412   0.262   5.541   1.470
 2171SOL    HW2 7413   0.374   5.603   1.368
 2172SOL     OW 7414   0.687   1.943   5.051
 2172SOL    HW1 7415   0.775   1.915   5.091
 2172SOL    HW2 7416   0.624   1.866   5.053
 2173SOL     OW 7417   5.753   0.090   5.473
 2173SOL    HW1 7418   5.752   7.020   5.440
 2173SOL    HW2 7419   5.710   0.151   5.405
 2174SOL     OW 7420   0.576   6.306   5.399
 2174SOL    HW1 7421   0.482   6.275   5.387
 2174SOL    HW2 7422   0.587   6.347   5.490
 2175SOL     OW 7423   1.978   3.106   5.371
 2175SOL    HW1 7424   1.976   3.010   5.399
 2175SOL    HW2 7425   2.052   3.120   5.306
 2176SOL     OW 7426   4.896   2.462   1.387
 2176SOL    HW1 7427   4.922   2.539   1.447
 2176SOL    HW2 7428   4.853   2.498   1.304
 2177SOL     OW 7429   6.490   0.646   3.050
 2177SOL    HW1 7430   6.462   0.696   3.133
 2177SOL    HW2 7431   6.589   0.636   3.049
 2178SOL     OW 7432   1.241   1.568   1.491
 2178SOL    HW1 7433   1.319   1.536   1.438
 2178SOL    HW2 7434   1.165   1.503   1.482
 2179SOL     OW 7435   1.970   4.182   6.664
 2179SOL    HW1 7436   1.993   4.274   6.632
 2179SOL    HW2 7437   2.007   4.168   6.755
 2180SOL     OW 7438   1.849   3.641   2.140
 2180SOL    HW1 7439   1.773   3.704   2.128
 2180SOL    HW2 7440   1.934   3.693   2.150
 2181SOL     OW 7441   4.673   4.789   4.594
 2181SOL    HW1 7442   4.611   4.840   4.653
 2181SOL    HW2 7443   4.755   4.763   4.646
 2182SOL     OW 7444   0.811   4.850   3.350
 2182SOL    HW1 7445   0.779   4.774   3.294
 2182SOL    HW2 7446   0.741   4.922   3.351
 2183SOL     OW 7447   2.937   3.583   0.133
 2183SOL    HW1 7448   2.962   3.618   0.224
 2183SOL    HW2 7449   2.888   3.496   0.144
 2184SOL     OW 7450   5.545   0.355   0.063
 2184SOL    HW1 7451   5.579   0.357   6.992
 2184SOL    HW2 7452   5.456   0.310   0.065
 2185SOL     OW 7453   0.881   1.124   6.530
 2185SOL    HW1 7454   0.954   1.078   6.581
 2185SOL    HW2 7455   0.874   1.084   6.438
 2186SOL     OW 7456   6.227   5.210   4.856
 2186SOL    HW1 7457   6.295   5.210   4.783
 2186SOL    HW2 7458   6.258   5.270   4.930
 2187SOL     OW 7459   0.144   5.377   2.689
 2187SOL    HW1 7460   0.139   5.367   2.788
 2187SOL    HW2 7461   0.226   5.332   2.654
 2188SOL     OW 7462   2.633   5.335   6.338
 2188SOL    HW1 7463   2.680   5.334   6.426
 2188SOL    HW2 7464   2.693   5.298   6.267
 2189SOL     OW 7465   2.411   1.245   2.149
 2189SOL    HW1 7466   2.348   1.256   2.072
 2189SOL    HW2 7467   2.374   1.180   2.214
 2190SOL     OW 7468   0.027   3.406   2.133
 2190SOL    HW1 7469   0.070   3.374   2.048
 2190SOL    HW2 7470   6.953   3.419   2.118
 2191SOL     OW 7471   2.658   1.612   5.101
 2191SOL    HW1 7472   2.723   1.631   5.175
 2191SOL    HW2 7473   2.678   1.673   5.024
 2192SOL     OW 7474   5.592   0.065   2.417
 2192SOL    HW1 7475   5.649   0.079   2.337
 2192SOL    HW2 7476   5.572   0.153   2.461
 2193SOL     OW 7477   6.263   6.785   6.196
 2193SOL    HW1 7478   6.243   6.728   6.276
 2193SOL    HW2 7479   6.177   6.817   6.156
 2194SOL     OW 7480   0.567   4.033   5.269
 2194SOL    HW1 7481   0.621   4.108   5.306
 2194SOL    HW2 7482   0.609   3.946   5.294
 2195SOL     OW 7483   6.809   5.569   5.327
 2195SOL    HW1 7484   6.886   5.622   5.362
 2195SOL    HW2 7485   6.841   5.477   5.302
 2196SOL     OW 7486   3.053   6.630   5.079
 2196SOL    HW1 7487   3.125   6.696   5.101
 2196SOL    HW2 7488   2.964   6.674   5.089
 2197SOL     OW 7489   2.892   3.123   5.948
 2197SOL    HW1 7490   2.915   3.215   5.978
 2197SOL    HW2 7491   2.934   3.105   5.859
 2198SOL     OW 7492   6.605   7.018   0.568
 2198SOL    HW1 7493   6.532   0.039   0.516
 2198SOL    HW2 7494   6.595   6.919   0.562
 2199SOL     OW 7495   4.973   0.139   4.823
 2199SOL    HW1 7496   4.929   0.069   4.766
 2199SOL    HW2 7497   4.920   0.151   4.907
 2200SOL     OW 7498   3.410   1.155   3.857
 2200SOL    HW1 7499   3.504   1.157   3.890
 2200SOL    HW2 7500   3.409   1.155   3.757
 2201SOL     OW 7501   6.324   2.966   3.373
 2201SOL    HW1 7502   6.269   2.887   3.343
 2201SOL    HW2 7503   6.268   3.025   3.430
 2202SOL     OW 7504   2.938   5.492   2.720
 2202SOL    HW1 7505   2.989   5.439   2.653
 2202SOL    HW2 7506   2.885   5.563   2.673
 2203SOL     OW 7507   2.709   3.923   1.140
 2203SOL    HW1 7508   2.621   3.884   1.111
 2203SOL    HW2 7509   2.701   4.023   1.144
 2204SOL     OW 7510   4.293   2.748   1.245
 2204SOL    HW1 7511   4.321   2.721   1.337
 2204SOL    HW2 7512   4.250   2.838   1.247
 2205SOL     OW 7513   1.579   6.622   0.438
 2205SOL    HW1 7514   1.641   6.622   0.360
 2205SOL    HW2 7515   1.631   6.612   0.523
 2206SOL     OW 7516   2.266   4.564   6.393
 2206SOL    HW1 7517   2.323   4.597   6.468
 2206SOL    HW2 7518   2.226   4.476   6.417
 2207SOL     OW 7519   3.164   5.412   0.670
 2207SOL    HW1 7520   3.164   5.468   0.753
 2207SOL    HW2 7521   3.104   5.333   0.684
 2208SOL     OW 7522   1.061   5.658   3.499
 2208SOL    HW1 7523   1.029   5.571   3.460
 2208SOL    HW2 7524   1.004   5.682   3.578
 2209SOL     OW 7525   2.391   5.784   4.933
 2209SOL    HW1 7526   2.297   5.814   4.912
 2209SOL    HW2 7527   2.440   5.858   4.978
 2210SOL     OW 7528   6.607   5.861   2.736
 2210SOL    HW1 7529   6.568   5.952   2.724
 2210SOL    HW2 7530   6.538   5.800   2.776
 2211SOL     OW 7531   5.957   0.705   0.724
 2211SOL    HW1 7532   5.967   0.655   0.637
 2211SOL    HW2 7533   5.861   0.727   0.738
 2212SOL     OW 7534   2.163   5.748   6.719
 2212SOL    HW1 7535   2.102   5.789   6.787
 2212SOL    HW2 7536   2.162   5.805   6.637
 2213SOL     OW 7537   4.582   2.709   5.009
 2213SOL    HW1 7538   4.597   2.802   4.974
 2213SOL    HW2 7539   4.604   2.643   4.937
 2214SOL     OW 7540   3.650   2.844   5.172
 2214SOL    HW1 7541   3.578   2.775   5.165
 2214SOL    HW2 7542   3.681   2.869   5.080
 2215SOL     OW 7543   5.572   1.618   6.577
 2215SOL    HW1 7544   5.621   1.657   6.499
 2215SOL    HW2 7545   5.637   1.580   6.642
 2216SOL     OW 7546   0.717   6.492   5.899
 2216SOL    HW1 7547   0.711   6.591   5.908
 2216SOL    HW2 7548   0.712   6.466   5.803
 2217SOL     OW 7549   4.573   0.980   3.586
 2217SOL    HW1 7550   4.606   0.994   3.493
 2217SOL    HW2 7551   4.651   0.976   3.649
 2218SOL     OW 7552   0.023   5.205   6.854
 2218SOL    HW1 7553   0.075   5.194   6.939
 2218SOL    HW2 7554   0.036   5.125   6.796
 2219SOL     OW 7555   6.134   1.943   1.103
 2219SOL    HW1 7556   6.139   1.992   1.190
 2219SOL    HW2 7557   6.042   1.949   1.066
 2220SOL     OW 7558   2.374   6.084   5.735
 2220SOL    HW1 7559   2.315   6.153   5.776
 2220SOL    HW2 7560   2.377   6.096   5.636
 2221SOL     OW 7561   6.925   1.640   4.568
 2221SOL    HW1 7562   6.840   1.638   4.619
 2221SOL    HW2 7563   6.913   1.695   4.485
 2222SOL     OW 7564   6.004   6.680   0.743
 2222SOL    HW1 7565   6.002   6.605   0.810
 2222SOL    HW2 7566   5.933   6.664   0.675
 2223SOL     OW 7567   6.658   1.316   5.495
 2223SOL    HW1 7568   6.732   1.383   5.488
 2223SOL    HW2 7569   6.579   1.350   5.444
 2224SOL     OW 7570   5.943   3.607   1.998
 2224SOL    HW1 7571   5.854   3.590   1.957
 2224SOL    HW2 7572   5.937   3.684   2.062
 2225SOL     OW 7573   0.268   6.993   3.118
 2225SOL    HW1 7574   0.272   7.019   3.022
 2225SOL    HW2 7575   0.235   0.046   3.173
 2226SOL     OW 7576   3.966   5.734   0.610
 2226SOL    HW1 7577   3.938   5.638   0.614
 2226SOL    HW2 7578   3.938   5.774   0.523
 2227SOL     OW 7579   4.567   2.697   1.566
 2227SOL    HW1 7580   4.587   2.654   1.654
 2227SOL    HW2 7581   4.482   2.659   1.529
 2228SOL     OW 7582   4.692   5.348   0.345
 2228SOL    HW1 7583   4.667   5.445   0.345
 2228SOL    HW2 7584   4.785   5.337   0.309
 2229SOL     OW 7585   3.474   3.483   4.764
 2229SOL    HW1 7586   3.461   3.385   4.754
 2229SOL    HW2 7587   3.462   3.509   4.860
 2230SOL     OW 7588   5.416   5.874   1.618
 2230SOL    HW1 7589   5.432   5.943   1.689
 2230SOL    HW2 7590   5.482   5.800   1.628
 2231SOL     OW 7591   0.852   0.202   6.480
 2231SOL    HW1 7592   0.762   0.216   6.520
 2231SOL    HW2 7593   0.923   0.218   6.549
 2232SOL     OW 7594   0.570   1.205   4.983
 2232SOL    HW1 7595   0.588   1.272   4.912
 2232SOL    HW2 7596   0.626   1.123   4.967
 2233SOL     OW 7597   2.720   3.317   0.876
 2233SOL    HW1 7598   2.811   3.277   0.886
 2233SOL    HW2 7599   2.714   3.364   0.788
 2234SOL     OW 7600   3.777   1.389   0.734
 2234SOL    HW1 7601   3.758   1.314   0.797
 2234SOL    HW2 7602   3.824   1.354   0.653
 2235SOL     OW 7603   2.692   0.247   2.427
 2235SOL    HW1 7604   2.595   0.225   2.442
 2235SOL    HW2 7605   2.700   0.317   2.356
 2236SOL     OW 7606   1.926   3.569   6.136
 2236SOL    HW1 7607   1.973   3.505   6.197
 2236SOL    HW2 7608   1.867   3.517   6.073
 2237SOL     OW 7609   5.951   4.440   4.809
 2237SOL    HW1 7610   6.042   4.469   4.837
 2237SOL    HW2 7611   5.959   4.367   4.741
 2238SOL     OW 7612   4.607   4.709   2.604
 2238SOL    HW1 7613   4.672   4.782   2.584
 2238SOL    HW2 7614   4.653   4.635   2.654
 2239SOL     OW 7615   4.656   5.704   4.129
 2239SOL    HW1 7616   4.593   5.722   4.054
 2239SOL    HW2 7617   4.735   5.654   4.095
 2240SOL     OW 7618   3.732   5.681   2.066
 2240SOL    HW1 7619   3.785   5.616   2.120
 2240SOL    HW2 7620   3.740   5.772   2.106
 2241SOL     OW 7621   6.615   6.918   2.048
 2241SOL    HW1 7622   6.662   7.006   2.058
 2241SOL    HW2 7623   6.542   6.911   2.116
 2242SOL     OW 7624   5.385   3.155   2.738
 2242SOL    HW1 7625   5.437   3.161   2.653
 2242SOL    HW2 7626   5.288   3.175   2.719
 2243SOL     OW 7627   1.770   6.680   0.239
 2243SOL    HW1 7628   1.870   6.678   0.241
 2243SOL    HW2 7629   1.739   6.686   0.144
 2244SOL     OW 7630   2.500   0.409   1.065
 2244SOL    HW1 7631   2.593   0.416   1.101
 2244SOL    HW2 7632   2.434   0.413   1.140
 2245SOL     OW 7633   6.989   1.180   0.909
 2245SOL    HW1 7634   0.015   1.107   0.863
 2245SOL    HW2 7635   0.028   1.230   0.969
 2246SOL     OW 7636   1.763   0.600   3.889
 2246SOL    HW1 7637   1.755   0.630   3.984
 2246SOL    HW2 7638   1.820   0.664   3.838
 2247SOL     OW 7639   3.200   3.656   2.660
 2247SOL    HW1 7640   3.236   3.680   2.570
 2247SOL    HW2 7641   3.158   3.737   2.701
 2248SOL     OW 7642   6.638   4.064   4.490
 2248SOL    HW1 7643   6.599   4.128   4.556
 2248SOL    HW2 7644   6.701   4.003   4.536
 2249SOL     OW 7645   4.423   6.984   3.939
 2249SOL    HW1 7646   4.353   0.010   3.990
 2249SOL    HW2 7647   4.380   6.932   3.865
 2250SOL     OW 7648   3.414   3.733   5.370
 2250SOL    HW1 7649   3.468   3.810   5.403
 2250SOL    HW2 7650   3.371   3.757   5.283
 2251SOL     OW 7651   5.362   0.124   6.130
 2251SOL    HW1 7652   5.303   0.195   6.171
 2251SOL    HW2 7653   5.333   0.107   6.036
 2252SOL     OW 7654   4.967   2.077   2.665
 2252SOL    HW1 7655   5.035   2.054   2.735
 2252SOL    HW2 7656   4.877   2.043   2.694
 2253SOL     OW 7657   0.368   3.819   0.165
 2253SOL    HW1 7658   0.269   3.822   0.175
 2253SOL    HW2 7659   0.394   3.737   0.114
 2254SOL     OW 7660   3.634   3.272   3.413
 2254SOL    HW1 7661   3.702   3.291   3.484
 2254SOL    HW2 7662   3.542   3.294   3.448
 2255SOL     OW 7663   3.071   3.516   5.650
 2255SOL    HW1 7664   3.167   3.503   5.625
 2255SOL    HW2 7665   3.025   3.427   5.655
 2256SOL     OW 7666   4.922   6.740   1.788
 2256SOL    HW1 7667   4.987   6.816   1.780
 2256SOL    HW2 7668   4.916   6.712   1.884
 2257SOL     OW 7669   1.096   1.000   4.496
 2257SOL    HW1 7670   1.006   0.979   4.457
 2257SOL    HW2 7671   1.150   0.916   4.502
 2258SOL     OW 7672   2.035   5.695   4.205
 2258SOL    HW1 7673   2.087   5.686   4.290
 2258SOL    HW2 7674   2.060   5.780   4.159
 2259SOL     OW 7675   5.502   2.893   5.364
 2259SOL    HW1 7676   5.428   2.948   5.326
 2259SOL    HW2 7677   5.504   2.902   5.463
 2260SOL     OW 7678   0.444   3.677   1.214
 2260SOL    HW1 7679   0.370   3.643   1.156
 2260SOL    HW2 7680   0.410   3.690   1.307
 2261SOL     OW 7681   6.705   4.866   0.785
 2261SOL    HW1 7682   6.732   4.785   0.734
 2261SOL    HW2 7683   6.786   4.920   0.808
 2262SOL     OW 7684   6.058   6.861   3.131
 2262SOL    HW1 7685   6.000   6.842   3.051
 2262SOL    HW2 7686   6.051   6.786   3.196
 2263SOL     OW 7687   2.081   6.036   0.552
 2263SOL    HW1 7688   2.078   5.983   0.468
 2263SOL    HW2 7689   2.126   5.983   0.624
 2264SOL     OW 7690   2.631   6.833   6.425
 2264SOL    HW1 7691   2.644   6.928   6.452
 2264SOL    HW2 7692   2.535   6.817   6.405
 2265SOL     OW 7693   1.938   0.756   4.477
 2265SOL    HW1 7694   2.023   0.770   4.427
 2265SOL    HW2 7695   1.938   0.813   4.559
 2266SOL     OW 7696   4.946   1.937   6.504
 2266SOL    HW1 7697   5.033   1.969   6.466
 2266SOL    HW2 7698   4.957   1.916   6.601
 2267SOL     OW 7699   4.979   2.853   5.087
 2267SOL    HW1 7700   4.963   2.774   5.027
 2267SOL    HW2 7701   5.021   2.822   5.172
 2268SOL     OW 7702   6.224   3.954   6.602
 2268SOL    HW1 7703   6.301   3.995   6.650
 2268SOL    HW2 7704   6.192   4.017   6.531
 2269SOL     OW 7705   1.057   3.370   4.911
 2269SOL    HW1 7706   1.029   3.451   4.860
 2269SOL    HW2 7707   0.976   3.330   4.956
 2270SOL     OW 7708   3.845   3.041   6.630
 2270SOL    HW1 7709   3.882   3.099   6.702
 2270SOL    HW2 7710   3.910   2.968   6.609
 2271SOL     OW 7711   5.630   4.607   6.943
 2271SOL    HW1 7712   5.588   4.533   6.996
 2271SOL    HW2 7713   5.631   4.581   6.846
 2272SOL     OW 7714   6.402   0.806   6.486
 2272SOL    HW1 7715   6.443   0.791   6.576
 2272SOL    HW2 7716   6.325   0.869   6.495
 2273SOL     OW 7717   1.678   2.238   1.901
 2273SOL    HW1 7718   1.684   2.338   1.904
 2273SOL    HW2 7719   1.699   2.207   1.809
 2274SOL     OW 7720   0.569   1.778   6.423
 2274SOL    HW1 7721   0.498   1.838   6.386
 2274SOL    HW2 7722   0.641   1.834   6.464
 2275SOL     OW 7723   5.870   6.320   2.902
 2275SOL    HW1 7724   5.837   6.412   2.922
 2275SOL    HW2 7725   5.968   6.323   2.880
 2276SOL     OW 7726   1.512   5.627   1.431
 2276SOL    HW1 7727   1.514   5.626   1.531
 2276SOL    HW2 7728   1.486   5.719   1.399
 2277SOL     OW 7729   3.263   3.974   4.847
 2277SOL    HW1 7730   3.256   3.875   4.846
 2277SOL    HW2 7731   3.235   4.009   4.936
 2278SOL     OW 7732   6.023   2.300   3.787
 2278SOL    HW1 7733   6.031   2.334   3.880
 2278SOL    HW2 7734   6.104   2.327   3.735
 2279SOL     OW 7735   6.444   6.711   5.206
 2279SOL    HW1 7736   6.487   6.714   5.296
 2279SOL    HW2 7737   6.501   6.759   5.140
 2280SOL     OW 7738   6.509   0.289   4.623
 2280SOL    HW1 7739   6.490   0.307   4.526
 2280SOL    HW2 7740   6.544   0.195   4.633
 2281SOL     OW 7741   3.014   0.741   1.862
 2281SOL    HW1 7742   3.075   0.735   1.941
 2281SOL    HW2 7743   3.067   0.732   1.778
 2282SOL     OW 7744   5.579   6.004   5.555
 2282SOL    HW1 7745   5.555   6.097   5.583
 2282SOL    HW2 7746   5.511   5.940   5.592
 2283SOL     OW 7747   1.654   0.686   2.239
 2283SOL    HW1 7748   1.725   0.703   2.308
 2283SOL    HW2 7749   1.608   0.600   2.259
 2284SOL     OW 7750   1.242   3.549   6.292
 2284SOL    HW1 7751   1.269   3.496   6.211
 2284SOL    HW2 7752   1.322   3.567   6.349
 2285SOL     OW 7753   1.115   3.184   0.056
 2285SOL    HW1 7754   1.120   3.124   0.135
 2285SOL    HW2 7755   1.207   3.213   0.030
 2286SOL     OW 7756   5.415   0.078   3.620
 2286SOL    HW1 7757   5.422   0.015   3.543
 2286SOL    HW2 7758   5.492   0.142   3.619
 2287SOL     OW 7759   2.409   1.072   3.685
 2287SOL    HW1 7760   2.452   1.156   3.653
 2287SOL    HW2 7761   2.455   0.993   3.643
 2288SOL     OW 7762   0.092   5.105   4.010
 2288SOL    HW1 7763   0.124   5.034   3.947
 2288SOL    HW2 7764   0.062   5.062   4.095
 2289SOL     OW 7765   0.116   5.237   0.580
 2289SOL    HW1 7766   0.045   5.238   0.651
 2289SOL    HW2 7767   0.125   5.328   0.541
 2290SOL     OW 7768   0.188   3.808   1.598
 2290SOL    HW1 7769   0.235   3.737   1.547
 2290SOL    HW2 7770   0.144   3.871   1.535
 2291SOL     OW 7771   2.544   2.553   5.824
 2291SOL    HW1 7772   2.529   2.645   5.787
 2291SOL    HW2 7773   2.619   2.509   5.775
 2292SOL     OW 7774   1.632   1.577   4.404
 2292SOL    HW1 7775   1.623   1.477   4.395
 2292SOL    HW2 7776   1.728   1.600   4.415
 2293SOL     OW 7777   5.286   5.869   2.006
 2293SOL    HW1 7778   5.216   5.924   1.962
 2293SOL    HW2 7779   5.308   5.908   2.096
 2294SOL     OW 7780   3.099   0.254   6.989
 2294SOL    HW1 7781   3.191   0.278   7.019
 2294SOL    HW2 7782   3.033   0.316   0.008
 2295SOL     OW 7783   0.463   1.697   2.437
 2295SOL    HW1 7784   0.549   1.693   2.487
 2295SOL    HW2 7785   0.470   1.643   2.353
 2296SOL     OW 7786   2.926   6.531   0.656
 2296SOL    HW1 7787   2.989   6.486   0.720
 2296SOL    HW2 7788   2.969   6.614   0.621
 2297SOL     OW 7789   3.667   4.320   5.200
 2297SOL    HW1 7790   3.720   4.263   5.264
 2297SOL    HW2 7791   3.688   4.293   5.106
 2298SOL     OW 7792   3.858   2.867   1.549
 2298SOL    HW1 7793   3.922   2.797   1.518
 2298SOL    HW2 7794   3.795   2.828   1.616
 2299SOL     OW 7795   5.478   0.732   6.763
 2299SOL    HW1 7796   5.458   0.812   6.706
 2299SOL    HW2 7797   5.427   0.653   6.728
 2300SOL     OW 7798   2.364   5.179   1.517
 2300SOL    HW1 7799   2.432   5.202   1.586
 2300SOL    HW2 7800   2.305   5.258   1.501
 2301SOL     OW 7801   2.938   3.320   3.033
 2301SOL    HW1 7802   3.001   3.370   2.973
 2301SOL    HW2 7803   2.845   3.356   3.020
 2302SOL     OW 7804   3.563   0.510   2.051
 2302SOL    HW1 7805   3.566   0.476   2.145
 2302SOL    HW2 7806   3.603   0.442   1.989
 2303SOL     OW 7807   1.794   3.433   5.935
 2303SOL    HW1 7808   1.742   3.449   5.851
 2303SOL    HW2 7809   1.846   3.349   5.926
 2304SOL     OW 7810   2.752   0.482   3.048
 2304SOL    HW1 7811   2.759   0.392   3.090
 2304SOL    HW2 7812   2.659   0.497   3.016
 2305SOL     OW 7813   3.699   5.830   3.173
 2305SOL    HW1 7814   3.665   5.848   3.265
 2305SOL    HW2 7815   3.710   5.917   3.125
 2306SOL     OW 7816   1.946   5.797   1.465
 2306SOL    HW1 7817   1.952   5.725   1.534
 2306SOL    HW2 7818   1.906   5.759   1.381
 2307SOL     OW 7819   2.349   4.738   2.388
 2307SOL    HW1 7820   2.386   4.771   2.476
 2307SOL    HW2 7821   2.352   4.638   2.386
 2308SOL     OW 7822   1.240   6.887   6.646
 2308SOL    HW1 7823   1.217   6.790   6.641
 2308SOL    HW2 7824   1.177   6.939   6.587
 2309SOL     OW 7825   2.591   6.777   0.093
 2309SOL    HW1 7826   2.531   6.761   0.172
 2309SOL    HW2 7827   2.681   6.807   0.124
 2310SOL     OW 7828   6.060   6.172   1.613
 2310SOL    HW1 7829   6.155   6.153   1.640
 2310SOL    HW2 7830   6.008   6.087   1.610
 2311SOL     OW 7831   3.025   6.442   2.429
 2311SOL    HW1 7832   3.021   6.396   2.340
 2311SOL    HW2 7833   3.021   6.373   2.502
 2312SOL     OW 7834   3.351   6.627   3.176
 2312SOL    HW1 7835   3.302   6.611   3.262
 2312SOL    HW2 7836   3.304   6.698   3.124
 2313SOL     OW 7837   4.697   5.359   2.224
 2313SOL    HW1 7838   4.705   5.293   2.299
 2313SOL    HW2 7839   4.788   5.386   2.193
 2314SOL     OW 7840   5.763   1.025   3.919
 2314SOL    HW1 7841   5.797   0.933   3.903
 2314SOL    HW2 7842   5.670   1.021   3.956
 2315SOL     OW 7843   5.123   3.616   5.015
 2315SOL    HW1 7844   5.028   3.590   5.028
 2315SOL    HW2 7845   5.144   3.618   4.917
 2316SOL     OW 7846   2.930   1.436   5.204
 2316SOL    HW1 7847   2.937   1.457   5.106
 2316SOL    HW2 7848   2.882   1.510   5.250
 2317SOL     OW 7849   6.677   6.486   3.592
 2317SOL    HW1 7850   6.666   6.570   3.645
 2317SOL    HW2 7851   6.695   6.409   3.654
 2318SOL     OW 7852   2.125   3.598   4.460
 2318SOL    HW1 7853   2.151   3.522   4.519
 2318SOL    HW2 7854   2.202   3.624   4.402
 2319SOL     OW 7855   3.252   5.690   5.254
 2319SOL    HW1 7856   3.330   5.718   5.310
 2319SOL    HW2 7857   3.210   5.608   5.293
 2320SOL     OW 7858   1.444   2.506   4.825
 2320SOL    HW1 7859   1.401   2.547   4.904
 2320SOL    HW2 7860   1.382   2.438   4.784
 2321SOL     OW 7861   2.285   5.577   6.922
 2321SOL    HW1 7862   2.246   5.640   6.854
 2321SOL    HW2 7863   2.299   5.626   7.008
 2322SOL     OW 7864   2.070   4.670   2.308
 2322SOL    HW1 7865   2.017   4.755   2.314
 2322SOL    HW2 7866   2.163   4.687   2.338
 2323SOL     OW 7867   3.389   4.773   1.705
 2323SOL    HW1 7868   3.464   4.716   1.739
 2323SOL    HW2 7869   3.314   4.773   1.772
 2324SOL     OW 7870   6.585   6.366   0.967
 2324SOL    HW1 7871   6.612   6.276   1.001
 2324SOL    HW2 7872   6.662   6.429   0.975
 2325SOL     OW 7873   0.322   4.247   1.155
 2325SOL    HW1 7874   0.315   4.159   1.202
 2325SOL    HW2 7875   0.247   4.256   1.089
 2326SOL     OW 7876   1.367   6.443   6.361
 2326SOL    HW1 7877   1.434   6.407   6.427
 2326SOL    HW2 7878   1.278   6.401   6.378
 2327SOL     OW 7879   0.725   1.533   3.092
 2327SOL    HW1 7880   0.791   1.458   3.084
 2327SOL    HW2 7881   0.766   1.608   3.145
 2328SOL     OW 7882   1.652   1.617   3.130
 2328SOL    HW1 7883   1.641   1.652   3.222
 2328SOL    HW2 7884   1.663   1.693   3.066
 2329SOL     OW 7885   1.040   4.499   5.117
 2329SOL    HW1 7886   1.017   4.503   5.020
 2329SOL    HW2 7887   0.986   4.566   5.168
 2330SOL     OW 7888   0.386   2.877   0.955
 2330SOL    HW1 7889   0.469   2.844   0.909
 2330SOL    HW2 7890   0.390   2.853   1.052
 2331SOL     OW 7891   3.877   5.160   0.302
 2331SOL    HW1 7892   3.964   5.148   0.350
 2331SOL    HW2 7893   3.892   5.215   0.219
 2332SOL     OW 7894   0.050   6.932   5.692
 2332SOL    HW1 7895   7.009   7.004   5.669
 2332SOL    HW2 7896   0.001   6.849   5.719
 2333SOL     OW 7897   0.071   4.455   3.543
 2333SOL    HW1 7898   0.036   4.548   3.550
 2333SOL    HW2 7899   0.104   4.425   3.633
 2334SOL     OW 7900   2.091   1.186   6.599
 2334SOL    HW1 7901   2.084   1.108   6.537
 2334SOL    HW2 7902   2.029   1.258   6.570
 2335SOL     OW 7903   5.899   0.802   4.053
 2335SOL    HW1 7904   5.883   0.723   3.993
 2335SOL    HW2 7905   5.856   0.786   4.141
 2336SOL     OW 7906   4.052   1.425   5.164
 2336SOL    HW1 7907   4.075   1.504   5.108
 2336SOL    HW2 7908   4.128   1.404   5.225
 2337SOL     OW 7909   4.056   0.347   1.209
 2337SOL    HW1 7910   4.147   0.314   1.181
 2337SOL    HW2 7911   4.025   0.416   1.143
 2338SOL     OW 7912   0.500   2.986   4.427
 2338SOL    HW1 7913   0.418   2.936   4.455
 2338SOL    HW2 7914   0.479   3.083   4.415
 2339SOL     OW 7915   3.567   4.165   3.296
 2339SOL    HW1 7916   3.656   4.120   3.298
 2339SOL    HW2 7917   3.543   4.185   3.201
 2340SOL     OW 7918   6.606   4.151   6.475
 2340SOL    HW1 7919   6.615   4.053   6.489
 2340SOL    HW2 7920   6.666   4.200   6.539
 2341SOL     OW 7921   3.139   4.924   2.418
 2341SOL    HW1 7922   3.220   4.902   2.472
 2341SOL    HW2 7923   3.156   5.007   2.365
 2342SOL     OW 7924   1.311   6.713   5.183
 2342SOL    HW1 7925   1.352   6.623   5.171
 2342SOL    HW2 7926   1.315   6.739   5.280
 2343SOL     OW 7927   1.625   5.419   2.496
 2343SOL    HW1 7928   1.577   5.349   2.443
 2343SOL    HW2 7929   1.683   5.473   2.435
 2344SOL     OW 7930   0.676   5.592   6.749
 2344SOL    HW1 7931   0.603   5.615   6.813
 2344SOL    HW2 7932   0.723   5.509   6.780
 2345SOL     OW 7933   2.790   5.483   5.180
 2345SOL    HW1 7934   2.838   5.566   5.208
 2345SOL    HW2 7935   2.853   5.406   5.181
 2346SOL     OW 7936   3.274   3.027   5.469
 2346SOL    HW1 7937   3.373   3.019   5.484
 2346SOL    HW2 7938   3.257   3.102   5.405
 2347SOL     OW 7939   2.804   2.445   1.400
 2347SOL    HW1 7940   2.813   2.390   1.483
 2347SOL    HW2 7941   2.758   2.531   1.421
 2348SOL     OW 7942   2.255   6.199   3.306
 2348SOL    HW1 7943   2.309   6.156   3.234
 2348SOL    HW2 7944   2.161   6.168   3.300
 2349SOL     OW 7945   1.257   4.653   6.180
 2349SOL    HW1 7946   1.260   4.592   6.101
 2349SOL    HW2 7947   1.345   4.649   6.229
 2350SOL     OW 7948   6.059   5.719   6.069
 2350SOL    HW1 7949   5.998   5.783   6.022
 2350SOL    HW2 7950   6.094   5.760   6.153
 2351SOL     OW 7951   2.987   5.243   4.423
 2351SOL    HW1 7952   2.990   5.211   4.518
 2351SOL    HW2 7953   2.905   5.299   4.409
 2352SOL     OW 7954   0.484   3.987   2.402
 2352SOL    HW1 7955   0.426   3.910   2.429
 2352SOL    HW2 7956   0.572   3.981   2.449
 2353SOL     OW 7957   3.403   5.526   4.553
 2353SOL    HW1 7958   3.395   5.545   4.651
 2353SOL    HW2 7959   3.488   5.476   4.536
 2354SOL     OW 7960   2.673   1.928   5.233
 2354SOL    HW1 7961   2.602   1.951   5.300
 2354SOL    HW2 7962   2.696   1.831   5.242
 2355SOL     OW 7963   2.071   6.777   5.886
 2355SOL    HW1 7964   2.159   6.778   5.934
 2355SOL    HW2 7965   2.010   6.845   5.925
 2356SOL     OW 7966   1.541   3.282   6.384
 2356SOL    HW1 7967   1.621   3.341   6.378
 2356SOL    HW2 7968   1.465   3.322   6.333
 2357SOL     OW 7969   4.020   0.027   2.925
 2357SOL    HW1 7970   4.015   0.082   2.842
 2357SOL    HW2 7971   3.993   6.956   2.904
 2358SOL     OW 7972   3.186   5.081   5.271
 2358SOL    HW1 7973   3.229   4.991   5.270
 2358SOL    HW2 7974   3.198   5.122   5.362
 2359SOL     OW 7975   6.789   0.839   5.080
 2359SOL    HW1 7976   6.879   0.877   5.097
 2359SOL    HW2 7977   6.746   0.887   5.003
 2360SOL     OW 7978   5.607   3.355   0.004
 2360SOL    HW1 7979   5.555   3.271   7.013
 2360SOL    HW2 7980   5.547   3.426   0.040
 2361SOL     OW 7981   2.308   0.819   5.842
 2361SOL    HW1 7982   2.356   0.856   5.921
 2361SOL    HW2 7983   2.375   0.779   5.779
 2362SOL     OW 7984   2.160   5.648   3.701
 2362SOL    HW1 7985   2.118   5.737   3.682
 2362SOL    HW2 7986   2.243   5.638   3.646
 2363SOL     OW 7987   4.898   2.072   4.894
 2363SOL    HW1 7988   4.919   2.006   4.966
 2363SOL    HW2 7989   4.840   2.029   4.825
 2364SOL     OW 7990   0.921   2.305   2.405
 2364SOL    HW1 7991   0.860   2.374   2.444
 2364SOL    HW2 7992   0.984   2.272   2.475
 2365SOL     OW 7993   6.415   2.502   6.488
 2365SOL    HW1 7994   6.478   2.501   6.566
 2365SOL    HW2 7995   6.398   2.408   6.458
 2366SOL     OW 7996   2.449   5.540   6.270
 2366SOL    HW1 7997   2.531   5.483   6.260
 2366SOL    HW2 7998   2.382   5.516   6.200
 2367SOL     OW 7999   2.855   4.065   0.735
 2367SOL    HW1 8000   2.786   3.992   0.739
 2367SOL    HW2 8001   2.912   4.061   0.817
 2368SOL     OW 8002   4.243   0.335   4.732
 2368SOL    HW1 8003   4.227   0.316   4.829
 2368SOL    HW2 8004   4.156   0.357   4.688
 2369SOL     OW 8005   2.313   0.723   5.165
 2369SOL    HW1 8006   2.284   0.706   5.259
 2369SOL    HW2 8007   2.235   0.753   5.110
 2370SOL     OW 8008   4.734   3.130   6.958
 2370SOL    HW1 8009   4.657   3.189   6.984
 2370SOL    HW2 8010   4.718   3.092   6.867
 2371SOL     OW 8011   0.617   6.712   1.519
 2371SOL    HW1 8012   0.672   6.760   1.587
 2371SOL    HW2 8013   0.550   6.776   1.479
 2372SOL     OW 8014   0.115   3.100   1.708
 2372SOL    HW1 8015   0.204   3.095   1.754
 2372SOL    HW2 8016   0.077   3.008   1.699
 2373SOL     OW 8017   1.228   2.497   6.263
 2373SOL    HW1 8018   1.277   2.443   6.195
 2373SOL    HW2 8019   1.281   2.499   6.348
 2374SOL     OW 8020   6.124   1.756   3.576
 2374SOL    HW1 8021   6.138   1.713   3.487
 2374SOL    HW2 8022   6.028   1.780   3.587
 2375SOL     OW 8023   3.076   6.537   4.788
 2375SOL    HW1 8024   2.990   6.557   4.741
 2375SOL    HW2 8025   3.075   6.579   4.878
 2376SOL     OW 8026   6.714   2.329   4.360
 2376SOL    HW1 8027   6.617   2.331   4.335
 2376SOL    HW2 8028   6.764   2.395   4.304
 2377SOL     OW 8029   4.029   3.905   3.743
 2377SOL    HW1 8030   4.056   3.895   3.839
 2377SOL    HW2 8031   4.073   3.834   3.688
 2378SOL     OW 8032   5.215   1.740   0.962
 2378SOL    HW1 8033   5.240   1.824   1.009
 2378SOL    HW2 8034   5.131   1.755   0.910
 2379SOL     OW 8035   6.696   1.356   0.064
 2379SOL    HW1 8036   6.734   1.445   0.090
 2379SOL    HW2 8037   6.763   1.306   0.009
 2380SOL     OW 8038   0.311   1.619   6.951
 2380SOL    HW1 8039   0.350   1.668   0.005
 2380SOL    HW2 8040   0.347   1.525   6.950
 2381SOL     OW 8041   2.250   5.002   4.513
 2381SOL    HW1 8042   2.268   4.904   4.518
 2381SOL    HW2 8043   2.265   5.043   4.603
 2382SOL     OW 8044   1.920   3.815   4.685
 2382SOL    HW1 8045   2.013   3.783   4.702
 2382SOL    HW2 8046   1.905   3.820   4.586
 2383SOL     OW 8047   4.678   6.144   0.809
 2383SOL    HW1 8048   4.582   6.171   0.803
 2383SOL    HW2 8049   4.708   6.145   0.904
 2384SOL     OW 8050   5.968   1.004   3.151
 2384SOL    HW1 8051   6.060   1.043   3.142
 2384SOL    HW2 8052   5.975   0.905   3.162
 2385SOL     OW 8053   1.156   6.754   0.559
 2385SOL    HW1 8054   1.093   6.818   0.604
 2385SOL    HW2 8055   1.112   6.716   0.478
 2386SOL     OW 8056   6.252   5.769   4.501
 2386SOL    HW1 8057   6.195   5.764   4.419
 2386SOL    HW2 8058   6.229   5.694   4.562
 2387SOL     OW 8059   1.446   2.145   3.994
 2387SOL    HW1 8060   1.349   2.138   3.970
 2387SOL    HW2 8061   1.496   2.068   3.955
 2388SOL     OW 8062   0.797   2.269   4.441
 2388SOL    HW1 8063   0.820   2.326   4.362
 2388SOL    HW2 8064   0.817   2.174   4.420
 2389SOL     OW 8065   4.769   4.073   2.870
 2389SOL    HW1 8066   4.715   4.053   2.951
 2389SOL    HW2 8067   4.836   4.000   2.856
 2390SOL     OW 8068   3.926   3.065   3.592
 2390SOL    HW1 8069   3.877   3.146   3.560
 2390SOL    HW2 8070   3.866   2.986   3.588
 2391SOL     OW 8071   5.027   3.842   5.989
 2391SOL    HW1 8072   5.015   3.855   5.890
 2391SOL    HW2 8073   4.939   3.851   6.035
 2392SOL     OW 8074   4.248   6.249   5.290
 2392SOL    HW1 8075   4.184   6.255   5.214
 2392SOL    HW2 8076   4.341   6.238   5.254
 2393SOL     OW 8077   4.828   3.478   6.204
 2393SOL    HW1 8078   4.917   3.512   6.174
 2393SOL    HW2 8079   4.769   3.466   6.124
 2394SOL     OW 8080   1.303   3.810   4.769
 2394SOL    HW1 8081   1.273   3.811   4.865
 2394SOL    HW2 8082   1.234   3.854   4.712
 2395SOL     OW 8083   5.285   2.038   5.973
 2395SOL    HW1 8084   5.297   2.110   5.905
 2395SOL    HW2 8085   5.311   2.072   6.063
 2396SOL     OW 8086   3.654   5.667   1.303
 2396SOL    HW1 8087   3.596   5.749   1.307
 2396SOL    HW2 8088   3.695   5.660   1.212
 2397SOL     OW 8089   6.612   3.743   5.650
 2397SOL    HW1 8090   6.675   3.666   5.662
 2397SOL    HW2 8091   6.582   3.746   5.554
 2398SOL     OW 8092   3.614   3.804   6.532
 2398SOL    HW1 8093   3.581   3.885   6.483
 2398SOL    HW2 8094   3.583   3.722   6.484
 2399SOL     OW 8095   4.443   1.109   1.775
 2399SOL    HW1 8096   4.349   1.078   1.790
 2399SOL    HW2 8097   4.476   1.073   1.688
 2400SOL     OW 8098   3.142   4.127   0.684
 2400SOL    HW1 8099   3.198   4.114   0.602
 2400SOL    HW2 8100   3.087   4.045   0.700
 2401SOL     OW 8101   5.195   6.206   6.717
 2401SOL    HW1 8102   5.154   6.136   6.775
 2401SOL    HW2 8103   5.128   6.236   6.649
 2402SOL     OW 8104   0.243   0.585   3.574
 2402SOL    HW1 8105   0.322   0.605   3.516
 2402SOL    HW2 8106   0.162   0.627   3.534
 2403SOL     OW 8107   2.319   1.986   6.540
 2403SOL    HW1 8108   2.357   1.951   6.625
 2403SOL    HW2 8109   2.287   2.080   6.554
 2404SOL     OW 8110   3.010   0.887   1.120
 2404SOL    HW1 8111   3.061   0.896   1.206
 2404SOL    HW2 8112   2.998   0.977   1.079
 2405SOL     OW 8113   3.596   3.541   2.442
 2405SOL    HW1 8114   3.626   3.459   2.391
 2405SOL    HW2 8115   3.672   3.576   2.496
 2406SOL     OW 8116   2.544   6.957   2.165
 2406SOL    HW1 8117   2.595   6.898   2.228
 2406SOL    HW2 8118   2.454   6.976   2.202
 2407SOL     OW 8119   5.737   1.750   2.436
 2407SOL    HW1 8120   5.642   1.723   2.422
 2407SOL    HW2 8121   5.793   1.715   2.360
 2408SOL     OW 8122   4.629   4.920   2.932
 2408SOL    HW1 8123   4.620   4.941   2.835
 2408SOL    HW2 8124   4.598   4.826   2.949
 2409SOL     OW 8125   1.905   4.854   1.924
 2409SOL    HW1 8126   1.883   4.771   1.975
 2409SOL    HW2 8127   1.860   4.933   1.967
 2410SOL     OW 8128   4.129   3.597   5.580
 2410SOL    HW1 8129   4.198   3.668   5.568
 2410SOL    HW2 8130   4.100   3.563   5.490
 2411SOL     OW 8131   4.946   5.914   4.983
 2411SOL    HW1 8132   5.005   5.847   4.937
 2411SOL    HW2 8133   4.860   5.870   5.010
 2412SOL     OW 8134   5.403   4.723   1.056
 2412SOL    HW1 8135   5.443   4.669   1.130
 2412SOL    HW2 8136   5.412   4.674   0.970
 2413SOL     OW 8137   6.343   1.499   0.626
 2413SOL    HW1 8138   6.440   1.522   0.629
 2413SOL    HW2 8139   6.317   1.478   0.532
 2414SOL     OW 8140   4.764   4.502   2.689
 2414SOL    HW1 8141   4.778   4.487   2.591
 2414SOL    HW2 8142   4.847   4.540   2.729
 2415SOL     OW 8143   6.624   1.052   3.201
 2415SOL    HW1 8144   6.619   1.079   3.104
 2415SOL    HW2 8145   6.543   1.086   3.249
 2416SOL     OW 8146   4.890   2.367   5.253
 2416SOL    HW1 8147   4.910   2.368   5.351
 2416SOL    HW2 8148   4.793   2.346   5.240
 2417SOL     OW 8149   3.852   3.514   4.913
 2417SOL    HW1 8150   3.842   3.530   4.815
 2417SOL    HW2 8151   3.949   3.505   4.936
 2418SOL     OW 8152   3.450   2.874   4.797
 2418SOL    HW1 8153   3.412   2.923   4.719
 2418SOL    HW2 8154   3.390   2.797   4.819
 2419SOL     OW 8155   6.851   0.131   5.002
 2419SOL    HW1 8156   6.863   0.047   4.949
 2419SOL    HW2 8157   6.927   0.140   5.067
 2420SOL     OW 8158   3.348   0.434   2.373
 2420SOL    HW1 8159   3.305   0.511   2.420
 2420SOL    HW2 8160   3.442   0.458   2.349
 2421SOL     OW 8161   2.054   2.821   5.237
 2421SOL    HW1 8162   2.042   2.835   5.335
 2421SOL    HW2 8163   2.056   2.723   5.217
 2422SOL     OW 8164   5.359   1.395   1.057
 2422SOL    HW1 8165   5.388   1.468   0.996
 2422SOL    HW2 8166   5.426   1.382   1.130
 2423SOL     OW 8167   1.738   5.777   2.751
 2423SOL    HW1 8168   1.750   5.860   2.696
 2423SOL    HW2 8169   1.819   5.719   2.741
 2424SOL     OW 8170   5.841   6.834   6.417
 2424SOL    HW1 8171   5.781   6.912   6.435
 2424SOL    HW2 8172   5.842   6.773   6.496
 2425SOL     OW 8173   5.479   0.745   4.159
 2425SOL    HW1 8174   5.416   0.715   4.231
 2425SOL    HW2 8175   5.573   0.739   4.191
 2426SOL     OW 8176   1.194   5.851   5.014
 2426SOL    HW1 8177   1.137   5.930   4.991
 2426SOL    HW2 8178   1.224   5.806   4.931
 2427SOL     OW 8179   5.117   5.881   5.362
 2427SOL    HW1 8180   5.131   5.979   5.380
 2427SOL    HW2 8181   5.201   5.841   5.325
 2428SOL     OW 8182   0.318   0.488   2.031
 2428SOL    HW1 8183   0.333   0.546   2.111
 2428SOL    HW2 8184   0.232   0.438   2.041
 2429SOL     OW 8185   5.819   5.588   2.971
 2429SOL    HW1 8186   5.847   5.499   2.935
 2429SOL    HW2 8187   5.741   5.622   2.919
 2430SOL     OW 8188   6.122   0.886   1.745
 2430SOL    HW1 8189   6.035   0.873   1.792
 2430SOL    HW2 8190   6.198   0.871   1.808
 2431SOL     OW 8191   3.907   0.887   1.691
 2431SOL    HW1 8192   3.830   0.880   1.627
 2431SOL    HW2 8193   3.879   0.854   1.781
 2432SOL     OW 8194   3.371   6.062   2.700
 2432SOL    HW1 8195   3.424   6.079   2.783
 2432SOL    HW2 8196   3.432   6.030   2.627
 2433SOL     OW 8197   3.851   1.680   0.341
 2433SOL    HW1 8198   3.860   1.706   0.437
 2433SOL    HW2 8199   3.895   1.748   0.284
 2434SOL     OW 8200   4.239   1.477   5.924
 2434SOL    HW1 8201   4.303   1.430   5.862
 2434SOL    HW2 8202   4.249   1.440   6.016
 2435SOL     OW 8203   4.762   5.088   5.703
 2435SOL    HW1 8204   4.835   5.023   5.678
 2435SOL    HW2 8205   4.770   5.109   5.800
 2436SOL     OW 8206   1.597   5.304   0.121
 2436SOL    HW1 8207   1.606   5.221   0.176
 2436SOL    HW2 8208   1.645   5.292   0.034
 2437SOL     OW 8209   5.383   6.718   6.835
 2437SOL    HW1 8210   5.358   6.638   6.779
 2437SOL    HW2 8211   5.374   6.695   6.932
 2438SOL     OW 8212   3.050   1.282   6.618
 2438SOL    HW1 8213   3.072   1.326   6.531
 2438SOL    HW2 8214   3.105   1.324   6.691
 2439SOL     OW 8215   0.556   4.698   6.452
 2439SOL    HW1 8216   0.637   4.639   6.446
 2439SOL    HW2 8217   0.473   4.643   6.442
 2440SOL     OW 8218   4.435   6.276   6.239
 2440SOL    HW1 8219   4.388   6.195   6.273
 2440SOL    HW2 8220   4.498   6.310   6.309
 2441SOL     OW 8221   6.940   2.391   6.752
 2441SOL    HW1 8222   6.905   2.298   6.764
 2441SOL    HW2 8223   7.023   2.388   6.696
 2442SOL     OW 8224   1.274   4.196   5.924
 2442SOL    HW1 8225   1.358   4.167   5.879
 2442SOL    HW2 8226   1.294   4.225   6.017
 2443SOL     OW 8227   3.627   5.049   6.521
 2443SOL    HW1 8228   3.617   5.133   6.468
 2443SOL    HW2 8229   3.622   4.970   6.460
 2444SOL     OW 8230   2.764   4.862   6.552
 2444SOL    HW1 8231   2.670   4.890   6.532
 2444SOL    HW2 8232   2.772   4.839   6.649
 2445SOL     OW 8233   6.992   1.468   1.224
 2445SOL    HW1 8234   0.029   1.522   1.283
 2445SOL    HW2 8235   6.902   1.511   1.221
 2446SOL     OW 8236   6.054   4.412   4.101
 2446SOL    HW1 8237   6.096   4.487   4.154
 2446SOL    HW2 8238   6.124   4.366   4.047
 2447SOL     OW 8239   2.464   2.867   0.030
 2447SOL    HW1 8240   2.481   2.960   7.023
 2447SOL    HW2 8241   2.371   2.860   0.066
 2448SOL     OW 8242   0.394   0.973   4.835
 2448SOL    HW1 8243   0.355   1.058   4.800
 2448SOL    HW2 8244   0.340   0.942   4.914
 2449SOL     OW 8245   6.816   3.911   0.432
 2449SOL    HW1 8246   6.857   3.994   0.471
 2449SOL    HW2 8247   6.884   3.864   0.375
 2450SOL     OW 8248   2.539   4.512   2.897
 2450SOL    HW1 8249   2.547   4.415   2.875
 2450SOL    HW2 8250   2.498   4.522   2.987
 2451SOL     OW 8251   1.513   6.663   4.125
 2451SOL    HW1 8252   1.611   6.681   4.136
 2451SOL    HW2 8253   1.500   6.590   4.058
 2452SOL     OW 8254   1.500   3.633   3.081
 2452SOL    HW1 8255   1.538   3.726   3.077
 2452SOL    HW2 8256   1.551   3.573   3.020
 2453SOL     OW 8257   6.551   4.953   1.513
 2453SOL    HW1 8258   6.503   5.041   1.519
 2453SOL    HW2 8259   6.592   4.932   1.602
 2454SOL     OW 8260   3.491   0.777   2.035
 2454SOL    HW1 8261   3.554   0.700   2.040
 2454SOL    HW2 8262   3.525   0.843   1.968
 2455SOL     OW 8263   5.416   5.329   0.763
 2455SOL    HW1 8264   5.386   5.235   0.777
 2455SOL    HW2 8265   5.451   5.367   0.849
 2456SOL     OW 8266   4.863   6.478   1.694
 2456SOL    HW1 8267   4.883   6.569   1.730
 2456SOL    HW2 8268   4.780   6.443   1.738
 2457SOL     OW 8269   5.877   6.747   0.353
 2457SOL    HW1 8270   5.899   6.657   0.390
 2457SOL    HW2 8271   5.905   6.818   0.418
 2458SOL     OW 8272   2.252   5.842   2.942
 2458SOL    HW1 8273   2.229   5.895   3.024
 2458SOL    HW2 8274   2.218   5.890   2.861
 2459SOL     OW 8275   1.610   0.154   0.426
 2459SOL    HW1 8276   1.586   0.106   0.511
 2459SOL    HW2 8277   1.558   0.114   0.350
 2460SOL     OW 8278   2.456   6.438   2.823
 2460SOL    HW1 8279   2.508   6.366   2.870
 2460SOL    HW2 8280   2.517   6.488   2.761
 2461SOL     OW 8281   5.708   0.290   2.029
 2461SOL    HW1 8282   5.646   0.366   2.007
 2461SOL    HW2 8283   5.689   0.213   1.968
 2462SOL     OW 8284   2.104   5.034   0.056
 2462SOL    HW1 8285   2.201   5.031   0.083
 2462SOL    HW2 8286   2.063   4.944   0.070
 2463SOL     OW 8287   6.866   2.104   3.365
 2463SOL    HW1 8288   6.881   2.006   3.354
 2463SOL    HW2 8289   6.808   2.137   3.290
 2464SOL     OW 8290   0.994   4.231   1.071
 2464SOL    HW1 8291   0.951   4.314   1.036
 2464SOL    HW2 8292   0.943   4.198   1.150
 2465SOL     OW 8293   6.959   5.869   2.039
 2465SOL    HW1 8294   6.908   5.857   2.124
 2465SOL    HW2 8295   6.915   5.818   1.965
 2466SOL     OW 8296   4.286   1.624   2.967
 2466SOL    HW1 8297   4.199   1.656   3.001
 2466SOL    HW2 8298   4.280   1.611   2.868
 2467SOL     OW 8299   6.998   0.705   6.010
 2467SOL    HW1 8300   6.990   0.800   6.040
 2467SOL    HW2 8301   0.057   0.694   5.955
 2468SOL     OW 8302   6.761   6.486   2.127
 2468SOL    HW1 8303   6.669   6.449   2.130
 2468SOL    HW2 8304   6.764   6.571   2.180
 2469SOL     OW 8305   2.996   3.591   5.132
 2469SOL    HW1 8306   2.926   3.661   5.114
 2469SOL    HW2 8307   2.981   3.552   5.222
 2470SOL     OW 8308   3.171   3.833   6.375
 2470SOL    HW1 8309   3.262   3.828   6.334
 2470SOL    HW2 8310   3.123   3.746   6.362
 2471SOL     OW 8311   0.381   6.353   2.490
 2471SOL    HW1 8312   0.315   6.375   2.562
 2471SOL    HW2 8313   0.362   6.409   2.409
 2472SOL     OW 8314   5.490   2.322   4.236
 2472SOL    HW1 8315   5.547   2.308   4.317
 2472SOL    HW2 8316   5.399   2.351   4.264
 2473SOL     OW 8317   0.743   5.411   4.501
 2473SOL    HW1 8318   0.716   5.483   4.438
 2473SOL    HW2 8319   0.772   5.451   4.588
 2474SOL     OW 8320   0.165   5.443   5.436
 2474SOL    HW1 8321   0.201   5.413   5.525
 2474SOL    HW2 8322   0.069   5.466   5.445
 2475SOL     OW 8323   4.225   2.414   0.424
 2475SOL    HW1 8324   4.206   2.392   0.520
 2475SOL    HW2 8325   4.199   2.509   0.406
 2476SOL     OW 8326   1.151   1.816   3.701
 2476SOL    HW1 8327   1.083   1.889   3.712
 2476SOL    HW2 8328   1.133   1.744   3.767
 2477SOL     OW 8329   5.553   5.604   1.556
 2477SOL    HW1 8330   5.481   5.581   1.490
 2477SOL    HW2 8331   5.534   5.559   1.643
 2478SOL     OW 8332   6.330   6.436   2.874
 2478SOL    HW1 8333   6.307   6.354   2.821
 2478SOL    HW2 8334   6.427   6.434   2.897
 2479SOL     OW 8335   0.191   2.445   0.828
 2479SOL    HW1 8336   0.158   2.359   0.867
 2479SOL    HW2 8337   0.129   2.475   0.755
 2480SOL     OW 8338   6.409   3.547   1.531
 2480SOL    HW1 8339   6.412   3.608   1.452
 2480SOL    HW2 8340   6.490   3.562   1.587
 2481SOL     OW 8341   4.333   5.531   1.925
 2481SOL    HW1 8342   4.261   5.510   1.991
 2481SOL    HW2 8343   4.408   5.465   1.935
 2482SOL     OW 8344   5.401   3.566   5.088
 2482SOL    HW1 8345   5.406   3.514   5.003
 2482SOL    HW2 8346   5.306   3.590   5.107
 2483SOL     OW 8347   1.143   0.947   6.872
 2483SOL    HW1 8348   1.114   1.037   6.903
 2483SOL    HW2 8349   1.125   0.937   6.775
 2484SOL     OW 8350   3.287   1.152   0.650
 2484SOL    HW1 8351   3.323   1.154   0.556
 2484SOL    HW2 8352   3.221   1.078   0.659
 2485SOL     OW 8353   0.329   5.219   2.574
 2485SOL    HW1 8354   0.305   5.131   2.532
 2485SOL    HW2 8355   0.352   5.285   2.502
 2486SOL     OW 8356   1.898   5.517   2.934
 2486SOL    HW1 8357   1.803   5.542   2.917
 2486SOL    HW2 8358   1.958   5.578   2.882
 2487SOL     OW 8359   4.272   0.630   0.930
 2487SOL    HW1 8360   4.225   0.542   0.915
 2487SOL    HW2 8361   4.369   0.613   0.946
 2488SOL     OW 8362   2.429   4.936   1.791
 2488SOL    HW1 8363   2.473   4.868   1.850
 2488SOL    HW2 8364   2.333   4.944   1.816
 2489SOL     OW 8365   1.277   5.391   5.107
 2489SOL    HW1 8366   1.259   5.391   5.205
 2489SOL    HW2 8367   1.345   5.461   5.085
 2490SOL     OW 8368   6.374   3.955   0.728
 2490SOL    HW1 8369   6.453   3.963   0.790
 2490SOL    HW2 8370   6.361   4.042   0.680
 2491SOL     OW 8371   3.037   4.976   3.256
 2491SOL    HW1 8372   2.956   5.024   3.289
 2491SOL    HW2 8373   3.115   5.038   3.256
 2492SOL     OW 8374   4.589   2.910   6.492
 2492SOL    HW1 8375   4.507   2.853   6.488
 2492SOL    HW2 8376   4.670   2.852   6.484
 2493SOL     OW 8377   6.159   1.721   3.012
 2493SOL    HW1 8378   6.167   1.739   2.914
 2493SOL    HW2 8379   6.113   1.633   3.026
 2494SOL     OW 8380   4.769   2.777   2.243
 2494SOL    HW1 8381   4.683   2.825   2.261
 2494SOL    HW2 8382   4.750   2.680   2.228
 2495SOL     OW 8383   5.374   1.021   5.140
 2495SOL    HW1 8384   5.459   1.058   5.103
 2495SOL    HW2 8385   5.353   0.935   5.094
 2496SOL     OW 8386   1.189   5.786   0.083
 2496SOL    HW1 8387   1.182   5.884   0.103
 2496SOL    HW2 8388   1.112   5.757   0.026
 2497SOL     OW 8389   6.785   1.822   6.639
 2497SOL    HW1 8390   6.803   1.821   6.737
 2497SOL    HW2 8391   6.687   1.819   6.623
 2498SOL     OW 8392   1.774   3.144   4.262
 2498SOL    HW1 8393   1.739   3.204   4.334
 2498SOL    HW2 8394   1.702   3.080   4.234
 2499SOL     OW 8395   5.096   0.801   4.627
 2499SOL    HW1 8396   5.066   0.890   4.592
 2499SOL    HW2 8397   5.163   0.814   4.700
 2500SOL     OW 8398   4.453   3.180   6.346
 2500SOL    HW1 8399   4.484   3.274   6.335
 2500SOL    HW2 8400   4.531   3.122   6.369
 2501SOL     OW 8401   6.197   4.613   6.854
 2501SOL    HW1 8402   6.241   4.544   6.797
 2501SOL    HW2 8403   6.121   4.570   6.905
 2502SOL     OW 8404   1.905   0.004   2.575
 2502SOL    HW1 8405   1.888   0.062   2.495
 2502SOL    HW2 8406   2.002   7.010   2.584
 2503SOL     OW 8407   3.978   5.071   5.759
 2503SOL    HW1 8408   4.011   5.147   5.815
 2503SOL    HW2 8409   3.940   5.106   5.673
 2504SOL     OW 8410   1.781   5.114   4.503
 2504SOL    HW1 8411   1.761   5.191   4.563
 2504SOL    HW2 8412   1.706   5.048   4.507
 2505SOL     OW 8413   4.662   5.699   4.389
 2505SOL    HW1 8414   4.577   5.742   4.420
 2505SOL    HW2 8415   4.669   5.706   4.289
 2506SOL     OW 8416   6.248   2.547   6.002
 2506SOL    HW1 8417   6.310   2.513   5.931
 2506SOL    HW2 8418   6.238   2.646   5.991
 2507SOL     OW 8419   6.347   5.768   0.630
 2507SOL    HW1 8420   6.278   5.823   0.582
 2507SOL    HW2 8421   6.371   5.813   0.716
 2508SOL     OW 8422   2.533   2.506   2.243
 2508SOL    HW1 8423   2.589   2.449   2.182
 2508SOL    HW2 8424   2.483   2.574   2.188
 2509SOL     OW 8425   5.471   2.564   3.179
 2509SOL    HW1 8426   5.483   2.587   3.082
 2509SOL    HW2 8427   5.374   2.549   3.197
 2510SOL     OW 8428   3.657   4.899   0.750
 2510SOL    HW1 8429   3.613   4.912   0.839
 2510SOL    HW2 8430   3.741   4.954   0.746
 2511SOL     OW 8431   1.305   0.737   5.403
 2511SOL    HW1 8432   1.255   0.724   5.318
 2511SOL    HW2 8433   1.243   0.769   5.474
 2512SOL     OW 8434   4.933   3.682   4.757
 2512SOL    HW1 8435   4.874   3.642   4.828
 2512SOL    HW2 8436   5.024   3.641   4.763
 2513SOL     OW 8437   0.540   2.655   6.832
 2513SOL    HW1 8438   0.538   2.747   6.873
 2513SOL    HW2 8439   0.478   2.653   6.753
 2514SOL     OW 8440   1.215   1.249   4.102
 2514SOL    HW1 8441   1.196   1.326   4.040
 2514SOL    HW2 8442   1.142   1.242   4.170
 2515SOL     OW 8443   0.844   5.447   0.804
 2515SOL    HW1 8444   0.756   5.495   0.809
 2515SOL    HW2 8445   0.907   5.500   0.746
 2516SOL     OW 8446   5.669   6.785   3.633
 2516SOL    HW1 8447   5.617   6.749   3.711
 2516SOL    HW2 8448   5.606   6.806   3.558
 2517SOL     OW 8449   2.332   4.838   0.099
 2517SOL    HW1 8450   2.403   4.772   0.124
 2517SOL    HW2 8451   2.266   4.793   0.038
 2518SOL     OW 8452   2.438   2.993   6.456
 2518SOL    HW1 8453   2.502   3.005   6.381
 2518SOL    HW2 8454   2.346   2.981   6.420
 2519SOL     OW 8455   4.715   4.768   5.067
 2519SOL    HW1 8456   4.676   4.698   5.006
 2519SOL    HW2 8457   4.693   4.859   5.031
 2520SOL     OW 8458   2.507   4.068   1.451
 2520SOL    HW1 8459   2.583   4.032   1.506
 2520SOL    HW2 8460   2.461   3.992   1.405
 2521SOL     OW 8461   6.234   0.043   5.688
 2521SOL    HW1 8462   6.270   0.060   5.780
 2521SOL    HW2 8463   6.135   0.037   5.692
 2522SOL     OW 8464   0.857   3.321   4.428
 2522SOL    HW1 8465   0.777   3.327   4.487
 2522SOL    HW2 8466   0.881   3.225   4.415
 2523SOL     OW 8467   0.740   3.682   0.204
 2523SOL    HW1 8468   0.705   3.595   0.238
 2523SOL    HW2 8469   0.714   3.756   0.266
 2524SOL     OW 8470   1.600   6.701   3.796
 2524SOL    HW1 8471   1.540   6.728   3.720
 2524SOL    HW2 8472   1.544   6.668   3.872
 2525SOL     OW 8473   0.924   3.604   3.453
 2525SOL    HW1 8474   0.999   3.549   3.490
 2525SOL    HW2 8475   0.933   3.609   3.353
 2526SOL     OW 8476   0.066   1.666   3.828
 2526SOL    HW1 8477   0.013   1.742   3.864
 2526SOL    HW2 8478   0.140   1.644   3.891
 2527SOL     OW 8479   5.526   6.674   4.309
 2527SOL    HW1 8480   5.443   6.728   4.295
 2527SOL    HW2 8481   5.510   6.580   4.279
 2528SOL     OW 8482   6.225   5.503   0.747
 2528SOL    HW1 8483   6.293   5.575   0.737
 2528SOL    HW2 8484   6.239   5.434   0.676
 2529SOL     OW 8485   5.132   4.655   4.562
 2529SOL    HW1 8486   5.168   4.744   4.536
 2529SOL    HW2 8487   5.121   4.651   4.662
 2530SOL     OW 8488   1.228   0.443   3.515
 2530SOL    HW1 8489   1.313   0.428   3.566
 2530SOL    HW2 8490   1.155   0.469   3.579
 2531SOL     OW 8491   3.943   1.266   6.000
 2531SOL    HW1 8492   4.032   1.223   5.984
 2531SOL    HW2 8493   3.874   1.219   5.945
 2532SOL     OW 8494   1.379   5.011   7.006
 2532SOL    HW1 8495   1.321   4.937   0.016
 2532SOL    HW2 8496   1.365   5.093   0.037
 2533SOL     OW 8497   5.595   6.411   6.043
 2533SOL    HW1 8498   5.687   6.383   6.014
 2533SOL    HW2 8499   5.595   6.509   6.064
 2534SOL     OW 8500   1.163   0.969   3.390
 2534SOL    HW1 8501   1.096   0.989   3.462
 2534SOL    HW2 8502   1.120   0.914   3.318
 2535SOL     OW 8503   2.540   1.318   3.619
 2535SOL    HW1 8504   2.613   1.380   3.590
 2535SOL    HW2 8505   2.522   1.330   3.716
 2536SOL     OW 8506   5.790   1.397   4.095
 2536SOL    HW1 8507   5.774   1.331   4.021
 2536SOL    HW2 8508   5.762   1.488   4.065
 2537SOL     OW 8509   5.307   5.264   1.534
 2537SOL    HW1 8510   5.214   5.275   1.568
 2537SOL    HW2 8511   5.340   5.351   1.497
 2538SOL     OW 8512   1.969   4.943   4.413
 2538SOL    HW1 8513   2.052   4.966   4.463
 2538SOL    HW2 8514   1.892   4.993   4.453
 2539SOL     OW 8515   3.833   6.823   5.412
 2539SOL    HW1 8516   3.773   6.746   5.431
 2539SOL    HW2 8517   3.897   6.799   5.339
 2540SOL     OW 8518   5.580   1.233   2.053
 2540SOL    HW1 8519   5.552   1.322   2.018
 2540SOL    HW2 8520   5.533   1.215   2.140
 2541SOL     OW 8521   1.120   6.313   6.321
 2541SOL    HW1 8522   1.021   6.323   6.312
 2541SOL    HW2 8523   1.152   6.238   6.263
 2542SOL     OW 8524   3.462   1.579   4.648
 2542SOL    HW1 8525   3.377   1.629   4.630
 2542SOL    HW2 8526   3.527   1.596   4.573
 2543SOL     OW 8527   1.041   1.588   3.170
 2543SOL    HW1 8528   0.989   1.672   3.155
 2543SOL    HW2 8529   1.132   1.612   3.206
 2544SOL     OW 8530   6.723   5.197   1.640
 2544SOL    HW1 8531   6.732   5.216   1.542
 2544SOL    HW2 8532   6.676   5.273   1.684
 2545SOL     OW 8533   0.750   1.997   1.231
 2545SOL    HW1 8534   0.675   2.031   1.175
 2545SOL    HW2 8535   0.713   1.938   1.303
 2546SOL     OW 8536   6.902   3.987   1.938
 2546SOL    HW1 8537   6.952   4.060   1.985
 2546SOL    HW2 8538   6.962   3.908   1.928
 2547SOL     OW 8539   5.462   3.778   0.673
 2547SOL    HW1 8540   5.468   3.867   0.629
 2547SOL    HW2 8541   5.438   3.790   0.770
 2548SOL     OW 8542   0.060   6.717   5.180
 2548SOL    HW1 8543   0.122   6.639   5.184
 2548SOL    HW2 8544   0.032   6.741   5.273
 2549SOL     OW 8545   2.524   1.976   0.490
 2549SOL    HW1 8546   2.442   1.927   0.520
 2549SOL    HW2 8547   2.526   1.979   0.390
 2550SOL     OW 8548   4.431   6.920   6.524
 2550SOL    HW1 8549   4.346   6.881   6.559
 2550SOL    HW2 8550   4.509   6.868   6.560
 2551SOL     OW 8551   2.859   5.679   6.910
 2551SOL    HW1 8552   2.881   5.738   6.832
 2551SOL    HW2 8553   2.876   5.583   6.884
 2552SOL     OW 8554   1.867   6.460   0.927
 2552SOL    HW1 8555   1.919   6.454   0.842
 2552SOL    HW2 8556   1.811   6.377   0.938
 2553SOL     OW 8557   4.204   1.313   6.905
 2553SOL    HW1 8558   4.259   1.391   6.933
 2553SOL    HW2 8559   4.169   1.328   6.812
 2554SOL     OW 8560   1.769   5.743   1.258
 2554SOL    HW1 8561   1.741   5.668   1.317
 2554SOL    HW2 8562   1.788   5.707   1.166
 2555SOL     OW 8563   6.173   5.889   5.044
 2555SOL    HW1 8564   6.143   5.838   4.963
 2555SOL    HW2 8565   6.207   5.978   5.017
 2556SOL     OW 8566   3.890   6.684   1.536
 2556SOL    HW1 8567   3.906   6.633   1.451
 2556SOL    HW2 8568   3.862   6.777   1.513
 2557SOL     OW 8569   4.216   0.379   6.936
 2557SOL    HW1 8570   4.163   0.438   6.875
 2557SOL    HW2 8571   4.161   0.298   6.959
 2558SOL     OW 8572   5.689   4.217   6.535
 2558SOL    HW1 8573   5.777   4.218   6.583
 2558SOL    HW2 8574   5.622   4.164   6.589
 2559SOL     OW 8575   1.021   4.078   4.152
 2559SOL    HW1 8576   1.050   4.171   4.173
 2559SOL    HW2 8577   0.941   4.055   4.208
 2560SOL     OW 8578   4.858   2.088   3.336
 2560SOL    HW1 8579   4.820   1.996   3.325
 2560SOL    HW2 8580   4.785   2.150   3.366
 2561SOL     OW 8581   3.421   0.936   4.433
 2561SOL    HW1 8582   3.500   0.929   4.372
 2561SOL    HW2 8583   3.410   0.851   4.484
 2562SOL     OW 8584   3.159   6.838   3.413
 2562SOL    HW1 8585   3.132   6.835   3.509
 2562SOL    HW2 8586   3.253   6.871   3.406
 2563SOL     OW 8587   3.393   1.154   0.399
 2563SOL    HW1 8588   3.492   1.167   0.405
 2563SOL    HW2 8589   3.353   1.229   0.346
 2564SOL     OW 8590   1.594   1.198   0.473
 2564SOL    HW1 8591   1.641   1.264   0.532
 2564SOL    HW2 8592   1.644   1.189   0.387
 2565SOL     OW 8593   1.080   2.194   6.670
 2565SOL    HW1 8594   1.054   2.198   6.573
 2565SOL    HW2 8595   1.001   2.218   6.727
 2566SOL     OW 8596   2.858   0.875   0.802
 2566SOL    HW1 8597   2.895   0.800   0.856
 2566SOL    HW2 8598   2.766   0.852   0.771
 2567SOL     OW 8599   1.236   0.022   6.921
 2567SOL    HW1 8600   1.159   0.083   6.937
 2567SOL    HW2 8601   1.210   6.975   6.855
 2568SOL     OW 8602   2.847   6.328   1.224
 2568SOL    HW1 8603   2.837   6.323   1.324
 2568SOL    HW2 8604   2.760   6.352   1.182
 2569SOL     OW 8605   0.910   1.041   1.133
 2569SOL    HW1 8606   0.945   0.954   1.098
 2569SOL    HW2 8607   0.903   1.037   1.232
 2570SOL     OW 8608   5.305   6.523   0.009
 2570SOL    HW1 8609   5.379   6.484   0.063
 2570SOL    HW2 8610   5.250   6.583   0.067
 2571SOL     OW 8611   3.719   3.495   4.626
 2571SOL    HW1 8612   3.710   3.540   4.537
 2571SOL    HW2 8613   3.636   3.512   4.680
 2572SOL     OW 8614   2.278   6.129   1.438
 2572SOL    HW1 8615   2.370   6.141   1.474
 2572SOL    HW2 8616   2.251   6.033   1.446
 2573SOL     OW 8617   6.673   2.257   3.748
 2573SOL    HW1 8618   6.661   2.292   3.655
 2573SOL    HW2 8619   6.640   2.163   3.754
 2574SOL     OW 8620   6.788   3.900   1.432
 2574SOL    HW1 8621   6.706   3.906   1.489
 2574SOL    HW2 8622   6.770   3.941   1.343
 2575SOL     OW 8623   5.750   3.959   0.731
 2575SOL    HW1 8624   5.812   4.036   0.733
 2575SOL    HW2 8625   5.785   3.889   0.669
 2576SOL     OW 8626   2.167   6.723   3.264
 2576SOL    HW1 8627   2.075   6.717   3.303
 2576SOL    HW2 8628   2.181   6.814   3.226
 2577SOL     OW 8629   2.553   6.499   3.150
 2577SOL    HW1 8630   2.643   6.543   3.152
 2577SOL    HW2 8631   2.488   6.554   3.203
 2578SOL     OW 8632   5.421   2.624   4.399
 2578SOL    HW1 8633   5.468   2.574   4.327
 2578SOL    HW2 8634   5.378   2.706   4.360
 2579SOL     OW 8635   0.271   2.323   6.889
 2579SOL    HW1 8636   0.365   2.356   6.890
 2579SOL    HW2 8637   0.221   2.370   6.816
 2580SOL     OW 8638   1.617   2.549   6.431
 2580SOL    HW1 8639   1.595   2.642   6.461
 2580SOL    HW2 8640   1.712   2.529   6.450
 2581SOL     OW 8641   5.451   5.705   2.377
 2581SOL    HW1 8642   5.413   5.647   2.450
 2581SOL    HW2 8643   5.549   5.716   2.391
 2582SOL     OW 8644   0.854   5.715   2.866
 2582SOL    HW1 8645   0.835   5.812   2.852
 2582SOL    HW2 8646   0.834   5.665   2.782
 2583SOL     OW 8647   0.882   0.204   1.067
 2583SOL    HW1 8648   0.851   0.145   1.142
 2583SOL    HW2 8649   0.978   0.184   1.047
 2584SOL     OW 8650   3.434   6.207   1.111
 2584SOL    HW1 8651   3.382   6.169   1.035
 2584SOL    HW2 8652   3.383   6.193   1.196
 2585SOL     OW 8653   3.191   0.231   1.073
 2585SOL    HW1 8654   3.193   0.277   0.984
 2585SOL    HW2 8655   3.268   0.168   1.080
 2586SOL     OW 8656   6.100   1.949   4.046
 2586SOL    HW1 8657   6.113   1.903   3.958
 2586SOL    HW2 8658   6.136   1.891   4.119
 2587SOL     OW 8659   5.749   6.685   4.170
 2587SOL    HW1 8660   5.757   6.594   4.129
 2587SOL    HW2 8661   5.667   6.689   4.227
 2588SOL     OW 8662   5.592   0.131   1.804
 2588SOL    HW1 8663   5.543   0.052   1.768
 2588SOL    HW2 8664   5.544   0.215   1.779
 2589SOL     OW 8665   6.494   6.744   5.450
 2589SOL    HW1 8666   6.530   6.671   5.508
 2589SOL    HW2 8667   6.425   6.796   5.501
 2590SOL     OW 8668   4.299   6.751   3.230
 2590SOL    HW1 8669   4.301   6.843   3.191
 2590SOL    HW2 8670   4.383   6.702   3.207
 2591SOL     OW 8671   5.142   5.981   1.810
 2591SOL    HW1 8672   5.229   5.976   1.761
 2591SOL    HW2 8673   5.068   6.001   1.746
 2592SOL     OW 8674   3.202   5.771   1.879
 2592SOL    HW1 8675   3.288   5.720   1.880
 2592SOL    HW2 8676   3.128   5.713   1.914
 2593SOL     OW 8677   3.810   6.501   2.931
 2593SOL    HW1 8678   3.795   6.585   2.879
 2593SOL    HW2 8679   3.896   6.459   2.902
 2594SOL     OW 8680   0.080   0.159   6.799
 2594SOL    HW1 8681   7.021   0.212   6.816
 2594SOL    HW2 8682   0.091   0.090   6.870
 2595SOL     OW 8683   6.637   3.342   4.948
 2595SOL    HW1 8684   6.593   3.356   5.036
 2595SOL    HW2 8685   6.567   3.325   4.878
 2596SOL     OW 8686   3.933   2.155   2.174
 2596SOL    HW1 8687   3.941   2.056   2.182
 2596SOL    HW2 8688   3.860   2.177   2.108
 2597SOL     OW 8689   2.714   2.969   0.924
 2597SOL    HW1 8690   2.730   2.930   1.014
 2597SOL    HW2 8691   2.776   2.927   0.858
 2598SOL     OW 8692   6.803   3.009   3.454
 2598SOL    HW1 8693   6.731   2.998   3.523
 2598SOL    HW2 8694   6.766   3.056   3.374
 2599SOL     OW 8695   4.141   5.844   0.144
 2599SOL    HW1 8696   4.217   5.780   0.162
 2599SOL    HW2 8697   4.082   5.806   0.073
 2600SOL     OW 8698   5.710   3.786   3.599
 2600SOL    HW1 8699   5.691   3.721   3.525
 2600SOL    HW2 8700   5.628   3.839   3.618
 2601SOL     OW 8701   3.543   3.567   5.993
 2601SOL    HW1 8702   3.572   3.623   6.071
 2601SOL    HW2 8703   3.594   3.481   5.993
 2602SOL     OW 8704   7.007   4.869   4.186
 2602SOL    HW1 8705   7.020   4.933   4.262
 2602SOL    HW2 8706   6.960   4.787   4.218
 2603SOL     OW 8707   2.533   2.216   1.070
 2603SOL    HW1 8708   2.470   2.277   1.118
 2603SOL    HW2 8709   2.598   2.269   1.017
 2604SOL     OW 8710   5.230   0.424   1.301
 2604SOL    HW1 8711   5.195   0.500   1.356
 2604SOL    HW2 8712   5.240   0.343   1.360
 2605SOL     OW 8713   4.069   4.792   4.269
 2605SOL    HW1 8714   4.102   4.747   4.352
 2605SOL    HW2 8715   4.123   4.875   4.252
 2606SOL     OW 8716   6.118   4.071   1.016
 2606SOL    HW1 8717   6.072   4.154   0.985
 2606SOL    HW2 8718   6.050   3.998   1.025
 2607SOL     OW 8719   1.122   0.713   3.071
 2607SOL    HW1 8720   1.208   0.710   3.122
 2607SOL    HW2 8721   1.053   0.762   3.124
 2608SOL     OW 8722   5.166   0.627   1.499
 2608SOL    HW1 8723   5.098   0.645   1.570
 2608SOL    HW2 8724   5.235   0.699   1.500
 2609SOL     OW 8725   0.807   1.965   2.922
 2609SOL    HW1 8726   0.746   1.920   2.856
 2609SOL    HW2 8727   0.755   1.989   3.004
 2610SOL     OW 8728   6.395   5.427   4.965
 2610SOL    HW1 8729   6.390   5.508   5.022
 2610SOL    HW2 8730   6.488   5.388   4.969
 2611SOL     OW 8731   5.431   6.484   1.355
 2611SOL    HW1 8732   5.411   6.486   1.452
 2611SOL    HW2 8733   5.351   6.516   1.303
 2612SOL     OW 8734   4.721   6.648   3.744
 2612SOL    HW1 8735   4.725   6.744   3.770
 2612SOL    HW2 8736   4.774   6.593   3.809
 2613SOL     OW 8737   3.889   0.277   2.351
 2613SOL    HW1 8738   3.867   0.182   2.374
 2613SOL    HW2 8739   3.943   0.318   2.425
 2614SOL     OW 8740   6.255   6.574   5.903
 2614SOL    HW1 8741   6.233   6.552   5.998
 2614SOL    HW2 8742   6.332   6.637   5.901
 2615SOL     OW 8743   5.208   5.054   3.137
 2615SOL    HW1 8744   5.287   5.081   3.081
 2615SOL    HW2 8745   5.165   4.974   3.096
 2616SOL     OW 8746   3.945   2.998   2.628
 2616SOL    HW1 8747   3.921   2.944   2.548
 2616SOL    HW2 8748   3.866   3.052   2.658
 2617SOL     OW 8749   3.644   5.733   0.853
 2617SOL    HW1 8750   3.559   5.679   0.856
 2617SOL    HW2 8751   3.637   5.801   0.781
 2618SOL     OW 8752   0.037   0.569   1.265
 2618SOL    HW1 8753   0.035   0.601   1.170
 2618SOL    HW2 8754   0.126   0.527   1.284
 2619SOL     OW 8755   4.104   1.701   2.312
 2619SOL    HW1 8756   4.124   1.608   2.284
 2619SOL    HW2 8757   4.189   1.750   2.329
 2620SOL     OW 8758   1.497   4.613   3.694
 2620SOL    HW1 8759   1.465   4.707   3.682
 2620SOL    HW2 8760   1.574   4.596   3.633
 2621SOL     OW 8761   0.522   5.913   3.761
 2621SOL    HW1 8762   0.457   5.989   3.756
 2621SOL    HW2 8763   0.615   5.948   3.755
 2622SOL     OW 8764   2.195   3.226   6.403
 2622SOL    HW1 8765   2.154   3.264   6.319
 2622SOL    HW2 8766   2.250   3.296   6.447
 2623SOL     OW 8767   3.595   1.166   5.192
 2623SOL    HW1 8768   3.671   1.220   5.156
 2623SOL    HW2 8769   3.582   1.187   5.289
 2624SOL     OW 8770   5.995   2.543   3.270
 2624SOL    HW1 8771   5.913   2.596   3.292
 2624SOL    HW2 8772   5.969   2.455   3.230
 2625SOL     OW 8773   2.580   2.831   5.784
 2625SOL    HW1 8774   2.646   2.873   5.722
 2625SOL    HW2 8775   2.582   2.878   5.872
 2626SOL     OW 8776   1.687   6.505   3.559
 2626SOL    HW1 8777   1.750   6.456   3.619
 2626SOL    HW2 8778   1.628   6.565   3.613
 2627SOL     OW 8779   0.159   0.505   4.541
 2627SOL    HW1 8780   0.212   0.518   4.457
 2627SOL    HW2 8781   0.220   0.512   4.620
 2628SOL     OW 8782   3.722   6.796   6.916
 2628SOL    HW1 8783   3.651   6.826   6.980
 2628SOL    HW2 8784   3.696   6.707   6.878
 2629SOL     OW 8785   3.940   4.246   1.585
 2629SOL    HW1 8786   3.860   4.225   1.641
 2629SOL    HW2 8787   3.972   4.163   1.539
 2630SOL     OW 8788   3.705   1.622   2.432
 2630SOL    HW1 8789   3.802   1.598   2.434
 2630SOL    HW2 8790   3.696   1.721   2.425
 2631SOL     OW 8791   4.782   6.622   4.549
 2631SOL    HW1 8792   4.848   6.663   4.613
 2631SOL    HW2 8793   4.747   6.537   4.587
 2632SOL     OW 8794   3.220   1.751   7.004
 2632SOL    HW1 8795   3.182   1.725   0.069
 2632SOL    HW2 8796   3.296   1.690   6.982
 2633SOL     OW 8797   6.159   2.461   6.817
 2633SOL    HW1 8798   6.169   2.523   6.739
 2633SOL    HW2 8799   6.175   2.367   6.786
 2634SOL     OW 8800   2.204   4.388   1.704
 2634SOL    HW1 8801   2.250   4.302   1.680
 2634SOL    HW2 8802   2.273   4.457   1.726
 2635SOL     OW 8803   5.699   5.778   4.432
 2635SOL    HW1 8804   5.633   5.803   4.361
 2635SOL    HW2 8805   5.666   5.698   4.482
 2636SOL     OW 8806   5.384   6.926   5.686
 2636SOL    HW1 8807   5.443   7.007   5.685
 2636SOL    HW2 8808   5.307   6.941   5.748
 2637SOL     OW 8809   5.350   6.511   3.607
 2637SOL    HW1 8810   5.407   6.542   3.532
 2637SOL    HW2 8811   5.381   6.552   3.692
 2638SOL     OW 8812   5.423   6.211   1.275
 2638SOL    HW1 8813   5.430   6.306   1.306
 2638SOL    HW2 8814   5.360   6.161   1.334
 2639SOL     OW 8815   5.806   6.298   1.585
 2639SOL    HW1 8816   5.891   6.246   1.597
 2639SOL    HW2 8817   5.826   6.396   1.587
 2640SOL     OW 8818   0.262   6.544   5.228
 2640SOL    HW1 8819   0.331   6.543   5.155
 2640SOL    HW2 8820   0.251   6.451   5.264
 2641SOL     OW 8821   5.011   3.783   6.967
 2641SOL    HW1 8822   4.977   3.728   0.020
 2641SOL    HW2 8823   5.107   3.805   6.982
 2642SOL     OW 8824   4.738   0.326   4.245
 2642SOL    HW1 8825   4.821   0.330   4.301
 2642SOL    HW2 8826   4.759   0.282   4.158
 2643SOL     OW 8827   0.254   6.555   3.366
 2643SOL    HW1 8828   0.296   6.588   3.282
 2643SOL    HW2 8829   0.224   6.632   3.422
 2644SOL     OW 8830   1.249   4.951   5.710
 2644SOL    HW1 8831   1.233   4.870   5.766
 2644SOL    HW2 8832   1.347   4.961   5.692
 2645SOL     OW 8833   5.343   6.540   5.616
 2645SOL    HW1 8834   5.265   6.562   5.675
 2645SOL    HW2 8835   5.422   6.595   5.644
 2646SOL     OW 8836   0.092   0.399   6.396
 2646SOL    HW1 8837   0.091   0.300   6.409
 2646SOL    HW2 8838   0.024   0.424   6.326
 2647SOL     OW 8839   4.795   1.896   0.941
 2647SOL    HW1 8840   4.871   1.831   0.940
 2647SOL    HW2 8841   4.738   1.882   0.860
 2648SOL     OW 8842   6.365   7.005   2.560
 2648SOL    HW1 8843   6.417   0.066   2.566
 2648SOL    HW2 8844   6.366   6.959   2.649
 2649SOL     OW 8845   3.554   1.364   5.896
 2649SOL    HW1 8846   3.570   1.452   5.940
 2649SOL    HW2 8847   3.466   1.365   5.848
 2650SOL     OW 8848   0.258   5.321   3.506
 2650SOL    HW1 8849   0.179   5.289   3.557
 2650SOL    HW2 8850   0.229   5.383   3.434
 2651SOL     OW 8851   0.050   1.199   1.757
 2651SOL    HW1 8852   0.041   1.265   1.832
 2651SOL    HW2 8853   0.135   1.216   1.708
 2652SOL     OW 8854   3.087   3.087   2.970
 2652SOL    HW1 8855   3.075   3.088   2.871
 2652SOL    HW2 8856   3.015   3.142   3.013
 2653SOL     OW 8857   5.250   6.494   6.088
 2653SOL    HW1 8858   5.329   6.463   6.035
 2653SOL    HW2 8859   5.226   6.587   6.062
 2654SOL     OW 8860   5.022   1.915   6.085
 2654SOL    HW1 8861   5.073   1.876   6.162
 2654SOL    HW2 8862   5.068   1.893   5.999
 2655SOL     OW 8863   3.982   6.106   4.643
 2655SOL    HW1 8864   4.016   6.015   4.665
 2655SOL    HW2 8865   4.058   6.169   4.632
 2656SOL     OW 8866   5.408   4.178   3.601
 2656SOL    HW1 8867   5.320   4.150   3.638
 2656SOL    HW2 8868   5.451   4.244   3.662
 2657SOL     OW 8869   1.796   4.450   6.978
 2657SOL    HW1 8870   1.847   4.519   6.926
 2657SOL    HW2 8871   1.718   4.493   7.023
 2658SOL     OW 8872   5.802   4.093   6.089
 2658SOL    HW1 8873   5.739   4.164   6.059
 2658SOL    HW2 8874   5.853   4.057   6.011
 2659SOL     OW 8875   6.731   2.305   4.679
 2659SOL    HW1 8876   6.656   2.317   4.614
 2659SOL    HW2 8877   6.696   2.311   4.773
 2660SOL     OW 8878   6.511   2.637   2.240
 2660SOL    HW1 8879   6.592   2.587   2.272
 2660SOL    HW2 8880   6.465   2.585   2.168
 2661SOL     OW 8881   3.329   5.639   1.087
 2661SOL    HW1 8882   3.377   5.558   1.053
 2661SOL    HW2 8883   3.395   5.706   1.121
 2662SOL     OW 8884   4.268   6.191   4.833
 2662SOL    HW1 8885   4.367   6.202   4.846
 2662SOL    HW2 8886   4.244   6.217   4.739
 2663SOL     OW 8887   1.765   5.125   1.965
 2663SOL    HW1 8888   1.722   5.132   1.875
 2663SOL    HW2 8889   1.804   5.214   1.989
 2664SOL     OW 8890   3.874   4.029   2.964
 2664SOL    HW1 8891   3.874   4.085   3.047
 2664SOL    HW2 8892   3.871   4.088   2.884
 2665SOL     OW 8893   3.809   1.681   4.897
 2665SOL    HW1 8894   3.862   1.763   4.877
 2665SOL    HW2 8895   3.791   1.676   4.996
 2666SOL     OW 8896   4.933   4.602   0.850
 2666SOL    HW1 8897   4.847   4.558   0.826
 2666SOL    HW2 8898   4.973   4.644   0.769
 2667SOL     OW 8899   2.044   6.224   5.288
 2667SOL    HW1 8900   2.074   6.169   5.366
 2667SOL    HW2 8901   2.124   6.259   5.238
 2668SOL     OW 8902   6.714   3.308   4.615
 2668SOL    HW1 8903   6.709   3.209   4.603
 2668SOL    HW2 8904   6.804   3.332   4.651
 2669SOL     OW 8905   4.173   5.289   5.564
 2669SOL    HW1 8906   4.249   5.248   5.514
 2669SOL    HW2 8907   4.092   5.232   5.553
 2670SOL     OW 8908   0.148   1.009   6.761
 2670SOL    HW1 8909   0.117   0.944   6.692
 2670SOL    HW2 8910   0.108   0.986   6.849
 2671SOL     OW 8911   2.632   3.938   6.688
 2671SOL    HW1 8912   2.717   3.886   6.687
 2671SOL    HW2 8913   2.620   3.984   6.600
 2672SOL     OW 8914   2.114   5.337   0.360
 2672SOL    HW1 8915   2.060   5.256   0.339
 2672SOL    HW2 8916   2.187   5.348   0.292
 2673SOL     OW 8917   4.347   2.237   3.127
 2673SOL    HW1 8918   4.269   2.241   3.189
 2673SOL    HW2 8919   4.421   2.187   3.171
 2674SOL     OW 8920   0.932   5.051   4.592
 2674SOL    HW1 8921   0.912   5.124   4.527
 2674SOL    HW2 8922   0.848   5.001   4.612
 2675SOL     OW 8923   0.335   4.217   5.376
 2675SOL    HW1 8924   0.352   4.188   5.470
 2675SOL    HW2 8925   0.373   4.150   5.312
 2676SOL     OW 8926   4.990   1.448   2.556
 2676SOL    HW1 8927   5.083   1.479   2.576
 2676SOL    HW2 8928   4.982   1.425   2.459
 2677SOL     OW 8929   1.423   4.562   1.796
 2677SOL    HW1 8930   1.501   4.603   1.844
 2677SOL    HW2 8931   1.405   4.614   1.713
 2678SOL     OW 8932   1.625   5.014   6.874
 2678SOL    HW1 8933   1.526   5.007   6.881
 2678SOL    HW2 8934   1.657   4.953   6.800
 2679SOL     OW 8935   3.236   5.291   1.057
 2679SOL    HW1 8936   3.267   5.349   1.133
 2679SOL    HW2 8937   3.312   5.233   1.027
 2680SOL     OW 8938   1.839   1.652   0.641
 2680SOL    HW1 8939   1.874   1.722   0.703
 2680SOL    HW2 8940   1.843   1.686   0.547
 2681SOL     OW 8941   1.258   3.315   4.036
 2681SOL    HW1 8942   1.356   3.296   4.031
 2681SOL    HW2 8943   1.234   3.350   4.126
 2682SOL     OW 8944   5.233   2.603   2.224
 2682SOL    HW1 8945   5.210   2.688   2.176
 2682SOL    HW2 8946   5.198   2.525   2.171
 2683SOL     OW 8947   0.414   4.903   1.191
 2683SOL    HW1 8948   0.426   4.816   1.144
 2683SOL    HW2 8949   0.477   4.909   1.268
 2684SOL     OW 8950   3.978   6.278   2.791
 2684SOL    HW1 8951   4.065   6.321   2.815
 2684SOL    HW2 8952   3.973   6.187   2.832
 2685SOL     OW 8953   5.500   6.390   4.692
 2685SOL    HW1 8954   5.423   6.331   4.667
 2685SOL    HW2 8955   5.493   6.414   4.789
 2686SOL     OW 8956   2.522   2.425   4.237
 2686SOL    HW1 8957   2.508   2.447   4.334
 2686SOL    HW2 8958   2.441   2.449   4.185
 2687SOL     OW 8959   4.003   4.869   2.409
 2687SOL    HW1 8960   3.962   4.906   2.492
 2687SOL    HW2 8961   4.069   4.934   2.372
 2688SOL     OW 8962   4.452   5.001   6.092
 2688SOL    HW1 8963   4.467   5.010   6.191
 2688SOL    HW2 8964   4.519   5.057   6.043
 2689SOL     OW 8965   1.403   2.146   3.613
 2689SOL    HW1 8966   1.404   2.053   3.650
 2689SOL    HW2 8967   1.497   2.181   3.609
 2690SOL     OW 8968   3.678   2.909   3.561
 2690SOL    HW1 8969   3.676   2.906   3.661
 2690SOL    HW2 8970   3.585   2.904   3.525
 2691SOL     OW 8971   1.379   5.521   2.158
 2691SOL    HW1 8972   1.391   5.463   2.078
 2691SOL    HW2 8973   1.285   5.557   2.159
 2692SOL     OW 8974   6.855   5.282   3.901
 2692SOL    HW1 8975   6.879   5.229   3.819
 2692SOL    HW2 8976   6.882   5.231   3.982
 2693SOL     OW 8977   2.013   3.790   3.471
 2693SOL    HW1 8978   1.982   3.800   3.566
 2693SOL    HW2 8979   2.050   3.877   3.439
 2694SOL     OW 8980   2.901   0.014   3.088
 2694SOL    HW1 8981   2.975   0.057   3.037
 2694SOL    HW2 8982   2.874   0.073   3.164
 2695SOL     OW 8983   4.463   2.007   2.623
 2695SOL    HW1 8984   4.518   2.070   2.569
 2695SOL    HW2 8985   4.485   1.913   2.598
 2696SOL     OW 8986   3.633   3.533   5.394
 2696SOL    HW1 8987   3.705   3.549   5.326
 2696SOL    HW2 8988   3.550   3.580   5.367
 2697SOL     OW 8989   4.329   2.405   3.717
 2697SOL    HW1 8990   4.355   2.397   3.813
 2697SOL    HW2 8991   4.408   2.434   3.663
 2698SOL     OW 8992   0.888   4.651   1.208
 2698SOL    HW1 8993   0.932   4.695   1.129
 2698SOL    HW2 8994   0.940   4.569   1.233
 2699SOL     OW 8995   3.762   5.481   0.791
 2699SOL    HW1 8996   3.697   5.555   0.808
 2699SOL    HW2 8997   3.845   5.495   0.846
 2700SOL     OW 8998   2.086   3.611   2.575
 2700SOL    HW1 8999   2.108   3.561   2.491
 2700SOL    HW2 9000   2.113   3.557   2.654
 2701SOL     OW 9001   3.445   0.150   6.604
 2701SOL    HW1 9002   3.401   0.130   6.691
 2701SOL    HW2 9003   3.483   0.243   6.606
 2702SOL     OW 9004   6.855   1.416   2.909
 2702SOL    HW1 9005   6.855   1.336   2.969
 2702SOL    HW2 9006   6.908   1.395   2.826
 2703SOL     OW 9007   2.777   2.009   2.216
 2703SOL    HW1 9008   2.834   2.072   2.268
 2703SOL    HW2 9009   2.830   1.926   2.195
 2704SOL     OW 9010   2.289   5.329   2.195
 2704SOL    HW1 9011   2.302   5.331   2.294
 2704SOL    HW2 9012   2.228   5.404   2.167
 2705SOL     OW 9013   6.689   6.250   3.766
 2705SOL    HW1 9014   6.666   6.305   3.846
 2705SOL    HW2 9015   6.681   6.153   3.788
 2706SOL     OW 9016   6.744   1.730   2.072
 2706SOL    HW1 9017   6.834   1.750   2.110
 2706SOL    HW2 9018   6.690   1.679   2.139
 2707SOL     OW 9019   1.966   1.839   6.697
 2707SOL    HW1 9020   1.984   1.848   6.599
 2707SOL    HW2 9021   2.001   1.919   6.745
 2708SOL     OW 9022   2.466   2.764   1.792
 2708SOL    HW1 9023   2.395   2.716   1.740
 2708SOL    HW2 9024   2.426   2.806   1.873
 2709SOL     OW 9025   5.076   5.865   1.497
 2709SOL    HW1 9026   5.007   5.891   1.565
 2709SOL    HW2 9027   5.084   5.766   1.492
 2710SOL     OW 9028   0.133   3.518   2.754
 2710SOL    HW1 9029   0.057   3.512   2.690
 2710SOL    HW2 9030   0.188   3.599   2.733
 2711SOL     OW 9031   1.374   0.288   2.047
 2711SOL    HW1 9032   1.432   0.365   2.021
 2711SOL    HW2 9033   1.314   0.263   1.972
 2712SOL     OW 9034   2.755   4.809   0.346
 2712SOL    HW1 9035   2.806   4.730   0.380
 2712SOL    HW2 9036   2.736   4.798   0.249
 2713SOL     OW 9037   2.170   3.119   4.931
 2713SOL    HW1 9038   2.223   3.061   4.993
 2713SOL    HW2 9039   2.077   3.083   4.924
 2714SOL     OW 9040   5.333   1.299   5.989
 2714SOL    HW1 9041   5.284   1.385   5.974
 2714SOL    HW2 9042   5.370   1.267   5.902
 2715SOL     OW 9043   5.511   1.259   0.379
 2715SOL    HW1 9044   5.546   1.235   0.469
 2715SOL    HW2 9045   5.451   1.186   0.345
 2716SOL     OW 9046   6.511   5.224   1.991
 2716SOL    HW1 9047   6.504   5.216   2.091
 2716SOL    HW2 9048   6.489   5.318   1.964
 2717SOL     OW 9049   0.882   6.637   2.364
 2717SOL    HW1 9050   0.864   6.558   2.423
 2717SOL    HW2 9051   0.980   6.641   2.344
 2718SOL     OW 9052   1.564   3.454   4.246
 2718SOL    HW1 9053   1.618   3.539   4.247
 2718SOL    HW2 9054   1.483   3.466   4.304
 2719SOL     OW 9055   4.352   5.085   2.558
 2719SOL    HW1 9056   4.328   5.086   2.655
 2719SOL    HW2 9057   4.380   4.993   2.531
 2720SOL     OW 9058   1.613   6.273   3.938
 2720SOL    HW1 9059   1.664   6.229   4.012
 2720SOL    HW2 9060   1.675   6.291   3.861
 2721SOL     OW 9061   2.632   0.279   4.500
 2721SOL    HW1 9062   2.698   0.229   4.444
 2721SOL    HW2 9063   2.677   0.356   4.545
 2722SOL     OW 9064   0.590   5.148   3.048
 2722SOL    HW1 9065   0.578   5.053   3.018
 2722SOL    HW2 9066   0.514   5.173   3.108
 2723SOL     OW 9067   2.244   1.548   5.320
 2723SOL    HW1 9068   2.244   1.647   5.330
 2723SOL    HW2 9069   2.293   1.523   5.236
 2724SOL     OW 9070   3.164   5.639   6.722
 2724SOL    HW1 9071   3.219   5.712   6.683
 2724SOL    HW2 9072   3.221   5.558   6.738
 2725SOL     OW 9073   5.025   4.753   2.853
 2725SOL    HW1 9074   4.980   4.801   2.778
 2725SOL    HW2 9075   5.020   4.809   2.936
 2726SOL     OW 9076   4.814   4.561   1.694
 2726SOL    HW1 9077   4.856   4.527   1.610
 2726SOL    HW2 9078   4.875   4.627   1.737
 2727SOL     OW 9079   0.763   4.724   2.831
 2727SOL    HW1 9080   0.698   4.793   2.865
 2727SOL    HW2 9081   0.724   4.678   2.752
 2728SOL     OW 9082   2.937   6.982   5.065
 2728SOL    HW1 9083   2.856   6.925   5.052
 2728SOL    HW2 9084   2.993   6.980   4.983
 2729SOL     OW 9085   6.461   5.182   3.125
 2729SOL    HW1 9086   6.528   5.118   3.164
 2729SOL    HW2 9087   6.472   5.272   3.166
 2730SOL     OW 9088   2.566   6.734   0.382
 2730SOL    HW1 9089   2.526   6.651   0.421
 2730SOL    HW2 9090   2.662   6.717   0.360
 2731SOL     OW 9091   2.956   3.925   1.678
 2731SOL    HW1 9092   2.974   4.023   1.688
 2731SOL    HW2 9093   2.987   3.894   1.588
 2732SOL     OW 9094   5.993   2.856   2.273
 2732SOL    HW1 9095   5.925   2.789   2.302
 2732SOL    HW2 9096   6.085   2.818   2.288
 2733SOL     OW 9097   0.653   6.731   5.613
 2733SOL    HW1 9098   0.672   6.708   5.708
 2733SOL    HW2 9099   0.572   6.789   5.608
 2734SOL     OW 9100   1.674   0.170   3.630
 2734SOL    HW1 9101   1.712   0.183   3.722
 2734SOL    HW2 9102   1.713   0.239   3.568
 2735SOL     OW 9103   0.991   3.950   2.543
 2735SOL    HW1 9104   1.003   3.980   2.449
 2735SOL    HW2 9105   1.076   3.964   2.594
 2736SOL     OW 9106   4.482   0.380   5.310
 2736SOL    HW1 9107   4.418   0.443   5.265
 2736SOL    HW2 9108   4.569   0.427   5.325
 2737SOL     OW 9109   3.715   3.425   6.288
 2737SOL    HW1 9110   3.713   3.390   6.194
 2737SOL    HW2 9111   3.787   3.379   6.339
 2738SOL     OW 9112   4.995   5.263   4.100
 2738SOL    HW1 9113   4.898   5.255   4.080
 2738SOL    HW2 9114   5.008   5.269   4.199
 2739SOL     OW 9115   5.538   4.118   0.787
 2739SOL    HW1 9116   5.616   4.070   0.747
 2739SOL    HW2 9117   5.507   4.070   0.868
 2740SOL     OW 9118   6.363   2.278   2.646
 2740SOL    HW1 9119   6.440   2.306   2.702
 2740SOL    HW2 9120   6.395   2.257   2.553
 2741SOL     OW 9121   7.018   2.170   5.653
 2741SOL    HW1 9122   6.926   2.173   5.692
 2741SOL    HW2 9123   0.050   2.104   5.703
 2742SOL     OW 9124   1.445   5.676   6.586
 2742SOL    HW1 9125   1.472   5.744   6.518
 2742SOL    HW2 9126   1.524   5.622   6.614
 2743SOL     OW 9127   5.459   5.073   1.617
 2743SOL    HW1 9128   5.437   5.057   1.714
 2743SOL    HW2 9129   5.399   5.145   1.581
 2744SOL     OW 9130   4.236   2.299   6.827
 2744SOL    HW1 9131   4.256   2.345   6.740
 2744SOL    HW2 9132   4.290   2.215   6.833
 2745SOL     OW 9133   1.779   6.230   1.156
 2745SOL    HW1 9134   1.748   6.136   1.143
 2745SOL    HW2 9135   1.878   6.233   1.163
 2746SOL     OW 9136   1.829   2.245   5.167
 2746SOL    HW1 9137   1.896   2.269   5.238
 2746SOL    HW2 9138   1.754   2.311   5.169
 2747SOL     OW 9139   5.973   5.604   4.554
 2747SOL    HW1 9140   5.973   5.628   4.457
 2747SOL    HW2 9141   6.008   5.511   4.565
 2748SOL     OW 9142   4.334   1.525   3.690
 2748SOL    HW1 9143   4.263   1.592   3.713
 2748SOL    HW2 9144   4.383   1.556   3.608
 2749SOL     OW 9145   4.680   4.272   4.297
 2749SOL    HW1 9146   4.659   4.175   4.312
 2749SOL    HW2 9147   4.717   4.284   4.205
 2750SOL     OW 9148   0.639   6.065   2.189
 2750SOL    HW1 9149   0.642   6.069   2.089
 2750SOL    HW2 9150   0.588   5.984   2.218
 2751SOL     OW 9151   2.104   0.150   0.078
 2751SOL    HW1 9152   2.011   0.115   0.066
 2751SOL    HW2 9153   2.106   0.216   0.153
 2752SOL     OW 9154   5.584   6.213   5.155
 2752SOL    HW1 9155   5.678   6.232   5.125
 2752SOL    HW2 9156   5.550   6.291   5.208
 2753SOL     OW 9157   3.784   6.262   6.463
 2753SOL    HW1 9158   3.874   6.232   6.430
 2753SOL    HW2 9159   3.735   6.183   6.501
 2754SOL     OW 9160   0.382   0.123   4.487
 2754SOL    HW1 9161   0.412   0.045   4.434
 2754SOL    HW2 9162   0.435   0.204   4.462
 2755SOL     OW 9163   3.319   6.467   2.473
 2755SOL    HW1 9164   3.221   6.450   2.465
 2755SOL    HW2 9165   3.351   6.437   2.563
 2756SOL     OW 9166   5.644   3.636   5.172
 2756SOL    HW1 9167   5.549   3.612   5.152
 2756SOL    HW2 9168   5.702   3.555   5.161
 2757SOL     OW 9169   4.702   1.795   0.071
 2757SOL    HW1 9170   4.758   1.826   0.148
 2757SOL    HW2 9171   4.625   1.741   0.105
 2758SOL     OW 9172   5.238   4.690   3.248
 2758SOL    HW1 9173   5.147   4.660   3.274
 2758SOL    HW2 9174   5.259   4.776   3.294
 2759SOL     OW 9175   3.294   4.770   6.166
 2759SOL    HW1 9176   3.335   4.774   6.075
 2759SOL    HW2 9177   3.302   4.678   6.203
 2760SOL     OW 9178   5.550   5.582   3.493
 2760SOL    HW1 9179   5.559   5.483   3.504
 2760SOL    HW2 9180   5.459   5.603   3.457
 2761SOL     OW 9181   1.778   3.772   2.901
 2761SOL    HW1 9182   1.707   3.714   2.861
 2761SOL    HW2 9183   1.866   3.726   2.895
 2762SOL     OW 9184   1.761   2.263   6.890
 2762SOL    HW1 9185   1.733   2.289   6.983
 2762SOL    HW2 9186   1.739   2.167   6.876
 2763SOL     OW 9187   4.671   1.134   5.953
 2763SOL    HW1 9188   4.750   1.105   6.007
 2763SOL    HW2 9189   4.702   1.175   5.867
 2764SOL     OW 9190   0.414   3.811   1.857
 2764SOL    HW1 9191   0.346   3.741   1.878
 2764SOL    HW2 9192   0.459   3.841   1.941
 2765SOL     OW 9193   6.262   6.594   6.981
 2765SOL    HW1 9194   6.228   6.573   6.889
 2765SOL    HW2 9195   6.188   6.583   0.024
 2766SOL     OW 9196   5.179   0.873   6.692
 2766SOL    HW1 9197   5.123   0.932   6.750
 2766SOL    HW2 9198   5.154   0.777   6.709
 2767SOL     OW 9199   6.080   4.970   6.353
 2767SOL    HW1 9200   5.993   4.936   6.315
 2767SOL    HW2 9201   6.107   5.052   6.303
 2768SOL     OW 9202   4.764   0.674   1.052
 2768SOL    HW1 9203   4.736   0.755   1.102
 2768SOL    HW2 9204   4.845   0.634   1.094
 2769SOL     OW 9205   1.618   4.496   5.819
 2769SOL    HW1 9206   1.562   4.562   5.767
 2769SOL    HW2 9207   1.576   4.481   5.908
 2770SOL     OW 9208   2.459   0.324   6.604
 2770SOL    HW1 9209   2.405   0.263   6.662
 2770SOL    HW2 9210   2.556   0.306   6.619
 2771SOL     OW 9211   4.742   0.200   5.065
 2771SOL    HW1 9212   4.691   0.114   5.060
 2771SOL    HW2 9213   4.703   0.266   5.002
 2772SOL     OW 9214   4.359   0.926   2.763
 2772SOL    HW1 9215   4.432   0.867   2.797
 2772SOL    HW2 9216   4.314   0.882   2.685
 2773SOL     OW 9217   6.334   3.172   4.563
 2773SOL    HW1 9218   6.294   3.147   4.652
 2773SOL    HW2 9219   6.394   3.098   4.532
 2774SOL     OW 9220   5.285   1.757   3.173
 2774SOL    HW1 9221   5.228   1.839   3.186
 2774SOL    HW2 9222   5.254   1.708   3.091
 2775SOL     OW 9223   0.408   4.206   4.949
 2775SOL    HW1 9224   0.454   4.292   4.971
 2775SOL    HW2 9225   0.462   4.156   4.881
 2776SOL     OW 9226   4.943   4.920   6.014
 2776SOL    HW1 9227   4.901   4.892   6.100
 2776SOL    HW2 9228   5.041   4.899   6.016
 2777SOL     OW 9229   3.205   2.427   6.066
 2777SOL    HW1 9230   3.204   2.371   6.149
 2777SOL    HW2 9231   3.295   2.470   6.055
 2778SOL     OW 9232   2.351   6.101   6.474
 2778SOL    HW1 9233   2.318   6.062   6.560
 2778SOL    HW2 9234   2.407   6.034   6.426
 2779SOL     OW 9235   6.079   6.049   2.221
 2779SOL    HW1 9236   6.059   5.999   2.137
 2779SOL    HW2 9237   6.175   6.038   2.244
 2780SOL     OW 9238   0.412   1.262   6.118
 2780SOL    HW1 9239   0.425   1.356   6.087
 2780SOL    HW2 9240   0.424   1.257   6.217
 2781SOL     OW 9241   6.548   0.476   2.587
 2781SOL    HW1 9242   6.620   0.492   2.519
 2781SOL    HW2 9243   6.578   0.512   2.675
 2782SOL     OW 9244   4.571   1.086   6.869
 2782SOL    HW1 9245   4.569   1.036   6.783
 2782SOL    HW2 9246   4.521   1.035   6.939
 2783SOL     OW 9247   5.391   3.144   1.782
 2783SOL    HW1 9248   5.475   3.098   1.809
 2783SOL    HW2 9249   5.334   3.159   1.863
 2784SOL     OW 9250   1.701   1.405   0.661
 2784SOL    HW1 9251   1.747   1.413   0.749
 2784SOL    HW2 9252   1.737   1.473   0.598
 2785SOL     OW 9253   5.274   3.005   1.559
 2785SOL    HW1 9254   5.302   3.049   1.644
 2785SOL    HW2 9255   5.260   2.908   1.574
 2786SOL     OW 9256   6.791   5.950   0.287
 2786SOL    HW1 9257   6.775   5.864   0.239
 2786SOL    HW2 9258   6.885   5.981   0.270
 2787SOL     OW 9259   6.081   5.139   5.836
 2787SOL    HW1 9260   6.060   5.218   5.893
 2787SOL    HW2 9261   6.147   5.166   5.766
 2788SOL     OW 9262   3.527   6.126   5.594
 2788SOL    HW1 9263   3.466   6.089   5.664
 2788SOL    HW2 9264   3.620   6.132   5.630
 2789SOL     OW 9265   0.334   2.631   4.765
 2789SOL    HW1 9266   0.419   2.637   4.714
 2789SOL    HW2 9267   0.260   2.602   4.703
 2790SOL     OW 9268   2.323   5.520   0.788
 2790SOL    HW1 9269   2.399   5.582   0.770
 2790SOL    HW2 9270   2.273   5.504   0.702
 2791SOL     OW 9271   6.626   3.696   3.288
 2791SOL    HW1 9272   6.560   3.743   3.228
 2791SOL    HW2 9273   6.682   3.763   3.335
 2792SOL     OW 9274   3.412   1.469   5.263
 2792SOL    HW1 9275   3.508   1.454   5.286
 2792SOL    HW2 9276   3.373   1.384   5.228
 2793SOL     OW 9277   3.609   4.643   1.389
 2793SOL    HW1 9278   3.640   4.662   1.483
 2793SOL    HW2 9279   3.685   4.656   1.326
 2794SOL     OW 9280   0.239   1.774   5.885
 2794SOL    HW1 9281   0.210   1.716   5.961
 2794SOL    HW2 9282   0.259   1.717   5.806
 2795SOL     OW 9283   0.768   4.399   1.667
 2795SOL    HW1 9284   0.805   4.339   1.597
 2795SOL    HW2 9285   0.698   4.459   1.626
 2796SOL     OW 9286   1.130   6.142   5.557
 2796SOL    HW1 9287   1.149   6.133   5.459
 2796SOL    HW2 9288   1.084   6.059   5.589
 2797SOL     OW 9289   5.276   6.933   4.338
 2797SOL    HW1 9290   5.221   6.996   4.393
 2797SOL    HW2 9291   5.358   6.980   4.306
 2798SOL     OW 9292   6.014   6.318   1.998
 2798SOL    HW1 9293   6.039   6.398   1.944
 2798SOL    HW2 9294   6.095   6.283   2.046
 2799SOL     OW 9295   3.776   6.215   4.789
 2799SOL    HW1 9296   3.729   6.144   4.842
 2799SOL    HW2 9297   3.854   6.175   4.741
 2800SOL     OW 9298   6.051   0.839   6.528
 2800SOL    HW1 9299   6.074   0.809   6.621
 2800SOL    HW2 9300   5.979   0.909   6.533
 2801SOL     OW 9301   0.629   4.742   5.702
 2801SOL    HW1 9302   0.712   4.765   5.752
 2801SOL    HW2 9303   0.650   4.736   5.604
 2802SOL     OW 9304   6.560   5.942   5.130
 2802SOL    HW1 9305   6.521   5.956   5.038
 2802SOL    HW2 9306   6.534   5.852   5.164
 2803SOL     OW 9307   3.538   3.610   6.366
 2803SOL    HW1 9308   3.450   3.563   6.379
 2803SOL    HW2 9309   3.607   3.545   6.336
 2804SOL     OW 9310   0.724   2.958   3.861
 2804SOL    HW1 9311   0.715   2.897   3.782
 2804SOL    HW2 9312   0.720   3.053   3.831
 2805SOL     OW 9313   4.119   3.489   1.554
 2805SOL    HW1 9314   4.209   3.515   1.589
 2805SOL    HW2 9315   4.076   3.426   1.618
 2806SOL     OW 9316   0.671   4.505   5.976
 2806SOL    HW1 9317   0.740   4.532   6.042
 2806SOL    HW2 9318   0.715   4.473   5.892
 2807SOL     OW 9319   2.827   0.095   3.428
 2807SOL    HW1 9320   2.745   0.049   3.394
 2807SOL    HW2 9321   2.863   0.156   3.358
 2808SOL     OW 9322   6.069   5.318   0.072
 2808SOL    HW1 9323   6.036   5.231   0.034
 2808SOL    HW2 9324   6.139   5.356   0.011
 2809SOL     OW 9325   6.673   4.799   2.109
 2809SOL    HW1 9326   6.689   4.893   2.139
 2809SOL    HW2 9327   6.596   4.797   2.045
 2810SOL     OW 9328   2.275   5.364   3.613
 2810SOL    HW1 9329   2.352   5.331   3.668
 2810SOL    HW2 9330   2.225   5.434   3.664
 2811SOL     OW 9331   0.846   0.762   2.160
 2811SOL    HW1 9332   0.852   0.807   2.249
 2811SOL    HW2 9333   0.854   0.663   2.173
 2812SOL     OW 9334   0.513   3.506   0.867
 2812SOL    HW1 9335   0.436   3.526   0.927
 2812SOL    HW2 9336   0.485   3.518   0.772
 2813SOL     OW 9337   0.799   2.280   1.256
 2813SOL    HW1 9338   0.842   2.196   1.225
 2813SOL    HW2 9339   0.700   2.270   1.253
 2814SOL     OW 9340   2.122   3.997   0.462
 2814SOL    HW1 9341   2.044   4.055   0.483
 2814SOL    HW2 9342   2.145   3.942   0.543
 2815SOL     OW 9343   0.554   5.867   5.403
 2815SOL    HW1 9344   0.599   5.861   5.492
 2815SOL    HW2 9345   0.543   5.775   5.365
 2816SOL     OW 9346   0.350   5.912   5.804
 2816SOL    HW1 9347   0.284   5.837   5.795
 2816SOL    HW2 9348   0.328   5.984   5.739
 2817SOL     OW 9349   4.093   0.536   2.056
 2817SOL    HW1 9350   4.151   0.563   2.132
 2817SOL    HW2 9351   4.039   0.456   2.082
 2818SOL     OW 9352   1.189   0.652   1.507
 2818SOL    HW1 9353   1.201   0.566   1.459
 2818SOL    HW2 9354   1.117   0.643   1.576
 2819SOL     OW 9355   0.577   0.448   0.772
 2819SOL    HW1 9356   0.501   0.414   0.827
 2819SOL    HW2 9357   0.660   0.396   0.793
 2820SOL     OW 9358   1.318   2.647   1.302
 2820SOL    HW1 9359   1.360   2.731   1.334
 2820SOL    HW2 9360   1.226   2.638   1.342
 2821SOL     OW 9361   2.846   4.425   6.261
 2821SOL    HW1 9362   2.848   4.520   6.291
 2821SOL    HW2 9363   2.844   4.365   6.340
 2822SOL     OW 9364   4.409   2.368   0.814
 2822SOL    HW1 9365   4.348   2.292   0.795
 2822SOL    HW2 9366   4.356   2.452   0.824
 2823SOL     OW 9367   4.945   2.122   0.591
 2823SOL    HW1 9368   4.847   2.103   0.596
 2823SOL    HW2 9369   4.996   2.036   0.589
 2824SOL     OW 9370   1.102   3.581   5.287
 2824SOL    HW1 9371   1.005   3.568   5.305
 2824SOL    HW2 9372   1.122   3.679   5.283
 2825SOL     OW 9373   5.310   1.574   6.234
 2825SOL    HW1 9374   5.226   1.532   6.200
 2825SOL    HW2 9375   5.317   1.560   6.332
 2826SOL     OW 9376   1.595   4.346   6.770
 2826SOL    HW1 9377   1.609   4.362   6.868
 2826SOL    HW2 9378   1.612   4.250   6.749
 2827SOL     OW 9379   0.289   0.602   6.211
 2827SOL    HW1 9380   0.216   0.551   6.256
 2827SOL    HW2 9381   0.270   0.700   6.215
 2828SOL     OW 9382   2.095   4.404   1.024
 2828SOL    HW1 9383   2.146   4.405   0.938
 2828SOL    HW2 9384   1.998   4.418   1.005
 2829SOL     OW 9385   3.789   3.998   3.254
 2829SOL    HW1 9386   3.802   3.987   3.353
 2829SOL    HW2 9387   3.787   3.909   3.210
 2830SOL     OW 9388   3.644   5.295   5.834
 2830SOL    HW1 9389   3.623   5.222   5.769
 2830SOL    HW2 9390   3.564   5.354   5.844
 2831SOL     OW 9391   6.647   1.975   1.889
 2831SOL    HW1 9392   6.625   1.881   1.866
 2831SOL    HW2 9393   6.730   1.978   1.945
 2832SOL     OW 9394   0.518   3.237   0.905
 2832SOL    HW1 9395   0.510   3.336   0.891
 2832SOL    HW2 9396   0.429   3.194   0.896
 2833SOL     OW 9397   1.781   2.232   1.583
 2833SOL    HW1 9398   1.778   2.132   1.575
 2833SOL    HW2 9399   1.821   2.270   1.500
 2834SOL     OW 9400   4.162   5.953   4.932
 2834SOL    HW1 9401   4.130   5.912   4.847
 2834SOL    HW2 9402   4.205   6.041   4.912
 2835SOL     OW 9403   0.824   6.617   0.752
 2835SOL    HW1 9404   0.859   6.700   0.707
 2835SOL    HW2 9405   0.869   6.606   0.841
 2836SOL     OW 9406   3.842   6.109   3.538
 2836SOL    HW1 9407   3.756   6.058   3.547
 2836SOL    HW2 9408   3.899   6.093   3.619
 2837SOL     OW 9409   5.205   3.971   2.200
 2837SOL    HW1 9410   5.174   3.932   2.114
 2837SOL    HW2 9411   5.165   4.062   2.212
 2838SOL     OW 9412   5.070   3.601   6.108
 2838SOL    HW1 9413   5.040   3.692   6.076
 2838SOL    HW2 9414   5.079   3.540   6.029
 2839SOL     OW 9415   6.191   3.095   5.283
 2839SOL    HW1 9416   6.159   3.036   5.357
 2839SOL    HW2 9417   6.123   3.097   5.210
 2840SOL     OW 9418   0.584   5.911   2.995
 2840SOL    HW1 9419   0.558   5.976   2.923
 2840SOL    HW2 9420   0.636   5.959   3.066
 2841SOL     OW 9421   5.605   2.527   1.792
 2841SOL    HW1 9422   5.655   2.516   1.878
 2841SOL    HW2 9423   5.668   2.559   1.721
 2842SOL     OW 9424   1.727   6.562   3.306
 2842SOL    HW1 9425   1.704   6.535   3.399
 2842SOL    HW2 9426   1.805   6.509   3.273
 2843SOL     OW 9427   2.299   2.916   3.017
 2843SOL    HW1 9428   2.320   2.875   3.106
 2843SOL    HW2 9429   2.209   2.961   3.022
 2844SOL     OW 9430   4.787   4.455   1.257
 2844SOL    HW1 9431   4.790   4.505   1.170
 2844SOL    HW2 9432   4.881   4.436   1.287
 2845SOL     OW 9433   3.884   2.015   3.072
 2845SOL    HW1 9434   3.977   2.043   3.048
 2845SOL    HW2 9435   3.880   1.996   3.170
 2846SOL     OW 9436   5.060   0.673   0.758
 2846SOL    HW1 9437   4.972   0.716   0.778
 2846SOL    HW2 9438   5.134   0.737   0.779
 2847SOL     OW 9439   5.286   4.031   2.452
 2847SOL    HW1 9440   5.270   4.026   2.353
 2847SOL    HW2 9441   5.275   4.125   2.483
 2848SOL     OW 9442   0.870   3.754   5.109
 2848SOL    HW1 9443   0.825   3.819   5.048
 2848SOL    HW2 9444   0.960   3.731   5.073
 2849SOL     OW 9445   4.154   0.352   2.916
 2849SOL    HW1 9446   4.242   0.333   2.960
 2849SOL    HW2 9447   4.131   0.449   2.927
 2850SOL     OW 9448   2.499   0.101   2.774
 2850SOL    HW1 9449   2.514   0.189   2.730
 2850SOL    HW2 9450   2.532   0.027   2.714
 2851SOL     OW 9451   3.845   3.228   1.030
 2851SOL    HW1 9452   3.829   3.199   1.124
 2851SOL    HW2 9453   3.808   3.319   1.016
 2852SOL     OW 9454   6.502   4.297   5.740
 2852SOL    HW1 9455   6.424   4.272   5.682
 2852SOL    HW2 9456   6.491   4.255   5.830
 2853SOL     OW 9457   0.795   4.087   0.033
 2853SOL    HW1 9458   0.743   4.008   7.023
 2853SOL    HW2 9459   0.864   4.056   0.098
 2854SOL     OW 9460   3.552   1.657   5.932
 2854SOL    HW1 9461   3.460   1.692   5.950
 2854SOL    HW2 9462   3.560   1.632   5.836
 2855SOL     OW 9463   1.876   1.338   4.223
 2855SOL    HW1 9464   1.826   1.301   4.144
 2855SOL    HW2 9465   1.890   1.436   4.210
 2856SOL     OW 9466   1.037   4.519   3.225
 2856SOL    HW1 9467   1.048   4.450   3.296
 2856SOL    HW2 9468   0.942   4.548   3.221
 2857SOL     OW 9469   6.618   3.437   0.455
 2857SOL    HW1 9470   6.708   3.411   0.421
 2857SOL    HW2 9471   6.616   3.536   0.471
 2858SOL     OW 9472   4.724   4.608   3.127
 2858SOL    HW1 9473   4.801   4.603   3.064
 2858SOL    HW2 9474   4.638   4.602   3.076
 2859SOL     OW 9475   5.607   4.698   1.755
 2859SOL    HW1 9476   5.592   4.743   1.668
 2859SOL    HW2 9477   5.704   4.676   1.765
 2860SOL     OW 9478   1.111   5.910   1.306
 2860SOL    HW1 9479   1.172   5.949   1.376
 2860SOL    HW2 9480   1.019   5.948   1.319
 2861SOL     OW 9481   4.537   4.871   6.985
 2861SOL    HW1 9482   4.441   4.891   6.964
 2861SOL    HW2 9483   4.585   4.843   6.902
 2862SOL     OW 9484   4.282   2.952   0.979
 2862SOL    HW1 9485   4.271   2.976   0.882
 2862SOL    HW2 9486   4.374   2.973   1.009
 2863SOL     OW 9487   5.932   0.060   5.200
 2863SOL    HW1 9488   5.849   0.008   5.183
 2863SOL    HW2 9489   5.976   0.082   5.113
 2864SOL     OW 9490   3.823   3.615   0.153
 2864SOL    HW1 9491   3.783   3.542   0.208
 2864SOL    HW2 9492   3.767   3.630   0.072
 2865SOL     OW 9493   5.167   6.091   4.098
 2865SOL    HW1 9494   5.141   6.009   4.049
 2865SOL    HW2 9495   5.201   6.066   4.189
 2866SOL     OW 9496   4.286   4.460   6.903
 2866SOL    HW1 9497   4.356   4.501   6.845
 2866SOL    HW2 9498   4.287   4.361   6.891
 2867SOL     OW 9499   5.802   6.227   1.860
 2867SOL    HW1 9500   5.888   6.255   1.904
 2867SOL    HW2 9501   5.792   6.277   1.774
 2868SOL     OW 9502   1.640   1.326   5.999
 2868SOL    HW1 9503   1.649   1.415   5.954
 2868SOL    HW2 9504   1.603   1.260   5.933
 2869SOL     OW 9505   5.291   5.411   3.719
 2869SOL    HW1 9506   5.199   5.374   3.734
 2869SOL    HW2 9507   5.337   5.358   3.649
 2870SOL     OW 9508   0.068   2.007   1.538
 2870SOL    HW1 9509   0.025   1.920   1.563
 2870SOL    HW2 9510   0.032   2.080   1.596
 2871SOL     OW 9511   5.747   1.575   1.355
 2871SOL    HW1 9512   5.808   1.628   1.296
 2871SOL    HW2 9513   5.797   1.542   1.434
 2872SOL     OW 9514   2.166   1.982   2.202
 2872SOL    HW1 9515   2.101   1.981   2.278
 2872SOL    HW2 9516   2.257   2.006   2.236
 2873SOL     OW 9517   0.700   6.549   1.099
 2873SOL    HW1 9518   0.681   6.527   1.195
 2873SOL    HW2 9519   0.722   6.466   1.049
 2874SOL     OW 9520   1.886   0.978   3.212
 2874SOL    HW1 9521   1.926   1.015   3.295
 2874SOL    HW2 9522   1.923   1.027   3.133
 2875SOL     OW 9523   2.806   6.600   3.185
 2875SOL    HW1 9524   2.849   6.686   3.214
 2875SOL    HW2 9525   2.789   6.543   3.265
 2876SOL     OW 9526   1.375   6.277   2.011
 2876SOL    HW1 9527   1.334   6.368   2.009
 2876SOL    HW2 9528   1.303   6.208   2.018
 2877SOL     OW 9529   1.578   1.174   5.761
 2877SOL    HW1 9530   1.496   1.118   5.771
 2877SOL    HW2 9531   1.653   1.118   5.725
 2878SOL     OW 9532   4.076   3.338   4.634
 2878SOL    HW1 9533   4.096   3.435   4.623
 2878SOL    HW2 9534   4.089   3.312   4.729
 2879SOL     OW 9535   4.458   5.111   6.375
 2879SOL    HW1 9536   4.397   5.183   6.408
 2879SOL    HW2 9537   4.552   5.144   6.377
 2880SOL     OW 9538   1.498   1.207   4.598
 2880SOL    HW1 9539   1.536   1.238   4.512
 2880SOL    HW2 9540   1.436   1.277   4.635
 2881SOL     OW 9541   3.901   6.495   6.961
 2881SOL    HW1 9542   3.880   6.463   0.030
 2881SOL    HW2 9543   3.820   6.537   6.920
 2882SOL     OW 9544   4.558   5.852   0.684
 2882SOL    HW1 9545   4.459   5.859   0.691
 2882SOL    HW2 9546   4.601   5.917   0.747
 2883SOL     OW 9547   6.101   6.318   3.425
 2883SOL    HW1 9548   6.031   6.278   3.485
 2883SOL    HW2 9549   6.068   6.316   3.330
 2884SOL     OW 9550   0.202   5.447   3.261
 2884SOL    HW1 9551   0.130   5.380   3.241
 2884SOL    HW2 9552   0.260   5.458   3.180
 2885SOL     OW 9553   1.018   2.918   2.875
 2885SOL    HW1 9554   0.967   2.917   2.961
 2885SOL    HW2 9555   0.969   2.863   2.807
 2886SOL     OW 9556   2.541   4.456   5.960
 2886SOL    HW1 9557   2.616   4.397   5.991
 2886SOL    HW2 9558   2.465   4.450   6.024
 2887SOL     OW 9559   1.187   5.976   3.635
 2887SOL    HW1 9560   1.155   6.019   3.551
 2887SOL    HW2 9561   1.212   6.046   3.701
 2888SOL     OW 9562   6.439   6.475   0.751
 2888SOL    HW1 9563   6.496   6.423   0.815
 2888SOL    HW2 9564   6.377   6.412   0.703
 2889SOL     OW 9565   3.398   6.228   3.478
 2889SOL    HW1 9566   3.322   6.282   3.514
 2889SOL    HW2 9567   3.462   6.288   3.430
 2890SOL     OW 9568   2.013   0.405   0.705
 2890SOL    HW1 9569   1.965   0.490   0.728
 2890SOL    HW2 9570   1.957   0.327   0.734
 2891SOL     OW 9571   0.695   3.219   3.739
 2891SOL    HW1 9572   0.604   3.188   3.713
 2891SOL    HW2 9573   0.689   3.284   3.815
 2892SOL     OW 9574   6.668   3.624   1.314
 2892SOL    HW1 9575   6.595   3.680   1.274
 2892SOL    HW2 9576   6.750   3.680   1.325
 2893SOL     OW 9577   0.134   4.959   4.476
 2893SOL    HW1 9578   0.172   4.977   4.567
 2893SOL    HW2 9579   0.088   4.870   4.476
 2894SOL     OW 9580   1.142   5.218   2.030
 2894SOL    HW1 9581   1.063   5.163   2.006
 2894SOL    HW2 9582   1.210   5.215   1.957
 2895SOL     OW 9583   4.226   6.719   5.924
 2895SOL    HW1 9584   4.134   6.715   5.886
 2895SOL    HW2 9585   4.258   6.627   5.945
 2896SOL     OW 9586   5.670   6.158   4.843
 2896SOL    HW1 9587   5.607   6.229   4.874
 2896SOL    HW2 9588   5.761   6.198   4.829
 2897SOL     OW 9589   3.952   4.953   2.666
 2897SOL    HW1 9590   3.964   5.051   2.679
 2897SOL    HW2 9591   3.975   4.905   2.751
 2898SOL     OW 9592   5.790   4.227   2.415
 2898SOL    HW1 9593   5.814   4.155   2.481
 2898SOL    HW2 9594   5.744   4.187   2.336
 2899SOL     OW 9595   6.626   3.179   0.743
 2899SOL    HW1 9596   6.716   3.221   0.758
 2899SOL    HW2 9597   6.624   3.137   0.652
 2900SOL     OW 9598   3.195   3.843   0.333
 2900SOL    HW1 9599   3.117   3.786   0.307
 2900SOL    HW2 9600   3.248   3.867   0.252
 2901SOL     OW 9601   1.409   3.541   3.314
 2901SOL    HW1 9602   1.428   3.591   3.230
 2901SOL    HW2 9603   1.494   3.502   3.349
 2902SOL     OW 9604   1.297   5.866   4.094
 2902SOL    HW1 9605   1.360   5.927   4.046
 2902SOL    HW2 9606   1.340   5.777   4.107
 2903SOL     OW 9607   4.107   6.166   0.987
 2903SOL    HW1 9608   4.123   6.180   0.890
 2903SOL    HW2 9609   4.110   6.253   1.035
 2904SOL     OW 9610   2.571   4.321   5.331
 2904SOL    HW1 9611   2.593   4.394   5.395
 2904SOL    HW2 9612   2.518   4.358   5.254
 2905SOL     OW 9613   0.630   5.004   1.832
 2905SOL    HW1 9614   0.551   4.953   1.797
 2905SOL    HW2 9615   0.614   5.102   1.820
 2906SOL     OW 9616   5.968   5.857   3.702
 2906SOL    HW1 9617   6.008   5.767   3.722
 2906SOL    HW2 9618   6.036   5.914   3.655
 2907SOL     OW 9619   0.826   0.590   3.386
 2907SOL    HW1 9620   0.848   0.513   3.446
 2907SOL    HW2 9621   0.732   0.619   3.403
 2908SOL     OW 9622   4.329   6.963   3.049
 2908SOL    HW1 9623   4.253   7.017   3.085
 2908SOL    HW2 9624   4.342   6.985   2.952
 2909SOL     OW 9625   1.269   5.838   2.510
 2909SOL    HW1 9626   1.369   5.833   2.517
 2909SOL    HW2 9627   1.236   5.763   2.452
 2910SOL     OW 9628   0.112   0.421   3.295
 2910SOL    HW1 9629   0.040   0.422   3.365
 2910SOL    HW2 9630   0.137   0.515   3.272
 2911SOL     OW 9631   6.816   3.799   4.470
 2911SOL    HW1 9632   6.766   3.792   4.557
 2911SOL    HW2 9633   6.888   3.729   4.467
 2912SOL     OW 9634   0.087   6.654   0.641
 2912SOL    HW1 9635   0.113   6.750   0.630
 2912SOL    HW2 9636   0.001   6.637   0.594
 2913SOL     OW 9637   2.501   5.911   0.887
 2913SOL    HW1 9638   2.554   5.945   0.810
 2913SOL    HW2 9639   2.482   5.987   0.950
 2914SOL     OW 9640   5.100   4.981   0.406
 2914SOL    HW1 9641   5.183   5.000   0.354
 2914SOL    HW2 9642   5.041   4.920   0.354
 2915SOL     OW 9643   3.078   1.228   3.283
 2915SOL    HW1 9644   2.979   1.217   3.283
 2915SOL    HW2 9645   3.104   1.295   3.214
 2916SOL     OW 9646   1.515   6.142   0.839
 2916SOL    HW1 9647   1.456   6.106   0.767
 2916SOL    HW2 9648   1.533   6.239   0.823
 2917SOL     OW 9649   2.512   6.577   3.828
 2917SOL    HW1 9650   2.482   6.527   3.909
 2917SOL    HW2 9651   2.597   6.624   3.847
 2918SOL     OW 9652   6.475   3.518   0.982
 2918SOL    HW1 9653   6.480   3.588   0.910
 2918SOL    HW2 9654   6.435   3.558   1.065
 2919SOL     OW 9655   0.947   5.864   3.938
 2919SOL    HW1 9656   0.899   5.832   4.020
 2919SOL    HW2 9657   1.046   5.857   3.953
 2920SOL     OW 9658   1.536   1.936   1.539
 2920SOL    HW1 9659   1.459   1.883   1.504
 2920SOL    HW2 9660   1.502   2.013   1.592
 2921SOL     OW 9661   0.328   6.940   5.721
 2921SOL    HW1 9662   0.374   7.015   5.673
 2921SOL    HW2 9663   0.230   6.944   5.701
 2922SOL     OW 9664   3.756   0.800   3.282
 2922SOL    HW1 9665   3.803   0.837   3.202
 2922SOL    HW2 9666   3.788   0.848   3.364
 2923SOL     OW 9667   6.097   4.920   4.484
 2923SOL    HW1 9668   6.030   4.984   4.522
 2923SOL    HW2 9669   6.091   4.832   4.531
 2924SOL     OW 9670   6.502   2.867   5.311
 2924SOL    HW1 9671   6.463   2.797   5.253
 2924SOL    HW2 9672   6.475   2.851   5.406
 2925SOL     OW 9673   5.186   6.982   5.904
 2925SOL    HW1 9674   5.128   6.944   5.832
 2925SOL    HW2 9675   5.192   0.058   5.893
 2926SOL     OW 9676   0.171   1.582   4.909
 2926SOL    HW1 9677   0.186   1.652   4.839
 2926SOL    HW2 9678   0.187   1.622   4.999
 2927SOL     OW 9679   1.424   2.878   1.394
 2927SOL    HW1 9680   1.451   2.877   1.490
 2927SOL    HW2 9681   1.386   2.967   1.371
 2928SOL     OW 9682   6.717   2.287   0.367
 2928SOL    HW1 9683   6.769   2.367   0.337
 2928SOL    HW2 9684   6.697   2.296   0.465
 2929SOL     OW 9685   1.737   2.597   4.526
 2929SOL    HW1 9686   1.770   2.652   4.450
 2929SOL    HW2 9687   1.710   2.657   4.602
 2930SOL     OW 9688   0.438   5.506   5.356
 2930SOL    HW1 9689   0.494   5.525   5.436
 2930SOL    HW2 9690   0.343   5.493   5.384
 2931SOL     OW 9691   4.591   4.323   5.979
 2931SOL    HW1 9692   4.649   4.310   5.899
 2931SOL    HW2 9693   4.575   4.235   6.023
 2932SOL     OW 9694   6.516   5.562   0.599
 2932SOL    HW1 9695   6.479   5.646   0.559
 2932SOL    HW2 9696   6.510   5.567   0.699
 2933SOL     OW 9697   1.303   0.072   0.648
 2933SOL    HW1 9698   1.340   0.151   0.696
 2933SOL    HW2 9699   1.375   0.030   0.593
 2934SOL     OW 9700   4.053   4.223   0.095
 2934SOL    HW1 9701   3.970   4.206   0.148
 2934SOL    HW2 9702   4.133   4.201   0.150
 2935SOL     OW 9703   6.772   2.513   6.330
 2935SOL    HW1 9704   6.861   2.472   6.346
 2935SOL    HW2 9705   6.701   2.454   6.368
 2936SOL     OW 9706   4.527   0.083   1.312
 2936SOL    HW1 9707   4.596   0.102   1.242
 2936SOL    HW2 9708   4.438   0.068   1.269
 2937SOL     OW 9709   4.380   5.591   2.270
 2937SOL    HW1 9710   4.338   5.502   2.252
 2937SOL    HW2 9711   4.477   5.580   2.290
 2938SOL     OW 9712   6.725   5.666   6.729
 2938SOL    HW1 9713   6.812   5.696   6.690
 2938SOL    HW2 9714   6.677   5.745   6.767
 2939SOL     OW 9715   0.349   5.957   1.681
 2939SOL    HW1 9716   0.367   5.860   1.660
 2939SOL    HW2 9717   0.260   5.966   1.724
 2940SOL     OW 9718   4.961   5.605   4.080
 2940SOL    HW1 9719   4.984   5.565   4.169
 2940SOL    HW2 9720   4.994   5.699   4.076
 2941SOL     OW 9721   1.896   3.739   3.712
 2941SOL    HW1 9722   1.796   3.741   3.719
 2941SOL    HW2 9723   1.932   3.676   3.780
 2942SOL     OW 9724   3.638   1.622   0.784
 2942SOL    HW1 9725   3.635   1.633   0.884
 2942SOL    HW2 9726   3.682   1.536   0.761
 2943SOL     OW 9727   5.923   4.345   3.401
 2943SOL    HW1 9728   5.987   4.354   3.478
 2943SOL    HW2 9729   5.959   4.398   3.323
 2944SOL     OW 9730   2.105   5.914   3.624
 2944SOL    HW1 9731   2.126   5.938   3.529
 2944SOL    HW2 9732   2.007   5.899   3.633
 2945SOL     OW 9733   5.104   4.411   1.305
 2945SOL    HW1 9734   5.105   4.475   1.228
 2945SOL    HW2 9735   5.161   4.331   1.284
 2946SOL     OW 9736   3.231   4.157   5.948
 2946SOL    HW1 9737   3.271   4.072   5.982
 2946SOL    HW2 9738   3.176   4.199   6.020
 2947SOL     OW 9739   5.636   6.468   0.724
 2947SOL    HW1 9740   5.551   6.520   0.717
 2947SOL    HW2 9741   5.693   6.508   0.796
 2948SOL     OW 9742   5.882   3.776   2.377
 2948SOL    HW1 9743   5.878   3.676   2.375
 2948SOL    HW2 9744   5.800   3.812   2.423
 2949SOL     OW 9745   1.261   6.913   0.827
 2949SOL    HW1 9746   1.270   6.986   0.759
 2949SOL    HW2 9747   1.330   6.843   0.810
 2950SOL     OW 9748   5.200   4.268   2.569
 2950SOL    HW1 9749   5.104   4.255   2.546
 2950SOL    HW2 9750   5.213   4.255   2.668
 2951SOL     OW 9751   5.930   1.606   1.555
 2951SOL    HW1 9752   5.999   1.678   1.563
 2951SOL    HW2 9753   5.906   1.572   1.646
 2952SOL     OW 9754   6.020   1.483   4.226
 2952SOL    HW1 9755   5.925   1.465   4.201
 2952SOL    HW2 9756   6.073   1.504   4.144
 2953SOL     OW 9757   0.984   5.442   3.194
 2953SOL    HW1 9758   0.935   5.464   3.278
 2953SOL    HW2 9759   1.073   5.401   3.218
 2954SOL     OW 9760   0.035   4.701   6.187
 2954SOL    HW1 9761   0.001   4.633   6.122
 2954SOL    HW2 9762   0.034   4.663   6.279
 2955SOL     OW 9763   2.310   4.026   0.279
 2955SOL    HW1 9764   2.238   4.003   0.344
 2955SOL    HW2 9765   2.277   4.012   0.185
 2956SOL     OW 9766   6.516   4.213   3.340
 2956SOL    HW1 9767   6.423   4.211   3.377
 2956SOL    HW2 9768   6.581   4.229   3.415
 2957SOL     OW 9769   2.662   5.749   2.291
 2957SOL    HW1 9770   2.615   5.834   2.317
 2957SOL    HW2 9771   2.755   5.771   2.262
 2958SOL     OW 9772   2.404   5.049   3.417
 2958SOL    HW1 9773   2.311   5.047   3.381
 2958SOL    HW2 9774   2.465   4.999   3.355
 2959SOL     OW 9775   6.604   2.388   2.749
 2959SOL    HW1 9776   6.624   2.297   2.715
 2959SOL    HW2 9777   6.640   2.397   2.842
 2960SOL     OW 9778   4.744   0.872   0.422
 2960SOL    HW1 9779   4.670   0.920   0.468
 2960SOL    HW2 9780   4.830   0.891   0.469
 2961SOL     OW 9781   5.657   3.940   2.493
 2961SOL    HW1 9782   5.618   3.985   2.413
 2961SOL    HW2 9783   5.600   3.862   2.519
 2962SOL     OW 9784   0.097   6.708   2.392
 2962SOL    HW1 9785   0.082   6.788   2.333
 2962SOL    HW2 9786   0.189   6.712   2.431
 2963SOL     OW 9787   1.746   1.293   4.981
 2963SOL    HW1 9788   1.802   1.228   5.032
 2963SOL    HW2 9789   1.778   1.297   4.886
 2964SOL     OW 9790   0.928   2.872   6.949
 2964SOL    HW1 9791   0.848   2.930   6.938
 2964SOL    HW2 9792   1.011   2.926   6.934
 2965SOL     OW 9793   0.651   0.150   4.597
 2965SOL    HW1 9794   0.626   0.054   4.584
 2965SOL    HW2 9795   0.749   0.162   4.580
 2966SOL     OW 9796   4.320   5.756   3.445
 2966SOL    HW1 9797   4.294   5.830   3.382
 2966SOL    HW2 9798   4.258   5.756   3.523
 2967SOL     OW 9799   6.409   0.462   5.690
 2967SOL    HW1 9800   6.478   0.437   5.622
 2967SOL    HW2 9801   6.429   0.415   5.776
 2968SOL     OW 9802   1.524   2.192   0.741
 2968SOL    HW1 9803   1.552   2.226   0.651
 2968SOL    HW2 9804   1.435   2.230   0.765
 2969SOL     OW 9805   5.331   3.214   4.593
 2969SOL    HW1 9806   5.293   3.241   4.504
 2969SOL    HW2 9807   5.258   3.203   4.659
 2970SOL     OW 9808   2.502   2.457   4.512
 2970SOL    HW1 9809   2.438   2.513   4.566
 2970SOL    HW2 9810   2.531   2.379   4.566
 2971SOL     OW 9811   5.261   3.533   6.823
 2971SOL    HW1 9812   5.314   3.455   6.793
 2971SOL    HW2 9813   5.239   3.524   6.920
 2972SOL     OW 9814   5.435   4.988   6.943
 2972SOL    HW1 9815   5.425   4.911   7.005
 2972SOL    HW2 9816   5.471   4.956   6.855
 2973SOL     OW 9817   5.351   6.790   2.243
 2973SOL    HW1 9818   5.275   6.765   2.184
 2973SOL    HW2 9819   5.329   6.875   2.291
 2974SOL     OW 9820   5.031   5.372   3.699
 2974SOL    HW1 9821   5.038   5.274   3.679
 2974SOL    HW2 9822   5.051   5.424   3.616
 2975SOL     OW 9823   4.641   4.791   4.333
 2975SOL    HW1 9824   4.644   4.773   4.431
 2975SOL    HW2 9825   4.563   4.743   4.292
 2976SOL     OW 9826   4.307   2.376   1.936
 2976SOL    HW1 9827   4.374   2.302   1.946
 2976SOL    HW2 9828   4.216   2.343   1.962
 2977SOL     OW 9829   1.210   0.877   1.818
 2977SOL    HW1 9830   1.196   0.793   1.870
 2977SOL    HW2 9831   1.128   0.897   1.765
 2978SOL     OW 9832   4.534   4.712   6.480
 2978SOL    HW1 9833   4.593   4.731   6.559
 2978SOL    HW2 9834   4.470   4.787   6.467
 2979SOL     OW 9835   3.311   1.038   4.156
 2979SOL    HW1 9836   3.347   0.960   4.208
 2979SOL    HW2 9837   3.358   1.043   4.068
 2980SOL     OW 9838   3.798   4.028   5.639
 2980SOL    HW1 9839   3.847   3.950   5.599
 2980SOL    HW2 9840   3.864   4.089   5.684
 2981SOL     OW 9841   1.477   1.041   0.742
 2981SOL    HW1 9842   1.387   1.077   0.717
 2981SOL    HW2 9843   1.548   1.089   0.691
 2982SOL     OW 9844   0.727   0.725   1.533
 2982SOL    HW1 9845   0.803   0.696   1.591
 2982SOL    HW2 9846   0.644   0.733   1.589
 2983SOL     OW 9847   5.959   2.983   6.622
 2983SOL    HW1 9848   6.049   2.995   6.663
 2983SOL    HW2 9849   5.962   2.909   6.555
 2984SOL     OW 9850   6.978   4.946   0.542
 2984SOL    HW1 9851   0.036   5.003   0.553
 2984SOL    HW2 9852   6.932   4.937   0.630
 2985SOL     OW 9853   0.568   0.364   4.764
 2985SOL    HW1 9854   0.598   0.346   4.857
 2985SOL    HW2 9855   0.589   0.285   4.706
 2986SOL     OW 9856   3.789   4.119   2.703
 2986SOL    HW1 9857   3.799   4.141   2.606
 2986SOL    HW2 9858   3.692   4.118   2.727
 2987SOL     OW 9859   1.127   1.470   4.468
 2987SOL    HW1 9860   1.150   1.436   4.559
 2987SOL    HW2 9861   1.062   1.408   4.425
 2988SOL     OW 9862   0.460   1.692   0.206
 2988SOL    HW1 9863   0.537   1.635   0.235
 2988SOL    HW2 9864   0.492   1.762   0.143
 2989SOL     OW 9865   4.922   3.685   4.485
 2989SOL    HW1 9866   4.922   3.697   4.584
 2989SOL    HW2 9867   4.867   3.757   4.442
 2990SOL     OW 9868   5.105   2.039   4.447
 2990SOL    HW1 9869   5.188   2.009   4.400
 2990SOL    HW2 9870   5.123   2.048   4.545
 2991SOL     OW 9871   5.709   3.138   0.775
 2991SOL    HW1 9872   5.622   3.116   0.819
 2991SOL    HW2 9873   5.693   3.203   0.700
 2992SOL     OW 9874   0.365   3.260   5.780
 2992SOL    HW1 9875   0.363   3.215   5.691
 2992SOL    HW2 9876   0.460   3.270   5.810
 2993SOL     OW 9877   1.362   4.673   0.420
 2993SOL    HW1 9878   1.316   4.741   0.477
 2993SOL    HW2 9879   1.301   4.644   0.346
 2994SOL     OW 9880   5.032   6.973   0.103
 2994SOL    HW1 9881   5.039   0.048   0.118
 2994SOL    HW2 9882   5.002   6.955   0.010
 2995SOL     OW 9883   4.931   6.915   0.775
 2995SOL    HW1 9884   4.880   6.995   0.743
 2995SOL    HW2 9885   5.026   6.941   0.793
 2996SOL     OW 9886   0.606   1.535   4.738
 2996SOL    HW1 9887   0.532   1.483   4.781
 2996SOL    HW2 9888   0.575   1.628   4.721
 2997SOL     OW 9889   5.010   0.405   3.989
 2997SOL    HW1 9890   4.949   0.446   4.057
 2997SOL    HW2 9891   4.956   0.363   3.916
 2998SOL     OW 9892   2.444   1.333   2.833
 2998SOL    HW1 9893   2.423   1.305   2.739
 2998SOL    HW2 9894   2.471   1.430   2.834
 2999SOL     OW 9895   3.003   4.363   0.539
 2999SOL    HW1 9896   3.081   4.303   0.559
 2999SOL    HW2 9897   2.966   4.340   0.449
 3000SOL     OW 9898   3.242   3.776   5.153
 3000SOL    HW1 9899   3.165   3.720   5.120
 3000SOL    HW2 9900   3.220   3.873   5.138
 3001SOL     OW 9901   6.444   1.276   5.969
 3001SOL    HW1 9902   6.469   1.316   6.057
 3001SOL    HW2 9903   6.387   1.340   5.919
 3002SOL     OW 9904   2.084   1.215   1.735
 3002SOL    HW1 9905   2.179   1.237   1.756
 3002SOL    HW2 9906   2.076   1.189   1.638
 3003SOL     OW 9907   1.503   6.147   0.277
 3003SOL    HW1 9908   1.503   6.047   0.277
 3003SOL    HW2 9909   1.410   6.181   0.261
 3004SOL     OW 9910   2.620   5.555   4.255
 3004SOL    HW1 9911   2.563   5.532   4.175
 3004SOL    HW2 9912   2.602   5.649   4.283
 3005SOL     OW 9913   0.990   2.280   5.297
 3005SOL    HW1 9914   1.014   2.266   5.201
 3005SOL    HW2 9915   1.004   2.376   5.321
 3006SOL     OW 9916   5.792   1.311   5.194
 3006SOL    HW1 9917   5.890   1.291   5.199
 3006SOL    HW2 9918   5.778   1.409   5.209
 3007SOL     OW 9919   4.912   4.253   6.701
 3007SOL    HW1 9920   4.892   4.161   6.733
 3007SOL    HW2 9921   4.832   4.290   6.654
 3008SOL     OW 9922   4.673   2.518   5.601
 3008SOL    HW1 9923   4.595   2.518   5.663
 3008SOL    HW2 9924   4.744   2.457   5.636
 3009SOL     OW 9925   0.647   2.912   2.649
 3009SOL    HW1 9926   0.659   3.009   2.670
 3009SOL    HW2 9927   0.627   2.901   2.552
 3010SOL     OW 9928   4.284   5.974   6.357
 3010SOL    HW1 9929   4.353   5.907   6.330
 3010SOL    HW2 9930   4.230   5.939   6.433
 3011SOL     OW 9931   6.255   0.100   0.898
 3011SOL    HW1 9932   6.247   0.008   0.861
 3011SOL    HW2 9933   6.274   0.095   0.996
 3012SOL     OW 9934   2.900   2.886   6.064
 3012SOL    HW1 9935   2.923   2.810   6.002
 3012SOL    HW2 9936   2.886   2.969   6.011
 3013SOL     OW 9937   0.663   6.061   4.322
 3013SOL    HW1 9938   0.570   6.070   4.357
 3013SOL    HW2 9939   0.694   6.149   4.286
 3014SOL     OW 9940   4.801   0.373   5.639
 3014SOL    HW1 9941   4.802   0.275   5.657
 3014SOL    HW2 9942   4.887   0.414   5.669
 3015SOL     OW 9943   1.296   1.376   0.091
 3015SOL    HW1 9944   1.317   1.289   0.134
 3015SOL    HW2 9945   1.270   1.443   0.160
 3016SOL     OW 9946   2.709   6.366   4.962
 3016SOL    HW1 9947   2.644   6.302   5.002
 3016SOL    HW2 9948   2.754   6.323   4.883
 3017SOL     OW 9949   6.749   5.770   1.508
 3017SOL    HW1 9950   6.732   5.789   1.411
 3017SOL    HW2 9951   6.663   5.778   1.559
 3018SOL     OW 9952   3.635   0.120   0.020
 3018SOL    HW1 9953   3.585   0.123   6.958
 3018SOL    HW2 9954   3.579   0.159   0.094
 3019SOL     OW 9955   1.700   0.306   5.482
 3019SOL    HW1 9956   1.763   0.256   5.423
 3019SOL    HW2 9957   1.607   0.295   5.448
 3020SOL     OW 9958   4.865   3.690   0.151
 3020SOL    HW1 9959   4.774   3.660   0.124
 3020SOL    HW2 9960   4.914   3.613   0.192
 3021SOL     OW 9961   3.811   6.739   4.712
 3021SOL    HW1 9962   3.721   6.767   4.677
 3021SOL    HW2 9963   3.825   6.642   4.695
 3022SOL     OW 9964   4.474   5.787   3.937
 3022SOL    HW1 9965   4.451   5.885   3.936
 3022SOL    HW2 9966   4.551   5.771   3.875
 3023SOL     OW 9967   4.046   6.684   3.140
 3023SOL    HW1 9968   4.133   6.710   3.183
 3023SOL    HW2 9969   3.971   6.729   3.187
 3024SOL     OW 9970   0.348   6.266   6.517
 3024SOL    HW1 9971   0.398   6.270   6.604
 3024SOL    HW2 9972   0.366   6.179   6.471
 3025SOL     OW 9973   3.579   6.174   0.513
 3025SOL    HW1 9974   3.600   6.257   0.565
 3025SOL    HW2 9975   3.493   6.135   0.546
 3026SOL     OW 9976   6.023   1.287   0.520
 3026SOL    HW1 9977   6.062   1.274   0.611
 3026SOL    HW2 9978   6.096   1.290   0.452
 3027SOL     OW 9979   4.905   1.556   1.510
 3027SOL    HW1 9980   4.851   1.621   1.563
 3027SOL    HW2 9981   4.868   1.550   1.417
 3028SOL     OW 9982   2.779   4.566   5.812
 3028SOL    HW1 9983   2.869   4.580   5.854
 3028SOL    HW2 9984   2.715   4.531   5.880
 3029SOL     OW 9985   0.947   2.207   4.148
 3029SOL    HW1 9986   0.866   2.240   4.100
 3029SOL    HW2 9987   0.921   2.134   4.212
 3030SOL     OW 9988   1.793   3.280   0.761
 3030SOL    HW1 9989   1.748   3.350   0.704
 3030SOL    HW2 9990   1.890   3.273   0.735
 3031SOL     OW 9991   1.004   6.253   1.420
 3031SOL    HW1 9992   1.090   6.204   1.405
 3031SOL    HW2 9993   0.928   6.188   1.418
 3032SOL     OW 9994   1.754   0.367   2.744
 3032SOL    HW1 9995   1.807   0.397   2.823
 3032SOL    HW2 9996   1.674   0.426   2.733
 3033SOL     OW 9997   6.766   2.365   4.000
 3033SOL    HW1 9998   6.744   2.436   3.933
 3033SOL    HW2 9999   6.697   2.293   3.998
 3034SOL     OW10000   0.181   5.468   3.757
 3034SOL    HW110001   0.255   5.535   3.761
 3034SOL    HW210002   0.210   5.384   3.804
 3035SOL     OW10003   1.123   2.744   6.210
 3035SOL    HW110004   1.121   2.782   6.303
 3035SOL    HW210005   1.180   2.662   6.209
 3036SOL     OW10006   3.028   2.299   6.436
 3036SOL    HW110007   3.062   2.393   6.441
 3036SOL    HW210008   3.106   2.236   6.432
 3037SOL     OW10009   0.261   5.402   6.780
 3037SOL    HW110010   0.250   5.470   6.708
 3037SOL    HW210011   0.180   5.342   6.780
 3038SOL     OW10012   5.128   4.175   6.521
 3038SOL    HW110013   5.048   4.179   6.582
 3038SOL    HW210014   5.145   4.265   6.482
 3039SOL     OW10015   6.646   3.879   0.086
 3039SOL    HW110016   6.738   3.874   0.125
 3039SOL    HW210017   6.584   3.915   0.155
 3040SOL     OW10018   4.118   4.263   5.977
 3040SOL    HW110019   4.146   4.344   6.029
 3040SOL    HW210020   4.155   4.181   6.021
 3041SOL     OW10021   2.223   4.301   4.953
 3041SOL    HW110022   2.257   4.209   4.977
 3041SOL    HW210023   2.127   4.309   4.980
 3042SOL     OW10024   7.018   5.265   3.139
 3042SOL    HW110025   6.972   5.194   3.085
 3042SOL    HW210026   0.005   5.347   3.083
 3043SOL     OW10027   3.109   4.908   1.126
 3043SOL    HW110028   3.144   4.865   1.043
 3043SOL    HW210029   3.177   4.973   1.160
 3044SOL     OW10030   3.271   3.289   5.364
 3044SOL    HW110031   3.285   3.344   5.446
 3044SOL    HW210032   3.176   3.299   5.333
 3045SOL     OW10033   4.687   1.404   2.106
 3045SOL    HW110034   4.659   1.321   2.058
 3045SOL    HW210035   4.645   1.406   2.196
 3046SOL     OW10036   5.494   5.516   0.938
 3046SOL    HW110037   5.583   5.471   0.925
 3046SOL    HW210038   5.493   5.602   0.886
 3047SOL     OW10039   6.485   0.345   6.200
 3047SOL    HW110040   6.411   0.299   6.249
 3047SOL    HW210041   6.504   0.434   6.243
 3048SOL     OW10042   3.723   3.463   1.007
 3048SOL    HW110043   3.725   3.532   0.935
 3048SOL    HW210044   3.692   3.504   1.092
 3049SOL     OW10045   1.197   0.685   4.315
 3049SOL    HW110046   1.106   0.728   4.307
 3049SOL    HW210047   1.263   0.738   4.262
 3050SOL     OW10048   2.964   2.661   1.246
 3050SOL    HW110049   2.948   2.751   1.287
 3050SOL    HW210050   2.919   2.591   1.302
 3051SOL     OW10051   2.281   6.571   4.995
 3051SOL    HW110052   2.365   6.626   4.988
 3051SOL    HW210053   2.246   6.576   5.088
 3052SOL     OW10054   6.346   6.095   2.334
 3052SOL    HW110055   6.278   6.159   2.370
 3052SOL    HW210056   6.410   6.144   2.275
 3053SOL     OW10057   1.444   4.506   0.612
 3053SOL    HW110058   1.433   4.545   0.521
 3053SOL    HW210059   1.461   4.579   0.678
 3054SOL     OW10060   5.469   1.656   2.469
 3054SOL    HW110061   5.417   1.606   2.400
 3054SOL    HW210062   5.412   1.672   2.549
 3055SOL     OW10063   6.262   5.642   6.384
 3055SOL    HW110064   6.331   5.601   6.444
 3055SOL    HW210065   6.308   5.691   6.309
 3056SOL     OW10066   4.845   1.417   6.271
 3056SOL    HW110067   4.767   1.412   6.332
 3056SOL    HW210068   4.910   1.344   6.293
 3057SOL     OW10069   6.405   5.666   3.156
 3057SOL    HW110070   6.402   5.740   3.223
 3057SOL    HW210071   6.448   5.586   3.196
 3058SOL     OW10072   6.706   4.698   6.864
 3058SOL    HW110073   6.751   4.659   6.784
 3058SOL    HW210074   6.661   4.625   6.916
 3059SOL     OW10075   2.254   2.585   4.573
 3059SOL    HW110076   2.197   2.561   4.651
 3059SOL    HW210077   2.199   2.587   4.490
 3060SOL     OW10078   4.392   5.220   5.401
 3060SOL    HW110079   4.460   5.292   5.417
 3060SOL    HW210080   4.436   5.142   5.358
 3061SOL     OW10081   5.616   5.011   5.007
 3061SOL    HW110082   5.662   4.982   5.091
 3061SOL    HW210083   5.614   4.935   4.942
 3062SOL     OW10084   5.285   3.993   1.804
 3062SOL    HW110085   5.290   3.897   1.830
 3062SOL    HW210086   5.235   4.045   1.874
 3063SOL     OW10087   0.195   4.286   1.449
 3063SOL    HW110088   0.216   4.337   1.366
 3063SOL    HW210089   0.136   4.209   1.426
 3064SOL     OW10090   4.240   1.791   6.854
 3064SOL    HW110091   4.148   1.755   6.837
 3064SOL    HW210092   4.270   1.844   6.775
 3065SOL     OW10093   0.588   0.966   6.667
 3065SOL    HW110094   0.616   1.008   6.581
 3065SOL    HW210095   0.510   0.906   6.652
 3066SOL     OW10096   5.507   5.891   6.156
 3066SOL    HW110097   5.458   5.856   6.076
 3066SOL    HW210098   5.604   5.901   6.134
 3067SOL     OW10099   2.141   2.418   6.415
 3067SOL    HW110100   2.186   2.506   6.403
 3067SOL    HW210101   2.196   2.361   6.476
 3068SOL     OW10102   0.603   1.002   0.765
 3068SOL    HW110103   0.587   1.049   0.852
 3068SOL    HW210104   0.646   0.914   0.782
 3069SOL     OW10105   4.923   0.196   2.820
 3069SOL    HW110106   4.927   0.169   2.916
 3069SOL    HW210107   4.844   0.256   2.805
 3070SOL     OW10108   2.715   1.340   1.289
 3070SOL    HW110109   2.650   1.402   1.246
 3070SOL    HW210110   2.793   1.326   1.228
 3071SOL     OW10111   0.147   3.477   3.507
 3071SOL    HW110112   0.102   3.395   3.543
 3071SOL    HW210113   0.167   3.464   3.410
 3072SOL     OW10114   1.938   6.863   6.480
 3072SOL    HW110115   1.940   6.810   6.395
 3072SOL    HW210116   1.935   6.800   6.558
 3073SOL     OW10117   6.194   4.925   0.422
 3073SOL    HW110118   6.248   4.848   0.388
 3073SOL    HW210119   6.104   4.923   0.379
 3074SOL     OW10120   2.112   3.297   1.019
 3074SOL    HW110121   2.139   3.392   1.033
 3074SOL    HW210122   2.147   3.242   1.096
 3075SOL     OW10123   2.202   5.234   3.172
 3075SOL    HW110124   2.118   5.215   3.223
 3075SOL    HW210125   2.250   5.148   3.154
 3076SOL     OW10126   0.003   0.295   4.582
 3076SOL    HW110127   6.969   0.309   4.663
 3076SOL    HW210128   0.050   0.381   4.560
 3077SOL     OW10129   6.393   4.055   1.997
 3077SOL    HW110130   6.473   4.088   1.947
 3077SOL    HW210131   6.346   3.986   1.941
 3078SOL     OW10132   6.574   3.084   1.774
 3078SOL    HW110133   6.599   3.180   1.760
 3078SOL    HW210134   6.546   3.069   1.869
 3079SOL     OW10135   2.447   3.213   5.387
 3079SOL    HW110136   2.512   3.286   5.365
 3079SOL    HW210137   2.453   3.140   5.318
 3080SOL     OW10138   4.105   5.328   0.994
 3080SOL    HW110139   4.069   5.420   0.977
 3080SOL    HW210140   4.138   5.321   1.088
 3081SOL     OW10141   2.175   4.371   0.763
 3081SOL    HW110142   2.088   4.321   0.759
 3081SOL    HW210143   2.166   4.458   0.715
 3082SOL     OW10144   3.900   4.990   4.643
 3082SOL    HW110145   3.976   4.927   4.657
 3082SOL    HW210146   3.889   5.048   4.724
 3083SOL     OW10147   2.284   5.622   2.605
 3083SOL    HW110148   2.270   5.720   2.596
 3083SOL    HW210149   2.296   5.599   2.702
 3084SOL     OW10150   0.650   3.404   3.954
 3084SOL    HW110151   0.714   3.465   4.002
 3084SOL    HW210152   0.601   3.456   3.884
 3085SOL     OW10153   4.584   4.807   0.903
 3085SOL    HW110154   4.606   4.861   0.823
 3085SOL    HW210155   4.666   4.797   0.960
 3086SOL     OW10156   6.233   1.161   6.317
 3086SOL    HW110157   6.255   1.139   6.412
 3086SOL    HW210158   6.298   1.116   6.256
 3087SOL     OW10159   2.844   6.823   2.279
 3087SOL    HW110160   2.785   6.787   2.207
 3087SOL    HW210161   2.850   6.923   2.271
 3088SOL     OW10162   1.027   2.788   5.330
 3088SOL    HW110163   1.015   2.689   5.325
 3088SOL    HW210164   1.102   2.810   5.392
 3089SOL     OW10165   5.001   6.950   5.165
 3089SOL    HW110166   5.057   6.869   5.147
 3089SOL    HW210167   4.920   6.948   5.108
 3090SOL     OW10168   1.193   2.423   1.603
 3090SOL    HW110169   1.193   2.484   1.523
 3090SOL    HW210170   1.161   2.333   1.576
 3091SOL     OW10171   1.023   2.052   0.359
 3091SOL    HW110172   0.947   2.097   0.313
 3091SOL    HW210173   0.989   1.974   0.411
 3092SOL     OW10174   7.014   6.835   2.620
 3092SOL    HW110175   7.005   6.792   2.530
 3092SOL    HW210176   0.059   6.786   2.674
 3093SOL     OW10177   5.158   4.898   6.829
 3093SOL    HW110178   5.256   4.907   6.848
 3093SOL    HW210179   5.106   4.919   6.913
 3094SOL     OW10180   2.734   1.685   6.210
 3094SOL    HW110181   2.804   1.639   6.154
 3094SOL    HW210182   2.734   1.783   6.189
 3095SOL     OW10183   2.164   3.336   5.356
 3095SOL    HW110184   2.220   3.256   5.380
 3095SOL    HW210185   2.113   3.318   5.273
 3096SOL     OW10186   0.822   3.768   4.828
 3096SOL    HW110187   0.745   3.708   4.807
 3096SOL    HW210188   0.804   3.859   4.791
 3097SOL     OW10189   5.486   2.515   6.579
 3097SOL    HW110190   5.524   2.470   6.660
 3097SOL    HW210191   5.544   2.592   6.554
 3098SOL     OW10192   2.224   2.298   1.967
 3098SOL    HW110193   2.274   2.315   1.882
 3098SOL    HW210194   2.136   2.345   1.964
 3099SOL     OW10195   0.326   6.135   3.829
 3099SOL    HW110196   0.302   6.200   3.756
 3099SOL    HW210197   0.243   6.107   3.877
 3100SOL     OW10198   6.911   5.437   2.113
 3100SOL    HW110199   6.928   5.526   2.155
 3100SOL    HW210200   6.908   5.367   2.185
 3101SOL     OW10201   4.194   6.031   5.673
 3101SOL    HW110202   4.176   5.933   5.676
 3101SOL    HW210203   4.108   6.081   5.664
 3102SOL     OW10204   0.426   4.852   0.709
 3102SOL    HW110205   0.394   4.806   0.792
 3102SOL    HW210206   0.347   4.887   0.658
 3103SOL     OW10207   3.619   0.317   1.196
 3103SOL    HW110208   3.600   0.394   1.257
 3103SOL    HW210209   3.557   0.320   1.118
 3104SOL     OW10210   4.646   0.263   5.969
 3104SOL    HW110211   4.621   0.227   6.058
 3104SOL    HW210212   4.746   0.273   5.964
 3105SOL     OW10213   5.354   3.556   0.406
 3105SOL    HW110214   5.284   3.623   0.380
 3105SOL    HW210215   5.367   3.559   0.505
 3106SOL     OW10216   5.853   0.702   4.810
 3106SOL    HW110217   5.923   0.726   4.878
 3106SOL    HW210218   5.803   0.622   4.842
 3107SOL     OW10219   3.897   0.931   5.938
 3107SOL    HW110220   3.982   0.924   5.990
 3107SOL    HW210221   3.911   0.990   5.858
 3108SOL     OW10222   1.871   4.364   4.430
 3108SOL    HW110223   1.881   4.460   4.405
 3108SOL    HW210224   1.942   4.340   4.496
 3109SOL     OW10225   6.918   6.401   3.885
 3109SOL    HW110226   6.920   6.314   3.934
 3109SOL    HW210227   6.947   6.387   3.791
 3110SOL     OW10228   1.936   4.531   3.702
 3110SOL    HW110229   1.939   4.622   3.743
 3110SOL    HW210230   2.027   4.506   3.670
 3111SOL     OW10231   6.379   4.596   5.001
 3111SOL    HW110232   6.464   4.638   4.968
 3111SOL    HW210233   6.394   4.498   5.015
 3112SOL     OW10234   3.145   1.938   6.800
 3112SOL    HW110235   3.067   1.901   6.749
 3112SOL    HW210236   3.187   1.866   6.854
 3113SOL     OW10237   1.829   5.014   3.107
 3113SOL    HW110238   1.919   4.989   3.071
 3113SOL    HW210239   1.799   5.100   3.066
 3114SOL     OW10240   4.362   0.987   0.053
 3114SOL    HW110241   4.314   0.915   0.002
 3114SOL    HW210242   4.440   0.946   0.100
 3115SOL     OW10243   4.103   4.998   5.363
 3115SOL    HW110244   4.075   4.992   5.458
 3115SOL    HW210245   4.023   4.998   5.304
 3116SOL     OW10246   0.293   2.230   0.607
 3116SOL    HW110247   0.313   2.309   0.549
 3116SOL    HW210248   0.195   2.212   0.609
 3117SOL     OW10249   5.363   1.614   5.094
 3117SOL    HW110250   5.390   1.530   5.140
 3117SOL    HW210251   5.333   1.681   5.161
 3118SOL     OW10252   2.071   1.257   2.884
 3118SOL    HW110253   2.132   1.191   2.928
 3118SOL    HW210254   2.103   1.275   2.791
 3119SOL     OW10255   4.023   3.712   5.973
 3119SOL    HW110256   4.061   3.782   5.913
 3119SOL    HW210257   3.977   3.642   5.918
 3120SOL     OW10258   2.192   6.820   4.899
 3120SOL    HW110259   2.230   6.739   4.944
 3120SOL    HW210260   2.240   6.836   4.813
 3121SOL     OW10261   5.065   1.039   4.388
 3121SOL    HW110262   5.029   1.110   4.328
 3121SOL    HW210263   5.165   1.035   4.379
 3122SOL     OW10264   4.343   5.167   4.432
 3122SOL    HW110265   4.314   5.148   4.525
 3122SOL    HW210266   4.356   5.266   4.421
 3123SOL     OW10267   2.391   2.205   3.287
 3123SOL    HW110268   2.330   2.170   3.358
 3123SOL    HW210269   2.486   2.187   3.312
 3124SOL     OW10270   4.873   6.869   4.116
 3124SOL    HW110271   4.874   6.928   4.196
 3124SOL    HW210272   4.964   6.864   4.076
 3125SOL     OW10273   1.636   2.421   5.199
 3125SOL    HW110274   1.668   2.511   5.170
 3125SOL    HW210275   1.542   2.407   5.166
 3126SOL     OW10276   5.530   5.165   4.236
 3126SOL    HW110277   5.438   5.146   4.271
 3126SOL    HW210278   5.591   5.090   4.261
 3127SOL     OW10279   6.956   1.418   4.319
 3127SOL    HW110280   6.893   1.451   4.389
 3127SOL    HW210281   6.985   1.495   4.261
 3128SOL     OW10282   4.808   0.556   0.175
 3128SOL    HW110283   4.810   0.569   0.274
 3128SOL    HW210284   4.749   0.626   0.134
 3129SOL     OW10285   4.791   3.514   1.003
 3129SOL    HW110286   4.881   3.472   0.996
 3129SOL    HW210287   4.790   3.576   1.081
 3130SOL     OW10288   1.021   4.542   1.582
 3130SOL    HW110289   1.002   4.556   1.484
 3130SOL    HW210290   0.936   4.518   1.628
 3131SOL     OW10291   6.672   3.883   2.418
 3131SOL    HW110292   6.746   3.946   2.440
 3131SOL    HW210293   6.599   3.893   2.485
 3132SOL     OW10294   4.088   4.549   0.094
 3132SOL    HW110295   4.092   4.487   0.015
 3132SOL    HW210296   4.173   4.601   0.101
 3133SOL     OW10297   4.258   0.921   3.544
 3133SOL    HW110298   4.355   0.936   3.526
 3133SOL    HW210299   4.236   0.953   3.636
 3134SOL     OW10300   3.783   5.360   2.443
 3134SOL    HW110301   3.839   5.298   2.389
 3134SOL    HW210302   3.688   5.328   2.444
 3135SOL     OW10303   5.623   6.688   6.133
 3135SOL    HW110304   5.588   6.781   6.147
 3135SOL    HW210305   5.604   6.633   6.214
 3136SOL     OW10306   6.240   1.212   2.732
 3136SOL    HW110307   6.338   1.202   2.712
 3136SOL    HW210308   6.187   1.158   2.668
 3137SOL     OW10309   6.297   6.896   6.979
 3137SOL    HW110310   6.255   6.807   6.999
 3137SOL    HW210311   6.357   6.887   6.899
 3138SOL     OW10312   5.634   4.898   4.280
 3138SOL    HW110313   5.679   4.879   4.193
 3138SOL    HW210314   5.572   4.823   4.303
 3139SOL     OW10315   2.350   5.155   1.083
 3139SOL    HW110316   2.434   5.189   1.040
 3139SOL    HW210317   2.271   5.196   1.038
 3140SOL     OW10318   6.689   6.567   5.584
 3140SOL    HW110319   6.733   6.519   5.509
 3140SOL    HW210320   6.620   6.508   5.625
 3141SOL     OW10321   6.573   2.502   6.741
 3141SOL    HW110322   6.616   2.591   6.725
 3141SOL    HW210323   6.517   2.506   6.824
 3142SOL     OW10324   5.535   0.714   2.213
 3142SOL    HW110325   5.472   0.770   2.267
 3142SOL    HW210326   5.571   0.641   2.270
 3143SOL     OW10327   6.268   1.330   0.402
 3143SOL    HW110328   6.232   1.409   0.351
 3143SOL    HW210329   6.323   1.273   0.341
 3144SOL     OW10330   4.276   4.081   6.096
 3144SOL    HW110331   4.364   4.106   6.135
 3144SOL    HW210332   4.239   4.002   6.146
 3145SOL     OW10333   1.047   5.632   1.311
 3145SOL    HW110334   1.019   5.614   1.216
 3145SOL    HW210335   1.081   5.726   1.318
 3146SOL     OW10336   0.445   0.636   4.983
 3146SOL    HW110337   0.471   0.636   4.886
 3146SOL    HW210338   0.523   0.605   5.038
 3147SOL     OW10339   4.148   4.932   6.623
 3147SOL    HW110340   4.068   4.873   6.611
 3147SOL    HW210341   4.121   5.015   6.670
 3148SOL     OW10342   0.756   5.668   3.128
 3148SOL    HW110343   0.837   5.611   3.136
 3148SOL    HW210344   0.747   5.701   3.034
 3149SOL     OW10345   2.838   1.333   1.042
 3149SOL    HW110346   2.853   1.245   0.997
 3149SOL    HW210347   2.914   1.394   1.022
 3150SOL     OW10348   0.081   6.242   5.128
 3150SOL    HW110349   0.068   6.147   5.157
 3150SOL    HW210350   7.015   6.284   5.115
 3151SOL     OW10351   5.738   1.711   6.350
 3151SOL    HW110352   5.795   1.782   6.308
 3151SOL    HW210353   5.790   1.626   6.357
 3152SOL     OW10354   1.591   3.321   6.074
 3152SOL    HW110355   1.663   3.389   6.060
 3152SOL    HW210356   1.632   3.231   6.088
 3153SOL     OW10357   6.465   5.243   0.928
 3153SOL    HW110358   6.500   5.270   0.838
 3153SOL    HW210359   6.399   5.168   0.917
 3154SOL     OW10360   5.443   1.298   1.323
 3154SOL    HW110361   5.363   1.357   1.330
 3154SOL    HW210362   5.478   1.277   1.415
 3155SOL     OW10363   0.222   4.689   0.540
 3155SOL    HW110364   0.122   4.688   0.538
 3155SOL    HW210365   0.254   4.666   0.632
 3156SOL     OW10366   3.618   4.189   2.070
 3156SOL    HW110367   3.686   4.154   2.135
 3156SOL    HW210368   3.622   4.289   2.068
 3157SOL     OW10369   0.632   1.774   5.299
 3157SOL    HW110370   0.602   1.688   5.257
 3157SOL    HW210371   0.723   1.797   5.266
 3158SOL     OW10372   3.120   1.646   5.306
 3158SOL    HW110373   3.100   1.549   5.291
 3158SOL    HW210374   3.156   1.686   5.222
 3159SOL     OW10375   5.426   0.012   0.650
 3159SOL    HW110376   5.450   0.105   0.677
 3159SOL    HW210377   5.505   6.976   0.663
 3160SOL     OW10378   2.439   6.960   5.970
 3160SOL    HW110379   2.409   6.885   6.029
 3160SOL    HW210380   2.516   6.929   5.913
 3161SOL     OW10381   1.901   2.618   3.279
 3161SOL    HW110382   1.858   2.529   3.262
 3161SOL    HW210383   1.846   2.690   3.237
 3162SOL     OW10384   2.134   5.439   0.607
 3162SOL    HW110385   2.133   5.397   0.516
 3162SOL    HW210386   2.047   5.423   0.653
 3163SOL     OW10387   4.236   3.923   0.229
 3163SOL    HW110388   4.198   3.987   0.296
 3163SOL    HW210389   4.335   3.922   0.237
 3164SOL     OW10390   3.013   5.781   3.572
 3164SOL    HW110391   2.969   5.871   3.562
 3164SOL    HW210392   3.089   5.788   3.636
 3165SOL     OW10393   1.340   5.743   0.601
 3165SOL    HW110394   1.300   5.792   0.524
 3165SOL    HW210395   1.284   5.664   0.623
 3166SOL     OW10396   3.879   0.788   5.265
 3166SOL    HW110397   3.843   0.819   5.353
 3166SOL    HW210398   3.971   0.751   5.279
 3167SOL     OW10399   4.633   4.361   1.012
 3167SOL    HW110400   4.656   4.444   0.960
 3167SOL    HW210401   4.534   4.354   1.022
 3168SOL     OW10402   4.100   1.862   0.744
 3168SOL    HW110403   4.065   1.782   0.697
 3168SOL    HW210404   4.030   1.933   0.746
 3169SOL     OW10405   1.274   4.916   2.275
 3169SOL    HW110406   1.198   4.887   2.216
 3169SOL    HW210407   1.273   5.015   2.283
 3170SOL     OW10408   3.539   5.133   3.234
 3170SOL    HW110409   3.567   5.199   3.164
 3170SOL    HW210410   3.616   5.115   3.295
 3171SOL     OW10411   5.689   2.389   3.068
 3171SOL    HW110412   5.764   2.353   3.123
 3171SOL    HW210413   5.640   2.459   3.120
 3172SOL     OW10414   0.277   4.946   0.413
 3172SOL    HW110415   0.376   4.946   0.398
 3172SOL    HW210416   0.253   4.869   0.473
 3173SOL     OW10417   3.409   1.341   0.008
 3173SOL    HW110418   3.374   1.366   0.098
 3173SOL    HW210419   3.410   1.423   6.973
 3174SOL     OW10420   2.845   3.639   6.045
 3174SOL    HW110421   2.909   3.715   6.056
 3174SOL    HW210422   2.752   3.675   6.032
 3175SOL     OW10423   6.970   0.800   3.751
 3175SOL    HW110424   0.021   0.814   3.816
 3175SOL    HW210425   6.883   0.795   3.801
 3176SOL     OW10426   0.791   4.348   4.831
 3176SOL    HW110427   0.767   4.259   4.872
 3176SOL    HW210428   0.890   4.350   4.813
 3177SOL     OW10429   5.765   3.794   3.081
 3177SOL    HW110430   5.717   3.877   3.110
 3177SOL    HW210431   5.822   3.761   3.157
 3178SOL     OW10432   6.613   1.046   0.819
 3178SOL    HW110433   6.597   1.105   0.898
 3178SOL    HW210434   6.583   1.092   0.736
 3179SOL     OW10435   0.948   1.832   1.806
 3179SOL    HW110436   0.973   1.928   1.810
 3179SOL    HW210437   0.919   1.801   1.897
 3180SOL     OW10438   6.479   5.973   6.353
 3180SOL    HW110439   6.551   5.911   6.384
 3180SOL    HW210440   6.394   5.952   6.401
 3181SOL     OW10441   0.884   1.182   4.832
 3181SOL    HW110442   0.843   1.104   4.878
 3181SOL    HW210443   0.854   1.267   4.876
 3182SOL     OW10444   2.754   0.456   0.312
 3182SOL    HW110445   2.763   0.538   0.370
 3182SOL    HW210446   2.712   0.383   0.365
 3183SOL     OW10447   4.525   4.459   2.217
 3183SOL    HW110448   4.447   4.514   2.188
 3183SOL    HW210449   4.536   4.381   2.156
 3184SOL     OW10450   0.770   2.438   4.244
 3184SOL    HW110451   0.796   2.534   4.254
 3184SOL    HW210452   0.746   2.420   4.148
 3185SOL     OW10453   0.141   6.151   6.115
 3185SOL    HW110454   0.080   6.091   6.063
 3185SOL    HW210455   0.135   6.244   6.079
 3186SOL     OW10456   0.961   1.372   6.162
 3186SOL    HW110457   0.875   1.322   6.151
 3186SOL    HW210458   1.038   1.314   6.136
 3187SOL     OW10459   4.297   5.924   2.764
 3187SOL    HW110460   4.319   6.001   2.825
 3187SOL    HW210461   4.246   5.957   2.685
 3188SOL     OW10462   2.343   4.730   6.061
 3188SOL    HW110463   2.279   4.722   6.137
 3188SOL    HW210464   2.309   4.678   5.983
 3189SOL     OW10465   2.853   1.626   0.362
 3189SOL    HW110466   2.936   1.666   0.323
 3189SOL    HW210467   2.872   1.533   0.392
 3190SOL     OW10468   0.162   6.017   4.875
 3190SOL    HW110469   0.238   5.991   4.816
 3190SOL    HW210470   0.167   5.966   4.960
 3191SOL     OW10471   4.802   5.569   1.886
 3191SOL    HW110472   4.732   5.634   1.918
 3191SOL    HW210473   4.887   5.618   1.868
 3192SOL     OW10474   6.431   2.132   1.797
 3192SOL    HW110475   6.493   2.056   1.818
 3192SOL    HW210476   6.360   2.101   1.735
 3193SOL     OW10477   4.090   0.617   5.321
 3193SOL    HW110478   4.108   0.645   5.416
 3193SOL    HW210479   4.110   0.519   5.311
 3194SOL     OW10480   1.358   0.962   5.662
 3194SOL    HW110481   1.354   0.884   5.599
 3194SOL    HW210482   1.272   1.014   5.656
 3195SOL     OW10483   0.651   1.279   1.357
 3195SOL    HW110484   0.616   1.185   1.346
 3195SOL    HW210485   0.679   1.315   1.268
 3196SOL     OW10486   6.507   0.372   5.136
 3196SOL    HW110487   6.603   0.400   5.144
 3196SOL    HW210488   6.474   0.391   5.043
 3197SOL     OW10489   2.187   0.471   6.384
 3197SOL    HW110490   2.153   0.413   6.458
 3197SOL    HW210491   2.232   0.552   6.424
 3198SOL     OW10492   6.606   2.342   3.497
 3198SOL    HW110493   6.577   2.251   3.465
 3198SOL    HW210494   6.527   2.401   3.507
 3199SOL     OW10495   5.859   4.535   2.947
 3199SOL    HW110496   5.779   4.514   2.891
 3199SOL    HW210497   5.901   4.620   2.913
 3200SOL     OW10498   5.751   3.466   3.977
 3200SOL    HW110499   5.715   3.374   3.992
 3200SOL    HW210500   5.682   3.521   3.931
 3201SOL     OW10501   6.298   4.316   2.744
 3201SOL    HW110502   6.238   4.312   2.664
 3201SOL    HW210503   6.261   4.381   2.810
 3202SOL     OW10504   1.275   4.945   0.572
 3202SOL    HW110505   1.360   4.973   0.527
 3202SOL    HW210506   1.275   4.977   0.667
 3203SOL     OW10507   4.269   6.585   1.522
 3203SOL    HW110508   4.190   6.571   1.582
 3203SOL    HW210509   4.259   6.673   1.474
 3204SOL     OW10510   3.124   1.175   3.839
 3204SOL    HW110511   3.111   1.196   3.936
 3204SOL    HW210512   3.218   1.146   3.824
 3205SOL     OW10513   5.388   3.161   5.671
 3205SOL    HW110514   5.316   3.224   5.699
 3205SOL    HW210515   5.362   3.067   5.693
 3206SOL     OW10516   2.437   3.098   1.492
 3206SOL    HW110517   2.352   3.049   1.514
 3206SOL    HW210518   2.462   3.079   1.397
 3207SOL     OW10519   0.576   0.334   5.439
 3207SOL    HW110520   0.652   0.274   5.464
 3207SOL    HW210521   0.556   0.395   5.516
 3208SOL     OW10522   6.094   5.733   4.823
 3208SOL    HW110523   5.998   5.705   4.829
 3208SOL    HW210524   6.138   5.685   4.748
 3209SOL     OW10525   4.849   5.731   6.233
 3209SOL    HW110526   4.762   5.745   6.280
 3209SOL    HW210527   4.838   5.746   6.135
 3210SOL     OW10528   0.138   5.298   1.308
 3210SOL    HW110529   0.076   5.352   1.365
 3210SOL    HW210530   0.221   5.276   1.360
 3211SOL     OW10531   1.507   5.871   0.324
 3211SOL    HW110532   1.525   5.786   0.275
 3211SOL    HW210533   1.409   5.880   0.342
 3212SOL     OW10534   3.088   6.826   2.839
 3212SOL    HW110535   2.992   6.808   2.817
 3212SOL    HW210536   3.116   6.912   2.797
 3213SOL     OW10537   2.033   0.792   6.237
 3213SOL    HW110538   2.041   0.786   6.137
 3213SOL    HW210539   2.099   0.859   6.272
 3214SOL     OW10540   3.763   0.898   2.873
 3214SOL    HW110541   3.718   0.984   2.849
 3214SOL    HW210542   3.720   0.823   2.822
 3215SOL     OW10543   1.264   3.130   0.461
 3215SOL    HW110544   1.219   3.208   0.419
 3215SOL    HW210545   1.330   3.162   0.529
 3216SOL     OW10546   5.662   4.113   1.060
 3216SOL    HW110547   5.744   4.147   1.106
 3216SOL    HW210548   5.596   4.082   1.129
 3217SOL     OW10549   0.082   4.874   2.635
 3217SOL    HW110550   7.023   4.900   2.687
 3217SOL    HW210551   0.129   4.800   2.682
 3218SOL     OW10552   7.002   1.738   2.915
 3218SOL    HW110553   6.985   1.657   2.971
 3218SOL    HW210554   0.020   1.809   2.971
 3219SOL     OW10555   0.027   0.720   4.824
 3219SOL    HW110556   0.097   0.788   4.844
 3219SOL    HW210557   6.988   0.755   4.755
 3220SOL     OW10558   6.444   5.886   0.020
 3220SOL    HW110559   6.483   5.913   6.956
 3220SOL    HW210560   6.366   5.825   0.005
 3221SOL     OW10561   4.209   0.867   2.552
 3221SOL    HW110562   4.138   0.936   2.534
 3221SOL    HW210563   4.168   0.776   2.552
 3222SOL     OW10564   2.776   1.482   2.672
 3222SOL    HW110565   2.864   1.485   2.625
 3222SOL    HW210566   2.792   1.471   2.770
 3223SOL     OW10567   1.698   6.616   0.669
 3223SOL    HW110568   1.714   6.708   0.705
 3223SOL    HW210569   1.776   6.558   0.691
 3224SOL     OW10570   4.836   2.680   4.751
 3224SOL    HW110571   4.896   2.654   4.827
 3224SOL    HW210572   4.808   2.775   4.761
 3225SOL     OW10573   3.959   0.928   3.963
 3225SOL    HW110574   3.939   0.840   4.006
 3225SOL    HW210575   3.939   1.002   4.027
 3226SOL     OW10576   1.065   0.186   1.981
 3226SOL    HW110577   1.139   0.136   1.937
 3226SOL    HW210578   1.032   0.134   2.060
 3227SOL     OW10579   4.131   2.381   6.181
 3227SOL    HW110580   4.119   2.357   6.085
 3227SOL    HW210581   4.220   2.349   6.212
 3228SOL     OW10582   1.454   4.342   0.813
 3228SOL    HW110583   1.379   4.278   0.795
 3228SOL    HW210584   1.446   4.420   0.751
 3229SOL     OW10585   2.650   1.425   6.193
 3229SOL    HW110586   2.702   1.500   6.233
 3229SOL    HW210587   2.571   1.404   6.252
 3230SOL     OW10588   2.800   5.831   5.629
 3230SOL    HW110589   2.833   5.908   5.683
 3230SOL    HW210590   2.713   5.799   5.665
 3231SOL     OW10591   3.392   1.019   2.503
 3231SOL    HW110592   3.428   0.963   2.428
 3231SOL    HW210593   3.383   0.962   2.585
 3232SOL     OW10594   4.360   5.813   4.250
 3232SOL    HW110595   4.296   5.872   4.301
 3232SOL    HW210596   4.402   5.866   4.177
 3233SOL     OW10597   0.123   2.632   0.078
 3233SOL    HW110598   0.115   2.719   0.127
 3233SOL    HW210599   0.145   2.559   0.142
 3234SOL     OW10600   1.945   2.891   0.810
 3234SOL    HW110601   1.855   2.932   0.797
 3234SOL    HW210602   1.980   2.915   0.900
 3235SOL     OW10603   6.776   5.737   1.890
 3235SOL    HW110604   6.737   5.746   1.799
 3235SOL    HW210605   6.706   5.705   1.954
 3236SOL     OW10606   2.737   4.227   0.546
 3236SOL    HW110607   2.790   4.180   0.617
 3236SOL    HW210608   2.687   4.159   0.493
 3237SOL     OW10609   6.239   1.385   4.579
 3237SOL    HW110610   6.177   1.459   4.551
 3237SOL    HW210611   6.186   1.302   4.594
 3238SOL     OW10612   5.993   5.271   0.504
 3238SOL    HW110613   6.055   5.296   0.579
 3238SOL    HW210614   6.047   5.257   0.421
 3239SOL     OW10615   0.108   0.417   3.734
 3239SOL    HW110616   0.164   0.471   3.672
 3239SOL    HW210617   0.155   0.406   3.821
 3240SOL     OW10618   0.453   0.241   6.138
 3240SOL    HW110619   0.412   0.270   6.051
 3240SOL    HW210620   0.381   0.232   6.207
 3241SOL     OW10621   5.075   1.461   6.153
 3241SOL    HW110622   4.994   1.449   6.209
 3241SOL    HW210623   5.054   1.520   6.075
 3242SOL     OW10624   4.758   4.238   5.528
 3242SOL    HW110625   4.677   4.201   5.574
 3242SOL    HW210626   4.828   4.260   5.595
 3243SOL     OW10627   3.909   5.422   6.280
 3243SOL    HW110628   3.848   5.348   6.252
 3243SOL    HW210629   3.997   5.412   6.233
 3244SOL     OW10630   5.853   6.251   6.690
 3244SOL    HW110631   5.813   6.237   6.600
 3244SOL    HW210632   5.784   6.286   6.753
 3245SOL     OW10633   4.401   2.412   4.197
 3245SOL    HW110634   4.474   2.458   4.145
 3245SOL    HW210635   4.403   2.444   4.292
 3246SOL     OW10636   0.575   0.097   2.111
 3246SOL    HW110637   0.590   0.009   2.157
 3246SOL    HW210638   0.588   0.172   2.176
 3247SOL     OW10639   0.105   4.210   2.345
 3247SOL    HW110640   0.101   4.136   2.413
 3247SOL    HW210641   0.196   4.251   2.347
 3248SOL     OW10642   5.472   1.995   2.769
 3248SOL    HW110643   5.564   1.960   2.754
 3248SOL    HW210644   5.475   2.094   2.781
 3249SOL     OW10645   3.756   3.627   3.907
 3249SOL    HW110646   3.709   3.550   3.862
 3249SOL    HW210647   3.693   3.671   3.972
 3250SOL     OW10648   5.087   5.577   2.905
 3250SOL    HW110649   5.057   5.573   2.809
 3250SOL    HW210650   5.162   5.513   2.920
 3251SOL     OW10651   2.408   0.517   5.037
 3251SOL    HW110652   2.463   0.547   4.959
 3251SOL    HW210653   2.374   0.597   5.087
 3252SOL     OW10654   2.952   1.397   3.753
 3252SOL    HW110655   2.957   1.497   3.748
 3252SOL    HW210656   3.039   1.361   3.788
 3253SOL     OW10657   6.061   3.216   1.071
 3253SOL    HW110658   6.020   3.139   1.022
 3253SOL    HW210659   6.158   3.198   1.086
 3254SOL     OW10660   5.572   0.486   0.298
 3254SOL    HW110661   5.566   0.453   0.204
 3254SOL    HW210662   5.481   0.490   0.338
 3255SOL     OW10663   5.745   5.063   1.156
 3255SOL    HW110664   5.726   5.142   1.097
 3255SOL    HW210665   5.666   5.000   1.153
 3256SOL     OW10666   4.593   1.981   1.572
 3256SOL    HW110667   4.679   1.946   1.535
 3256SOL    HW210668   4.531   2.004   1.498
 3257SOL     OW10669   2.884   2.261   2.350
 3257SOL    HW110670   2.798   2.289   2.393
 3257SOL    HW210671   2.885   2.292   2.254
 3258SOL     OW10672   3.538   5.431   3.495
 3258SOL    HW110673   3.507   5.459   3.404
 3258SOL    HW210674   3.459   5.405   3.550
 3259SOL     OW10675   5.645   4.477   4.087
 3259SOL    HW110676   5.688   4.476   4.178
 3259SOL    HW210677   5.698   4.536   4.026
 3260SOL     OW10678   1.734   4.632   1.820
 3260SOL    HW110679   1.802   4.578   1.771
 3260SOL    HW210680   1.749   4.623   1.919
 3261SOL     OW10681   5.517   0.657   3.076
 3261SOL    HW110682   5.581   0.703   3.137
 3261SOL    HW210683   5.462   0.725   3.027
 3262SOL     OW10684   3.902   2.151   2.779
 3262SOL    HW110685   3.968   2.121   2.847
 3262SOL    HW210686   3.842   2.220   2.818
 3263SOL     OW10687   2.663   1.067   3.218
 3263SOL    HW110688   2.632   1.075   3.123
 3263SOL    HW210689   2.731   0.995   3.224
 3264SOL     OW10690   2.456   5.070   0.167
 3264SOL    HW110691   2.399   4.991   0.143
 3264SOL    HW210692   2.531   5.078   0.101
 3265SOL     OW10693   6.350   5.629   5.215
 3265SOL    HW110694   6.269   5.669   5.259
 3265SOL    HW210695   6.345   5.529   5.220
 3266SOL     OW10696   3.245   4.539   0.794
 3266SOL    HW110697   3.194   4.555   0.710
 3266SOL    HW210698   3.222   4.448   0.829
 3267SOL     OW10699   4.051   0.712   1.119
 3267SOL    HW110700   4.014   0.620   1.107
 3267SOL    HW210701   4.096   0.742   1.035
 3268SOL     OW10702   0.347   4.996   1.490
 3268SOL    HW110703   0.251   4.974   1.503
 3268SOL    HW210704   0.358   5.095   1.479
 3269SOL     OW10705   0.967   5.442   2.378
 3269SOL    HW110706   1.002   5.373   2.442
 3269SOL    HW210707   0.922   5.515   2.429
 3270SOL     OW10708   0.615   2.691   5.405
 3270SOL    HW110709   0.522   2.705   5.373
 3270SOL    HW210710   0.674   2.669   5.328
 3271SOL     OW10711   6.985   3.505   1.834
 3271SOL    HW110712   6.988   3.405   1.846
 3271SOL    HW210713   6.897   3.540   1.864
 3272SOL     OW10714   4.289   6.012   0.326
 3272SOL    HW110715   4.307   6.105   0.359
 3272SOL    HW210716   4.261   6.015   0.230
 3273SOL     OW10717   4.481   3.539   6.092
 3273SOL    HW110718   4.410   3.470   6.072
 3273SOL    HW210719   4.563   3.517   6.040
 3274SOL     OW10720   6.011   0.815   0.370
 3274SOL    HW110721   5.933   0.756   0.349
 3274SOL    HW210722   6.095   0.763   0.362
 3275SOL     OW10723   4.971   0.556   1.164
 3275SOL    HW110724   4.955   0.532   1.260
 3275SOL    HW210725   5.060   0.600   1.154
 3276SOL     OW10726   4.692   0.126   0.295
 3276SOL    HW110727   4.691   0.196   0.224
 3276SOL    HW210728   4.709   0.036   0.254
 3277SOL     OW10729   3.068   1.648   2.085
 3277SOL    HW110730   3.119   1.568   2.052
 3277SOL    HW210731   3.065   1.717   2.012
 3278SOL     OW10732   0.073   0.486   6.668
 3278SOL    HW110733   0.123   0.474   6.753
 3278SOL    HW210734   0.121   0.438   6.594
 3279SOL     OW10735   4.268   6.886   1.478
 3279SOL    HW110736   4.313   6.899   1.566
 3279SOL    HW210737   4.224   6.972   1.450
 3280SOL     OW10738   5.616   3.612   4.275
 3280SOL    HW110739   5.548   3.549   4.238
 3280SOL    HW210740   5.706   3.567   4.275
 3281SOL     OW10741   6.823   4.767   1.503
 3281SOL    HW110742   6.911   4.733   1.538
 3281SOL    HW210743   6.779   4.823   1.574
 3282SOL     OW10744   0.256   3.946   5.058
 3282SOL    HW110745   0.334   4.007   5.071
 3282SOL    HW210746   0.198   3.949   5.140
 3283SOL     OW10747   3.167   0.990   1.329
 3283SOL    HW110748   3.238   1.054   1.299
 3283SOL    HW210749   3.117   1.029   1.407
 3284SOL     OW10750   1.889   5.644   4.796
 3284SOL    HW110751   1.873   5.600   4.884
 3284SOL    HW210752   1.812   5.627   4.735
 3285SOL     OW10753   5.182   1.183   4.682
 3285SOL    HW110754   5.216   1.094   4.711
 3285SOL    HW210755   5.219   1.205   4.591
 3286SOL     OW10756   3.377   2.049   1.855
 3286SOL    HW110757   3.468   2.013   1.873
 3286SOL    HW210758   3.383   2.130   1.798
 3287SOL     OW10759   1.027   6.959   5.891
 3287SOL    HW110760   0.961   6.972   5.817
 3287SOL    HW210761   1.086   6.882   5.869
 3288SOL     OW10762   1.328   6.482   0.433
 3288SOL    HW110763   1.416   6.525   0.414
 3288SOL    HW210764   1.257   6.552   0.439
 3289SOL     OW10765   3.193   1.368   6.843
 3289SOL    HW110766   3.239   1.301   6.901
 3289SOL    HW210767   3.187   1.455   6.891
 3290SOL     OW10768   6.547   5.300   0.694
 3290SOL    HW110769   6.496   5.223   0.656
 3290SOL    HW210770   6.539   5.379   0.633
 3291SOL     OW10771   4.264   0.227   6.040
 3291SOL    HW110772   4.235   0.308   5.989
 3291SOL    HW210773   4.295   0.255   6.131
 3292SOL     OW10774   0.724   1.608   0.543
 3292SOL    HW110775   0.650   1.563   0.593
 3292SOL    HW210776   0.809   1.601   0.595
 3293SOL     OW10777   6.602   4.798   2.561
 3293SOL    HW110778   6.606   4.881   2.616
 3293SOL    HW210779   6.676   4.736   2.589
 3294SOL     OW10780   5.389   2.425   5.540
 3294SOL    HW110781   5.426   2.402   5.450
 3294SOL    HW210782   5.463   2.451   5.601
 3295SOL     OW10783   1.723   2.946   0.527
 3295SOL    HW110784   1.764   3.028   0.487
 3295SOL    HW210785   1.728   2.951   0.626
 3296SOL     OW10786   6.809   6.680   5.166
 3296SOL    HW110787   6.899   6.706   5.131
 3296SOL    HW210788   6.817   6.595   5.218
 3297SOL     OW10789   3.037   2.127   5.500
 3297SOL    HW110790   2.988   2.120   5.413
 3297SOL    HW210791   3.135   2.138   5.481
 3298SOL     OW10792   6.103   3.775   4.748
 3298SOL    HW110793   6.061   3.684   4.753
 3298SOL    HW210794   6.183   3.778   4.807
 3299SOL     OW10795   3.882   4.980   3.645
 3299SOL    HW110796   3.826   4.921   3.587
 3299SOL    HW210797   3.841   5.071   3.650
 3300SOL     OW10798   2.465   6.868   5.609
 3300SOL    HW110799   2.564   6.878   5.605
 3300SOL    HW210800   2.426   6.944   5.660
 3301SOL     OW10801   1.397   3.335   2.607
 3301SOL    HW110802   1.437   3.311   2.695
 3301SOL    HW210803   1.469   3.357   2.542
 3302SOL     OW10804   1.687   4.810   6.710
 3302SOL    HW110805   1.769   4.833   6.657
 3302SOL    HW210806   1.645   4.728   6.672
 3303SOL     OW10807   3.510   2.754   0.738
 3303SOL    HW110808   3.433   2.748   0.675
 3303SOL    HW210809   3.480   2.793   0.825
 3304SOL     OW10810   2.394   4.502   6.657
 3304SOL    HW110811   2.489   4.530   6.640
 3304SOL    HW210812   2.391   4.403   6.673
 3305SOL     OW10813   3.393   0.500   1.034
 3305SOL    HW110814   3.371   0.445   1.115
 3305SOL    HW210815   3.364   0.595   1.050
 3306SOL     OW10816   1.408   6.360   6.973
 3306SOL    HW110817   1.348   6.429   6.933
 3306SOL    HW210818   1.501   6.372   6.937
 3307SOL     OW10819   1.302   6.823   5.432
 3307SOL    HW110820   1.327   6.792   5.524
 3307SOL    HW210821   1.353   6.905   5.410
 3308SOL     OW10822   4.157   4.478   1.304
 3308SOL    HW110823   4.130   4.555   1.246
 3308SOL    HW210824   4.210   4.512   1.381
 3309SOL     OW10825   5.134   4.407   4.045
 3309SOL    HW110826   5.228   4.441   4.058
 3309SOL    HW210827   5.080   4.477   3.999
 3310SOL     OW10828   0.703   4.903   4.627
 3310SOL    HW110829   0.661   4.812   4.624
 3310SOL    HW210830   0.633   4.972   4.642
 3311SOL     OW10831   3.653   3.655   1.207
 3311SOL    HW110832   3.695   3.745   1.188
 3311SOL    HW210833   3.603   3.659   1.293
 3312SOL     OW10834   5.127   2.770   6.347
 3312SOL    HW110835   5.135   2.846   6.410
 3312SOL    HW210836   5.086   2.802   6.261
 3313SOL     OW10837   0.418   0.946   3.100
 3313SOL    HW110838   0.412   1.023   3.037
 3313SOL    HW210839   0.438   0.980   3.192
 3314SOL     OW10840   2.321   0.272   3.162
 3314SOL    HW110841   2.231   0.282   3.120
 3314SOL    HW210842   2.317   0.301   3.258
 3315SOL     OW10843   0.677   4.815   5.387
 3315SOL    HW110844   0.599   4.877   5.381
 3315SOL    HW210845   0.754   4.862   5.430
 3316SOL     OW10846   3.253   1.152   5.967
 3316SOL    HW110847   3.308   1.177   6.047
 3316SOL    HW210848   3.293   1.071   5.923
 3317SOL     OW10849   5.419   2.040   1.896
 3317SOL    HW110850   5.426   1.986   1.980
 3317SOL    HW210851   5.461   1.990   1.820
 3318SOL     OW10852   2.903   2.185   6.724
 3318SOL    HW110853   2.869   2.097   6.692
 3318SOL    HW210854   2.922   2.244   6.645
 3319SOL     OW10855   6.921   0.078   2.498
 3319SOL    HW110856   6.978   0.156   2.524
 3319SOL    HW210857   6.958   7.018   2.540
 3320SOL     OW10858   6.487   1.241   0.642
 3320SOL    HW110859   6.531   1.319   0.686
 3320SOL    HW210860   6.389   1.242   0.662
 3321SOL     OW10861   6.056   1.532   1.089
 3321SOL    HW110862   5.999   1.574   1.160
 3321SOL    HW210863   6.152   1.546   1.111
 3322SOL     OW10864   6.128   3.252   0.751
 3322SOL    HW110865   6.072   3.208   0.821
 3322SOL    HW210866   6.221   3.262   0.785
 3323SOL     OW10867   2.606   2.104   1.798
 3323SOL    HW110868   2.515   2.084   1.763
 3323SOL    HW210869   2.610   2.200   1.827
 3324SOL     OW10870   4.672   5.555   5.810
 3324SOL    HW110871   4.630   5.626   5.754
 3324SOL    HW210872   4.613   5.473   5.809
 3325SOL     OW10873   0.890   3.481   6.582
 3325SOL    HW110874   0.974   3.430   6.600
 3325SOL    HW210875   0.811   3.423   6.601
 3326SOL     OW10876   5.271   0.829   3.090
 3326SOL    HW110877   5.209   0.839   3.168
 3326SOL    HW210878   5.218   0.807   3.008
 3327SOL     OW10879   1.456   5.916   1.610
 3327SOL    HW110880   1.484   5.922   1.706
 3327SOL    HW210881   1.366   5.959   1.599
 3328SOL     OW10882   3.547   2.166   1.245
 3328SOL    HW110883   3.503   2.122   1.167
 3328SOL    HW210884   3.519   2.121   1.330
 3329SOL     OW10885   5.892   6.361   5.381
 3329SOL    HW110886   5.913   6.452   5.417
 3329SOL    HW210887   5.835   6.312   5.447
 3330SOL     OW10888   6.903   3.268   2.489
 3330SOL    HW110889   6.909   3.261   2.390
 3330SOL    HW210890   6.808   3.253   2.518
 3331SOL     OW10891   1.758   2.480   1.038
 3331SOL    HW110892   1.663   2.507   1.026
 3331SOL    HW210893   1.791   2.436   0.954
 3332SOL     OW10894   5.184   4.682   0.727
 3332SOL    HW110895   5.166   4.766   0.778
 3332SOL    HW210896   5.270   4.642   0.758
 3333SOL     OW10897   3.852   5.294   6.799
 3333SOL    HW110898   3.917   5.223   6.773
 3333SOL    HW210899   3.759   5.256   6.795
 3334SOL     OW10900   3.296   3.366   1.343
 3334SOL    HW110901   3.342   3.454   1.347
 3334SOL    HW210902   3.358   3.294   1.375
 3335SOL     OW10903   4.965   4.890   5.636
 3335SOL    HW110904   5.049   4.867   5.686
 3335SOL    HW210905   4.919   4.807   5.607
 3336SOL     OW10906   3.031   5.442   5.871
 3336SOL    HW110907   3.128   5.433   5.891
 3336SOL    HW210908   3.019   5.484   5.782
 3337SOL     OW10909   3.703   2.433   1.253
 3337SOL    HW110910   3.653   2.347   1.260
 3337SOL    HW210911   3.758   2.446   1.335
 3338SOL     OW10912   6.523   4.078   1.605
 3338SOL    HW110913   6.472   4.157   1.570
 3338SOL    HW210914   6.536   4.088   1.703
 3339SOL     OW10915   6.627   6.124   6.685
 3339SOL    HW110916   6.631   6.172   6.597
 3339SOL    HW210917   6.666   6.182   6.757
 3340SOL     OW10918   3.671   6.910   1.925
 3340SOL    HW110919   3.660   6.836   1.859
 3340SOL    HW210920   3.646   6.878   2.016
 3341SOL     OW10921   0.348   0.003   2.859
 3341SOL    HW110922   0.442   6.993   2.849
 3341SOL    HW210923   0.337   0.085   2.803
 3342SOL     OW10924   2.071   0.182   3.822
 3342SOL    HW110925   1.973   0.201   3.831
 3342SOL    HW210926   2.089   0.149   3.729
 3343SOL     OW10927   4.989   2.732   0.562
 3343SOL    HW110928   4.914   2.753   0.499
 3343SOL    HW210929   5.007   2.810   0.621
 3344SOL     OW10930   5.236   3.864   5.072
 3344SOL    HW110931   5.195   3.773   5.072
 3344SOL    HW210932   5.293   3.875   5.154
 3345SOL     OW10933   2.986   3.928   5.796
 3345SOL    HW110934   2.924   3.992   5.752
 3345SOL    HW210935   2.948   3.836   5.792
 3346SOL     OW10936   0.555   1.561   2.168
 3346SOL    HW110937   0.551   1.633   2.099
 3346SOL    HW210938   0.650   1.537   2.184
 3347SOL     OW10939   6.622   4.140   4.228
 3347SOL    HW110940   6.615   4.105   4.321
 3347SOL    HW210941   6.532   4.167   4.195
 3348SOL     OW10942   3.211   3.351   3.707
 3348SOL    HW110943   3.291   3.299   3.675
 3348SOL    HW210944   3.211   3.442   3.665
 3349SOL     OW10945   6.690   4.403   4.194
 3349SOL    HW110946   6.596   4.432   4.175
 3349SOL    HW210947   6.707   4.314   4.151
 3350SOL     OW10948   2.229   1.277   6.864
 3350SOL    HW110949   2.249   1.331   6.782
 3350SOL    HW210950   2.215   1.181   6.838
 3351SOL     OW10951   5.696   0.421   1.168
 3351SOL    HW110952   5.748   0.487   1.114
 3351SOL    HW210953   5.757   0.347   1.197
 3352SOL     OW10954   0.985   4.286   0.676
 3352SOL    HW110955   0.892   4.261   0.651
 3352SOL    HW210956   1.001   4.382   0.654
 3353SOL     OW10957   1.522   6.961   6.758
 3353SOL    HW110958   1.446   6.907   6.722
 3353SOL    HW210959   1.489   0.026   6.789
 3354SOL     OW10960   6.792   1.937   3.028
 3354SOL    HW110961   6.751   1.862   2.977
 3354SOL    HW210962   6.810   1.908   3.122
 3355SOL     OW10963   0.070   2.237   1.003
 3355SOL    HW110964   0.044   2.144   1.030
 3355SOL    HW210965   0.150   2.267   1.056
 3356SOL     OW10966   2.707   3.335   0.393
 3356SOL    HW110967   2.662   3.403   0.336
 3356SOL    HW210968   2.649   3.253   0.400
 3357SOL     OW10969   1.972   5.404   1.060
 3357SOL    HW110970   2.036   5.381   0.987
 3357SOL    HW210971   2.021   5.411   1.147
 3358SOL     OW10972   4.904   6.333   2.321
 3358SOL    HW110973   4.854   6.377   2.246
 3358SOL    HW210974   4.953   6.253   2.286
 3359SOL     OW10975   0.498   0.477   2.794
 3359SOL    HW110976   0.566   0.484   2.867
 3359SOL    HW210977   0.412   0.519   2.823
 3360SOL     OW10978   0.533   1.181   0.360
 3360SOL    HW110979   0.609   1.135   0.315
 3360SOL    HW210980   0.502   1.258   0.302
 3361SOL     OW10981   6.643   5.919   3.239
 3361SOL    HW110982   6.692   5.833   3.241
 3361SOL    HW210983   6.694   5.988   3.290
 3362SOL     OW10984   2.776   1.717   4.878
 3362SOL    HW110985   2.869   1.697   4.848
 3362SOL    HW210986   2.740   1.794   4.825
 3363SOL     OW10987   0.467   1.524   6.473
 3363SOL    HW110988   0.448   1.510   6.570
 3363SOL    HW210989   0.522   1.607   6.462
 3364SOL     OW10990   1.051   5.778   6.297
 3364SOL    HW110991   0.968   5.831   6.278
 3364SOL    HW210992   1.090   5.807   6.384
 3365SOL     OW10993   0.155   1.746   4.674
 3365SOL    HW110994   0.147   1.842   4.647
 3365SOL    HW210995   0.076   1.696   4.639
 3366SOL     OW10996   5.468   0.792   4.953
 3366SOL    HW110997   5.460   0.698   4.987
 3366SOL    HW210998   5.559   0.827   4.975
 3367SOL     OW10999   1.872   2.437   1.799
 3367SOL    HW111000   1.934   2.511   1.775
 3367SOL    HW211001   1.863   2.375   1.721
 3368SOL     OW11002   6.393   5.436   6.179
 3368SOL    HW111003   6.407   5.535   6.171
 3368SOL    HW211004   6.474   5.394   6.220
 3369SOL     OW11005   3.700   0.779   0.418
 3369SOL    HW111006   3.698   0.714   0.342
 3369SOL    HW211007   3.786   0.831   0.416
 3370SOL     OW11008   6.408   6.984   4.961
 3370SOL    HW111009   6.378   6.903   4.911
 3370SOL    HW211010   6.506   6.975   4.982
 3371SOL     OW11011   1.138   4.166   2.315
 3371SOL    HW111012   1.117   4.251   2.268
 3371SOL    HW211013   1.185   4.103   2.252
 3372SOL     OW11014   0.135   1.122   2.158
 3372SOL    HW111015   0.068   1.069   2.106
 3372SOL    HW211016   0.205   1.061   2.193
 3373SOL     OW11017   6.115   1.232   4.299
 3373SOL    HW111018   6.046   1.169   4.265
 3373SOL    HW211019   6.079   1.325   4.299
 3374SOL     OW11020   3.454   6.035   5.337
 3374SOL    HW111021   3.476   5.953   5.389
 3374SOL    HW211022   3.477   6.116   5.391
 3375SOL     OW11023   4.558   4.581   4.937
 3375SOL    HW111024   4.633   4.533   4.980
 3375SOL    HW211025   4.473   4.560   4.985
 3376SOL     OW11026   3.533   3.042   2.542
 3376SOL    HW111027   3.543   2.962   2.600
 3376SOL    HW211028   3.555   3.017   2.447
 3377SOL     OW11029   1.393   6.442   5.103
 3377SOL    HW111030   1.370   6.393   5.019
 3377SOL    HW211031   1.453   6.385   5.159
 3378SOL     OW11032   6.648   1.529   1.448
 3378SOL    HW111033   6.644   1.430   1.467
 3378SOL    HW211034   6.740   1.563   1.469
 3379SOL     OW11035   0.430   4.314   5.934
 3379SOL    HW111036   0.474   4.320   6.024
 3379SOL    HW211037   0.491   4.268   5.870
 3380SOL     OW11038   6.536   4.724   6.271
 3380SOL    HW111039   6.598   4.800   6.292
 3380SOL    HW211040   6.477   4.750   6.195
 3381SOL     OW11041   2.375   2.352   0.428
 3381SOL    HW111042   2.340   2.337   0.520
 3381SOL    HW211043   2.470   2.321   0.423
 3382SOL     OW11044   0.142   1.610   6.730
 3382SOL    HW111045   0.206   1.538   6.703
 3382SOL    HW211046   0.168   1.645   6.820
 3383SOL     OW11047   5.928   4.915   2.608
 3383SOL    HW111048   5.905   4.965   2.524
 3383SOL    HW211049   5.985   4.836   2.586
 3384SOL     OW11050   3.411   3.213   4.831
 3384SOL    HW111051   3.347   3.180   4.762
 3384SOL    HW211052   3.367   3.208   4.921
 3385SOL     OW11053   6.268   4.115   3.442
 3385SOL    HW111054   6.274   4.016   3.457
 3385SOL    HW211055   6.183   4.150   3.481
 3386SOL     OW11056   6.004   4.222   4.635
 3386SOL    HW111057   5.913   4.183   4.620
 3386SOL    HW211058   6.074   4.153   4.613
 3387SOL     OW11059   2.385   2.592   2.473
 3387SOL    HW111060   2.435   2.572   2.557
 3387SOL    HW211061   2.447   2.585   2.395
 3388SOL     OW11062   5.586   2.758   1.144
 3388SOL    HW111063   5.684   2.740   1.141
 3388SOL    HW211064   5.550   2.729   1.233
 3389SOL     OW11065   4.748   4.179   3.879
 3389SOL    HW111066   4.695   4.129   3.948
 3389SOL    HW211067   4.792   4.257   3.921
 3390SOL     OW11068   5.144   2.505   6.190
 3390SOL    HW111069   5.066   2.561   6.162
 3390SOL    HW211070   5.141   2.418   6.142
 3391SOL     OW11071   4.097   1.884   4.828
 3391SOL    HW111072   4.164   1.889   4.902
 3391SOL    HW211073   4.032   1.960   4.837
 3392SOL     OW11074   2.161   0.844   4.332
 3392SOL    HW111075   2.214   0.796   4.262
 3392SOL    HW211076   2.155   0.941   4.309
 3393SOL     OW11077   6.574   6.788   0.409
 3393SOL    HW111078   6.584   6.813   0.313
 3393SOL    HW211079   6.548   6.692   0.415
 3394SOL     OW11080   5.873   2.761   1.142
 3394SOL    HW111081   5.876   2.854   1.179
 3394SOL    HW211082   5.910   2.760   1.049
 3395SOL     OW11083   6.636   3.501   3.822
 3395SOL    HW111084   6.608   3.473   3.731
 3395SOL    HW211085   6.634   3.422   3.884
 3396SOL     OW11086   0.446   3.176   3.662
 3396SOL    HW111087   0.417   3.198   3.569
 3396SOL    HW211088   0.370   3.192   3.725
 3397SOL     OW11089   4.204   0.808   5.715
 3397SOL    HW111090   4.206   0.908   5.720
 3397SOL    HW211091   4.287   0.775   5.671
 3398SOL     OW11092   1.081   0.094   3.942
 3398SOL    HW111093   1.131   0.101   4.029
 3398SOL    HW211094   1.083   0.183   3.896
 3399SOL     OW11095   4.385   4.653   4.408
 3399SOL    HW111096   4.434   4.594   4.343
 3399SOL    HW211097   4.402   4.622   4.501
 3400SOL     OW11098   4.840   2.431   6.053
 3400SOL    HW111099   4.776   2.376   6.106
 3400SOL    HW211100   4.918   2.375   6.027
 3401SOL     OW11101   6.986   3.628   0.618
 3401SOL    HW111102   6.962   3.650   0.524
 3401SOL    HW211103   0.054   3.663   0.638
 3402SOL     OW11104   5.625   5.740   1.088
 3402SOL    HW111105   5.636   5.759   0.990
 3402SOL    HW211106   5.689   5.668   1.116
 3403SOL     OW11107   3.846   0.353   4.903
 3403SOL    HW111108   3.762   0.408   4.898
 3403SOL    HW211109   3.895   0.360   4.816
 3404SOL     OW11110   4.569   1.238   0.377
 3404SOL    HW111111   4.526   1.251   0.466
 3404SOL    HW211112   4.514   1.283   0.307
 3405SOL     OW11113   6.635   3.758   5.930
 3405SOL    HW111114   6.663   3.750   5.834
 3405SOL    HW211115   6.684   3.834   5.973
 3406SOL     OW11116   2.164   4.916   1.854
 3406SOL    HW111117   2.151   5.000   1.907
 3406SOL    HW211118   2.087   4.854   1.871
 3407SOL     OW11119   1.521   5.857   1.919
 3407SOL    HW111120   1.435   5.808   1.902
 3407SOL    HW211121   1.530   5.876   2.016
 3408SOL     OW11122   4.782   4.215   3.589
 3408SOL    HW111123   4.778   4.118   3.566
 3408SOL    HW211124   4.728   4.231   3.672
 3409SOL     OW11125   3.867   6.904   5.668
 3409SOL    HW111126   3.871   6.869   5.575
 3409SOL    HW211127   3.941   6.969   5.683
 3410SOL     OW11128   5.927   5.435   6.715
 3410SOL    HW111129   6.005   5.409   6.657
 3410SOL    HW211130   5.887   5.520   6.681
 3411SOL     OW11131   5.555   2.285   2.195
 3411SOL    HW111132   5.605   2.209   2.154
 3411SOL    HW211133   5.540   2.267   2.292
 3412SOL     OW11134   4.101   3.168   0.158
 3412SOL    HW111135   4.067   3.189   0.249
 3412SOL    HW211136   4.037   3.108   0.111
 3413SOL     OW11137   4.240   1.647   2.687
 3413SOL    HW111138   4.147   1.623   2.659
 3413SOL    HW211139   4.247   1.746   2.698
 3414SOL     OW11140   3.392   1.782   4.911
 3414SOL    HW111141   3.413   1.879   4.899
 3414SOL    HW211142   3.405   1.734   4.824
 3415SOL     OW11143   1.094   4.676   4.248
 3415SOL    HW111144   1.049   4.765   4.246
 3415SOL    HW211145   1.186   4.686   4.288
 3416SOL     OW11146   6.889   4.244   5.731
 3416SOL    HW111147   6.967   4.263   5.670
 3416SOL    HW211148   6.842   4.329   5.752
 3417SOL     OW11149   6.491   5.853   2.416
 3417SOL    HW111150   6.422   5.924   2.400
 3417SOL    HW211151   6.500   5.835   2.514
 3418SOL     OW11152   3.965   1.354   4.425
 3418SOL    HW111153   3.947   1.291   4.502
 3418SOL    HW211154   3.878   1.384   4.386
 3419SOL     OW11155   4.326   4.879   6.440
 3419SOL    HW111156   4.254   4.895   6.508
 3419SOL    HW211157   4.366   4.966   6.413
 3420SOL     OW11158   5.416   1.705   3.394
 3420SOL    HW111159   5.372   1.717   3.306
 3420SOL    HW211160   5.371   1.763   3.462
 3421SOL     OW11161   6.503   0.694   5.998
 3421SOL    HW111162   6.588   0.644   5.979
 3421SOL    HW211163   6.514   0.789   5.971
 3422SOL     OW11164   3.381   0.019   1.064
 3422SOL    HW111165   3.330   6.964   1.028
 3422SOL    HW211166   3.457   0.041   1.002
 3423SOL     OW11167   2.364   1.023   0.057
 3423SOL    HW111168   2.398   0.958   7.014
 3423SOL    HW211169   2.274   1.056   0.029
 3424SOL     OW11170   3.710   1.100   2.667
 3424SOL    HW111171   3.655   1.042   2.608
 3424SOL    HW211172   3.761   1.166   2.610
 3425SOL     OW11173   5.068   4.204   2.235
 3425SOL    HW111174   4.970   4.198   2.251
 3425SOL    HW211175   5.105   4.283   2.285
 3426SOL     OW11176   3.497   3.328   0.390
 3426SOL    HW111177   3.453   3.371   0.312
 3426SOL    HW211178   3.428   3.289   0.451
 3427SOL     OW11179   6.516   6.912   0.139
 3427SOL    HW111180   6.575   6.990   0.162
 3427SOL    HW211181   6.457   6.937   0.062
 3428SOL     OW11182   4.090   5.236   1.924
 3428SOL    HW111183   4.071   5.327   1.960
 3428SOL    HW211184   4.014   5.175   1.946
 3429SOL     OW11185   0.541   2.417   6.987
 3429SOL    HW111186   0.542   2.492   6.921
 3429SOL    HW211187   0.569   2.452   0.053
 3430SOL     OW11188   1.246   6.576   6.924
 3430SOL    HW111189   1.314   6.642   6.956
 3430SOL    HW211190   1.211   6.605   6.835
 3431SOL     OW11191   2.434   6.505   1.350
 3431SOL    HW111192   2.511   6.533   1.408
 3431SOL    HW211193   2.358   6.477   1.409
 3432SOL     OW11194   2.810   2.350   5.396
 3432SOL    HW111195   2.848   2.348   5.488
 3432SOL    HW211196   2.840   2.268   5.346
 3433SOL     OW11197   2.587   1.210   6.590
 3433SOL    HW111198   2.565   1.298   6.546
 3433SOL    HW211199   2.502   1.162   6.611
 3434SOL     OW11200   3.098   2.692   0.622
 3434SOL    HW111201   3.159   2.752   0.673
 3434SOL    HW211202   3.097   2.602   0.664
 3435SOL     OW11203   0.263   2.628   1.260
 3435SOL    HW111204   0.326   2.700   1.233
 3435SOL    HW211205   0.268   2.614   1.359
 3436SOL     OW11206   4.700   6.884   4.993
 3436SOL    HW111207   4.641   6.912   5.069
 3436SOL    HW211208   4.744   6.798   5.016
 3437SOL     OW11209   4.579   0.576   6.117
 3437SOL    HW111210   4.658   0.523   6.145
 3437SOL    HW211211   4.496   0.533   6.153
 3438SOL     OW11212   1.363   3.194   6.680
 3438SOL    HW111213   1.374   3.098   6.707
 3438SOL    HW211214   1.433   3.218   6.613
 3439SOL     OW11215   2.712   0.194   4.912
 3439SOL    HW111216   2.806   0.201   4.879
 3439SOL    HW211217   2.691   0.098   4.930
 3440SOL     OW11218   4.350   3.549   1.298
 3440SOL    HW111219   4.408   3.562   1.379
 3440SOL    HW211220   4.357   3.454   1.268
 3441SOL     OW11221   4.858   0.484   3.251
 3441SOL    HW111222   4.942   0.529   3.281
 3441SOL    HW211223   4.789   0.490   3.324
 3442SOL     OW11224   2.322   4.751   3.631
 3442SOL    HW111225   2.415   4.724   3.604
 3442SOL    HW211226   2.258   4.727   3.558
 3443SOL     OW11227   5.640   0.811   3.335
 3443SOL    HW111228   5.653   0.907   3.361
 3443SOL    HW211229   5.551   0.780   3.366
 3444SOL     OW11230   4.901   5.413   6.785
 3444SOL    HW111231   4.816   5.361   6.792
 3444SOL    HW211232   4.955   5.377   6.709
 3445SOL     OW11233   6.521   3.760   4.345
 3445SOL    HW111234   6.606   3.812   4.350
 3445SOL    HW211235   6.449   3.819   4.307
 3446SOL     OW11236   4.954   0.960   2.921
 3446SOL    HW111237   4.911   1.031   2.866
 3446SOL    HW211238   4.886   0.918   2.982
 3447SOL     OW11239   5.711   4.854   0.181
 3447SOL    HW111240   5.705   4.842   0.082
 3447SOL    HW211241   5.726   4.765   0.224
 3448SOL     OW11242   3.692   6.882   0.952
 3448SOL    HW111243   3.632   6.803   0.943
 3448SOL    HW211244   3.735   6.882   1.042
 3449SOL     OW11245   6.471   6.437   2.522
 3449SOL    HW111246   6.535   6.427   2.598
 3449SOL    HW211247   6.386   6.388   2.544
 3450SOL     OW11248   0.959   2.214   0.704
 3450SOL    HW111249   0.891   2.145   0.727
 3450SOL    HW211250   0.921   2.276   0.635
 3451SOL     OW11251   0.898   5.723   3.701
 3451SOL    HW111252   0.924   5.769   3.785
 3451SOL    HW211253   0.806   5.686   3.711
 3452SOL     OW11254   6.485   0.726   6.742
 3452SOL    HW111255   6.536   0.741   6.827
 3452SOL    HW211256   6.395   0.687   6.763
 3453SOL     OW11257   5.665   5.932   5.227
 3453SOL    HW111258   5.615   6.013   5.259
 3453SOL    HW211259   5.700   5.949   5.135
 3454SOL     OW11260   1.673   0.952   6.201
 3454SOL    HW111261   1.686   0.947   6.301
 3454SOL    HW211262   1.748   1.004   6.160
 3455SOL     OW11263   1.198   2.841   4.548
 3455SOL    HW111264   1.280   2.791   4.522
 3455SOL    HW211265   1.195   2.928   4.497
 3456SOL     OW11266   5.863   5.953   2.345
 3456SOL    HW111267   5.948   6.000   2.324
 3456SOL    HW211268   5.859   5.935   2.444
 3457SOL     OW11269   2.790   5.110   4.142
 3457SOL    HW111270   2.858   5.100   4.215
 3457SOL    HW211271   2.702   5.077   4.175
 3458SOL     OW11272   5.237   6.928   6.732
 3458SOL    HW111273   5.295   6.847   6.744
 3458SOL    HW211274   5.263   6.998   6.797
 3459SOL     OW11275   0.298   3.543   2.991
 3459SOL    HW111276   0.241   3.569   2.913
 3459SOL    HW211277   0.363   3.616   3.011
 3460SOL     OW11278   3.732   3.686   0.786
 3460SOL    HW111279   3.653   3.743   0.761
 3460SOL    HW211280   3.799   3.689   0.712
 3461SOL     OW11281   3.901   5.056   4.367
 3461SOL    HW111282   3.809   5.025   4.343
 3461SOL    HW211283   3.911   5.057   4.467
 3462SOL     OW11284   6.003   3.147   2.271
 3462SOL    HW111285   6.028   3.057   2.309
 3462SOL    HW211286   5.997   3.213   2.346
 3463SOL     OW11287   0.677   3.193   2.698
 3463SOL    HW111288   0.676   3.267   2.766
 3463SOL    HW211289   0.629   3.224   2.616
 3464SOL     OW11290   5.746   2.171   0.138
 3464SOL    HW111291   5.652   2.147   0.114
 3464SOL    HW211292   5.746   2.235   0.214
 3465SOL     OW11293   1.781   3.639   1.394
 3465SOL    HW111294   1.787   3.735   1.422
 3465SOL    HW211295   1.830   3.582   1.460
 3466SOL     OW11296   5.676   5.315   5.838
 3466SOL    HW111297   5.688   5.224   5.877
 3466SOL    HW211298   5.579   5.332   5.823
 3467SOL     OW11299   3.296   1.397   0.820
 3467SOL    HW111300   3.296   1.305   0.782
 3467SOL    HW211301   3.300   1.464   0.746
 3468SOL     OW11302   5.184   1.743   2.395
 3468SOL    HW111303   5.204   1.796   2.477
 3468SOL    HW211304   5.086   1.720   2.392
 3469SOL     OW11305   5.185   0.361   6.252
 3469SOL    HW111306   5.125   0.301   6.305
 3469SOL    HW211307   5.208   0.442   6.307
 3470SOL     OW11308   0.680   2.951   1.929
 3470SOL    HW111309   0.757   2.892   1.903
 3470SOL    HW211310   0.699   3.045   1.901
 3471SOL     OW11311   4.865   4.435   3.457
 3471SOL    HW111312   4.804   4.511   3.478
 3471SOL    HW211313   4.832   4.352   3.503
 3472SOL     OW11314   3.465   1.277   2.546
 3472SOL    HW111315   3.529   1.314   2.478
 3472SOL    HW211316   3.448   1.180   2.526
 3473SOL     OW11317   6.800   3.502   3.453
 3473SOL    HW111318   6.730   3.561   3.412
 3473SOL    HW211319   6.856   3.555   3.516
 3474SOL     OW11320   0.381   4.035   3.866
 3474SOL    HW111321   0.369   4.094   3.945
 3474SOL    HW211322   0.472   4.047   3.827
 3475SOL     OW11323   0.742   4.866   3.862
 3475SOL    HW111324   0.781   4.811   3.788
 3475SOL    HW211325   0.752   4.817   3.948
 3476SOL     OW11326   1.475   1.402   3.323
 3476SOL    HW111327   1.573   1.410   3.308
 3476SOL    HW211328   1.431   1.491   3.312
 3477SOL     OW11329   1.050   3.870   0.473
 3477SOL    HW111330   0.952   3.858   0.485
 3477SOL    HW211331   1.084   3.803   0.407
 3478SOL     OW11332   2.292   0.224   6.812
 3478SOL    HW111333   2.256   0.287   6.881
 3478SOL    HW211334   2.305   0.134   6.854
 3479SOL     OW11335   1.073   1.485   3.742
 3479SOL    HW111336   1.010   1.413   3.772
 3479SOL    HW211337   1.141   1.446   3.680
 3480SOL     OW11338   0.543   5.839   6.274
 3480SOL    HW111339   0.590   5.764   6.320
 3480SOL    HW211340   0.517   5.811   6.182
 3481SOL     OW11341   5.395   1.097   0.816
 3481SOL    HW111342   5.318   1.034   0.815
 3481SOL    HW211343   5.462   1.067   0.883
 3482SOL     OW11344   6.170   1.731   2.715
 3482SOL    HW111345   6.248   1.793   2.703
 3482SOL    HW211346   6.201   1.637   2.705
 3483SOL     OW11347   5.553   2.156   2.988
 3483SOL    HW111348   5.616   2.079   2.979
 3483SOL    HW211349   5.603   2.236   3.023
 3484SOL     OW11350   1.537   3.393   6.847
 3484SOL    HW111351   1.600   3.428   6.916
 3484SOL    HW211352   1.461   3.456   6.836
 3485SOL     OW11353   0.573   2.130   4.873
 3485SOL    HW111354   0.580   2.220   4.915
 3485SOL    HW211355   0.605   2.060   4.937
 3486SOL     OW11356   2.226   0.430   4.223
 3486SOL    HW111357   2.313   0.467   4.255
 3486SOL    HW211358   2.160   0.504   4.214
 3487SOL     OW11359   6.419   2.737   0.077
 3487SOL    HW111360   6.409   2.664   0.145
 3487SOL    HW211361   6.512   2.736   0.041
 3488SOL     OW11362   5.666   0.957   4.635
 3488SOL    HW111363   5.722   0.964   4.718
 3488SOL    HW211364   5.662   1.046   4.590
 3489SOL     OW11365   3.226   6.972   1.768
 3489SOL    HW111366   3.298   6.920   1.815
 3489SOL    HW211367   3.258   0.042   1.754
 3490SOL     OW11368   3.665   5.214   1.813
 3490SOL    HW111369   3.652   5.288   1.879
 3490SOL    HW211370   3.681   5.129   1.862
 3491SOL     OW11371   3.970   3.281   5.981
 3491SOL    HW111372   4.034   3.262   6.055
 3491SOL    HW211373   3.996   3.367   5.936
 3492SOL     OW11374   6.582   4.521   1.584
 3492SOL    HW111375   6.628   4.552   1.667
 3492SOL    HW211376   6.646   4.523   1.507
 3493SOL     OW11377   6.547   3.843   3.742
 3493SOL    HW111378   6.480   3.799   3.681
 3493SOL    HW211379   6.538   3.805   3.834
 3494SOL     OW11380   2.417   1.070   1.851
 3494SOL    HW111381   2.397   1.168   1.846
 3494SOL    HW211382   2.515   1.057   1.866
 3495SOL     OW11383   0.593   4.057   2.817
 3495SOL    HW111384   0.642   4.013   2.742
 3495SOL    HW211385   0.549   4.141   2.783
 3496SOL     OW11386   5.403   4.990   1.114
 3496SOL    HW111387   5.404   4.900   1.070
 3496SOL    HW211388   5.329   4.994   1.181
 3497SOL     OW11389   2.854   1.046   3.999
 3497SOL    HW111390   2.833   0.984   3.924
 3497SOL    HW211391   2.814   1.011   4.084
 3498SOL     OW11392   2.834   1.655   2.270
 3498SOL    HW111393   2.867   1.707   2.348
 3498SOL    HW211394   2.911   1.630   2.211
 3499SOL     OW11395   6.776   4.940   4.644
 3499SOL    HW111396   6.802   4.851   4.606
 3499SOL    HW211397   6.859   4.992   4.668
 3500SOL     OW11398   2.170   3.184   3.816
 3500SOL    HW111399   2.219   3.111   3.864
 3500SOL    HW211400   2.148   3.257   3.880
 3501SOL     OW11401   2.644   0.123   6.290
 3501SOL    HW111402   2.593   0.106   6.375
 3501SOL    HW211403   2.650   0.222   6.274
 3502SOL     OW11404   6.237   3.076   1.508
 3502SOL    HW111405   6.179   3.157   1.516
 3502SOL    HW211406   6.331   3.105   1.493
 3503SOL     OW11407   0.079   6.538   5.584
 3503SOL    HW111408   0.008   6.587   5.635
 3503SOL    HW211409   0.146   6.603   5.550
 3504SOL     OW11410   1.992   1.231   2.160
 3504SOL    HW111411   2.002   1.221   2.061
 3504SOL    HW211412   2.001   1.327   2.186
 3505SOL     OW11413   5.695   5.309   5.304
 3505SOL    HW111414   5.733   5.375   5.240
 3505SOL    HW211415   5.609   5.273   5.269
 3506SOL     OW11416   5.604   4.474   5.011
 3506SOL    HW111417   5.564   4.424   4.935
 3506SOL    HW211418   5.665   4.545   4.975
 3507SOL     OW11419   2.356   0.041   0.076
 3507SOL    HW111420   2.277   0.102   0.081
 3507SOL    HW211421   2.340   6.995   0.006
 3508SOL     OW11422   2.919   2.504   6.196
 3508SOL    HW111423   2.963   2.573   6.137
 3508SOL    HW211424   2.948   2.518   6.290
 3509SOL     OW11425   5.895   6.518   6.868
 3509SOL    HW111426   5.949   6.460   6.929
 3509SOL    HW211427   5.810   6.470   6.844
 3510SOL     OW11428   1.567   0.679   1.438
 3510SOL    HW111429   1.548   0.718   1.528
 3510SOL    HW211430   1.571   0.580   1.445
 3511SOL     OW11431   1.940   4.405   1.661
 3511SOL    HW111432   2.040   4.399   1.668
 3511SOL    HW211433   1.899   4.330   1.713
 3512SOL     OW11434   1.015   3.980   0.939
 3512SOL    HW111435   1.004   4.074   0.971
 3512SOL    HW211436   1.016   3.918   1.018
 3513SOL     OW11437   5.980   1.718   1.293
 3513SOL    HW111438   6.076   1.731   1.317
 3513SOL    HW211439   5.923   1.778   1.349
 3514SOL     OW11440   6.083   0.590   2.421
 3514SOL    HW111441   6.120   0.603   2.329
 3514SOL    HW211442   6.001   0.533   2.415
 3515SOL     OW11443   5.329   6.312   3.342
 3515SOL    HW111444   5.336   6.376   3.418
 3515SOL    HW211445   5.252   6.250   3.357
 3516SOL     OW11446   5.093   6.284   1.396
 3516SOL    HW111447   5.162   6.219   1.430
 3516SOL    HW211448   5.086   6.275   1.297
 3517SOL     OW11449   0.172   1.970   1.279
 3517SOL    HW111450   0.147   1.957   1.375
 3517SOL    HW211451   0.271   1.972   1.271
 3518SOL     OW11452   5.322   2.142   5.147
 3518SOL    HW111453   5.414   2.151   5.185
 3518SOL    HW211454   5.312   2.052   5.104
 3519SOL     OW11455   2.149   1.181   5.690
 3519SOL    HW111456   2.177   1.246   5.619
 3519SOL    HW211457   2.100   1.230   5.762
 3520SOL     OW11458   2.837   6.845   0.194
 3520SOL    HW111459   2.837   6.945   0.192
 3520SOL    HW211460   2.887   6.812   0.274
 3521SOL     OW11461   4.010   2.768   0.104
 3521SOL    HW111462   3.936   2.810   0.052
 3521SOL    HW211463   4.025   2.819   0.189
 3522SOL     OW11464   6.300   5.394   6.937
 3522SOL    HW111465   6.340   5.303   6.938
 3522SOL    HW211466   6.340   5.448   6.864
 3523SOL     OW11467   1.905   4.464   5.241
 3523SOL    HW111468   1.868   4.537   5.184
 3523SOL    HW211469   1.931   4.386   5.184
 3524SOL     OW11470   4.942   1.903   2.087
 3524SOL    HW111471   5.021   1.964   2.091
 3524SOL    HW211472   4.874   1.931   2.155
 3525SOL     OW11473   6.622   3.561   4.636
 3525SOL    HW111474   6.547   3.585   4.575
 3525SOL    HW211475   6.648   3.465   4.621
 3526SOL     OW11476   2.145   0.163   3.452
 3526SOL    HW111477   2.138   0.263   3.457
 3526SOL    HW211478   2.233   0.135   3.490
 3527SOL     OW11479   5.479   3.427   6.351
 3527SOL    HW111480   5.487   3.468   6.260
 3527SOL    HW211481   5.383   3.404   6.368
 3528SOL     OW11482   2.546   5.997   5.040
 3528SOL    HW111483   2.474   6.061   5.014
 3528SOL    HW211484   2.615   6.044   5.095
 3529SOL     OW11485   4.161   6.623   0.878
 3529SOL    HW111486   4.100   6.672   0.815
 3529SOL    HW211487   4.240   6.590   0.827
 3530SOL     OW11488   6.996   5.177   1.703
 3530SOL    HW111489   6.904   5.138   1.698
 3530SOL    HW211490   7.000   5.243   1.778
 3531SOL     OW11491   5.427   2.744   0.606
 3531SOL    HW111492   5.453   2.746   0.703
 3531SOL    HW211493   5.390   2.654   0.583
 3532SOL     OW11494   2.679   1.018   1.375
 3532SOL    HW111495   2.717   1.013   1.283
 3532SOL    HW211496   2.591   1.065   1.373
 3533SOL     OW11497   0.639   1.112   2.565
 3533SOL    HW111498   0.553   1.154   2.536
 3533SOL    HW211499   0.659   1.034   2.505
 3534SOL     OW11500   0.942   2.434   1.052
 3534SOL    HW111501   0.890   2.508   1.008
 3534SOL    HW211502   0.906   2.419   1.144
 3535SOL     OW11503   2.044   5.347   6.291
 3535SOL    HW111504   2.010   5.425   6.344
 3535SOL    HW211505   1.992   5.340   6.206
 3536SOL     OW11506   3.216   2.195   3.422
 3536SOL    HW111507   3.258   2.164   3.337
 3536SOL    HW211508   3.280   2.255   3.471
 3537SOL     OW11509   1.839   5.688   1.905
 3537SOL    HW111510   1.854   5.657   1.811
 3537SOL    HW211511   1.793   5.615   1.957
 3538SOL     OW11512   2.828   5.983   5.376
 3538SOL    HW111513   2.826   5.926   5.458
 3538SOL    HW211514   2.917   5.974   5.332
 3539SOL     OW11515   3.298   3.099   4.622
 3539SOL    HW111516   3.344   3.151   4.549
 3539SOL    HW211517   3.200   3.117   4.618
 3540SOL     OW11518   2.002   2.547   4.693
 3540SOL    HW111519   1.921   2.526   4.640
 3540SOL    HW211520   2.002   2.494   4.777
 3541SOL     OW11521   2.956   2.341   5.713
 3541SOL    HW111522   2.977   2.332   5.810
 3541SOL    HW211523   3.037   2.371   5.663
 3542SOL     OW11524   1.537   4.689   2.819
 3542SOL    HW111525   1.551   4.768   2.879
 3542SOL    HW211526   1.563   4.714   2.726
 3543SOL     OW11527   6.307   2.644   3.797
 3543SOL    HW111528   6.322   2.547   3.818
 3543SOL    HW211529   6.210   2.659   3.779
 3544SOL     OW11530   1.872   4.441   6.691
 3544SOL    HW111531   1.805   4.489   6.635
 3544SOL    HW211532   1.825   4.381   6.756
 3545SOL     OW11533   3.746   6.290   6.792
 3545SOL    HW111534   3.743   6.297   6.892
 3545SOL    HW211535   3.782   6.376   6.754
 3546SOL     OW11536   0.433   4.434   3.116
 3546SOL    HW111537   0.405   4.438   3.212
 3546SOL    HW211538   0.480   4.348   3.098
 3547SOL     OW11539   4.778   4.383   4.060
 3547SOL    HW111540   4.689   4.411   4.023
 3547SOL    HW211541   4.833   4.464   4.080
 3548SOL     OW11542   5.555   1.685   6.119
 3548SOL    HW111543   5.463   1.657   6.145
 3548SOL    HW211544   5.606   1.713   6.200
 3549SOL     OW11545   6.925   4.722   4.485
 3549SOL    HW111546   6.877   4.677   4.560
 3549SOL    HW211547   6.907   4.673   4.399
 3550SOL     OW11548   5.197   3.095   2.377
 3550SOL    HW111549   5.149   3.054   2.299
 3550SOL    HW211550   5.191   3.034   2.456
 3551SOL     OW11551   4.046   6.026   2.902
 3551SOL    HW111552   3.973   5.968   2.938
 3551SOL    HW211553   4.093   5.978   2.828
 3552SOL     OW11554   5.041   6.090   2.242
 3552SOL    HW111555   5.126   6.125   2.282
 3552SOL    HW211556   5.010   6.010   2.294
 3553SOL     OW11557   5.851   2.991   1.294
 3553SOL    HW111558   5.870   3.089   1.287
 3553SOL    HW211559   5.765   2.978   1.345
 3554SOL     OW11560   3.222   3.456   0.983
 3554SOL    HW111561   3.282   3.386   0.943
 3554SOL    HW211562   3.158   3.413   1.046
 3555SOL     OW11563   0.912   3.241   3.061
 3555SOL    HW111564   0.982   3.256   2.991
 3555SOL    HW211565   0.956   3.206   3.144
 3556SOL     OW11566   3.866   1.002   5.076
 3556SOL    HW111567   3.852   0.922   5.135
 3556SOL    HW211568   3.786   1.013   5.017
 3557SOL     OW11569   0.627   0.735   3.534
 3557SOL    HW111570   0.584   0.698   3.452
 3557SOL    HW211571   0.616   0.834   3.536
 3558SOL     OW11572   0.290   6.155   1.485
 3558SOL    HW111573   0.317   6.063   1.514
 3558SOL    HW211574   0.225   6.193   1.552
 3559SOL     OW11575   0.112   0.019   4.602
 3559SOL    HW111576   0.058   0.102   4.593
 3559SOL    HW211577   0.209   0.041   4.589
 3560SOL     OW11578   1.606   5.459   0.856
 3560SOL    HW111579   1.617   5.536   0.793
 3560SOL    HW211580   1.559   5.490   0.939
 3561SOL     OW11581   4.492   5.094   5.769
 3561SOL    HW111582   4.460   5.000   5.759
 3561SOL    HW211583   4.567   5.111   5.704
 3562SOL     OW11584   4.556   1.056   4.198
 3562SOL    HW111585   4.608   1.141   4.204
 3562SOL    HW211586   4.513   1.036   4.286
 3563SOL     OW11587   5.321   1.045   1.586
 3563SOL    HW111588   5.382   1.121   1.564
 3563SOL    HW211589   5.360   0.959   1.551
 3564SOL     OW11590   1.581   4.493   4.165
 3564SOL    HW111591   1.669   4.480   4.210
 3564SOL    HW211592   1.589   4.471   4.068
 3565SOL     OW11593   3.558   6.775   4.609
 3565SOL    HW111594   3.589   6.817   4.524
 3565SOL    HW211595   3.460   6.754   4.603
 3566SOL     OW11596   6.985   3.063   6.047
 3566SOL    HW111597   6.943   3.091   6.133
 3566SOL    HW211598   0.042   3.119   6.029
 3567SOL     OW11599   1.232   2.378   0.107
 3567SOL    HW111600   1.211   2.364   0.204
 3567SOL    HW211601   1.277   2.296   0.071
 3568SOL     OW11602   5.457   5.096   2.862
 3568SOL    HW111603   5.525   5.033   2.824
 3568SOL    HW211604   5.368   5.078   2.820
 3569SOL     OW11605   2.947   2.959   5.339
 3569SOL    HW111606   3.010   2.967   5.262
 3569SOL    HW211607   2.976   2.884   5.398
 3570SOL     OW11608   5.325   0.475   5.331
 3570SOL    HW111609   5.408   0.504   5.283
 3570SOL    HW211610   5.302   0.543   5.401
 3571SOL     OW11611   1.362   0.742   4.890
 3571SOL    HW111612   1.366   0.797   4.806
 3571SOL    HW211613   1.402   0.652   4.873
 3572SOL     OW11614   5.206   3.465   2.593
 3572SOL    HW111615   5.261   3.518   2.657
 3572SOL    HW211616   5.265   3.409   2.535
 3573SOL     OW11617   6.333   4.264   2.292
 3573SOL    HW111618   6.373   4.178   2.261
 3573SOL    HW211619   6.375   4.341   2.244
 3574SOL     OW11620   2.041   3.540   7.003
 3574SOL    HW111621   2.040   3.508   6.908
 3574SOL    HW211622   1.973   3.612   7.015
 3575SOL     OW11623   5.318   5.523   1.439
 3575SOL    HW111624   5.224   5.539   1.470
 3575SOL    HW211625   5.349   5.603   1.388
 3576SOL     OW11626   0.117   2.435   0.270
 3576SOL    HW111627   0.100   2.371   0.195
 3576SOL    HW211628   0.030   2.464   0.310
 3577SOL     OW11629   2.303   3.117   5.606
 3577SOL    HW111630   2.358   3.170   5.542
 3577SOL    HW211631   2.338   3.023   5.610
 3578SOL     OW11632   4.063   2.968   1.163
 3578SOL    HW111633   4.129   2.974   1.087
 3578SOL    HW211634   4.034   3.060   1.189
 3579SOL     OW11635   6.928   3.283   3.114
 3579SOL    HW111636   6.850   3.303   3.173
 3579SOL    HW211637   6.943   3.185   3.110
 3580SOL     OW11638   6.746   3.920   1.150
 3580SOL    HW111639   6.658   3.954   1.185
 3580SOL    HW211640   6.735   3.892   1.055
 3581SOL     OW11641   1.251   6.536   3.092
 3581SOL    HW111642   1.351   6.534   3.087
 3581SOL    HW211643   1.218   6.621   3.053
 3582SOL     OW11644   3.490   5.238   5.525
 3582SOL    HW111645   3.512   5.231   5.428
 3582SOL    HW211646   3.529   5.160   5.574
 3583SOL     OW11647   1.049   4.546   0.518
 3583SOL    HW111648   1.015   4.545   0.424
 3583SOL    HW211649   1.035   4.637   0.557
 3584SOL     OW11650   6.057   5.140   5.425
 3584SOL    HW111651   6.116   5.110   5.499
 3584SOL    HW211652   5.966   5.161   5.461
 3585SOL     OW11653   3.330   2.036   4.821
 3585SOL    HW111654   3.234   2.065   4.813
 3585SOL    HW211655   3.359   2.044   4.916
 3586SOL     OW11656   6.500   2.779   4.196
 3586SOL    HW111657   6.533   2.685   4.200
 3586SOL    HW211658   6.491   2.815   4.289
 3587SOL     OW11659   3.321   5.834   6.669
 3587SOL    HW111660   3.410   5.822   6.713
 3587SOL    HW211661   3.330   5.899   6.593
 3588SOL     OW11662   6.411   4.502   4.142
 3588SOL    HW111663   6.406   4.592   4.099
 3588SOL    HW211664   6.370   4.506   4.233
 3589SOL     OW11665   6.817   0.028   6.057
 3589SOL    HW111666   6.779   6.977   6.112
 3589SOL    HW211667   6.901   7.021   6.013
 3590SOL     OW11668   7.017   4.111   0.495
 3590SOL    HW111669   7.014   4.156   0.406
 3590SOL    HW211670   0.089   4.092   0.519
 3591SOL     OW11671   5.639   2.748   0.346
 3591SOL    HW111672   5.616   2.680   0.277
 3591SOL    HW211673   5.560   2.762   0.406
 3592SOL     OW11674   0.513   0.522   2.381
 3592SOL    HW111675   0.576   0.515   2.459
 3592SOL    HW211676   0.565   0.524   2.296
 3593SOL     OW11677   0.123   4.481   5.718
 3593SOL    HW111678   0.189   4.527   5.659
 3593SOL    HW211679   0.032   4.520   5.703
 3594SOL     OW11680   4.445   6.588   4.915
 3594SOL    HW111681   4.360   6.544   4.944
 3594SOL    HW211682   4.521   6.523   4.924
 3595SOL     OW11683   6.247   6.352   0.179
 3595SOL    HW111684   6.164   6.400   0.150
 3595SOL    HW211685   6.241   6.256   0.151
 3596SOL     OW11686   4.487   1.990   3.247
 3596SOL    HW111687   4.399   1.945   3.262
 3596SOL    HW211688   4.561   1.924   3.261
 3597SOL     OW11689   1.679   3.499   5.710
 3597SOL    HW111690   1.621   3.434   5.660
 3597SOL    HW211691   1.629   3.584   5.725
 3598SOL     OW11692   1.873   6.375   5.426
 3598SOL    HW111693   1.949   6.325   5.384
 3598SOL    HW211694   1.910   6.446   5.485
 3599SOL     OW11695   4.766   1.794   6.082
 3599SOL    HW111696   4.854   1.840   6.072
 3599SOL    HW211697   4.720   1.791   5.993
 3600SOL     OW11698   1.847   3.653   1.014
 3600SOL    HW111699   1.863   3.691   1.105
 3600SOL    HW211700   1.809   3.723   0.954
 3601SOL     OW11701   5.260   1.767   5.313
 3601SOL    HW111702   5.321   1.832   5.359
 3601SOL    HW211703   5.239   1.691   5.375
 3602SOL     OW11704   2.276   2.638   1.617
 3602SOL    HW111705   2.230   2.549   1.613
 3602SOL    HW211706   2.251   2.691   1.536
 3603SOL     OW11707   3.510   0.904   6.189
 3603SOL    HW111708   3.519   0.999   6.160
 3603SOL    HW211709   3.601   0.862   6.196
 3604SOL     OW11710   6.576   0.561   3.434
 3604SOL    HW111711   6.624   0.542   3.520
 3604SOL    HW211712   6.590   0.486   3.370
 3605SOL     OW11713   1.522   5.276   3.993
 3605SOL    HW111714   1.593   5.265   4.063
 3605SOL    HW211715   1.563   5.315   3.910
 3606SOL     OW11716   1.801   6.296   1.684
 3606SOL    HW111717   1.811   6.238   1.603
 3606SOL    HW211718   1.713   6.277   1.728
 3607SOL     OW11719   5.106   2.969   2.655
 3607SOL    HW111720   5.107   2.914   2.739
 3607SOL    HW211721   5.086   3.064   2.679
 3608SOL     OW11722   5.068   2.004   4.125
 3608SOL    HW111723   5.054   2.091   4.172
 3608SOL    HW211724   5.140   1.952   4.171
 3609SOL     OW11725   2.310   6.570   4.524
 3609SOL    HW111726   2.315   6.493   4.587
 3609SOL    HW211727   2.278   6.651   4.573
 3610SOL     OW11728   2.016   0.412   5.605
 3610SOL    HW111729   1.935   0.471   5.605
 3610SOL    HW211730   2.098   0.468   5.612
 3611SOL     OW11731   4.513   4.504   4.244
 3611SOL    HW111732   4.504   4.485   4.146
 3611SOL    HW211733   4.595   4.458   4.279
 3612SOL     OW11734   6.513   1.507   6.651
 3612SOL    HW111735   6.452   1.522   6.728
 3612SOL    HW211736   6.514   1.589   6.593
 3613SOL     OW11737   4.645   5.005   1.847
 3613SOL    HW111738   4.627   4.938   1.775
 3613SOL    HW211739   4.717   4.970   1.907
 3614SOL     OW11740   3.317   3.730   6.806
 3614SOL    HW111741   3.231   3.679   6.801
 3614SOL    HW211742   3.322   3.794   6.729
 3615SOL     OW11743   5.682   3.283   5.717
 3615SOL    HW111744   5.590   3.262   5.686
 3615SOL    HW211745   5.739   3.306   5.638
 3616SOL     OW11746   1.685   2.356   6.024
 3616SOL    HW111747   1.692   2.355   5.924
 3616SOL    HW211748   1.672   2.263   6.058
 3617SOL     OW11749   4.370   6.395   5.661
 3617SOL    HW111750   4.270   6.398   5.661
 3617SOL    HW211751   4.405   6.433   5.746
 3618SOL     OW11752   2.162   3.736   5.068
 3618SOL    HW111753   2.168   3.780   5.158
 3618SOL    HW211754   2.187   3.640   5.076
 3619SOL     OW11755   5.661   3.582   0.635
 3619SOL    HW111756   5.668   3.557   0.732
 3619SOL    HW211757   5.587   3.648   0.623
 3620SOL     OW11758   6.299   6.025   4.586
 3620SOL    HW111759   6.260   6.054   4.673
 3620SOL    HW211760   6.280   5.927   4.573
 3621SOL     OW11761   3.866   3.334   3.904
 3621SOL    HW111762   3.786   3.290   3.945
 3621SOL    HW211763   3.939   3.340   3.971
 3622SOL     OW11764   0.934   0.482   1.180
 3622SOL    HW111765   0.933   0.422   1.100
 3622SOL    HW211766   0.845   0.477   1.226
 3623SOL     OW11767   0.559   5.566   5.617
 3623SOL    HW111768   0.580   5.660   5.643
 3623SOL    HW211769   0.580   5.505   5.694
 3624SOL     OW11770   1.858   0.367   1.622
 3624SOL    HW111771   1.904   0.303   1.560
 3624SOL    HW211772   1.908   0.453   1.624
 3625SOL     OW11773   0.081   2.964   6.862
 3625SOL    HW111774   0.113   2.870   6.856
 3625SOL    HW211775   0.058   2.998   6.770
 3626SOL     OW11776   0.236   3.879   4.393
 3626SOL    HW111777   0.221   3.829   4.478
 3626SOL    HW211778   0.195   3.828   4.317
 3627SOL     OW11779   4.513   3.098   1.064
 3627SOL    HW111780   4.547   3.059   0.978
 3627SOL    HW211781   4.550   3.191   1.075
 3628SOL     OW11782   1.314   2.001   1.989
 3628SOL    HW111783   1.311   1.903   2.010
 3628SOL    HW211784   1.394   2.019   1.931
 3629SOL     OW11785   1.239   0.734   3.645
 3629SOL    HW111786   1.317   0.769   3.593
 3629SOL    HW211787   1.194   0.661   3.592
 3630SOL     OW11788   6.894   2.507   2.768
 3630SOL    HW111789   6.902   2.553   2.680
 3630SOL    HW211790   6.844   2.421   2.756
 3631SOL     OW11791   2.257   7.007   3.177
 3631SOL    HW111792   2.324   7.004   3.103
 3631SOL    HW211793   2.295   0.037   3.254
 3632SOL     OW11794   4.339   3.552   0.789
 3632SOL    HW111795   4.430   3.521   0.764
 3632SOL    HW211796   4.329   3.550   0.889
 3633SOL     OW11797   3.461   2.787   5.671
 3633SOL    HW111798   3.361   2.782   5.674
 3633SOL    HW211799   3.496   2.710   5.619
 3634SOL     OW11800   2.639   6.315   5.916
 3634SOL    HW111801   2.619   6.390   5.853
 3634SOL    HW211802   2.662   6.233   5.864
 3635SOL     OW11803   2.752   1.312   1.795
 3635SOL    HW111804   2.709   1.229   1.830
 3635SOL    HW211805   2.796   1.293   1.708
 3636SOL     OW11806   6.902   5.246   0.740
 3636SOL    HW111807   6.856   5.171   0.788
 3636SOL    HW211808   6.876   5.333   0.783
 3637SOL     OW11809   0.694   3.390   6.979
 3637SOL    HW111810   0.652   3.341   6.903
 3637SOL    HW211811   0.743   3.471   6.944
 3638SOL     OW11812   6.574   3.711   2.777
 3638SOL    HW111813   6.550   3.786   2.839
 3638SOL    HW211814   6.673   3.696   2.778
 3639SOL     OW11815   3.912   3.892   5.014
 3639SOL    HW111816   4.007   3.886   4.984
 3639SOL    HW211817   3.857   3.823   4.968
 3640SOL     OW11818   5.474   2.918   0.182
 3640SOL    HW111819   5.510   3.008   0.157
 3640SOL    HW211820   5.547   2.862   0.221
 3641SOL     OW11821   6.321   3.789   1.006
 3641SOL    HW111822   6.273   3.877   1.004
 3641SOL    HW211823   6.302   3.740   0.921
 3642SOL     OW11824   5.637   2.321   6.404
 3642SOL    HW111825   5.576   2.387   6.447
 3642SOL    HW211826   5.726   2.364   6.387
 3643SOL     OW11827   4.094   6.325   6.505
 3643SOL    HW111828   4.114   6.232   6.536
 3643SOL    HW211829   4.021   6.363   6.561
 3644SOL     OW11830   2.153   0.803   1.823
 3644SOL    HW111831   2.238   0.794   1.876
 3644SOL    HW211832   2.087   0.856   1.875
 3645SOL     OW11833   1.351   3.666   4.167
 3645SOL    HW111834   1.323   3.590   4.226
 3645SOL    HW211835   1.371   3.747   4.223
 3646SOL     OW11836   2.739   4.841   4.874
 3646SOL    HW111837   2.768   4.794   4.958
 3646SOL    HW211838   2.640   4.830   4.863
 3647SOL     OW11839   2.020   6.890   0.002
 3647SOL    HW111840   2.025   6.834   0.085
 3647SOL    HW211841   2.105   6.882   6.974
 3648SOL     OW11842   4.954   5.646   3.392
 3648SOL    HW111843   5.012   5.660   3.312
 3648SOL    HW211844   5.004   5.670   3.474
 3649SOL     OW11845   5.833   3.365   6.840
 3649SOL    HW111846   5.850   3.456   6.803
 3649SOL    HW211847   5.747   3.365   6.891
 3650SOL     OW11848   4.667   4.550   0.823
 3650SOL    HW111849   4.609   4.629   0.845
 3650SOL    HW211850   4.660   4.531   0.725
 3651SOL     OW11851   1.847   2.357   5.560
 3651SOL    HW111852   1.903   2.363   5.478
 3651SOL    HW211853   1.753   2.384   5.539
 3652SOL     OW11854   5.386   0.832   2.473
 3652SOL    HW111855   5.302   0.842   2.525
 3652SOL    HW211856   5.414   0.736   2.472
 3653SOL     OW11857   0.947   0.950   1.989
 3653SOL    HW111858   0.911   0.870   2.038
 3653SOL    HW211859   1.046   0.941   1.979
 3654SOL     OW11860   5.059   5.984   1.036
 3654SOL    HW111861   5.142   6.032   1.007
 3654SOL    HW211862   5.030   5.922   0.963
 3655SOL     OW11863   3.182   1.298   4.334
 3655SOL    HW111864   3.153   1.255   4.419
 3655SOL    HW211865   3.154   1.241   4.257
 3656SOL     OW11866   1.183   5.622   2.356
 3656SOL    HW111867   1.238   5.561   2.413
 3656SOL    HW211868   1.094   5.581   2.338
 3657SOL     OW11869   5.033   6.213   5.697
 3657SOL    HW111870   4.951   6.219   5.754
 3657SOL    HW211871   5.034   6.289   5.633
 3658SOL     OW11872   1.537   5.762   6.827
 3658SOL    HW111873   1.607   5.833   6.828
 3658SOL    HW211874   1.477   5.775   6.748
 3659SOL     OW11875   0.143   1.692   6.133
 3659SOL    HW111876   0.180   1.703   6.225
 3659SOL    HW211877   0.062   1.633   6.136
 3660SOL     OW11878   5.389   5.837   5.666
 3660SOL    HW111879   5.306   5.875   5.708
 3660SOL    HW211880   5.365   5.753   5.617
 3661SOL     OW11881   6.934   1.095   4.781
 3661SOL    HW111882   6.917   1.175   4.723
 3661SOL    HW211883   0.008   1.074   4.782
 3662SOL     OW11884   3.767   0.690   5.899
 3662SOL    HW111885   3.812   0.777   5.918
 3662SOL    HW211886   3.671   0.706   5.877
 3663SOL     OW11887   2.221   2.896   0.210
 3663SOL    HW111888   2.268   2.979   0.240
 3663SOL    HW211889   2.133   2.888   0.258
 3664SOL     OW11890   4.376   1.649   2.248
 3664SOL    HW111891   4.429   1.704   2.183
 3664SOL    HW211892   4.312   1.592   2.197
 3665SOL     OW11893   0.301   6.720   5.482
 3665SOL    HW111894   0.362   6.786   5.440
 3665SOL    HW211895   0.345   6.630   5.483
 3666SOL     OW11896   1.721   2.514   3.585
 3666SOL    HW111897   1.667   2.487   3.665
 3666SOL    HW211898   1.662   2.525   3.506
 3667SOL     OW11899   1.334   1.589   2.795
 3667SOL    HW111900   1.276   1.534   2.856
 3667SOL    HW211901   1.338   1.546   2.705
 3668SOL     OW11902   1.290   0.073   1.829
 3668SOL    HW111903   1.273   0.125   1.745
 3668SOL    HW211904   1.308   7.001   1.806
 3669SOL     OW11905   6.111   2.403   4.012
 3669SOL    HW111906   6.194   2.349   3.995
 3669SOL    HW211907   6.109   2.432   4.107
 3670SOL     OW11908   3.798   5.427   1.403
 3670SOL    HW111909   3.747   5.370   1.467
 3670SOL    HW211910   3.738   5.497   1.365
 3671SOL     OW11911   6.650   0.305   3.219
 3671SOL    HW111912   6.712   0.264   3.152
 3671SOL    HW211913   6.666   0.265   3.309
 3672SOL     OW11914   5.138   0.880   2.591
 3672SOL    HW111915   5.127   0.818   2.669
 3672SOL    HW211916   5.105   0.971   2.617
 3673SOL     OW11917   4.900   6.065   0.369
 3673SOL    HW111918   4.816   6.115   0.389
 3673SOL    HW211919   4.944   6.105   0.289
 3674SOL     OW11920   1.971   5.922   5.750
 3674SOL    HW111921   1.876   5.909   5.721
 3674SOL    HW211922   2.009   5.835   5.780
 3675SOL     OW11923   0.324   2.084   3.800
 3675SOL    HW111924   0.259   2.145   3.754
 3675SOL    HW211925   0.404   2.071   3.741
 3676SOL     OW11926   4.891   2.563   2.843
 3676SOL    HW111927   4.803   2.596   2.807
 3676SOL    HW211928   4.922   2.485   2.789
 3677SOL     OW11929   1.904   0.920   4.239
 3677SOL    HW111930   1.870   0.902   4.331
 3677SOL    HW211931   1.964   0.845   4.210
 3678SOL     OW11932   1.470   0.378   3.647
 3678SOL    HW111933   1.535   0.451   3.629
 3678SOL    HW211934   1.498   0.295   3.598
 3679SOL     OW11935   5.023   0.465   2.854
 3679SOL    HW111936   4.992   0.373   2.829
 3679SOL    HW211937   5.084   0.459   2.933
 3680SOL     OW11938   4.715   1.853   3.274
 3680SOL    HW111939   4.734   1.813   3.363
 3680SOL    HW211940   4.784   1.825   3.208
 3681SOL     OW11941   1.444   0.490   4.779
 3681SOL    HW111942   1.411   0.437   4.701
 3681SOL    HW211943   1.542   0.505   4.771
 3682SOL     OW11944   5.221   2.610   0.895
 3682SOL    HW111945   5.188   2.604   0.989
 3682SOL    HW211946   5.149   2.647   0.836
 3683SOL     OW11947   0.331   0.479   4.746
 3683SOL    HW111948   0.414   0.424   4.762
 3683SOL    HW211949   0.261   0.452   4.812
 3684SOL     OW11950   1.911   6.685   5.461
 3684SOL    HW111951   1.931   6.669   5.364
 3684SOL    HW211952   1.951   6.772   5.490
 3685SOL     OW11953   2.543   5.909   5.424
 3685SOL    HW111954   2.493   5.994   5.407
 3685SOL    HW211955   2.638   5.920   5.394
 3686SOL     OW11956   6.416   3.362   3.333
 3686SOL    HW111957   6.319   3.370   3.309
 3686SOL    HW211958   6.444   3.266   3.329
 3687SOL     OW11959   4.740   5.847   3.538
 3687SOL    HW111960   4.673   5.868   3.467
 3687SOL    HW211961   4.807   5.782   3.503
 3688SOL     OW11962   6.068   3.081   6.988
 3688SOL    HW111963   6.108   2.990   7.000
 3688SOL    HW211964   5.975   3.081   7.023
 3689SOL     OW11965   2.351   1.714   4.980
 3689SOL    HW111966   2.411   1.646   5.022
 3689SOL    HW211967   2.317   1.680   4.893
 3690SOL     OW11968   5.300   5.436   1.111
 3690SOL    HW111969   5.346   5.474   1.030
 3690SOL    HW211970   5.365   5.383   1.165
 3691SOL     OW11971   2.845   1.954   6.566
 3691SOL    HW111972   2.898   1.870   6.561
 3691SOL    HW211973   2.758   1.941   6.520
 3692SOL     OW11974   0.156   3.805   6.139
 3692SOL    HW111975   0.155   3.758   6.228
 3692SOL    HW211976   0.169   3.903   6.154
 3693SOL     OW11977   0.674   1.795   2.753
 3693SOL    HW111978   0.686   1.753   2.663
 3693SOL    HW211979   0.641   1.727   2.818
 3694SOL     OW11980   0.970   0.896   1.689
 3694SOL    HW111981   0.937   0.963   1.755
 3694SOL    HW211982   0.912   0.899   1.607
 3695SOL     OW11983   6.732   2.533   2.407
 3695SOL    HW111984   6.815   2.576   2.443
 3695SOL    HW211985   6.746   2.434   2.401
 3696SOL     OW11986   4.876   0.972   4.769
 3696SOL    HW111987   4.837   0.988   4.678
 3696SOL    HW211988   4.908   1.059   4.807
 3697SOL     OW11989   6.544   6.198   3.498
 3697SOL    HW111990   6.632   6.172   3.460
 3697SOL    HW211991   6.546   6.186   3.598
 3698SOL     OW11992   1.751   0.563   3.359
 3698SOL    HW111993   1.681   0.577   3.289
 3698SOL    HW211994   1.715   0.592   3.448
 3699SOL     OW11995   2.731   2.007   4.247
 3699SOL    HW111996   2.663   2.079   4.235
 3699SOL    HW211997   2.820   2.049   4.269
 3700SOL     OW11998   1.796   5.068   4.900
 3700SOL    HW111999   1.851   4.992   4.868
 3700SOL    HW212000   1.856   5.136   4.944
 3701SOL     OW12001   0.942   6.546   2.811
 3701SOL    HW112002   0.987   6.467   2.853
 3701SOL    HW212003   1.007   6.622   2.805
 3702SOL     OW12004   5.521   5.391   3.890
 3702SOL    HW112005   5.440   5.430   3.846
 3702SOL    HW212006   5.555   5.315   3.835
 3703SOL     OW12007   1.125   1.260   5.835
 3703SOL    HW112008   1.105   1.185   5.772
 3703SOL    HW212009   1.125   1.225   5.929
 3704SOL     OW12010   6.062   2.506   1.183
 3704SOL    HW112011   6.025   2.584   1.233
 3704SOL    HW212012   6.162   2.510   1.184
 3705SOL     OW12013   4.772   4.706   3.778
 3705SOL    HW112014   4.862   4.664   3.789
 3705SOL    HW212015   4.770   4.792   3.830
 3706SOL     OW12016   1.166   3.960   0.697
 3706SOL    HW112017   1.105   3.960   0.776
 3706SOL    HW212018   1.117   3.928   0.617
 3707SOL     OW12019   2.925   4.784   3.831
 3707SOL    HW112020   2.983   4.704   3.814
 3707SOL    HW212021   2.892   4.781   3.926
 3708SOL     OW12022   3.503   6.813   1.481
 3708SOL    HW112023   3.549   6.755   1.413
 3708SOL    HW212024   3.476   6.899   1.438
 3709SOL     OW12025   1.906   0.463   2.247
 3709SOL    HW112026   1.850   0.384   2.224
 3709SOL    HW212027   1.931   0.511   2.163
 3710SOL     OW12028   0.812   5.204   5.638
 3710SOL    HW112029   0.825   5.273   5.566
 3710SOL    HW212030   0.725   5.220   5.684
 3711SOL     OW12031   1.796   5.900   4.970
 3711SOL    HW112032   1.874   5.950   4.932
 3711SOL    HW212033   1.810   5.886   5.068
 3712SOL     OW12034   2.281   5.564   5.557
 3712SOL    HW112035   2.286   5.661   5.578
 3712SOL    HW212036   2.295   5.551   5.459
 3713SOL     OW12037   6.923   6.681   4.723
 3713SOL    HW112038   6.874   6.624   4.789
 3713SOL    HW212039   6.949   6.626   4.644
 3714SOL     OW12040   1.064   4.963   0.340
 3714SOL    HW112041   0.999   4.890   0.361
 3714SOL    HW212042   1.113   4.989   0.424
 3715SOL     OW12043   6.925   6.073   3.603
 3715SOL    HW112044   6.860   6.069   3.679
 3715SOL    HW212045   6.990   5.997   3.610
 3716SOL     OW12046   6.420   5.600   4.233
 3716SOL    HW112047   6.415   5.635   4.139
 3716SOL    HW212048   6.333   5.558   4.257
 3717SOL     OW12049   4.634   1.171   1.065
 3717SOL    HW112050   4.583   1.087   1.083
 3717SOL    HW212051   4.571   1.243   1.037
 3718SOL     OW12052   6.872   6.747   6.362
 3718SOL    HW112053   6.899   6.825   6.419
 3718SOL    HW212054   6.869   6.664   6.418
 3719SOL     OW12055   4.151   3.463   6.425
 3719SOL    HW112056   4.056   3.448   6.451
 3719SOL    HW212057   4.155   3.500   6.332
 3720SOL     OW12058   6.393   3.240   0.862
 3720SOL    HW112059   6.404   3.325   0.913
 3720SOL    HW212060   6.477   3.222   0.809
 3721SOL     OW12061   6.145   5.086   6.862
 3721SOL    HW112062   6.235   5.045   6.872
 3721SOL    HW212063   6.127   5.104   6.765
 3722SOL     OW12064   4.111   0.096   2.062
 3722SOL    HW112065   4.035   0.033   2.046
 3722SOL    HW212066   4.075   0.186   2.087
 3723SOL     OW12067   4.359   5.291   0.351
 3723SOL    HW112068   4.378   5.383   0.384
 3723SOL    HW212069   4.435   5.231   0.375
 3724SOL     OW12070   1.603   4.757   5.357
 3724SOL    HW112071   1.663   4.678   5.369
 3724SOL    HW212072   1.638   4.814   5.283
 3725SOL     OW12073   0.285   6.169   0.141
 3725SOL    HW112074   0.244   6.142   0.228
 3725SOL    HW212075   0.356   6.237   0.158
 3726SOL     OW12076   5.334   4.225   3.911
 3726SOL    HW112077   5.429   4.247   3.890
 3726SOL    HW212078   5.316   4.245   4.008
 3727SOL     OW12079   0.198   2.815   4.154
 3727SOL    HW112080   0.213   2.770   4.242
 3727SOL    HW212081   0.106   2.792   4.120
 3728SOL     OW12082   3.356   3.585   0.602
 3728SOL    HW112083   3.435   3.597   0.542
 3728SOL    HW212084   3.325   3.675   0.635
 3729SOL     OW12085   0.323   0.284   5.397
 3729SOL    HW112086   0.271   0.364   5.429
 3729SOL    HW212087   0.420   0.308   5.390
 3730SOL     OW12088   4.340   6.521   6.176
 3730SOL    HW112089   4.242   6.507   6.186
 3730SOL    HW212090   4.389   6.438   6.201
 3731SOL     OW12091   0.220   1.685   6.382
 3731SOL    HW112092   0.286   1.622   6.422
 3731SOL    HW212093   0.130   1.671   6.425
 3732SOL     OW12094   2.475   1.422   0.358
 3732SOL    HW112095   2.444   1.507   0.316
 3732SOL    HW212096   2.489   1.353   0.287
 3733SOL     OW12097   2.060   2.922   3.872
 3733SOL    HW112098   2.012   2.985   3.810
 3733SOL    HW212099   2.028   2.829   3.855
 3734SOL     OW12100   4.213   0.269   1.685
 3734SOL    HW112101   4.137   0.316   1.731
 3734SOL    HW212102   4.265   0.216   1.753
 3735SOL     OW12103   4.012   6.790   2.390
 3735SOL    HW112104   3.922   6.774   2.431
 3735SOL    HW212105   4.049   6.876   2.424
 3736SOL     OW12106   6.537   1.090   1.296
 3736SOL    HW112107   6.508   0.998   1.324
 3736SOL    HW212108   6.476   1.158   1.337
 3737SOL     OW12109   6.901   2.404   3.328
 3737SOL    HW112110   6.954   2.479   3.368
 3737SOL    HW212111   6.878   2.339   3.400
 3738SOL     OW12112   6.515   6.049   0.685
 3738SOL    HW112113   6.430   6.042   0.632
 3738SOL    HW212114   6.496   6.024   0.780
 3739SOL     OW12115   3.270   5.037   1.944
 3739SOL    HW112116   3.183   5.081   1.964
 3739SOL    HW212117   3.255   4.939   1.928
 3740SOL     OW12118   6.016   5.694   6.468
 3740SOL    HW112119   5.934   5.679   6.413
 3740SOL    HW212120   6.097   5.667   6.416
 3741SOL     OW12121   5.154   2.741   0.121
 3741SOL    HW112122   5.065   2.769   0.157
 3741SOL    HW212123   5.227   2.788   0.173
 3742SOL     OW12124   4.296   5.554   0.434
 3742SOL    HW112125   4.205   5.552   0.474
 3742SOL    HW212126   4.364   5.565   0.506
 3743SOL     OW12127   4.051   3.802   1.126
 3743SOL    HW112128   4.048   3.758   1.036
 3743SOL    HW212129   3.958   3.824   1.155
 3744SOL     OW12130   1.048   6.308   1.693
 3744SOL    HW112131   0.968   6.358   1.726
 3744SOL    HW212132   1.034   6.283   1.598
 3745SOL     OW12133   4.934   3.375   2.510
 3745SOL    HW112134   5.023   3.420   2.517
 3745SOL    HW212135   4.926   3.333   2.419
 3746SOL     OW12136   6.452   0.155   3.652
 3746SOL    HW112137   6.405   0.125   3.569
 3746SOL    HW212138   6.538   0.105   3.662
 3747SOL     OW12139   4.660   6.744   6.295
 3747SOL    HW112140   4.584   6.679   6.303
 3747SOL    HW212141   4.685   6.778   6.385
 3748SOL     OW12142   5.824   1.122   2.653
 3748SOL    HW112143   5.789   1.070   2.731
 3748SOL    HW212144   5.921   1.101   2.640
 3749SOL     OW12145   0.961   4.969   2.824
 3749SOL    HW112146   0.955   4.947   2.921
 3749SOL    HW212147   0.870   4.993   2.790
 3750SOL     OW12148   5.626   4.076   0.348
 3750SOL    HW112149   5.544   4.132   0.341
 3750SOL    HW212150   5.600   3.982   0.366
 3751SOL     OW12151   1.733   3.375   1.008
 3751SOL    HW112152   1.785   3.461   1.014
 3751SOL    HW212153   1.735   3.342   0.914
 3752SOL     OW12154   0.084   6.999   6.984
 3752SOL    HW112155   7.007   6.996   6.982
 3752SOL    HW212156   0.115   6.982   0.054
 3753SOL     OW12157   0.914   6.231   4.209
 3753SOL    HW112158   0.973   6.235   4.128
 3753SOL    HW212159   0.835   6.292   4.195
 3754SOL     OW12160   5.454   6.603   0.950
 3754SOL    HW112161   5.394   6.525   0.933
 3754SOL    HW212162   5.409   6.667   1.012
 3755SOL     OW12163   5.124   4.775   3.938
 3755SOL    HW112164   5.187   4.735   3.872
 3755SOL    HW212165   5.084   4.859   3.901
 3756SOL     OW12166   2.230   1.804   6.118
 3756SOL    HW112167   2.303   1.765   6.063
 3756SOL    HW212168   2.159   1.842   6.058
 3757SOL     OW12169   3.258   5.571   5.680
 3757SOL    HW112170   3.307   5.551   5.596
 3757SOL    HW212171   3.161   5.587   5.660
 3758SOL     OW12172   2.449   0.966   5.170
 3758SOL    HW112173   2.538   0.992   5.207
 3758SOL    HW212174   2.436   0.868   5.179
 3759SOL     OW12175   4.956   5.279   5.570
 3759SOL    HW112176   4.998   5.265   5.660
 3759SOL    HW212177   4.863   5.242   5.571
 3760SOL     OW12178   1.430   3.109   3.693
 3760SOL    HW112179   1.407   3.091   3.788
 3760SOL    HW212180   1.527   3.092   3.677
 3761SOL     OW12181   0.667   6.610   5.111
 3761SOL    HW112182   0.710   6.693   5.076
 3761SOL    HW212183   0.569   6.611   5.091
 3762SOL     OW12184   0.739   4.326   0.543
 3762SOL    HW112185   0.738   4.357   0.448
 3762SOL    HW212186   0.747   4.405   0.604
 3763SOL     OW12187   6.482   3.506   6.291
 3763SOL    HW112188   6.510   3.503   6.387
 3763SOL    HW212189   6.387   3.538   6.285
 3764SOL     OW12190   1.929   0.506   4.542
 3764SOL    HW112191   1.847   0.483   4.596
 3764SOL    HW212192   1.925   0.602   4.515
 3765SOL     OW12193   4.839   0.753   3.537
 3765SOL    HW112194   4.808   0.824   3.600
 3765SOL    HW212195   4.760   0.698   3.507
 3766SOL     OW12196   0.593   1.022   4.030
 3766SOL    HW112197   0.530   0.958   3.986
 3766SOL    HW212198   0.555   1.053   4.117
 3767SOL     OW12199   1.668   5.045   0.253
 3767SOL    HW112200   1.645   4.983   0.179
 3767SOL    HW212201   1.641   5.005   0.340
 3768SOL     OW12202   4.414   6.340   6.834
 3768SOL    HW112203   4.317   6.364   6.835
 3768SOL    HW212204   4.432   6.279   6.757
 3769SOL     OW12205   5.672   5.903   4.939
 3769SOL    HW112206   5.666   5.996   4.904
 3769SOL    HW212207   5.729   5.848   4.878
 3770SOL     OW12208   1.926   1.580   5.918
 3770SOL    HW112209   1.915   1.626   6.006
 3770SOL    HW212210   1.996   1.627   5.864
 3771SOL     OW12211   4.792   2.432   0.677
 3771SOL    HW112212   4.839   2.392   0.598
 3771SOL    HW212213   4.860   2.460   0.745
 3772SOL     OW12214   6.202   0.888   1.303
 3772SOL    HW112215   6.244   0.843   1.382
 3772SOL    HW212216   6.273   0.914   1.238
 3773SOL     OW12217   5.841   3.351   5.477
 3773SOL    HW112218   5.936   3.378   5.467
 3773SOL    HW212219   5.782   3.431   5.469
 3774SOL     OW12220   1.021   6.985   6.490
 3774SOL    HW112221   1.022   7.007   6.393
 3774SOL    HW212222   0.926   6.968   6.519
 3775SOL     OW12223   5.484   3.931   2.984
 3775SOL    HW112224   5.556   3.998   2.971
 3775SOL    HW212225   5.427   3.926   2.902
 3776SOL     OW12226   2.266   2.230   1.227
 3776SOL    HW112227   2.243   2.323   1.252
 3776SOL    HW212228   2.183   2.174   1.224
 3777SOL     OW12229   2.931   5.174   4.683
 3777SOL    HW112230   2.877   5.120   4.619
 3777SOL    HW212231   2.943   5.124   4.768
 3778SOL     OW12232   2.523   5.971   2.891
 3778SOL    HW112233   2.497   5.898   2.828
 3778SOL    HW212234   2.622   5.984   2.888
 3779SOL     OW12235   2.504   4.595   0.158
 3779SOL    HW112236   2.524   4.536   0.237
 3779SOL    HW212237   2.412   4.576   0.125
 3780SOL     OW12238   3.397   5.523   5.080
 3780SOL    HW112239   3.496   5.521   5.092
 3780SOL    HW212240   3.356   5.579   5.151
 3781SOL     OW12241   2.685   6.633   4.123
 3781SOL    HW112242   2.653   6.543   4.095
 3781SOL    HW212243   2.779   6.647   4.091
 3782SOL     OW12244   2.777   1.795   4.414
 3782SOL    HW112245   2.750   1.877   4.363
 3782SOL    HW212246   2.874   1.801   4.437
 3783SOL     OW12247   6.220   6.702   4.825
 3783SOL    HW112248   6.195   6.625   4.767
 3783SOL    HW212249   6.237   6.669   4.918
 3784SOL     OW12250   6.160   1.100   3.591
 3784SOL    HW112251   6.183   1.191   3.628
 3784SOL    HW212252   6.082   1.107   3.529
 3785SOL     OW12253   2.670   1.687   0.109
 3785SOL    HW112254   2.722   1.650   0.186
 3785SOL    HW212255   2.660   1.616   0.039
 3786SOL     OW12256   2.824   4.769   3.561
 3786SOL    HW112257   2.900   4.757   3.497
 3786SOL    HW212258   2.860   4.791   3.652
 3787SOL     OW12259   5.543   1.137   4.331
 3787SOL    HW112260   5.581   1.092   4.250
 3787SOL    HW212261   5.618   1.166   4.391
 3788SOL     OW12262   6.580   2.722   3.724
 3788SOL    HW112263   6.571   2.761   3.633
 3788SOL    HW212264   6.494   2.676   3.749
 3789SOL     OW12265   1.266   4.311   4.251
 3789SOL    HW112266   1.324   4.392   4.260
 3789SOL    HW212267   1.180   4.337   4.207
 3790SOL     OW12268   2.142   3.652   4.762
 3790SOL    HW112269   2.135   3.555   4.742
 3790SOL    HW212270   2.214   3.667   4.830
 3791SOL     OW12271   5.194   6.613   1.226
 3791SOL    HW112272   5.161   6.525   1.191
 3791SOL    HW212273   5.182   6.684   1.157
 3792SOL     OW12274   6.472   0.232   5.381
 3792SOL    HW112275   6.541   0.278   5.437
 3792SOL    HW212276   6.468   0.275   5.290
 3793SOL     OW12277   2.124   1.281   2.599
 3793SOL    HW112278   2.219   1.262   2.573
 3793SOL    HW212279   2.064   1.212   2.557
 3794SOL     OW12280   4.052   5.543   2.023
 3794SOL    HW112281   4.046   5.636   1.986
 3794SOL    HW212282   3.998   5.538   2.107
 3795SOL     OW12283   5.106   0.301   6.894
 3795SOL    HW112284   5.098   0.311   6.795
 3795SOL    HW212285   5.066   0.381   6.939
 3796SOL     OW12286   1.269   2.104   1.208
 3796SOL    HW112287   1.185   2.055   1.233
 3796SOL    HW212288   1.247   2.177   1.143
 3797SOL     OW12289   0.618   5.287   1.990
 3797SOL    HW112290   0.706   5.274   2.036
 3797SOL    HW212291   0.543   5.273   2.055
 3798SOL     OW12292   2.567   4.633   3.169
 3798SOL    HW112293   2.644   4.695   3.156
 3798SOL    HW212294   2.484   4.685   3.187
 3799SOL     OW12295   1.004   1.648   5.005
 3799SOL    HW112296   0.976   1.674   4.913
 3799SOL    HW212297   1.104   1.653   5.013
 3800SOL     OW12298   5.178   2.390   5.021
 3800SOL    HW112299   5.106   2.330   4.985
 3800SOL    HW212300   5.262   2.374   4.969
 3801SOL     OW12301   6.506   6.145   5.321
 3801SOL    HW112302   6.526   6.065   5.265
 3801SOL    HW212303   6.408   6.147   5.341
 3802SOL     OW12304   1.121   2.211   5.054
 3802SOL    HW112305   1.139   2.154   4.974
 3802SOL    HW212306   1.194   2.199   5.121
 3803SOL     OW12307   4.347   0.493   2.174
 3803SOL    HW112308   4.336   0.447   2.086
 3803SOL    HW212309   4.350   0.424   2.247
 3804SOL     OW12310   4.570   1.781   4.817
 3804SOL    HW112311   4.589   1.683   4.805
 3804SOL    HW212312   4.473   1.798   4.802
 3805SOL     OW12313   2.897   4.198   1.703
 3805SOL    HW112314   2.918   4.286   1.745
 3805SOL    HW212315   2.874   4.212   1.606
 3806SOL     OW12316   3.476   2.955   0.104
 3806SOL    HW112317   3.387   2.910   0.107
 3806SOL    HW212318   3.536   2.916   0.173
 3807SOL     OW12319   1.425   6.922   4.207
 3807SOL    HW112320   1.465   6.838   4.170
 3807SOL    HW212321   1.408   6.987   4.132
 3808SOL     OW12322   2.992   0.409   2.189
 3808SOL    HW112323   2.983   0.348   2.267
 3808SOL    HW212324   3.029   0.497   2.219
 3809SOL     OW12325   6.092   2.097   6.960
 3809SOL    HW112326   6.052   2.150   0.010
 3809SOL    HW212327   6.025   2.032   6.925
 3810SOL     OW12328   3.045   3.067   5.730
 3810SOL    HW112329   3.103   3.082   5.810
 3810SOL    HW212330   3.098   3.022   5.658
 3811SOL     OW12331   0.813   4.045   4.378
 3811SOL    HW112332   0.725   4.019   4.338
 3811SOL    HW212333   0.850   3.967   4.430
 3812SOL     OW12334   6.446   2.463   5.789
 3812SOL    HW112335   6.441   2.373   5.832
 3812SOL    HW212336   6.537   2.476   5.750
 3813SOL     OW12337   3.533   5.464   1.049
 3813SOL    HW112338   3.623   5.502   1.066
 3813SOL    HW212339   3.521   5.381   1.104
 3814SOL     OW12340   6.663   6.114   1.089
 3814SOL    HW112341   6.700   6.144   1.177
 3814SOL    HW212342   6.720   6.040   1.052
 3815SOL     OW12343   5.081   2.167   1.106
 3815SOL    HW112344   5.007   2.139   1.045
 3815SOL    HW212345   5.044   2.181   1.198
 3816SOL     OW12346   6.768   6.756   2.251
 3816SOL    HW112347   6.728   6.836   2.207
 3816SOL    HW212348   6.754   6.762   2.350
 3817SOL     OW12349   4.637   2.473   4.053
 3817SOL    HW112350   4.659   2.526   4.136
 3817SOL    HW212351   4.646   2.532   3.973
 3818SOL     OW12352   4.489   6.387   2.813
 3818SOL    HW112353   4.532   6.399   2.723
 3818SOL    HW212354   4.558   6.398   2.884
 3819SOL     OW12355   5.596   5.299   0.558
 3819SOL    HW112356   5.654   5.380   0.550
 3819SOL    HW212357   5.529   5.313   0.631
 3820SOL     OW12358   5.536   5.901   4.254
 3820SOL    HW112359   5.464   5.938   4.313
 3820SOL    HW212360   5.552   5.964   4.177
 3821SOL     OW12361   1.687   3.499   1.964
 3821SOL    HW112362   1.708   3.555   1.883
 3821SOL    HW212363   1.737   3.536   2.042
 3822SOL     OW12364   2.101   5.135   1.622
 3822SOL    HW112365   2.190   5.124   1.579
 3822SOL    HW212366   2.112   5.142   1.721
 3823SOL     OW12367   3.942   2.020   5.585
 3823SOL    HW112368   3.859   2.033   5.638
 3823SOL    HW212369   4.018   1.997   5.646
 3824SOL     OW12370   6.120   2.186   6.192
 3824SOL    HW112371   6.060   2.112   6.161
 3824SOL    HW212372   6.094   2.271   6.147
 3825SOL     OW12373   6.874   0.345   6.865
 3825SOL    HW112374   6.860   0.410   6.790
 3825SOL    HW212375   6.887   0.395   6.951
 3826SOL     OW12376   0.200   3.428   0.334
 3826SOL    HW112377   0.136   3.485   0.282
 3826SOL    HW212378   0.253   3.371   0.271
 3827SOL     OW12379   3.715   3.914   0.258
 3827SOL    HW112380   3.740   3.829   0.213
 3827SOL    HW212381   3.618   3.933   0.243
 3828SOL     OW12382   4.406   2.041   1.385
 3828SOL    HW112383   4.409   1.941   1.391
 3828SOL    HW212384   4.353   2.068   1.305
 3829SOL     OW12385   2.483   5.301   3.381
 3829SOL    HW112386   2.407   5.337   3.435
 3829SOL    HW212387   2.479   5.201   3.380
 3830SOL     OW12388   2.358   0.059   5.741
 3830SOL    HW112389   2.266   0.097   5.736
 3830SOL    HW212390   2.376   0.026   5.834
 3831SOL     OW12391   4.191   2.026   2.426
 3831SOL    HW112392   4.099   2.045   2.459
 3831SOL    HW212393   4.250   2.002   2.503
 3832SOL     OW12394   6.338   0.705   1.945
 3832SOL    HW112395   6.343   0.669   1.852
 3832SOL    HW212396   6.383   0.794   1.949
 3833SOL     OW12397   0.684   4.948   0.649
 3833SOL    HW112398   0.593   4.915   0.676
 3833SOL    HW212399   0.684   4.969   0.552
 3834SOL     OW12400   3.082   1.861   0.446
 3834SOL    HW112401   3.135   1.934   0.489
 3834SOL    HW212402   2.986   1.890   0.439
 3835SOL     OW12403   3.662   5.612   5.989
 3835SOL    HW112404   3.622   5.554   5.918
 3835SOL    HW212405   3.689   5.700   5.949
 3836SOL     OW12406   1.936   4.301   6.233
 3836SOL    HW112407   1.935   4.211   6.188
 3836SOL    HW212408   1.919   4.372   6.165
 3837SOL     OW12409   4.633   3.570   0.143
 3837SOL    HW112410   4.661   3.488   0.192
 3837SOL    HW212411   4.558   3.614   0.191
 3838SOL     OW12412   5.624   2.271   4.488
 3838SOL    HW112413   5.571   2.233   4.564
 3838SOL    HW212414   5.692   2.204   4.458
 3839SOL     OW12415   5.796   6.855   5.020
 3839SOL    HW112416   5.891   6.859   4.988
 3839SOL    HW212417   5.795   6.825   5.115
 3840SOL     OW12418   1.476   1.234   4.176
 3840SOL    HW112419   1.376   1.237   4.173
 3840SOL    HW212420   1.508   1.141   4.159
 3841SOL     OW12421   1.249   3.844   5.256
 3841SOL    HW112422   1.345   3.848   5.284
 3841SOL    HW212423   1.202   3.926   5.290
 3842SOL     OW12424   0.820   5.410   0.158
 3842SOL    HW112425   0.745   5.396   0.094
 3842SOL    HW212426   0.806   5.496   0.207
 3843SOL     OW12427   6.114   3.303   0.427
 3843SOL    HW112428   6.170   3.313   0.509
 3843SOL    HW212429   6.056   3.222   0.436
 3844SOL     OW12430   1.986   5.035   5.790
 3844SOL    HW112431   1.940   5.110   5.743
 3844SOL    HW212432   1.958   5.032   5.886
 3845SOL     OW12433   3.335   3.269   3.053
 3845SOL    HW112434   3.298   3.309   2.969
 3845SOL    HW212435   3.279   3.190   3.080
 3846SOL     OW12436   0.229   4.128   4.636
 3846SOL    HW112437   0.203   4.214   4.680
 3846SOL    HW212438   0.149   4.089   4.590
 3847SOL     OW12439   6.887   0.195   6.477
 3847SOL    HW112440   6.812   0.203   6.412
 3847SOL    HW212441   6.859   0.232   6.566
 3848SOL     OW12442   2.588   5.343   2.093
 3848SOL    HW112443   2.628   5.261   2.133
 3848SOL    HW212444   2.496   5.357   2.131
 3849SOL     OW12445   0.736   2.019   5.807
 3849SOL    HW112446   0.759   2.112   5.836
 3849SOL    HW212447   0.793   1.954   5.856
 3850SOL     OW12448   3.235   4.010   1.833
 3850SOL    HW112449   3.322   4.017   1.882
 3850SOL    HW212450   3.160   4.016   1.898
 3851SOL     OW12451   2.124   3.307   3.280
 3851SOL    HW112452   2.060   3.383   3.268
 3851SOL    HW212453   2.149   3.300   3.377
 3852SOL     OW12454   4.380   0.655   5.161
 3852SOL    HW112455   4.454   0.636   5.097
 3852SOL    HW212456   4.303   0.595   5.141
 3853SOL     OW12457   0.968   3.397   2.102
 3853SOL    HW112458   1.038   3.327   2.085
 3853SOL    HW212459   0.942   3.440   2.016
 3854SOL     OW12460   1.189   3.462   4.287
 3854SOL    HW112461   1.156   3.531   4.352
 3854SOL    HW212462   1.122   3.451   4.213
 3855SOL     OW12463   5.940   3.936   5.849
 3855SOL    HW112464   6.018   3.873   5.842
 3855SOL    HW212465   5.962   4.022   5.802
 3856SOL     OW12466   6.885   0.090   5.672
 3856SOL    HW112467   6.811   0.035   5.635
 3856SOL    HW212468   6.858   0.126   5.762
 3857SOL     OW12469   1.254   6.183   5.028
 3857SOL    HW112470   1.329   6.174   4.962
 3857SOL    HW212471   1.168   6.156   4.985
 3858SOL     OW12472   1.816   5.819   6.551
 3858SOL    HW112473   1.897   5.761   6.555
 3858SOL    HW212474   1.747   5.777   6.492
 3859SOL     OW12475   7.023   3.016   3.100
 3859SOL    HW112476   7.007   2.944   3.033
 3859SOL    HW212477   0.035   2.977   3.185
 3860SOL     OW12478   2.285   5.856   6.071
 3860SOL    HW112479   2.241   5.912   6.141
 3860SOL    HW212480   2.238   5.767   6.065
 3861SOL     OW12481   4.600   4.234   1.384
 3861SOL    HW112482   4.605   4.277   1.475
 3861SOL    HW212483   4.661   4.282   1.322
 3862SOL     OW12484   1.114   6.122   6.087
 3862SOL    HW112485   1.027   6.164   6.114
 3862SOL    HW212486   1.098   6.029   6.056
 3863SOL     OW12487   3.491   3.873   1.341
 3863SOL    HW112488   3.510   3.967   1.312
 3863SOL    HW212489   3.407   3.871   1.395
 3864SOL     OW12490   3.373   1.683   6.627
 3864SOL    HW112491   3.288   1.689   6.575
 3864SOL    HW212492   3.410   1.775   6.642
 3865SOL     OW12493   4.296   0.304   2.388
 3865SOL    HW112494   4.305   0.204   2.384
 3865SOL    HW212495   4.347   0.339   2.467
 3866SOL     OW12496   3.971   0.176   0.899
 3866SOL    HW112497   3.912   0.198   0.976
 3866SOL    HW212498   3.917   0.175   0.815
 3867SOL     OW12499   2.123   3.053   3.194
 3867SOL    HW112500   2.134   3.148   3.221
 3867SOL    HW212501   2.181   2.995   3.252
 3868SOL     OW12502   2.619   6.547   2.249
 3868SOL    HW112503   2.521   6.539   2.269
 3868SOL    HW212504   2.632   6.613   2.175
 3869SOL     OW12505   0.549   2.978   3.431
 3869SOL    HW112506   0.501   3.063   3.411
 3869SOL    HW212507   0.569   2.972   3.529
 3870SOL     OW12508   2.949   5.445   0.154
 3870SOL    HW112509   3.006   5.379   0.202
 3870SOL    HW212510   2.853   5.415   0.157
 3871SOL     OW12511   2.920   0.243   3.224
 3871SOL    HW112512   2.998   0.257   3.164
 3871SOL    HW212513   2.900   0.329   3.273
 3872SOL     OW12514   4.264   3.549   1.041
 3872SOL    HW112515   4.286   3.543   1.139
 3872SOL    HW212516   4.165   3.561   1.030
 3873SOL     OW12517   5.571   4.820   1.527
 3873SOL    HW112518   5.525   4.760   1.461
 3873SOL    HW212519   5.540   4.914   1.512
 3874SOL     OW12520   4.335   0.172   0.158
 3874SOL    HW112521   4.374   0.111   0.227
 3874SOL    HW212522   4.364   0.266   0.176
 3875SOL     OW12523   1.483   4.605   1.474
 3875SOL    HW112524   1.425   4.635   1.399
 3875SOL    HW212525   1.469   4.507   1.490
 3876SOL     OW12526   5.511   3.854   4.317
 3876SOL    HW112527   5.413   3.857   4.296
 3876SOL    HW212528   5.544   3.760   4.309
 3877SOL     OW12529   5.958   1.063   2.035
 3877SOL    HW112530   5.918   1.112   1.958
 3877SOL    HW212531   5.895   0.993   2.068
 3878SOL     OW12532   3.738   6.766   6.152
 3878SOL    HW112533   3.831   6.802   6.147
 3878SOL    HW212534   3.683   6.807   6.078
 3879SOL     OW12535   4.643   5.415   1.696
 3879SOL    HW112536   4.686   5.469   1.768
 3879SOL    HW212537   4.588   5.475   1.638
 3880SOL     OW12538   5.543   3.191   3.382
 3880SOL    HW112539   5.635   3.202   3.419
 3880SOL    HW212540   5.499   3.281   3.376
 3881SOL     OW12541   0.801   4.423   1.005
 3881SOL    HW112542   0.724   4.359   1.008
 3881SOL    HW212543   0.786   4.495   1.073
 3882SOL     OW12544   6.755   1.062   5.524
 3882SOL    HW112545   6.755   1.025   5.617
 3882SOL    HW212546   6.731   1.159   5.527
 3883SOL     OW12547   4.108   0.556   5.051
 3883SOL    HW112548   4.030   0.508   5.012
 3883SOL    HW212549   4.084   0.591   5.142
 3884SOL     OW12550   1.960   6.132   5.955
 3884SOL    HW112551   1.893   6.202   5.934
 3884SOL    HW212552   1.964   6.066   5.879
 3885SOL     OW12553   0.007   0.931   4.055
 3885SOL    HW112554   6.934   0.917   4.036
 3885SOL    HW212555   0.018   1.000   4.126
 3886SOL     OW12556   6.748   6.571   4.923
 3886SOL    HW112557   6.678   6.616   4.867
 3886SOL    HW212558   6.750   6.613   5.013
 3887SOL     OW12559   4.468   2.069   5.502
 3887SOL    HW112560   4.563   2.079   5.531
 3887SOL    HW212561   4.449   1.973   5.482
 3888SOL     OW12562   0.186   1.872   0.808
 3888SOL    HW112563   0.276   1.903   0.778
 3888SOL    HW212564   0.145   1.939   0.870
 3889SOL     OW12565   0.961   6.502   6.492
 3889SOL    HW112566   0.927   6.528   6.582
 3889SOL    HW212567   1.042   6.444   6.503
 3890SOL     OW12568   5.437   4.482   3.203
 3890SOL    HW112569   5.372   4.557   3.214
 3890SOL    HW212570   5.388   4.397   3.189
 3891SOL     OW12571   5.341   5.119   4.770
 3891SOL    HW112572   5.440   5.109   4.776
 3891SOL    HW212573   5.314   5.212   4.795
 3892SOL     OW12574   5.088   6.903   3.085
 3892SOL    HW112575   5.128   6.893   2.994
 3892SOL    HW212576   4.999   6.947   3.078
 3893SOL     OW12577   3.561   5.729   4.188
 3893SOL    HW112578   3.650   5.688   4.209
 3893SOL    HW212579   3.503   5.662   4.143
 3894SOL     OW12580   4.624   3.647   6.916
 3894SOL    HW112581   4.709   3.625   6.868
 3894SOL    HW212582   4.620   3.596   7.002
 3895SOL     OW12583   2.723   1.911   5.764
 3895SOL    HW112584   2.756   1.892   5.671
 3895SOL    HW212585   2.629   1.881   5.773
 3896SOL     OW12586   6.468   3.140   5.293
 3896SOL    HW112587   6.500   3.045   5.294
 3896SOL    HW212588   6.368   3.141   5.291
 3897SOL     OW12589   3.538   6.999   2.314
 3897SOL    HW112590   3.460   0.014   2.265
 3897SOL    HW212591   3.507   6.924   2.373
 3898SOL     OW12592   3.640   4.047   4.283
 3898SOL    HW112593   3.586   4.082   4.359
 3898SOL    HW212594   3.737   4.050   4.307
 3899SOL     OW12595   4.441   1.628   5.535
 3899SOL    HW112596   4.518   1.690   5.547
 3899SOL    HW212597   4.468   1.553   5.474
 3900SOL     OW12598   6.498   2.387   3.200
 3900SOL    HW112599   6.538   2.430   3.281
 3900SOL    HW212600   6.423   2.443   3.166
 3901SOL     OW12601   1.482   6.568   5.506
 3901SOL    HW112602   1.389   6.550   5.473
 3901SOL    HW212603   1.496   6.520   5.593
 3902SOL     OW12604   3.897   5.142   1.341
 3902SOL    HW112605   3.898   5.241   1.332
 3902SOL    HW212606   3.871   5.116   1.434
 3903SOL     OW12607   4.185   2.729   6.780
 3903SOL    HW112608   4.259   2.736   6.848
 3903SOL    HW212609   4.130   2.648   6.800
 3904SOL     OW12610   1.054   6.466   0.652
 3904SOL    HW112611   1.005   6.391   0.609
 3904SOL    HW212612   0.994   6.546   0.658
 3905SOL     OW12613   6.776   0.375   5.164
 3905SOL    HW112614   6.829   0.292   5.183
 3905SOL    HW212615   6.833   0.455   5.180
 3906SOL     OW12616   1.760   4.868   4.210
 3906SOL    HW112617   1.808   4.834   4.129
 3906SOL    HW212618   1.808   4.949   4.246
 3907SOL     OW12619   0.418   0.859   3.839
 3907SOL    HW112620   0.427   0.783   3.774
 3907SOL    HW212621   0.328   0.901   3.828
 3908SOL     OW12622   1.252   0.472   5.041
 3908SOL    HW112623   1.310   0.501   4.965
 3908SOL    HW212624   1.289   0.388   5.081
 3909SOL     OW12625   5.555   2.723   6.212
 3909SOL    HW112626   5.544   2.732   6.311
 3909SOL    HW212627   5.465   2.719   6.169
 3910SOL     OW12628   3.640   1.288   0.415
 3910SOL    HW112629   3.735   1.311   0.439
 3910SOL    HW212630   3.594   1.370   0.381
 3911SOL     OW12631   0.017   0.904   0.811
 3911SOL    HW112632   6.979   0.830   0.837
 3911SOL    HW212633   7.009   0.946   0.726
 3912SOL     OW12634   3.900   1.640   0.656
 3912SOL    HW112635   3.887   1.547   0.620
 3912SOL    HW212636   3.811   1.681   0.673
 3913SOL     OW12637   5.460   5.237   1.197
 3913SOL    HW112638   5.520   5.273   1.126
 3913SOL    HW212639   5.430   5.145   1.172
 3914SOL     OW12640   6.455   1.575   0.183
 3914SOL    HW112641   6.493   1.647   0.125
 3914SOL    HW212642   6.503   1.489   0.164
 3915SOL     OW12643   4.761   5.643   0.102
 3915SOL    HW112644   4.734   5.640   0.199
 3915SOL    HW212645   4.740   5.555   0.059
 3916SOL     OW12646   2.052   1.895   1.954
 3916SOL    HW112647   2.110   1.929   2.028
 3916SOL    HW212648   2.022   1.972   1.897
 3917SOL     OW12649   3.284   5.484   1.568
 3917SOL    HW112650   3.263   5.392   1.602
 3917SOL    HW212651   3.212   5.547   1.597
 3918SOL     OW12652   5.408   1.351   0.729
 3918SOL    HW112653   5.411   1.260   0.771
 3918SOL    HW212654   5.502   1.382   0.710
 3919SOL     OW12655   3.371   0.436   1.894
 3919SOL    HW112656   3.423   0.486   1.964
 3919SOL    HW212657   3.292   0.392   1.936
 3920SOL     OW12658   3.083   1.577   5.784
 3920SOL    HW112659   3.066   1.489   5.740
 3920SOL    HW212660   3.059   1.651   5.721
 3921SOL     OW12661   0.016   2.658   6.140
 3921SOL    HW112662   0.005   2.700   6.050
 3921SOL    HW212663   0.072   2.717   6.198
 3922SOL     OW12664   5.638   4.439   2.810
 3922SOL    HW112665   5.644   4.431   2.710
 3922SOL    HW212666   5.556   4.390   2.842
 3923SOL     OW12667   4.974   1.323   1.734
 3923SOL    HW112668   4.907   1.382   1.688
 3923SOL    HW212669   5.019   1.265   1.666
 3924SOL     OW12670   5.756   4.885   4.536
 3924SOL    HW112671   5.762   4.789   4.561
 3924SOL    HW212672   5.711   4.894   4.448
 3925SOL     OW12673   4.702   3.903   0.649
 3925SOL    HW112674   4.781   3.859   0.692
 3925SOL    HW212675   4.619   3.880   0.700
 3926SOL     OW12676   0.604   6.377   6.331
 3926SOL    HW112677   0.701   6.364   6.351
 3926SOL    HW212678   0.577   6.469   6.357
 3927SOL     OW12679   5.724   2.563   5.240
 3927SOL    HW112680   5.658   2.594   5.307
 3927SOL    HW212681   5.686   2.576   5.148
 3928SOL     OW12682   2.636   6.310   2.522
 3928SOL    HW112683   2.701   6.324   2.447
 3928SOL    HW212684   2.686   6.297   2.608
 3929SOL     OW12685   6.699   2.038   5.002
 3929SOL    HW112686   6.794   2.008   4.996
 3929SOL    HW212687   6.646   1.995   4.929
 3930SOL     OW12688   0.696   4.093   4.052
 3930SOL    HW112689   0.685   4.108   3.954
 3930SOL    HW212690   0.650   4.008   4.078
 3931SOL     OW12691   1.952   2.534   1.379
 3931SOL    HW112692   1.888   2.458   1.375
 3931SOL    HW212693   1.910   2.616   1.340
 3932SOL     OW12694   2.358   5.322   4.114
 3932SOL    HW112695   2.448   5.364   4.108
 3932SOL    HW212696   2.299   5.359   4.042
 3933SOL     OW12697   2.541   5.666   0.747
 3933SOL    HW112698   2.599   5.625   0.816
 3933SOL    HW212699   2.509   5.755   0.779
 3934SOL     OW12700   0.184   1.282   1.104
 3934SOL    HW112701   0.135   1.356   1.150
 3934SOL    HW212702   0.278   1.310   1.086
 3935SOL     OW12703   6.500   3.084   6.189
 3935SOL    HW112704   6.535   3.174   6.164
 3935SOL    HW212705   6.526   3.017   6.120
 3936SOL     OW12706   0.857   4.911   5.687
 3936SOL    HW112707   0.839   5.001   5.649
 3936SOL    HW212708   0.937   4.915   5.747
 3937SOL     OW12709   0.056   0.034   1.683
 3937SOL    HW112710   0.050   0.133   1.694
 3937SOL    HW212711   6.991   7.022   1.656
 3938SOL     OW12712   0.548   4.156   3.093
 3938SOL    HW112713   0.643   4.141   3.066
 3938SOL    HW212714   0.488   4.143   3.014
 3939SOL     OW12715   1.412   1.234   2.240
 3939SOL    HW112716   1.500   1.213   2.197
 3939SOL    HW212717   1.402   1.182   2.324
 3940SOL     OW12718   3.309   5.444   1.296
 3940SOL    HW112719   3.318   5.529   1.244
 3940SOL    HW212720   3.277   5.464   1.389
 3941SOL     OW12721   5.093   6.136   3.380
 3941SOL    HW112722   5.012   6.194   3.380
 3941SOL    HW212723   5.078   6.056   3.438
 3942SOL     OW12724   6.543   5.875   5.564
 3942SOL    HW112725   6.526   5.876   5.663
 3942SOL    HW212726   6.464   5.916   5.517
 3943SOL     OW12727   1.402   2.930   6.813
 3943SOL    HW112728   1.490   2.886   6.797
 3943SOL    HW212729   1.336   2.862   6.845
 3944SOL     OW12730   5.651   2.367   6.793
 3944SOL    HW112731   5.669   2.269   6.791
 3944SOL    HW212732   5.565   2.385   6.841
 3945SOL     OW12733   6.178   0.498   3.264
 3945SOL    HW112734   6.250   0.560   3.294
 3945SOL    HW212735   6.166   0.425   3.331
 3946SOL     OW12736   1.117   2.989   0.269
 3946SOL    HW112737   1.111   2.892   0.289
 3946SOL    HW212738   1.183   3.033   0.330
 3947SOL     OW12739   5.893   4.976   2.341
 3947SOL    HW112740   5.893   4.884   2.303
 3947SOL    HW212741   5.863   5.042   2.271
 3948SOL     OW12742   0.994   2.503   6.436
 3948SOL    HW112743   0.988   2.584   6.494
 3948SOL    HW212744   1.071   2.515   6.372
 3949SOL     OW12745   5.721   6.498   1.865
 3949SOL    HW112746   5.820   6.508   1.860
 3949SOL    HW212747   5.686   6.550   1.942
 3950SOL     OW12748   3.047   4.707   1.728
 3950SOL    HW112749   3.029   4.614   1.760
 3950SOL    HW212750   3.006   4.719   1.637
 3951SOL     OW12751   0.574   2.353   5.058
 3951SOL    HW112752   0.654   2.402   5.023
 3951SOL    HW212753   0.595   2.316   5.148
 3952SOL     OW12754   5.773   3.430   6.377
 3952SOL    HW112755   5.677   3.433   6.407
 3952SOL    HW212756   5.802   3.523   6.352
 3953SOL     OW12757   3.085   4.282   6.148
 3953SOL    HW112758   2.999   4.329   6.170
 3953SOL    HW212759   3.115   4.228   6.226
 3954SOL     OW12760   0.295   3.375   5.283
 3954SOL    HW112761   0.386   3.383   5.241
 3954SOL    HW212762   0.305   3.364   5.382
 3955SOL     OW12763   6.681   4.603   0.422
 3955SOL    HW112764   6.733   4.676   0.378
 3955SOL    HW212765   6.687   4.613   0.522
 3956SOL     OW12766   0.957   2.514   5.453
 3956SOL    HW112767   0.870   2.516   5.502
 3956SOL    HW212768   1.032   2.503   5.518
 3957SOL     OW12769   1.039   1.239   2.845
 3957SOL    HW112770   1.015   1.189   2.928
 3957SOL    HW212771   0.957   1.254   2.789
 3958SOL     OW12772   5.535   6.282   5.805
 3958SOL    HW112773   5.446   6.249   5.775
 3958SOL    HW212774   5.526   6.332   5.891
 3959SOL     OW12775   2.458   4.868   0.622
 3959SOL    HW112776   2.394   4.860   0.699
 3959SOL    HW212777   2.525   4.794   0.627
 3960SOL     OW12778   4.375   3.375   0.479
 3960SOL    HW112779   4.280   3.393   0.453
 3960SOL    HW212780   4.382   3.369   0.578
 3961SOL     OW12781   5.733   0.781   2.504
 3961SOL    HW112782   5.746   0.707   2.437
 3961SOL    HW212783   5.735   0.869   2.456
 3962SOL     OW12784   0.671   6.752   5.943
 3962SOL    HW112785   0.572   6.767   5.940
 3962SOL    HW212786   0.710   6.798   6.022
 3963SOL     OW12787   5.324   5.294   3.486
 3963SOL    HW112788   5.276   5.345   3.416
 3963SOL    HW212789   5.267   5.218   3.517
 3964SOL     OW12790   5.637   6.508   5.641
 3964SOL    HW112791   5.623   6.430   5.703
 3964SOL    HW212792   5.627   6.593   5.692
 3965SOL     OW12793   3.545   3.678   6.916
 3965SOL    HW112794   3.456   3.710   6.885
 3965SOL    HW212795   3.556   3.581   6.893
 3966SOL     OW12796   5.713   4.070   5.157
 3966SOL    HW112797   5.647   4.145   5.150
 3966SOL    HW212798   5.665   3.983   5.145
 3967SOL     OW12799   0.451   5.451   6.505
 3967SOL    HW112800   0.379   5.498   6.455
 3967SOL    HW212801   0.520   5.517   6.534
 3968SOL     OW12802   5.839   0.179   1.561
 3968SOL    HW112803   5.796   0.208   1.646
 3968SOL    HW212804   5.835   0.080   1.554
 3969SOL     OW12805   7.023   5.403   1.531
 3969SOL    HW112806   7.020   5.497   1.565
 3969SOL    HW212807   7.013   5.339   1.607
 3970SOL     OW12808   4.430   5.067   3.037
 3970SOL    HW112809   4.418   5.058   3.136
 3970SOL    HW212810   4.521   5.035   3.011
 3971SOL     OW12811   1.543   5.561   3.621
 3971SOL    HW112812   1.549   5.631   3.692
 3971SOL    HW212813   1.594   5.480   3.648
 3972SOL     OW12814   1.565   6.984   0.653
 3972SOL    HW112815   1.665   6.977   0.653
 3972SOL    HW212816   1.526   6.892   0.661
 3973SOL     OW12817   3.016   3.286   3.429
 3973SOL    HW112818   3.097   3.328   3.471
 3973SOL    HW212819   2.964   3.356   3.381
 3974SOL     OW12820   6.360   1.774   6.353
 3974SOL    HW112821   6.292   1.710   6.389
 3974SOL    HW212822   6.424   1.724   6.294
 3975SOL     OW12823   6.891   1.111   5.818
 3975SOL    HW112824   6.970   1.170   5.834
 3975SOL    HW212825   6.820   1.132   5.885
 3976SOL     OW12826   0.862   3.615   6.985
 3976SOL    HW112827   0.951   3.575   7.005
 3976SOL    HW212828   0.831   3.669   0.040
 3977SOL     OW12829   4.137   6.379   6.872
 3977SOL    HW112830   4.161   6.431   6.790
 3977SOL    HW212831   4.049   6.411   6.907
 3978SOL     OW12832   5.585   3.176   6.378
 3978SOL    HW112833   5.684   3.162   6.370
 3978SOL    HW212834   5.564   3.273   6.367
 3979SOL     OW12835   1.018   0.024   3.039
 3979SOL    HW112836   0.979   0.101   2.988
 3979SOL    HW212837   0.981   6.962   3.003
 3980SOL     OW12838   5.456   2.813   4.089
 3980SOL    HW112839   5.406   2.843   4.170
 3980SOL    HW212840   5.553   2.803   4.111
 3981SOL     OW12841   6.799   1.774   6.143
 3981SOL    HW112842   6.877   1.785   6.206
 3981SOL    HW212843   6.811   1.836   6.066
 3982SOL     OW12844   2.981   1.870   3.755
 3982SOL    HW112845   2.913   1.911   3.695
 3982SOL    HW212846   2.937   1.799   3.810
 3983SOL     OW12847   3.249   6.155   4.040
 3983SOL    HW112848   3.238   6.189   4.133
 3983SOL    HW212849   3.345   6.165   4.012
 3984SOL     OW12850   1.722   6.686   1.580
 3984SOL    HW112851   1.795   6.693   1.512
 3984SOL    HW212852   1.683   6.594   1.578
 3985SOL     OW12853   1.764   3.296   1.305
 3985SOL    HW112854   1.798   3.254   1.221
 3985SOL    HW212855   1.730   3.388   1.284
 3986SOL     OW12856   0.854   2.652   2.217
 3986SOL    HW112857   0.926   2.595   2.258
 3986SOL    HW212858   0.839   2.623   2.123
 3987SOL     OW12859   2.723   4.690   6.755
 3987SOL    HW112860   2.709   4.773   6.810
 3987SOL    HW212861   2.734   4.611   6.815
 3988SOL     OW12862   3.658   2.321   0.606
 3988SOL    HW112863   3.722   2.353   0.535
 3988SOL    HW212864   3.616   2.399   0.651
 3989SOL     OW12865   4.533   6.998   6.283
 3989SOL    HW112866   4.569   6.908   6.257
 3989SOL    HW212867   4.501   6.994   6.378
 3990SOL     OW12868   1.108   2.893   3.683
 3990SOL    HW112869   1.120   2.956   3.761
 3990SOL    HW212870   1.162   2.927   3.606
 3991SOL     OW12871   0.370   1.850   4.100
 3991SOL    HW112872   0.441   1.875   4.034
 3991SOL    HW212873   0.402   1.871   4.192
 3992SOL     OW12874   4.325   3.844   6.555
 3992SOL    HW112875   4.367   3.902   6.625
 3992SOL    HW212876   4.282   3.765   6.600
 3993SOL     OW12877   2.562   2.397   2.728
 3993SOL    HW112878   2.545   2.495   2.741
 3993SOL    HW212879   2.549   2.349   2.815
 3994SOL     OW12880   2.262   2.462   3.180
 3994SOL    HW112881   2.285   2.374   3.223
 3994SOL    HW212882   2.182   2.501   3.225
 3995SOL     OW12883   1.907   3.922   2.497
 3995SOL    HW112884   1.988   3.920   2.556
 3995SOL    HW212885   1.859   3.835   2.504
 3996SOL     OW12886   5.837   0.363   3.464
 3996SOL    HW112887   5.856   0.420   3.384
 3996SOL    HW212888   5.820   0.421   3.544
 3997SOL     OW12889   5.604   3.658   2.434
 3997SOL    HW112890   5.557   3.672   2.521
 3997SOL    HW212891   5.545   3.686   2.359
 3998SOL     OW12892   6.368   1.933   2.665
 3998SOL    HW112893   6.434   1.883   2.609
 3998SOL    HW212894   6.381   2.031   2.652
 3999SOL     OW12895   5.435   2.900   2.279
 3999SOL    HW112896   5.357   2.887   2.217
 3999SOL    HW212897   5.488   2.979   2.248
 4000SOL     OW12898   3.352   5.606   2.114
 4000SOL    HW112899   3.404   5.690   2.099
 4000SOL    HW212900   3.268   5.627   2.165
 4001SOL     OW12901   2.162   4.127   5.217
 4001SOL    HW112902   2.233   4.171   5.273
 4001SOL    HW212903   2.206   4.074   5.144
 4002SOL     OW12904   3.588   3.142   3.829
 4002SOL    HW112905   3.566   3.171   3.923
 4002SOL    HW212906   3.654   3.067   3.832
 4003SOL     OW12907   2.355   0.300   5.225
 4003SOL    HW112908   2.267   0.289   5.272
 4003SOL    HW212909   2.361   0.392   5.187
 4004SOL     OW12910   0.469   3.724   3.358
 4004SOL    HW112911   0.548   3.748   3.413
 4004SOL    HW212912   0.402   3.798   3.361
 4005SOL     OW12913   4.677   3.660   1.238
 4005SOL    HW112914   4.608   3.588   1.226
 4005SOL    HW212915   4.700   3.669   1.335
 4006SOL     OW12916   5.248   4.974   3.390
 4006SOL    HW112917   5.249   5.042   3.316
 4006SOL    HW212918   5.154   4.958   3.419
 4007SOL     OW12919   6.778   1.339   2.518
 4007SOL    HW112920   6.693   1.329   2.572
 4007SOL    HW212921   6.762   1.402   2.442
 4008SOL     OW12922   1.921   0.274   1.003
 4008SOL    HW112923   2.012   0.297   1.037
 4008SOL    HW212924   1.861   0.354   1.009
 4009SOL     OW12925   3.806   2.114   1.074
 4009SOL    HW112926   3.874   2.175   1.035
 4009SOL    HW212927   3.768   2.155   1.157
 4010SOL     OW12928   2.568   5.484   1.742
 4010SOL    HW112929   2.532   5.395   1.771
 4010SOL    HW212930   2.571   5.488   1.643
 4011SOL     OW12931   6.117   5.946   0.285
 4011SOL    HW112932   6.171   6.001   0.221
 4011SOL    HW212933   6.074   6.006   0.352
 4012SOL     OW12934   3.797   0.048   2.419
 4012SOL    HW112935   3.711   0.038   2.369
 4012SOL    HW212936   3.799   7.006   2.494
 4013SOL     OW12937   1.202   0.714   7.010
 4013SOL    HW112938   1.180   0.803   6.968
 4013SOL    HW212939   1.255   0.729   0.070
 4014SOL     OW12940   2.660   5.418   3.763
 4014SOL    HW112941   2.615   5.508   3.764
 4014SOL    HW212942   2.592   5.347   3.747
 4015SOL     OW12943   4.130   5.442   6.631
 4015SOL    HW112944   4.040   5.485   6.621
 4015SOL    HW212945   4.189   5.502   6.686
 4016SOL     OW12946   3.960   5.849   6.029
 4016SOL    HW112947   4.043   5.904   6.016
 4016SOL    HW212948   3.938   5.843   6.126
 4017SOL     OW12949   1.265   5.127   5.975
 4017SOL    HW112950   1.236   5.191   5.904
 4017SOL    HW212951   1.269   5.034   5.938
 4018SOL     OW12952   4.392   6.208   2.089
 4018SOL    HW112953   4.378   6.303   2.058
 4018SOL    HW212954   4.319   6.150   2.052
 4019SOL     OW12955   5.014   3.162   3.017
 4019SOL    HW112956   5.066   3.234   2.971
 4019SOL    HW212957   4.928   3.147   2.970
 4020SOL     OW12958   6.633   4.665   5.157
 4020SOL    HW112959   6.564   4.661   5.229
 4020SOL    HW212960   6.724   4.658   5.198
 4021SOL     OW12961   3.318   3.481   5.596
 4021SOL    HW112962   3.386   3.440   5.656
 4021SOL    HW212963   3.358   3.558   5.547
 4022SOL     OW12964   2.386   0.503   0.433
 4022SOL    HW112965   2.431   0.434   0.490
 4022SOL    HW212966   2.427   0.593   0.450
 4023SOL     OW12967   0.115   2.830   5.317
 4023SOL    HW112968   0.147   2.800   5.407
 4023SOL    HW212969   0.034   2.778   5.291
 4024SOL     OW12970   0.875   4.793   3.623
 4024SOL    HW112971   0.868   4.781   3.523
 4024SOL    HW212972   0.933   4.721   3.661
 4025SOL     OW12973   1.127   6.085   3.402
 4025SOL    HW112974   1.178   6.155   3.352
 4025SOL    HW212975   1.107   6.009   3.340
 4026SOL     OW12976   6.877   6.163   4.047
 4026SOL    HW112977   6.790   6.119   4.025
 4026SOL    HW212978   6.899   6.147   4.143
 4027SOL     OW12979   2.440   3.495   5.964
 4027SOL    HW112980   2.442   3.531   5.870
 4027SOL    HW212981   2.509   3.423   5.973
 4028SOL     OW12982   4.758   1.602   2.574
 4028SOL    HW112983   4.818   1.521   2.571
 4028SOL    HW212984   4.767   1.646   2.663
 4029SOL     OW12985   2.762   4.521   6.544
 4029SOL    HW112986   2.753   4.590   6.616
 4029SOL    HW212987   2.730   4.560   6.457
 4030SOL     OW12988   6.871   0.808   2.280
 4030SOL    HW112989   6.794   0.744   2.274
 4030SOL    HW212990   6.945   0.777   2.219
 4031SOL     OW12991   5.554   0.187   1.358
 4031SOL    HW112992   5.492   0.255   1.319
 4031SOL    HW212993   5.505   0.101   1.372
 4032SOL     OW12994   6.004   6.858   1.363
 4032SOL    HW112995   6.005   6.903   1.273
 4032SOL    HW212996   6.098   6.836   1.390
 4033SOL     OW12997   3.253   2.104   2.712
 4033SOL    HW112998   3.234   2.088   2.615
 4033SOL    HW212999   3.350   2.125   2.724
 4034SOL     OW13000   0.369   3.157   4.920
 4034SOL    HW113001   0.384   3.072   4.869
 4034SOL    HW213002   0.452   3.213   4.918
 4035SOL     OW13003   6.550   2.356   1.192
 4035SOL    HW113004   6.475   2.291   1.183
 4035SOL    HW213005   6.592   2.346   1.283
 4036SOL     OW13006   3.310   5.366   3.638
 4036SOL    HW113007   3.280   5.461   3.630
 4036SOL    HW213008   3.244   5.307   3.592
 4037SOL     OW13009   2.207   1.303   5.466
 4037SOL    HW113010   2.216   1.393   5.423
 4037SOL    HW213011   2.224   1.232   5.398
 4038SOL     OW13012   3.681   4.054   5.912
 4038SOL    HW113013   3.752   4.050   5.983
 4038SOL    HW213014   3.717   4.018   5.826
 4039SOL     OW13015   5.425   4.534   1.608
 4039SOL    HW113016   5.478   4.592   1.669
 4039SOL    HW213017   5.342   4.503   1.655
 4040SOL     OW13018   3.933   5.616   5.629
 4040SOL    HW113019   3.933   5.557   5.548
 4040SOL    HW213020   4.005   5.685   5.620
 4041SOL     OW13021   2.112   6.818   1.382
 4041SOL    HW113022   2.106   6.900   1.326
 4041SOL    HW213023   2.203   6.811   1.423
 4042SOL     OW13024   6.099   0.318   2.892
 4042SOL    HW113025   6.038   0.380   2.843
 4042SOL    HW213026   6.170   0.371   2.938
 4043SOL     OW13027   5.656   3.788   6.492
 4043SOL    HW113028   5.618   3.855   6.427
 4043SOL    HW213029   5.640   3.820   6.586
 4044SOL     OW13030   4.022   4.902   2.926
 4044SOL    HW113031   4.117   4.909   2.896
 4044SOL    HW213032   4.010   4.952   3.012
 4045SOL     OW13033   4.848   6.811   6.124
 4045SOL    HW113034   4.772   6.784   6.184
 4045SOL    HW213035   4.906   6.877   6.171
 4046SOL     OW13036   0.814   1.777   3.182
 4046SOL    HW113037   0.884   1.820   3.239
 4046SOL    HW213038   0.727   1.826   3.195
 4047SOL     OW13039   2.759   2.990   6.574
 4047SOL    HW113040   2.782   2.919   6.641
 4047SOL    HW213041   2.673   3.033   6.600
 4048SOL     OW13042   4.815   0.585   2.175
 4048SOL    HW113043   4.900   0.622   2.214
 4048SOL    HW213044   4.769   0.656   2.121
 4049SOL     OW13045   3.679   5.898   6.835
 4049SOL    HW113046   3.607   5.861   6.893
 4049SOL    HW213047   3.757   5.925   6.891
 4050SOL     OW13048   0.781   6.105   2.432
 4050SOL    HW113049   0.716   6.158   2.486
 4050SOL    HW213050   0.737   6.078   2.346
 4051SOL     OW13051   5.272   0.895   6.199
 4051SOL    HW113052   5.369   0.910   6.179
 4051SOL    HW213053   5.219   0.973   6.165
 4052SOL     OW13054   6.429   1.676   2.897
 4052SOL    HW113055   6.418   1.766   2.939
 4052SOL    HW213056   6.493   1.683   2.821
 4053SOL     OW13057   1.124   5.430   4.679
 4053SOL    HW113058   1.178   5.346   4.680
 4053SOL    HW213059   1.110   5.463   4.772
 4054SOL     OW13060   4.386   4.077   1.269
 4054SOL    HW113061   4.324   4.104   1.195
 4054SOL    HW213062   4.442   4.155   1.296
 4055SOL     OW13063   1.575   3.774   2.070
 4055SOL    HW113064   1.532   3.696   2.114
 4055SOL    HW213065   1.508   3.847   2.057
 4056SOL     OW13066   5.366   3.859   0.925
 4056SOL    HW113067   5.414   3.823   1.004
 4056SOL    HW213068   5.269   3.871   0.947
 4057SOL     OW13069   6.650   3.191   6.461
 4057SOL    HW113070   6.564   3.191   6.410
 4057SOL    HW213071   6.638   3.138   6.546
 4058SOL     OW13072   2.360   5.511   4.924
 4058SOL    HW113073   2.377   5.610   4.918
 4058SOL    HW213074   2.447   5.463   4.933
 4059SOL     OW13075   1.002   2.544   4.003
 4059SOL    HW113076   0.930   2.598   4.048
 4059SOL    HW213077   1.063   2.506   4.072
 4060SOL     OW13078   6.651   5.809   4.774
 4060SOL    HW113079   6.688   5.739   4.834
 4060SOL    HW213080   6.587   5.867   4.826
 4061SOL     OW13081   2.490   5.233   1.834
 4061SOL    HW113082   2.476   5.135   1.825
 4061SOL    HW213083   2.535   5.252   1.922
 4062SOL     OW13084   2.099   1.459   1.876
 4062SOL    HW113085   2.079   1.374   1.827
 4062SOL    HW213086   2.067   1.537   1.821
 4063SOL     OW13087   5.682   0.048   1.115
 4063SOL    HW113088   5.582   0.047   1.122
 4063SOL    HW213089   5.718   0.127   1.165
 4064SOL     OW13090   1.955   2.117   4.639
 4064SOL    HW113091   1.861   2.120   4.605
 4064SOL    HW213092   1.966   2.037   4.698
 4065SOL     OW13093   1.444   6.804   0.256
 4065SOL    HW113094   1.526   6.757   0.289
 4065SOL    HW213095   1.443   6.898   0.291
 4066SOL     OW13096   6.468   4.087   2.687
 4066SOL    HW113097   6.427   4.178   2.677
 4066SOL    HW213098   6.439   4.029   2.611
 4067SOL     OW13099   6.083   3.879   2.554
 4067SOL    HW113100   6.057   3.974   2.538
 4067SOL    HW213101   6.015   3.818   2.513
 4068SOL     OW13102   1.644   3.024   4.614
 4068SOL    HW113103   1.738   3.031   4.649
 4068SOL    HW213104   1.637   2.945   4.554
 4069SOL     OW13105   3.653   6.555   6.771
 4069SOL    HW113106   3.666   6.539   6.673
 4069SOL    HW213107   3.556   6.544   6.795
 4070SOL     OW13108   1.289   2.885   2.996
 4070SOL    HW113109   1.261   2.950   2.925
 4070SOL    HW213110   1.218   2.881   3.066
 4071SOL     OW13111   1.123   0.476   3.936
 4071SOL    HW113112   1.189   0.550   3.954
 4071SOL    HW213113   1.087   0.485   3.843
 4072SOL     OW13114   1.347   5.121   4.303
 4072SOL    HW113115   1.384   5.163   4.220
 4072SOL    HW213116   1.288   5.187   4.350
 4073SOL     OW13117   2.318   5.333   0.159
 4073SOL    HW113118   2.309   5.402   0.087
 4073SOL    HW213119   2.371   5.256   0.125
 4074SOL     OW13120   1.229   4.902   1.687
 4074SOL    HW113121   1.272   4.992   1.679
 4074SOL    HW213122   1.163   4.891   1.614
 4075SOL     OW13123   5.258   1.568   0.739
 4075SOL    HW113124   5.235   1.621   0.820
 4075SOL    HW213125   5.301   1.482   0.767
 4076SOL     OW13126   3.569   3.250   5.325
 4076SOL    HW113127   3.471   3.257   5.345
 4076SOL    HW213128   3.619   3.315   5.383
 4077SOL     OW13129   4.424   1.367   1.381
 4077SOL    HW113130   4.344   1.426   1.397
 4077SOL    HW213131   4.507   1.416   1.406
 4078SOL     OW13132   3.027   4.904   2.699
 4078SOL    HW113133   3.031   4.939   2.605
 4078SOL    HW213134   2.941   4.933   2.742
 4079SOL     OW13135   1.710   2.031   4.132
 4079SOL    HW113136   1.709   2.131   4.131
 4079SOL    HW213137   1.802   1.999   4.108
 4080SOL     OW13138   5.095   2.194   5.300
 4080SOL    HW113139   5.033   2.235   5.233
 4080SOL    HW213140   5.180   2.168   5.254
 4081SOL     OW13141   1.968   2.964   4.138
 4081SOL    HW113142   1.985   2.970   4.040
 4081SOL    HW213143   1.925   3.048   4.170
 4082SOL     OW13144   1.291   3.348   1.123
 4082SOL    HW113145   1.243   3.268   1.088
 4082SOL    HW213146   1.233   3.429   1.111
 4083SOL     OW13147   6.013   2.859   3.484
 4083SOL    HW113148   5.924   2.877   3.527
 4083SOL    HW213149   6.050   2.773   3.518
 4084SOL     OW13150   6.203   1.931   3.781
 4084SOL    HW113151   6.186   2.020   3.739
 4084SOL    HW213152   6.171   1.859   3.719
 4085SOL     OW13153   4.184   6.312   0.770
 4085SOL    HW113154   4.115   6.325   0.699
 4085SOL    HW213155   4.256   6.381   0.759
 4086SOL     OW13156   1.919   5.203   1.431
 4086SOL    HW113157   1.974   5.177   1.511
 4086SOL    HW213158   1.887   5.120   1.385
 4087SOL     OW13159   2.385   2.646   3.028
 4087SOL    HW113160   2.338   2.593   3.097
 4087SOL    HW213161   2.415   2.733   3.067
 4088SOL     OW13162   6.656   1.949   1.362
 4088SOL    HW113163   6.707   2.014   1.306
 4088SOL    HW213164   6.641   1.865   1.311
 4089SOL     OW13165   0.590   6.856   3.248
 4089SOL    HW113166   0.518   6.890   3.308
 4089SOL    HW213167   0.628   6.772   3.286
 4090SOL     OW13168   2.761   4.322   6.002
 4090SOL    HW113169   2.771   4.371   6.089
 4090SOL    HW213170   2.848   4.322   5.954
 4091SOL     OW13171   5.543   6.399   0.095
 4091SOL    HW113172   5.623   6.457   0.083
 4091SOL    HW213173   5.531   6.379   0.193
 4092SOL     OW13174   6.887   2.710   5.205
 4092SOL    HW113175   6.863   2.661   5.120
 4092SOL    HW213176   6.838   2.797   5.208
 4093SOL     OW13177   4.775   0.395   3.821
 4093SOL    HW113178   4.710   0.331   3.780
 4093SOL    HW213179   4.830   0.437   3.749
 4094SOL     OW13180   2.052   4.686   5.323
 4094SOL    HW113181   1.970   4.630   5.331
 4094SOL    HW213182   2.133   4.627   5.318
 4095SOL     OW13183   1.391   3.691   5.981
 4095SOL    HW113184   1.370   3.599   6.016
 4095SOL    HW213185   1.308   3.732   5.942
 4096SOL     OW13186   4.635   5.738   1.156
 4096SOL    HW113187   4.720   5.693   1.130
 4096SOL    HW213188   4.653   5.805   1.228
 4097SOL     OW13189   2.977   4.244   5.838
 4097SOL    HW113190   2.902   4.201   5.787
 4097SOL    HW213191   3.043   4.174   5.864
 4098SOL     OW13192   0.392   2.785   2.568
 4098SOL    HW113193   0.344   2.870   2.546
 4098SOL    HW213194   0.478   2.806   2.614
 4099SOL     OW13195   3.013   5.258   2.023
 4099SOL    HW113196   2.939   5.315   1.987
 4099SOL    HW213197   3.099   5.309   2.022
 4100SOL     OW13198   5.110   5.785   4.237
 4100SOL    HW113199   5.201   5.774   4.197
 4100SOL    HW213200   5.078   5.698   4.275
 4101SOL     OW13201   5.688   1.379   0.203
 4101SOL    HW113202   5.648   1.318   0.272
 4101SOL    HW213203   5.627   1.385   0.124
 4102SOL     OW13204   6.456   0.257   1.357
 4102SOL    HW113205   6.529   0.305   1.406
 4102SOL    HW213206   6.478   0.255   1.260
 4103SOL     OW13207   0.651   0.989   1.874
 4103SOL    HW113208   0.577   1.056   1.869
 4103SOL    HW213209   0.739   1.036   1.870
 4104SOL     OW13210   1.602   4.354   2.383
 4104SOL    HW113211   1.677   4.392   2.329
 4104SOL    HW213212   1.629   4.264   2.419
 4105SOL     OW13213   3.964   5.981   1.129
 4105SOL    HW113214   4.012   6.061   1.092
 4105SOL    HW213215   3.909   5.938   1.058
 4106SOL     OW13216   0.126   3.833   4.837
 4106SOL    HW113217   0.081   3.921   4.825
 4106SOL    HW213218   0.170   3.829   4.926
 4107SOL     OW13219   0.701   6.215   0.787
 4107SOL    HW113220   0.725   6.238   0.881
 4107SOL    HW213221   0.751   6.276   0.724
 4108SOL     OW13222   6.655   4.976   6.345
 4108SOL    HW113223   6.643   5.049   6.412
 4108SOL    HW213224   6.720   5.006   6.275
 4109SOL     OW13225   4.171   6.468   4.458
 4109SOL    HW113226   4.217   6.511   4.380
 4109SOL    HW213227   4.200   6.514   4.542
 4110SOL     OW13228   4.064   4.038   6.726
 4110SOL    HW113229   4.065   3.941   6.751
 4110SOL    HW213230   4.125   4.052   6.647
 4111SOL     OW13231   3.658   2.985   0.544
 4111SOL    HW113232   3.618   3.071   0.513
 4111SOL    HW213233   3.586   2.928   0.586
 4112SOL     OW13234   5.229   1.535   5.463
 4112SOL    HW113235   5.145   1.484   5.482
 4112SOL    HW213236   5.286   1.536   5.545
 4113SOL     OW13237   3.871   5.660   4.970
 4113SOL    HW113238   3.965   5.637   4.995
 4113SOL    HW213239   3.861   5.653   4.870
 4114SOL     OW13240   3.145   2.152   3.677
 4114SOL    HW113241   3.086   2.076   3.706
 4114SOL    HW213242   3.158   2.148   3.578
 4115SOL     OW13243   5.272   6.023   2.568
 4115SOL    HW113244   5.216   6.089   2.618
 4115SOL    HW213245   5.306   5.954   2.631
 4116SOL     OW13246   3.993   2.007   1.461
 4116SOL    HW113247   4.049   2.090   1.463
 4116SOL    HW213248   4.047   1.931   1.427
 4117SOL     OW13249   0.589   5.434   1.547
 4117SOL    HW113250   0.670   5.415   1.493
 4117SOL    HW213251   0.516   5.468   1.487
 4118SOL     OW13252   1.369   6.548   0.901
 4118SOL    HW113253   1.347   6.451   0.897
 4118SOL    HW213254   1.369   6.586   0.809
 4119SOL     OW13255   4.229   1.415   4.376
 4119SOL    HW113256   4.252   1.359   4.296
 4119SOL    HW213257   4.130   1.411   4.391
 4120SOL     OW13258   4.562   6.862   1.941
 4120SOL    HW113259   4.553   6.919   1.860
 4120SOL    HW213260   4.655   6.824   1.945
 4121SOL     OW13261   6.363   1.717   4.590
 4121SOL    HW113262   6.274   1.720   4.635
 4121SOL    HW213263   6.351   1.686   4.495
 4122SOL     OW13264   0.800   6.425   5.250
 4122SOL    HW113265   0.731   6.380   5.306
 4122SOL    HW213266   0.757   6.494   5.191
 4123SOL     OW13267   5.674   4.506   6.014
 4123SOL    HW113268   5.771   4.525   6.028
 4123SOL    HW213269   5.624   4.525   6.098
 4124SOL     OW13270   5.812   5.739   4.738
 4124SOL    HW113271   5.877   5.706   4.670
 4124SOL    HW213272   5.739   5.672   4.750
 4125SOL     OW13273   4.828   0.638   1.445
 4125SOL    HW113274   4.872   0.671   1.528
 4125SOL    HW213275   4.867   0.549   1.420
 4126SOL     OW13276   1.285   4.025   4.241
 4126SOL    HW113277   1.308   4.121   4.249
 4126SOL    HW213278   1.196   4.015   4.196
 4127SOL     OW13279   5.295   3.575   4.024
 4127SOL    HW113280   5.245   3.562   3.939
 4127SOL    HW213281   5.260   3.655   4.072
 4128SOL     OW13282   2.022   4.192   2.468
 4128SOL    HW113283   2.108   4.145   2.488
 4128SOL    HW213284   1.947   4.125   2.468
 4129SOL     OW13285   5.197   1.937   6.346
 4129SOL    HW113286   5.243   1.882   6.416
 4129SOL    HW213287   5.266   1.992   6.297
 4130SOL     OW13288   6.992   3.657   5.443
 4130SOL    HW113289   7.010   3.566   5.405
 4130SOL    HW213290   6.913   3.653   5.504
 4131SOL     OW13291   0.807   5.680   4.142
 4131SOL    HW113292   0.796   5.597   4.087
 4131SOL    HW213293   0.902   5.686   4.174
 4132SOL     OW13294   5.901   3.656   3.802
 4132SOL    HW113295   5.825   3.708   3.762
 4132SOL    HW213296   5.866   3.597   3.874
 4133SOL     OW13297   3.071   0.059   0.721
 4133SOL    HW113298   3.085   0.149   0.763
 4133SOL    HW213299   2.974   0.046   0.701
 4134SOL     OW13300   1.446   2.108   0.336
 4134SOL    HW113301   1.527   2.060   0.371
 4134SOL    HW213302   1.464   2.137   0.242
 4135SOL     OW13303   2.128   0.954   2.217
 4135SOL    HW113304   2.071   1.036   2.224
 4135SOL    HW213305   2.069   0.873   2.221
 4136SOL     OW13306   0.393   2.226   4.033
 4136SOL    HW113307   0.460   2.166   4.077
 4136SOL    HW213308   0.353   2.180   3.954
 4137SOL     OW13309   2.674   3.853   0.737
 4137SOL    HW113310   2.732   3.780   0.775
 4137SOL    HW213311   2.613   3.815   0.668
 4138SOL     OW13312   3.635   4.993   4.026
 4138SOL    HW113313   3.639   5.091   4.006
 4138SOL    HW213314   3.725   4.952   4.011
 4139SOL     OW13315   2.411   2.473   6.054
 4139SOL    HW113316   2.423   2.445   5.959
 4139SOL    HW213317   2.331   2.426   6.093
 4140SOL     OW13318   3.644   0.609   5.255
 4140SOL    HW113319   3.725   0.644   5.208
 4140SOL    HW213320   3.573   0.587   5.188
 4141SOL     OW13321   5.054   4.823   1.543
 4141SOL    HW113322   5.077   4.813   1.640
 4141SOL    HW213323   5.019   4.915   1.526
 4142SOL     OW13324   6.490   5.458   1.095
 4142SOL    HW113325   6.472   5.373   1.045
 4142SOL    HW213326   6.405   5.508   1.108
 4143SOL     OW13327   6.915   3.329   0.307
 4143SOL    HW113328   6.902   3.257   0.240
 4143SOL    HW213329   6.977   3.297   0.379
 4144SOL     OW13330   5.704   1.906   0.717
 4144SOL    HW113331   5.763   1.932   0.641
 4144SOL    HW213332   5.652   1.986   0.748
 4145SOL     OW13333   6.776   6.486   1.819
 4145SOL    HW113334   6.713   6.412   1.799
 4145SOL    HW213335   6.801   6.484   1.916
 4146SOL     OW13336   6.058   0.463   5.887
 4146SOL    HW113337   6.131   0.439   5.822
 4146SOL    HW213338   5.986   0.394   5.882
 4147SOL     OW13339   3.526   2.013   5.554
 4147SOL    HW113340   3.561   2.107   5.552
 4147SOL    HW213341   3.484   1.996   5.643
 4148SOL     OW13342   0.235   0.409   3.984
 4148SOL    HW113343   0.305   0.478   3.969
 4148SOL    HW213344   0.164   0.445   4.045
 4149SOL     OW13345   0.462   3.208   6.955
 4149SOL    HW113346   0.402   3.226   0.009
 4149SOL    HW213347   0.432   3.262   6.877
 4150SOL     OW13348   5.991   0.693   6.039
 4150SOL    HW113349   6.050   0.645   5.974
 4150SOL    HW213350   6.034   0.779   6.065
 4151SOL     OW13351   5.507   5.790   6.897
 4151SOL    HW113352   5.590   5.846   6.888
 4151SOL    HW213353   5.439   5.840   6.952
 4152SOL     OW13354   3.676   5.248   2.129
 4152SOL    HW113355   3.639   5.166   2.086
 4152SOL    HW213356   3.764   5.227   2.171
 4153SOL     OW13357   5.399   5.348   5.547
 4153SOL    HW113358   5.386   5.446   5.555
 4153SOL    HW213359   5.332   5.310   5.483
 4154SOL     OW13360   6.631   3.926   5.245
 4154SOL    HW113361   6.612   3.993   5.317
 4154SOL    HW213362   6.612   3.834   5.279
 4155SOL     OW13363   0.221   3.400   3.234
 4155SOL    HW113364   0.246   3.478   3.177
 4155SOL    HW213365   0.189   3.325   3.176
 4156SOL     OW13366   5.823   0.286   5.078
 4156SOL    HW113367   5.820   0.248   4.986
 4156SOL    HW213368   5.894   0.239   5.132
 4157SOL     OW13369   3.868   0.448   3.952
 4157SOL    HW113370   3.774   0.481   3.961
 4157SOL    HW213371   3.889   0.435   3.855
 4158SOL     OW13372   1.028   5.137   4.069
 4158SOL    HW113373   1.095   5.210   4.077
 4158SOL    HW213374   1.024   5.105   3.974
 4159SOL     OW13375   1.897   3.204   3.712
 4159SOL    HW113376   1.977   3.214   3.653
 4159SOL    HW213377   1.922   3.228   3.806
 4160SOL     OW13378   6.136   0.389   1.258
 4160SOL    HW113379   6.230   0.357   1.270
 4160SOL    HW213380   6.126   0.430   1.167
 4161SOL     OW13381   1.869   0.695   6.419
 4161SOL    HW113382   1.934   0.737   6.357
 4161SOL    HW213383   1.801   0.644   6.367
 4162SOL     OW13384   6.080   0.167   4.970
 4162SOL    HW113385   6.071   0.265   4.955
 4162SOL    HW213386   6.141   0.128   4.902
 4163SOL     OW13387   6.089   1.454   3.074
 4163SOL    HW113388   6.056   1.417   3.162
 4163SOL    HW213389   6.043   1.406   2.999
 4164SOL     OW13390   1.602   0.620   6.897
 4164SOL    HW113391   1.609   0.655   6.804
 4164SOL    HW213392   1.585   0.522   6.895
 4165SOL     OW13393   4.469   6.455   1.395
 4165SOL    HW113394   4.410   6.476   1.473
 4165SOL    HW213395   4.425   6.487   1.310
 4166SOL     OW13396   3.891   2.451   1.049
 4166SOL    HW113397   3.866   2.409   1.136
 4166SOL    HW213398   3.919   2.546   1.065
 4167SOL     OW13399   2.391   2.450   1.001
 4167SOL    HW113400   2.458   2.523   1.010
 4167SOL    HW213401   2.351   2.451   0.910
 4168SOL     OW13402   0.065   5.194   1.039
 4168SOL    HW113403   0.107   5.217   1.127
 4168SOL    HW213404   0.093   5.261   0.971
 4169SOL     OW13405   5.159   3.933   4.458
 4169SOL    HW113406   5.213   3.990   4.520
 4169SOL    HW213407   5.062   3.941   4.482
 4170SOL     OW13408   3.961   2.636   5.636
 4170SOL    HW113409   3.980   2.640   5.538
 4170SOL    HW213410   4.032   2.685   5.686
 4171SOL     OW13411   4.754   4.147   1.063
 4171SOL    HW113412   4.696   4.220   1.029
 4171SOL    HW213413   4.710   4.059   1.049
 4172SOL     OW13414   6.919   2.547   6.992
 4172SOL    HW113415   6.925   2.484   6.915
 4172SOL    HW213416   7.011   2.580   7.014
 4173SOL     OW13417   5.502   3.193   5.113
 4173SOL    HW113418   5.582   3.247   5.088
 4173SOL    HW213419   5.506   3.173   5.211
 4174SOL     OW13420   4.880   1.009   4.018
 4174SOL    HW113421   4.890   1.064   4.101
 4174SOL    HW213422   4.946   0.934   4.020
 4175SOL     OW13423   3.373   0.157   4.055
 4175SOL    HW113424   3.405   0.246   4.021
 4175SOL    HW213425   3.276   0.163   4.078
 4176SOL     OW13426   4.163   6.981   2.544
 4176SOL    HW113427   4.143   0.043   2.592
 4176SOL    HW213428   4.215   6.921   2.604
 4177SOL     OW13429   0.553   5.007   5.009
 4177SOL    HW113430   0.568   5.094   4.961
 4177SOL    HW213431   0.520   5.025   5.102
 4178SOL     OW13432   3.337   0.940   5.785
 4178SOL    HW113433   3.388   0.865   5.825
 4178SOL    HW213434   3.345   0.937   5.685
 4179SOL     OW13435   6.227   3.032   4.168
 4179SOL    HW113436   6.211   2.992   4.258
 4179SOL    HW213437   6.261   2.962   4.106
 4180SOL     OW13438   5.581   4.423   2.172
 4180SOL    HW113439   5.523   4.439   2.253
 4180SOL    HW213440   5.662   4.480   2.178
 4181SOL     OW13441   1.160   2.161   6.146
 4181SOL    HW113442   1.154   2.069   6.107
 4181SOL    HW213443   1.244   2.169   6.199
 4182SOL     OW13444   0.671   0.433   2.604
 4182SOL    HW113445   0.593   0.436   2.667
 4182SOL    HW213446   0.712   0.342   2.606
 4183SOL     OW13447   2.474   1.824   1.554
 4183SOL    HW113448   2.544   1.883   1.595
 4183SOL    HW213449   2.496   1.728   1.573
 4184SOL     OW13450   3.782   5.592   1.067
 4184SOL    HW113451   3.873   5.567   1.099
 4184SOL    HW213452   3.789   5.639   0.978
 4185SOL     OW13453   0.833   5.990   3.516
 4185SOL    HW113454   0.913   5.934   3.536
 4185SOL    HW213455   0.777   5.944   3.447
 4186SOL     OW13456   2.172   3.897   6.756
 4186SOL    HW113457   2.258   3.849   6.772
 4186SOL    HW213458   2.185   3.995   6.774
 4187SOL     OW13459   3.478   3.291   5.785
 4187SOL    HW113460   3.523   3.340   5.859
 4187SOL    HW213461   3.535   3.214   5.757
 4188SOL     OW13462   4.602   0.702   4.561
 4188SOL    HW113463   4.608   0.792   4.605
 4188SOL    HW213464   4.685   0.650   4.582
 4189SOL     OW13465   3.063   1.561   4.311
 4189SOL    HW113466   2.965   1.561   4.332
 4189SOL    HW213467   3.097   1.467   4.310
 4190SOL     OW13468   2.396   0.676   6.438
 4190SOL    HW113469   2.408   0.743   6.365
 4190SOL    HW213470   2.471   0.610   6.435
 4191SOL     OW13471   5.680   3.056   3.025
 4191SOL    HW113472   5.684   2.957   3.037
 4191SOL    HW213473   5.773   3.091   3.009
 4192SOL     OW13474   5.802   1.343   2.945
 4192SOL    HW113475   5.806   1.246   2.925
 4192SOL    HW213476   5.850   1.394   2.873
 4193SOL     OW13477   2.313   6.632   2.169
 4193SOL    HW113478   2.259   6.569   2.225
 4193SOL    HW213479   2.254   6.702   2.130
 4194SOL     OW13480   6.815   1.841   4.396
 4194SOL    HW113481   6.881   1.910   4.364
 4194SOL    HW213482   6.729   1.886   4.421
 4195SOL     OW13483   4.347   0.621   1.245
 4195SOL    HW113484   4.317   0.564   1.322
 4195SOL    HW213485   4.320   0.577   1.159
 4196SOL     OW13486   5.630   2.467   3.840
 4196SOL    HW113487   5.580   2.391   3.881
 4196SOL    HW213488   5.569   2.547   3.834
 4197SOL     OW13489   5.203   4.355   4.648
 4197SOL    HW113490   5.133   4.404   4.596
 4197SOL    HW213491   5.159   4.289   4.709
 4198SOL     OW13492   5.719   3.294   0.251
 4198SOL    HW113493   5.692   3.316   0.158
 4198SOL    HW213494   5.816   3.271   0.253
 4199SOL     OW13495   3.164   3.047   5.174
 4199SOL    HW113496   3.142   3.144   5.165
 4199SOL    HW213497   3.262   3.034   5.159
 4200SOL     OW13498   2.262   6.761   6.104
 4200SOL    HW113499   2.279   6.759   6.202
 4200SOL    HW213500   2.329   6.701   6.058
 4201SOL     OW13501   6.320   6.828   3.079
 4201SOL    HW113502   6.227   6.866   3.082
 4201SOL    HW213503   6.327   6.753   3.145
 4202SOL     OW13504   5.196   4.868   5.753
 4202SOL    HW113505   5.256   4.789   5.740
 4202SOL    HW213506   5.222   4.939   5.687
 4203SOL     OW13507   4.866   6.182   2.784
 4203SOL    HW113508   4.814   6.129   2.850
 4203SOL    HW213509   4.839   6.155   2.691
 4204SOL     OW13510   2.872   3.085   1.847
 4204SOL    HW113511   2.964   3.052   1.828
 4204SOL    HW213512   2.837   3.043   1.930
 4205SOL     OW13513   3.186   4.950   4.394
 4205SOL    HW113514   3.249   4.933   4.318
 4205SOL    HW213515   3.095   4.916   4.371
 4206SOL     OW13516   4.557   0.163   5.419
 4206SOL    HW113517   4.521   0.249   5.384
 4206SOL    HW213518   4.515   0.143   5.507
 4207SOL     OW13519   1.536   1.487   1.673
 4207SOL    HW113520   1.521   1.568   1.728
 4207SOL    HW213521   1.630   1.487   1.637
 4208SOL     OW13522   1.819   2.717   1.181
 4208SOL    HW113523   1.747   2.787   1.180
 4208SOL    HW213524   1.804   2.652   1.106
 4209SOL     OW13525   1.376   7.013   4.922
 4209SOL    HW113526   1.324   7.006   4.836
 4209SOL    HW213527   1.463   0.035   4.904
 4210SOL     OW13528   3.928   3.407   1.364
 4210SOL    HW113529   3.983   3.427   1.445
 4210SOL    HW213530   3.834   3.438   1.378
 4211SOL     OW13531   4.874   4.744   5.289
 4211SOL    HW113532   4.811   4.734   5.212
 4211SOL    HW213533   4.936   4.820   5.272
 4212SOL     OW13534   6.251   1.473   2.698
 4212SOL    HW113535   6.344   1.492   2.731
 4212SOL    HW213536   6.235   1.374   2.700
 4213SOL     OW13537   1.940   0.930   1.948
 4213SOL    HW113538   1.913   1.024   1.923
 4213SOL    HW213539   1.902   0.908   2.038
 4214SOL     OW13540   0.867   3.228   5.895
 4214SOL    HW113541   0.873   3.138   5.938
 4214SOL    HW213542   0.907   3.225   5.804
 4215SOL     OW13543   0.661   5.968   4.718
 4215SOL    HW113544   0.702   5.992   4.806
 4215SOL    HW213545   0.732   5.935   4.656
 4216SOL     OW13546   1.176   2.088   3.989
 4216SOL    HW113547   1.119   2.152   4.041
 4216SOL    HW213548   1.168   2.109   3.891
 4217SOL     OW13549   0.368   0.270   2.447
 4217SOL    HW113550   0.290   0.244   2.391
 4217SOL    HW213551   0.410   0.353   2.410
 4218SOL     OW13552   4.913   0.153   1.825
 4218SOL    HW113553   4.987   0.152   1.892
 4218SOL    HW213554   4.837   0.208   1.859
 4219SOL     OW13555   3.535   4.986   5.040
 4219SOL    HW113556   3.467   4.942   5.099
 4219SOL    HW213557   3.488   5.035   4.966
 4220SOL     OW13558   6.047   3.568   3.398
 4220SOL    HW113559   6.019   3.541   3.490
 4220SOL    HW213560   6.046   3.489   3.337
 4221SOL     OW13561   5.306   5.238   6.282
 4221SOL    HW113562   5.327   5.335   6.292
 4221SOL    HW213563   5.323   5.190   6.368
 4222SOL     OW13564   5.840   2.236   1.894
 4222SOL    HW113565   5.826   2.319   1.948
 4222SOL    HW213566   5.823   2.255   1.798
 4223SOL     OW13567   3.418   3.910   2.526
 4223SOL    HW113568   3.368   3.829   2.494
 4223SOL    HW213569   3.376   3.992   2.488
 4224SOL     OW13570   4.955   2.577   4.970
 4224SOL    HW113571   5.049   2.595   4.998
 4224SOL    HW213572   4.920   2.496   5.017
 4225SOL     OW13573   5.968   0.705   4.543
 4225SOL    HW113574   5.928   0.692   4.634
 4225SOL    HW213575   5.944   0.796   4.508
 4226SOL     OW13576   1.021   0.942   3.661
 4226SOL    HW113577   1.038   0.846   3.685
 4226SOL    HW213578   1.063   1.001   3.730
 4227SOL     OW13579   3.936   4.858   0.387
 4227SOL    HW113580   3.900   4.766   0.372
 4227SOL    HW213581   3.867   4.925   0.360
 4228SOL     OW13582   5.691   5.955   3.729
 4228SOL    HW113583   5.789   5.934   3.725
 4228SOL    HW213584   5.674   6.043   3.683
 4229SOL     OW13585   4.243   5.280   6.435
 4229SOL    HW113586   4.192   5.315   6.513
 4229SOL    HW213587   4.222   5.335   6.354
 4230SOL     OW13588   2.960   0.411   5.270
 4230SOL    HW113589   2.875   0.433   5.223
 4230SOL    HW213590   3.001   0.329   5.231
 4231SOL     OW13591   5.135   6.396   5.273
 4231SOL    HW113592   5.099   6.314   5.229
 4231SOL    HW213593   5.197   6.370   5.346
 4232SOL     OW13594   1.232   5.216   2.305
 4232SOL    HW113595   1.162   5.258   2.363
 4232SOL    HW213596   1.214   5.241   2.209
 4233SOL     OW13597   5.919   0.252   6.948
 4233SOL    HW113598   5.847   0.307   6.906
 4233SOL    HW213599   5.953   0.299   0.006
 4234SOL     OW13600   2.988   5.302   6.273
 4234SOL    HW113601   2.941   5.331   6.190
 4234SOL    HW213602   3.040   5.219   6.254
 4235SOL     OW13603   6.217   4.515   6.004
 4235SOL    HW113604   6.288   4.445   6.012
 4235SOL    HW213605   6.200   4.533   5.908
 4236SOL     OW13606   0.239   2.667   3.768
 4236SOL    HW113607   0.312   2.681   3.702
 4236SOL    HW213608   0.247   2.734   3.842
 4237SOL     OW13609   4.997   4.397   5.029
 4237SOL    HW113610   5.090   4.411   4.996
 4237SOL    HW213611   4.932   4.409   4.954
 4238SOL     OW13612   4.024   5.401   3.592
 4238SOL    HW113613   3.948   5.372   3.535
 4238SOL    HW213614   4.105   5.416   3.535
 4239SOL     OW13615   4.549   6.375   5.260
 4239SOL    HW113616   4.585   6.457   5.216
 4239SOL    HW213617   4.580   6.371   5.355
 4240SOL     OW13618   2.954   5.144   0.224
 4240SOL    HW113619   2.963   5.045   0.225
 4240SOL    HW213620   2.977   5.181   0.314
 4241SOL     OW13621   5.225   0.075   1.281
 4241SOL    HW113622   5.230   0.140   1.357
 4241SOL    HW213623   5.129   0.052   1.263
 4242SOL     OW13624   2.375   6.809   2.660
 4242SOL    HW113625   2.431   6.878   2.613
 4242SOL    HW213626   2.403   6.718   2.631
 4243SOL     OW13627   0.769   3.388   2.297
 4243SOL    HW113628   0.852   3.391   2.243
 4243SOL    HW213629   0.706   3.459   2.266
 4244SOL     OW13630   5.056   6.229   1.116
 4244SOL    HW113631   5.028   6.134   1.108
 4244SOL    HW213632   4.988   6.288   1.072
 4245SOL     OW13633   6.397   2.738   0.411
 4245SOL    HW113634   6.341   2.793   0.349
 4245SOL    HW213635   6.339   2.668   0.454
 4246SOL     OW13636   5.210   2.354   2.922
 4246SOL    HW113637   5.266   2.396   2.993
 4246SOL    HW213638   5.257   2.360   2.834
 4247SOL     OW13639   2.023   4.833   4.875
 4247SOL    HW113640   2.039   4.841   4.974
 4247SOL    HW213641   2.096   4.780   4.834
 4248SOL     OW13642   1.908   0.959   2.667
 4248SOL    HW113643   1.940   1.029   2.602
 4248SOL    HW213644   1.817   0.983   2.700
 4249SOL     OW13645   6.991   0.942   4.479
 4249SOL    HW113646   6.980   0.978   4.386
 4249SOL    HW213647   6.954   0.850   4.484
 4250SOL     OW13648   0.072   6.152   4.465
 4250SOL    HW113649   7.009   6.127   4.506
 4250SOL    HW213650   0.140   6.081   4.483
 4251SOL     OW13651   5.856   2.497   6.332
 4251SOL    HW113652   5.840   2.535   6.241
 4251SOL    HW213653   5.948   2.458   6.337
 4252SOL     OW13654   6.199   6.145   5.324
 4252SOL    HW113655   6.234   6.052   5.340
 4252SOL    HW213656   6.175   6.186   5.412
 4253SOL     OW13657   4.515   6.062   2.561
 4253SOL    HW113658   4.438   6.073   2.498
 4253SOL    HW213659   4.538   6.151   2.600
 4254SOL     OW13660   2.016   3.486   6.734
 4254SOL    HW113661   2.057   3.519   6.649
 4254SOL    HW213662   1.993   3.389   6.725
 4255SOL     OW13663   0.311   3.922   2.866
 4255SOL    HW113664   0.403   3.918   2.829
 4255SOL    HW213665   0.246   3.889   2.797
 4256SOL     OW13666   0.564   5.129   2.368
 4256SOL    HW113667   0.550   5.037   2.330
 4256SOL    HW213668   0.659   5.137   2.399
 4257SOL     OW13669   6.229   0.922   5.205
 4257SOL    HW113670   6.174   0.994   5.163
 4257SOL    HW213671   6.215   0.923   5.304
 4258SOL     OW13672   3.562   5.912   0.681
 4258SOL    HW113673   3.615   5.985   0.637
 4258SOL    HW213674   3.468   5.915   0.649
 4259SOL     OW13675   0.939   6.710   1.760
 4259SOL    HW113676   1.000   6.768   1.815
 4259SOL    HW213677   0.913   6.759   1.677
 4260SOL     OW13678   5.207   0.064   4.928
 4260SOL    HW113679   5.137   0.115   4.879
 4260SOL    HW213680   5.194   0.076   5.027
 4261SOL     OW13681   1.755   0.194   4.138
 4261SOL    HW113682   1.792   0.266   4.197
 4261SOL    HW213683   1.754   0.107   4.188
 4262SOL     OW13684   1.337   4.678   6.606
 4262SOL    HW113685   1.308   4.610   6.539
 4262SOL    HW213686   1.432   4.660   6.633
 4263SOL     OW13687   2.581   2.043   3.416
 4263SOL    HW113688   2.638   2.004   3.344
 4263SOL    HW213689   2.623   2.026   3.505
 4264SOL     OW13690   5.708   1.639   4.017
 4264SOL    HW113691   5.785   1.703   4.024
 4264SOL    HW213692   5.688   1.622   3.920
 4265SOL     OW13693   2.521   0.545   0.785
 4265SOL    HW113694   2.446   0.493   0.745
 4265SOL    HW213695   2.550   0.500   0.870
 4266SOL     OW13696   1.061   6.627   0.312
 4266SOL    HW113697   1.091   6.537   0.279
 4266SOL    HW213698   1.079   6.695   0.241
 4267SOL     OW13699   1.700   3.975   4.283
 4267SOL    HW113700   1.780   3.991   4.341
 4267SOL    HW213701   1.708   4.028   4.199
 4268SOL     OW13702   1.365   4.950   6.671
 4268SOL    HW113703   1.334   4.855   6.672
 4268SOL    HW213704   1.319   5.001   6.744
 4269SOL     OW13705   3.272   1.743   4.491
 4269SOL    HW113706   3.275   1.837   4.458
 4269SOL    HW213707   3.179   1.722   4.521
 4270SOL     OW13708   3.825   2.772   0.591
 4270SOL    HW113709   3.777   2.697   0.636
 4270SOL    HW213710   3.760   2.844   0.566
 4271SOL     OW13711   6.359   0.576   0.923
 4271SOL    HW113712   6.271   0.543   0.958
 4271SOL    HW213713   6.348   0.669   0.887
 4272SOL     OW13714   6.254   2.976   5.674
 4272SOL    HW113715   6.289   3.014   5.760
 4272SOL    HW213716   6.170   3.025   5.649
 4273SOL     OW13717   4.494   5.846   4.892
 4273SOL    HW113718   4.535   5.879   4.807
 4273SOL    HW213719   4.562   5.794   4.944
 4274SOL     OW13720   6.294   6.908   1.806
 4274SOL    HW113721   6.299   7.005   1.830
 4274SOL    HW213722   6.239   6.860   1.874
 4275SOL     OW13723   0.807   2.483   3.652
 4275SOL    HW113724   0.856   2.414   3.705
 4275SOL    HW213725   0.872   2.537   3.598
 4276SOL     OW13726   2.864   5.684   4.136
 4276SOL    HW113727   2.801   5.759   4.117
 4276SOL    HW213728   2.813   5.598   4.138
 4277SOL     OW13729   6.127   5.568   4.271
 4277SOL    HW113730   6.120   5.473   4.243
 4277SOL    HW213731   6.131   5.627   4.189
 4278SOL     OW13732   0.777   0.159   1.915
 4278SOL    HW113733   0.857   0.179   1.971
 4278SOL    HW213734   0.707   0.114   1.971
 4279SOL     OW13735   1.763   2.521   2.898
 4279SOL    HW113736   1.812   2.489   2.979
 4279SOL    HW213737   1.689   2.457   2.877
 4280SOL     OW13738   6.654   6.774   6.166
 4280SOL    HW113739   6.596   6.706   6.211
 4280SOL    HW213740   6.741   6.780   6.215
 4281SOL     OW13741   4.594   5.404   3.989
 4281SOL    HW113742   4.543   5.455   4.059
 4281SOL    HW213743   4.679   5.452   3.968
 4282SOL     OW13744   3.437   4.393   0.998
 4282SOL    HW113745   3.475   4.458   0.933
 4282SOL    HW213746   3.340   4.414   1.013
 4283SOL     OW13747   4.898   1.236   3.535
 4283SOL    HW113748   4.799   1.222   3.531
 4283SOL    HW213749   4.928   1.284   3.452
 4284SOL     OW13750   5.116   6.000   6.896
 4284SOL    HW113751   5.101   5.916   6.948
 4284SOL    HW213752   5.044   6.010   6.827
 4285SOL     OW13753   3.060   0.664   6.019
 4285SOL    HW113754   3.046   0.761   5.997
 4285SOL    HW213755   3.102   0.618   5.942
 4286SOL     OW13756   6.819   0.933   6.379
 4286SOL    HW113757   6.867   0.908   6.294
 4286SOL    HW213758   6.726   0.964   6.356
 4287SOL     OW13759   4.638   0.725   0.051
 4287SOL    HW113760   4.599   0.783   0.122
 4287SOL    HW213761   4.565   0.684   7.021
 4288SOL     OW13762   6.789   6.164   2.275
 4288SOL    HW113763   6.884   6.178   2.302
 4288SOL    HW213764   6.743   6.252   2.265
 4289SOL     OW13765   0.693   3.027   4.724
 4289SOL    HW113766   0.595   3.008   4.729
 4289SOL    HW213767   0.727   3.004   4.633
 4290SOL     OW13768   0.219   0.637   3.158
 4290SOL    HW113769   0.229   0.714   3.222
 4290SOL    HW213770   0.309   0.610   3.125
 4291SOL     OW13771   4.756   3.144   6.003
 4291SOL    HW113772   4.822   3.131   6.077
 4291SOL    HW213773   4.802   3.133   5.915
 4292SOL     OW13774   5.335   1.825   0.480
 4292SOL    HW113775   5.391   1.864   0.408
 4292SOL    HW213776   5.348   1.726   0.483
 4293SOL     OW13777   4.673   3.658   6.606
 4293SOL    HW113778   4.723   3.653   6.692
 4293SOL    HW213779   4.673   3.567   6.563
 4294SOL     OW13780   3.265   1.911   6.215
 4294SOL    HW113781   3.260   1.816   6.183
 4294SOL    HW213782   3.256   1.973   6.138
 4295SOL     OW13783   4.214   6.476   2.810
 4295SOL    HW113784   4.306   6.438   2.797
 4295SOL    HW213785   4.183   6.519   2.726
 4296SOL     OW13786   2.595   6.638   0.948
 4296SOL    HW113787   2.693   6.653   0.959
 4296SOL    HW213788   2.546   6.703   1.007
 4297SOL     OW13789   5.946   5.629   0.726
 4297SOL    HW113790   6.036   5.585   0.727
 4297SOL    HW213791   5.957   5.728   0.728
 4298SOL     OW13792   3.402   6.293   1.598
 4298SOL    HW113793   3.358   6.219   1.547
 4298SOL    HW213794   3.398   6.377   1.543
 4299SOL     OW13795   0.872   2.654   0.082
 4299SOL    HW113796   0.888   2.745   0.044
 4299SOL    HW213797   0.949   2.595   0.059
 4300SOL     OW13798   3.942   0.495   0.997
 4300SOL    HW113799   3.852   0.538   0.989
 4300SOL    HW213800   3.972   0.464   0.906
 4301SOL     OW13801   3.060   6.717   2.424
 4301SOL    HW113802   3.061   6.618   2.430
 4301SOL    HW213803   2.975   6.747   2.380
 4302SOL     OW13804   1.976   6.044   6.453
 4302SOL    HW113805   1.911   5.977   6.488
 4302SOL    HW213806   1.940   6.136   6.466
 4303SOL     OW13807   6.239   4.203   4.419
 4303SOL    HW113808   6.299   4.194   4.499
 4303SOL    HW213809   6.156   4.149   4.433
 4304SOL     OW13810   3.410   3.513   1.683
 4304SOL    HW113811   3.342   3.579   1.715
 4304SOL    HW213812   3.375   3.420   1.696
 4305SOL     OW13813   0.245   0.027   5.354
 4305SOL    HW113814   0.214   0.028   5.260
 4305SOL    HW213815   0.268   0.121   5.383
 4306SOL     OW13816   4.890   3.972   4.501
 4306SOL    HW113817   4.848   4.008   4.585
 4306SOL    HW213818   4.842   4.009   4.422
 4307SOL     OW13819   6.015   1.824   5.255
 4307SOL    HW113820   6.098   1.826   5.312
 4307SOL    HW213821   5.998   1.731   5.224
 4308SOL     OW13822   5.026   4.547   1.517
 4308SOL    HW113823   5.040   4.646   1.512
 4308SOL    HW213824   5.058   4.505   1.432
 4309SOL     OW13825   1.241   3.477   0.807
 4309SOL    HW113826   1.292   3.400   0.768
 4309SOL    HW213827   1.180   3.516   0.738
 4310SOL     OW13828   0.131   1.651   1.986
 4310SOL    HW113829   0.105   1.566   1.941
 4310SOL    HW213830   0.219   1.682   1.951
 4311SOL     OW13831   1.213   6.370   2.369
 4311SOL    HW113832   1.157   6.353   2.450
 4311SOL    HW213833   1.227   6.284   2.319
 4312SOL     OW13834   0.359   4.812   2.119
 4312SOL    HW113835   0.348   4.729   2.064
 4312SOL    HW213836   0.287   4.815   2.188
 4313SOL     OW13837   6.161   1.435   6.743
 4313SOL    HW113838   6.088   1.373   6.714
 4313SOL    HW213839   6.230   1.384   6.794
 4314SOL     OW13840   6.628   2.613   4.739
 4314SOL    HW113841   6.689   2.594   4.816
 4314SOL    HW213842   6.678   2.607   4.653
 4315SOL     OW13843   2.560   1.200   4.334
 4315SOL    HW113844   2.639   1.259   4.349
 4315SOL    HW213845   2.577   1.140   4.256
 4316SOL     OW13846   5.769   0.086   2.195
 4316SOL    HW113847   5.772   0.175   2.151
 4316SOL    HW213848   5.792   0.015   2.128
 4317SOL     OW13849   5.094   1.045   5.746
 4317SOL    HW113850   5.027   0.971   5.733
 4317SOL    HW213851   5.070   1.098   5.827
 4318SOL     OW13852   0.780   1.784   4.117
 4318SOL    HW113853   0.739   1.714   4.059
 4318SOL    HW213854   0.826   1.741   4.195
 4319SOL     OW13855   1.019   3.936   2.090
 4319SOL    HW113856   0.969   4.006   2.039
 4319SOL    HW213857   0.954   3.882   2.144
 4320SOL     OW13858   3.779   6.602   0.327
 4320SOL    HW113859   3.714   6.595   0.403
 4320SOL    HW213860   3.803   6.510   0.296
 4321SOL     OW13861   6.377   6.759   2.443
 4321SOL    HW113862   6.357   6.841   2.497
 4321SOL    HW213863   6.414   6.787   2.354
 4322SOL     OW13864   0.650   3.087   5.271
 4322SOL    HW113865   0.620   3.020   5.204
 4322SOL    HW213866   0.688   3.041   5.351
 4323SOL     OW13867   4.365   5.619   0.170
 4323SOL    HW113868   4.365   5.603   0.269
 4323SOL    HW213869   4.325   5.539   0.124
 4324SOL     OW13870   0.294   3.460   6.095
 4324SOL    HW113871   0.252   3.541   6.054
 4324SOL    HW213872   0.393   3.464   6.081
 4325SOL     OW13873   3.175   0.598   2.514
 4325SOL    HW113874   3.168   0.631   2.608
 4325SOL    HW213875   3.118   0.654   2.455
 4326SOL     OW13876   4.880   2.517   2.471
 4326SOL    HW113877   4.902   2.447   2.539
 4326SOL    HW213878   4.873   2.475   2.381
 4327SOL     OW13879   3.793   5.593   4.252
 4327SOL    HW113880   3.804   5.494   4.239
 4327SOL    HW213881   3.824   5.618   4.344
 4328SOL     OW13882   5.829   5.565   5.202
 4328SOL    HW113883   5.896   5.501   5.241
 4328SOL    HW213884   5.818   5.643   5.264
 4329SOL     OW13885   5.990   2.979   6.200
 4329SOL    HW113886   5.927   3.039   6.249
 4329SOL    HW213887   5.943   2.939   6.121
 4330SOL     OW13888   2.657   4.935   5.387
 4330SOL    HW113889   2.649   4.875   5.307
 4330SOL    HW213890   2.596   4.902   5.459
 4331SOL     OW13891   6.371   0.541   1.719
 4331SOL    HW113892   6.306   0.482   1.672
 4331SOL    HW213893   6.418   0.488   1.790
 4332SOL     OW13894   6.790   4.622   2.523
 4332SOL    HW113895   6.719   4.565   2.482
 4332SOL    HW213896   6.861   4.642   2.456
 4333SOL     OW13897   4.407   2.128   4.898
 4333SOL    HW113898   4.358   2.086   4.821
 4333SOL    HW213899   4.461   2.059   4.946
 4334SOL     OW13900   1.271   3.001   3.497
 4334SOL    HW113901   1.276   3.050   3.410
 4334SOL    HW213902   1.322   3.052   3.566
 4335SOL     OW13903   3.443   3.589   1.430
 4335SOL    HW113904   3.442   3.554   1.523
 4335SOL    HW213905   3.450   3.689   1.432
 4336SOL     OW13906   2.347   5.821   5.639
 4336SOL    HW113907   2.443   5.802   5.621
 4336SOL    HW213908   2.337   5.913   5.678
 4337SOL     OW13909   1.351   5.526   2.570
 4337SOL    HW113910   1.346   5.437   2.616
 4337SOL    HW213911   1.444   5.540   2.536
 4338SOL     OW13912   5.003   0.492   5.749
 4338SOL    HW113913   4.923   0.546   5.777
 4338SOL    HW213914   5.085   0.547   5.761
 4339SOL     OW13915   4.114   2.841   5.751
 4339SOL    HW113916   4.071   2.926   5.781
 4339SOL    HW213917   4.214   2.853   5.749
 4340SOL     OW13918   6.635   3.987   0.826
 4340SOL    HW113919   6.645   4.077   0.869
 4340SOL    HW213920   6.709   3.928   0.858
 4341SOL     OW13921   1.252   6.072   2.647
 4341SOL    HW113922   1.254   5.992   2.587
 4341SOL    HW213923   1.192   6.142   2.608
 4342SOL     OW13924   4.876   3.936   2.523
 4342SOL    HW113925   4.778   3.927   2.534
 4342SOL    HW213926   4.910   3.861   2.465
 4343SOL     OW13927   4.031   0.412   6.349
 4343SOL    HW113928   4.021   0.458   6.261
 4343SOL    HW213929   4.041   0.313   6.334
 4344SOL     OW13930   6.970   2.697   3.805
 4344SOL    HW113931   6.932   2.639   3.733
 4344SOL    HW213932   0.046   2.684   3.808
 4345SOL     OW13933   2.895   3.676   2.429
 4345SOL    HW113934   2.937   3.589   2.455
 4345SOL    HW213935   2.829   3.660   2.355
 4346SOL     OW13936   1.972   3.141   1.912
 4346SOL    HW113937   2.000   3.235   1.895
 4346SOL    HW213938   1.881   3.140   1.952
 4347SOL     OW13939   5.710   5.089   1.814
 4347SOL    HW113940   5.718   5.125   1.721
 4347SOL    HW213941   5.765   5.006   1.822
 4348SOL     OW13942   6.458   5.857   4.302
 4348SOL    HW113943   6.442   5.761   4.279
 4348SOL    HW213944   6.429   5.875   4.396
 4349SOL     OW13945   0.211   3.849   3.727
 4349SOL    HW113946   0.272   3.917   3.767
 4349SOL    HW213947   0.126   3.845   3.779
 4350SOL     OW13948   4.911   1.303   5.064
 4350SOL    HW113949   4.989   1.250   5.032
 4350SOL    HW213950   4.928   1.400   5.050
 4351SOL     OW13951   1.042   6.858   0.939
 4351SOL    HW113952   1.009   6.763   0.935
 4351SOL    HW213953   1.130   6.865   0.892
 4352SOL     OW13954   4.049   3.975   0.584
 4352SOL    HW113955   4.060   3.884   0.543
 4352SOL    HW213956   4.120   4.036   0.549
 4353SOL     OW13957   2.909   3.253   0.192
 4353SOL    HW113958   2.828   3.217   0.238
 4353SOL    HW213959   2.888   3.271   0.096
 4354SOL     OW13960   6.084   0.136   4.195
 4354SOL    HW113961   6.080   0.161   4.292
 4354SOL    HW213962   6.177   0.147   4.161
 4355SOL     OW13963   1.920   6.738   3.402
 4355SOL    HW113964   1.926   6.837   3.390
 4355SOL    HW213965   1.825   6.709   3.395
 4356SOL     OW13966   5.293   2.309   6.420
 4356SOL    HW113967   5.354   2.308   6.499
 4356SOL    HW213968   5.218   2.373   6.437
 4357SOL     OW13969   6.530   0.414   1.899
 4357SOL    HW113970   6.607   0.475   1.881
 4357SOL    HW213971   6.513   0.410   1.998
 4358SOL     OW13972   0.701   0.745   0.164
 4358SOL    HW113973   0.652   0.659   0.150
 4358SOL    HW213974   0.668   0.790   0.247
 4359SOL     OW13975   2.301   0.834   6.666
 4359SOL    HW113976   2.367   0.778   6.616
 4359SOL    HW213977   2.208   0.809   6.639
 4360SOL     OW13978   1.683   3.054   3.616
 4360SOL    HW113979   1.721   2.962   3.622
 4360SOL    HW213980   1.757   3.121   3.613
 4361SOL     OW13981   1.153   1.986   0.695
 4361SOL    HW113982   1.087   1.912   0.684
 4361SOL    HW213983   1.104   2.074   0.695
 4362SOL     OW13984   1.457   6.004   3.930
 4362SOL    HW113985   1.387   6.061   3.886
 4362SOL    HW213986   1.506   6.058   3.998
 4363SOL     OW13987   4.542   0.632   2.686
 4363SOL    HW113988   4.504   0.672   2.602
 4363SOL    HW213989   4.590   0.703   2.737
 4364SOL     OW13990   3.437   3.715   2.978
 4364SOL    HW113991   3.469   3.809   2.984
 4364SOL    HW213992   3.515   3.653   2.971
 4365SOL     OW13993   3.116   2.242   1.755
 4365SOL    HW113994   3.080   2.149   1.758
 4365SOL    HW213995   3.072   2.297   1.826
 4366SOL     OW13996   5.010   6.121   5.137
 4366SOL    HW113997   4.949   6.134   5.215
 4366SOL    HW213998   4.982   6.040   5.086
 4367SOL     OW13999   3.012   5.524   3.844
 4367SOL    HW114000   3.009   5.424   3.853
 4367SOL    HW214001   3.036   5.565   3.932
 4368SOL     OW14002   5.163   4.456   2.280
 4368SOL    HW114003   5.101   4.475   2.356
 4368SOL    HW214004   5.138   4.512   2.201
 4369SOL     OW14005   4.638   5.028   2.686
 4369SOL    HW114006   4.545   5.056   2.662
 4369SOL    HW214007   4.695   5.109   2.700
 4370SOL     OW14008   3.710   4.927   1.773
 4370SOL    HW114009   3.661   4.875   1.844
 4370SOL    HW214010   3.644   4.966   1.709
 4371SOL     OW14011   2.351   0.401   1.295
 4371SOL    HW114012   2.337   0.494   1.330
 4371SOL    HW214013   2.379   0.341   1.370
 4372SOL     OW14014   1.894   3.057   4.714
 4372SOL    HW114015   1.931   2.991   4.648
 4372SOL    HW214016   1.944   3.050   4.800
 4373SOL     OW14017   4.399   0.840   6.108
 4373SOL    HW114018   4.364   0.748   6.091
 4373SOL    HW214019   4.427   0.848   6.204
 4374SOL     OW14020   2.495   1.491   1.194
 4374SOL    HW114021   2.494   1.588   1.216
 4374SOL    HW214022   2.444   1.474   1.110
 4375SOL     OW14023   3.487   0.769   3.613
 4375SOL    HW114024   3.432   0.804   3.537
 4375SOL    HW214025   3.427   0.747   3.690
 4376SOL     OW14026   6.599   6.727   1.206
 4376SOL    HW114027   6.500   6.736   1.216
 4376SOL    HW214028   6.645   6.794   1.264
 4377SOL     OW14029   6.159   6.268   6.828
 4377SOL    HW114030   6.074   6.220   6.849
 4377SOL    HW214031   6.234   6.203   6.821
 4378SOL     OW14032   2.024   5.980   2.394
 4378SOL    HW114033   1.971   6.062   2.415
 4378SOL    HW214034   1.974   5.926   2.326
 4379SOL     OW14035   1.039   1.388   1.437
 4379SOL    HW114036   1.039   1.433   1.348
 4379SOL    HW214037   1.095   1.306   1.433
 4380SOL     OW14038   1.817   5.894   5.296
 4380SOL    HW114039   1.754   5.926   5.367
 4380SOL    HW214040   1.909   5.927   5.316
 4381SOL     OW14041   3.314   0.321   4.758
 4381SOL    HW114042   3.392   0.260   4.749
 4381SOL    HW214043   3.300   0.343   4.854
 4382SOL     OW14044   5.061   4.177   4.780
 4382SOL    HW114045   5.087   4.080   4.786
 4382SOL    HW214046   4.962   4.183   4.763
 4383SOL     OW14047   1.116   2.883   5.980
 4383SOL    HW114048   1.119   2.813   5.909
 4383SOL    HW214049   1.135   2.842   6.069
 4384SOL     OW14050   3.973   6.633   1.269
 4384SOL    HW114051   3.967   6.543   1.227
 4384SOL    HW214052   4.065   6.670   1.256
 4385SOL     OW14053   0.359   1.276   3.274
 4385SOL    HW114054   0.317   1.186   3.279
 4385SOL    HW214055   0.291   1.347   3.294
 4386SOL     OW14056   1.007   3.931   6.579
 4386SOL    HW114057   1.021   3.843   6.533
 4386SOL    HW214058   1.025   3.921   6.676
 4387SOL     OW14059   6.809   3.245   1.151
 4387SOL    HW114060   6.786   3.163   1.203
 4387SOL    HW214061   6.780   3.326   1.202
 4388SOL     OW14062   3.418   0.464   5.768
 4388SOL    HW114063   3.435   0.556   5.732
 4388SOL    HW214064   3.503   0.411   5.765
 4389SOL     OW14065   5.809   2.673   1.641
 4389SOL    HW114066   5.843   2.703   1.552
 4389SOL    HW214067   5.863   2.716   1.714
 4390SOL     OW14068   4.615   2.125   1.984
 4390SOL    HW114069   4.554   2.134   2.064
 4390SOL    HW214070   4.706   2.098   2.015
 4391SOL     OW14071   0.828   5.676   0.263
 4391SOL    HW114072   0.877   5.652   0.347
 4391SOL    HW214073   0.745   5.727   0.286
 4392SOL     OW14074   4.957   3.138   4.391
 4392SOL    HW114075   4.948   3.222   4.444
 4392SOL    HW214076   4.971   3.061   4.453
 4393SOL     OW14077   4.930   6.915   3.410
 4393SOL    HW114078   5.012   6.971   3.398
 4393SOL    HW214079   4.902   6.920   3.506
 4394SOL     OW14080   5.889   6.453   2.466
 4394SOL    HW114081   5.799   6.489   2.489
 4394SOL    HW214082   5.889   6.422   2.371
 4395SOL     OW14083   4.270   1.465   1.661
 4395SOL    HW114084   4.359   1.427   1.686
 4395SOL    HW214085   4.283   1.555   1.619
 4396SOL     OW14086   0.882   0.914   4.323
 4396SOL    HW114087   0.792   0.907   4.365
 4396SOL    HW214088   0.879   0.877   4.231
 4397SOL     OW14089   6.836   0.830   5.383
 4397SOL    HW114090   6.836   0.916   5.434
 4397SOL    HW214091   6.776   0.838   5.304
 4398SOL     OW14092   1.042   4.430   4.169
 4398SOL    HW114093   1.047   4.524   4.203
 4398SOL    HW214094   0.949   4.411   4.135
 4399SOL     OW14095   1.966   1.157   0.611
 4399SOL    HW114096   1.966   1.188   0.516
 4399SOL    HW214097   2.008   1.066   0.616
 4400SOL     OW14098   2.580   6.876   4.271
 4400SOL    HW114099   2.610   6.803   4.209
 4400SOL    HW214100   2.504   6.926   4.229
 4401SOL     OW14101   5.731   6.212   4.120
 4401SOL    HW114102   5.722   6.233   4.218
 4401SOL    HW214103   5.659   6.148   4.093
 4402SOL     OW14104   1.333   5.705   2.827
 4402SOL    HW114105   1.391   5.785   2.836
 4402SOL    HW214106   1.296   5.701   2.734
 4403SOL     OW14107   0.213   0.297   3.055
 4403SOL    HW114108   0.200   0.308   3.153
 4403SOL    HW214109   0.309   0.279   3.035
 4404SOL     OW14110   0.444   4.128   3.349
 4404SOL    HW114111   0.452   4.127   3.250
 4404SOL    HW214112   0.526   4.086   3.390
 4405SOL     OW14113   3.056   4.794   5.821
 4405SOL    HW114114   3.046   4.715   5.882
 4405SOL    HW214115   3.060   4.762   5.726
 4406SOL     OW14116   5.750   4.264   1.427
 4406SOL    HW114117   5.659   4.255   1.466
 4406SOL    HW214118   5.745   4.317   1.342
 4407SOL     OW14119   6.709   6.294   0.132
 4407SOL    HW114120   6.624   6.317   0.084
 4407SOL    HW214121   6.700   6.204   0.175
 4408SOL     OW14122   5.066   0.414   0.639
 4408SOL    HW114123   5.041   0.495   0.693
 4408SOL    HW214124   4.992   0.394   0.574
 4409SOL     OW14125   3.531   0.999   1.854
 4409SOL    HW114126   3.511   0.971   1.761
 4409SOL    HW214127   3.477   1.080   1.877
 4410SOL     OW14128   2.324   5.696   1.013
 4410SOL    HW114129   2.342   5.633   0.938
 4410SOL    HW214130   2.363   5.785   0.991
 4411SOL     OW14131   3.927   3.022   2.908
 4411SOL    HW114132   3.977   2.983   2.830
 4411SOL    HW214133   3.835   2.981   2.912
 4412SOL     OW14134   4.033   1.118   6.399
 4412SOL    HW114135   4.079   1.206   6.388
 4412SOL    HW214136   3.969   1.105   6.323
 4413SOL     OW14137   3.935   5.340   4.315
 4413SOL    HW114138   3.983   5.350   4.228
 4413SOL    HW214139   3.931   5.243   4.340
 4414SOL     OW14140   4.059   4.923   2.094
 4414SOL    HW114141   4.125   4.945   2.167
 4414SOL    HW214142   3.970   4.903   2.135
 4415SOL     OW14143   5.267   3.758   6.249
 4415SOL    HW114144   5.295   3.847   6.211
 4415SOL    HW214145   5.257   3.692   6.174
 4416SOL     OW14146   2.905   1.246   4.475
 4416SOL    HW114147   2.877   1.151   4.462
 4416SOL    HW214148   2.878   1.300   4.395
 4417SOL     OW14149   0.272   5.240   1.902
 4417SOL    HW114150   0.331   5.261   1.824
 4417SOL    HW214151   0.328   5.216   1.981
 4418SOL     OW14152   4.468   6.088   4.503
 4418SOL    HW114153   4.467   5.988   4.505
 4418SOL    HW214154   4.540   6.119   4.440
 4419SOL     OW14155   6.379   5.069   0.575
 4419SOL    HW114156   6.399   5.047   0.671
 4419SOL    HW214157   6.304   5.011   0.543
 4420SOL     OW14158   4.847   1.077   6.902
 4420SOL    HW114159   4.755   1.103   6.875
 4420SOL    HW214160   4.862   1.102   6.998
 4421SOL     OW14161   2.113   1.531   2.968
 4421SOL    HW114162   2.096   1.432   2.971
 4421SOL    HW214163   2.148   1.556   2.878
 4422SOL     OW14164   2.504   4.043   6.437
 4422SOL    HW114165   2.532   3.951   6.411
 4422SOL    HW214166   2.470   4.092   6.357
 4423SOL     OW14167   1.362   2.431   6.503
 4423SOL    HW114168   1.452   2.470   6.481
 4423SOL    HW214169   1.354   2.421   6.602
 4424SOL     OW14170   5.598   6.234   3.260
 4424SOL    HW114171   5.505   6.267   3.273
 4424SOL    HW214172   5.656   6.308   3.227
 4425SOL     OW14173   3.509   5.436   6.487
 4425SOL    HW114174   3.450   5.358   6.466
 4425SOL    HW214175   3.556   5.465   6.403
 4426SOL     OW14176   0.057   0.744   5.450
 4426SOL    HW114177   6.995   0.772   5.408
 4426SOL    HW214178   0.058   0.772   5.546
 4427SOL     OW14179   0.488   0.660   3.071
 4427SOL    HW114180   0.478   0.759   3.071
 4427SOL    HW214181   0.573   0.635   3.026
 4428SOL     OW14182   1.858   5.369   4.420
 4428SOL    HW114183   1.881   5.292   4.479
 4428SOL    HW214184   1.938   5.427   4.407
 4429SOL     OW14185   3.211   6.545   3.408
 4429SOL    HW114186   3.158   6.630   3.410
 4429SOL    HW214187   3.234   6.518   3.502
 4430SOL     OW14188   3.371   1.850   2.896
 4430SOL    HW114189   3.437   1.923   2.877
 4430SOL    HW214190   3.338   1.813   2.810
 4431SOL     OW14191   2.779   1.615   3.870
 4431SOL    HW114192   2.782   1.687   3.940
 4431SOL    HW214193   2.718   1.542   3.900
 4432SOL     OW14194   3.398   3.457   2.810
 4432SOL    HW114195   3.378   3.545   2.767
 4432SOL    HW214196   3.383   3.384   2.743
 4433SOL     OW14197   6.143   6.551   3.041
 4433SOL    HW114198   6.222   6.531   2.983
 4433SOL    HW214199   6.061   6.563   2.984
 4434SOL     OW14200   5.491   1.433   3.456
 4434SOL    HW114201   5.402   1.417   3.499
 4434SOL    HW214202   5.485   1.510   3.394
 4435SOL     OW14203   3.397   2.911   1.664
 4435SOL    HW114204   3.362   2.818   1.671
 4435SOL    HW214205   3.367   2.965   1.743
 4436SOL     OW14206   3.465   1.658   0.459
 4436SOL    HW114207   3.389   1.722   0.447
 4436SOL    HW214208   3.538   1.702   0.511
 4437SOL     OW14209   4.159   0.703   4.784
 4437SOL    HW114210   4.224   0.654   4.843
 4437SOL    HW214211   4.067   0.692   4.821
 4438SOL     OW14212   4.168   2.367   0.049
 4438SOL    HW114213   4.245   2.416   0.089
 4438SOL    HW214214   4.192   2.338   6.980
 4439SOL     OW14215   0.811   5.288   2.200
 4439SOL    HW114216   0.888   5.328   2.250
 4439SOL    HW214217   0.811   5.189   2.212
 4440SOL     OW14218   1.589   6.035   0.038
 4440SOL    HW114219   1.643   6.089   6.997
 4440SOL    HW214220   1.554   6.095   0.110
 4441SOL     OW14221   5.965   2.539   2.459
 4441SOL    HW114222   6.059   2.560   2.487
 4441SOL    HW214223   5.962   2.447   2.420
 4442SOL     OW14224   3.885   6.107   4.012
 4442SOL    HW114225   3.809   6.172   4.012
 4442SOL    HW214226   3.850   6.015   4.026
 4443SOL     OW14227   2.088   2.614   5.794
 4443SOL    HW114228   2.143   2.619   5.711
 4443SOL    HW214229   2.079   2.518   5.822
 4444SOL     OW14230   4.794   6.331   1.079
 4444SOL    HW114231   4.803   6.233   1.095
 4444SOL    HW214232   4.707   6.363   1.116
 4445SOL     OW14233   1.286   0.788   6.327
 4445SOL    HW114234   1.370   0.765   6.279
 4445SOL    HW214235   1.282   0.887   6.343
 4446SOL     OW14236   5.707   0.228   2.807
 4446SOL    HW114237   5.762   0.240   2.890
 4446SOL    HW214238   5.685   0.318   2.768
 4447SOL     OW14239   5.599   2.827   5.922
 4447SOL    HW114240   5.662   2.905   5.930
 4447SOL    HW214241   5.597   2.776   6.007
 4448SOL     OW14242   2.405   3.455   0.436
 4448SOL    HW114243   2.313   3.478   0.404
 4448SOL    HW214244   2.466   3.446   0.357
 4449SOL     OW14245   2.604   0.325   5.335
 4449SOL    HW114246   2.513   0.293   5.308
 4449SOL    HW214247   2.647   0.373   5.259
 4450SOL     OW14248   3.243   3.002   3.220
 4450SOL    HW114249   3.207   3.023   3.311
 4450SOL    HW214250   3.167   2.993   3.155
 4451SOL     OW14251   6.103   4.570   2.272
 4451SOL    HW114252   6.120   4.522   2.186
 4451SOL    HW214253   6.188   4.610   2.305
 4452SOL     OW14254   6.117   6.060   5.854
 4452SOL    HW114255   6.070   6.145   5.833
 4452SOL    HW214256   6.098   5.992   5.783
 4453SOL     OW14257   5.252   2.532   1.834
 4453SOL    HW114258   5.327   2.469   1.811
 4453SOL    HW214259   5.275   2.581   1.917
 4454SOL     OW14260   5.071   3.003   0.713
 4454SOL    HW114261   5.018   3.014   0.797
 4454SOL    HW214262   5.168   2.998   0.736
 4455SOL     OW14263   3.824   0.337   2.750
 4455SOL    HW114264   3.803   0.259   2.810
 4455SOL    HW214265   3.742   0.363   2.698
 4456SOL     OW14266   1.597   5.089   2.604
 4456SOL    HW114267   1.640   5.146   2.674
 4456SOL    HW214268   1.535   5.144   2.549
 4457SOL     OW14269   4.374   2.222   6.196
 4457SOL    HW114270   4.397   2.283   6.121
 4457SOL    HW214271   4.433   2.241   6.274
 4458SOL     OW14272   2.756   2.251   6.365
 4458SOL    HW114273   2.848   2.269   6.400
 4458SOL    HW214274   2.745   2.297   6.277
 4459SOL     OW14275   4.868   6.659   4.975
 4459SOL    HW114276   4.842   6.564   4.959
 4459SOL    HW214277   4.941   6.664   5.042
 4460SOL     OW14278   2.650   3.601   6.699
 4460SOL    HW114279   2.609   3.569   6.784
 4460SOL    HW214280   2.654   3.526   6.633
 4461SOL     OW14281   1.222   6.880   2.577
 4461SOL    HW114282   1.320   6.878   2.557
 4461SOL    HW214283   1.175   6.931   2.505
 4462SOL     OW14284   6.154   5.345   0.945
 4462SOL    HW114285   6.194   5.256   0.965
 4462SOL    HW214286   6.211   5.392   0.877
 4463SOL     OW14287   2.150   3.534   6.511
 4463SOL    HW114288   2.156   3.623   6.465
 4463SOL    HW214289   2.232   3.481   6.490
 4464SOL     OW14290   5.344   3.707   5.879
 4464SOL    HW114291   5.373   3.802   5.872
 4464SOL    HW214292   5.247   3.699   5.854
 4465SOL     OW14293   1.882   6.431   1.985
 4465SOL    HW114294   1.892   6.476   2.074
 4465SOL    HW214295   1.920   6.489   1.913
 4466SOL     OW14296   0.982   1.868   2.430
 4466SOL    HW114297   1.080   1.868   2.412
 4466SOL    HW214298   0.962   1.924   2.511
 4467SOL     OW14299   1.517   0.055   3.107
 4467SOL    HW114300   1.481   0.148   3.108
 4467SOL    HW214301   1.577   0.041   3.186
 4468SOL     OW14302   1.193   2.660   0.111
 4468SOL    HW114303   1.226   2.566   0.119
 4468SOL    HW214304   1.198   2.689   0.016
 4469SOL     OW14305   3.221   0.396   1.263
 4469SOL    HW114306   3.181   0.487   1.254
 4469SOL    HW214307   3.193   0.339   1.185
 4470SOL     OW14308   5.016   3.816   1.453
 4470SOL    HW114309   4.987   3.838   1.546
 4470SOL    HW214310   4.969   3.876   1.389
 4471SOL     OW14311   0.317   2.590   1.504
 4471SOL    HW114312   0.257   2.528   1.554
 4471SOL    HW214313   0.288   2.684   1.518
 4472SOL     OW14314   1.744   4.176   2.093
 4472SOL    HW114315   1.735   4.137   2.184
 4472SOL    HW214316   1.658   4.220   2.066
 4473SOL     OW14317   0.267   6.820   4.583
 4473SOL    HW114318   0.183   6.874   4.588
 4473SOL    HW214319   0.335   6.870   4.529
 4474SOL     OW14320   4.025   6.761   2.877
 4474SOL    HW114321   4.043   6.720   2.967
 4474SOL    HW214322   3.944   6.719   2.836
 4475SOL     OW14323   2.116   4.129   1.175
 4475SOL    HW114324   2.091   4.209   1.121
 4475SOL    HW214325   2.147   4.158   1.265
 4476SOL     OW14326   4.769   6.388   2.049
 4476SOL    HW114327   4.687   6.406   1.994
 4476SOL    HW214328   4.823   6.315   2.006
 4477SOL     OW14329   1.780   1.490   6.670
 4477SOL    HW114330   1.835   1.426   6.724
 4477SOL    HW214331   1.714   1.536   6.730
 4478SOL     OW14332   2.512   7.003   2.516
 4478SOL    HW114333   2.462   0.001   2.433
 4478SOL    HW214334   2.607   0.011   2.507
 4479SOL     OW14335   1.030   0.344   5.734
 4479SOL    HW114336   0.959   0.320   5.800
 4479SOL    HW214337   1.001   0.317   5.642
 4480SOL     OW14338   1.230   4.644   4.728
 4480SOL    HW114339   1.200   4.739   4.720
 4480SOL    HW214340   1.308   4.639   4.790
 4481SOL     OW14341   1.233   6.168   3.861
 4481SOL    HW114342   1.258   6.206   3.950
 4481SOL    HW214343   1.134   6.166   3.852
 4482SOL     OW14344   0.507   4.804   3.600
 4482SOL    HW114345   0.487   4.715   3.561
 4482SOL    HW214346   0.587   4.797   3.660
 4483SOL     OW14347   6.162   2.846   1.416
 4483SOL    HW114348   6.227   2.781   1.455
 4483SOL    HW214349   6.197   2.939   1.427
 4484SOL     OW14350   3.963   2.631   5.348
 4484SOL    HW114351   3.881   2.579   5.325
 4484SOL    HW214352   4.035   2.610   5.282
 4485SOL     OW14353   4.849   1.711   6.883
 4485SOL    HW114354   4.794   1.756   6.953
 4485SOL    HW214355   4.898   1.634   6.924
 4486SOL     OW14356   6.626   4.157   5.411
 4486SOL    HW114357   6.616   4.167   5.510
 4486SOL    HW214358   6.717   4.187   5.383
 4487SOL     OW14359   2.780   3.768   6.409
 4487SOL    HW114360   2.831   3.730   6.487
 4487SOL    HW214361   2.684   3.780   6.434
 4488SOL     OW14362   6.221   1.831   5.430
 4488SOL    HW114363   6.317   1.811   5.409
 4488SOL    HW214364   6.216   1.891   5.510
 4489SOL     OW14365   5.643   5.144   4.776
 4489SOL    HW114366   5.644   5.111   4.870
 4489SOL    HW214367   5.667   5.241   4.774
 4490SOL     OW14368   5.936   1.603   2.299
 4490SOL    HW114369   6.023   1.574   2.337
 4490SOL    HW214370   5.865   1.535   2.322
 4491SOL     OW14371   1.415   4.085   2.990
 4491SOL    HW114372   1.354   4.154   2.951
 4491SOL    HW214373   1.411   4.090   3.090
 4492SOL     OW14374   4.801   2.227   0.270
 4492SOL    HW114375   4.850   2.289   0.331
 4492SOL    HW214376   4.716   2.269   0.241
 4493SOL     OW14377   4.647   5.303   5.122
 4493SOL    HW114378   4.550   5.281   5.127
 4493SOL    HW214379   4.664   5.389   5.171
 4494SOL     OW14380   0.081   4.053   5.259
 4494SOL    HW114381   0.064   4.002   5.343
 4494SOL    HW214382   7.023   4.051   5.202
 4495SOL     OW14383   5.302   6.488   1.958
 4495SOL    HW114384   5.353   6.404   1.979
 4495SOL    HW214385   5.223   6.464   1.901
 4496SOL     OW14386   5.549   3.982   6.323
 4496SOL    HW114387   5.486   4.059   6.330
 4496SOL    HW214388   5.574   3.968   6.227
 4497SOL     OW14389   5.246   5.347   6.728
 4497SOL    HW114390   5.279   5.440   6.711
 4497SOL    HW214391   5.245   5.329   6.826
 4498SOL     OW14392   0.459   3.959   6.709
 4498SOL    HW114393   0.490   3.866   6.689
 4498SOL    HW214394   0.523   4.025   6.668
 4499SOL     OW14395   6.962   3.376   4.712
 4499SOL    HW114396   6.947   3.403   4.807
 4499SOL    HW214397   0.015   3.312   4.707
 4500SOL     OW14398   2.976   3.894   4.329
 4500SOL    HW114399   2.934   3.895   4.420
 4500SOL    HW214400   3.044   3.966   4.323
 4501SOL     OW14401   0.722   4.247   5.389
 4501SOL    HW114402   0.799   4.240   5.326
 4501SOL    HW214403   0.714   4.341   5.422
 4502SOL     OW14404   1.461   2.569   6.798
 4502SOL    HW114405   1.490   2.474   6.795
 4502SOL    HW214406   1.541   2.627   6.814
 4503SOL     OW14407   2.240   1.420   3.488
 4503SOL    HW114408   2.195   1.351   3.432
 4503SOL    HW214409   2.338   1.399   3.495
 4504SOL     OW14410   5.893   2.358   5.318
 4504SOL    HW114411   5.978   2.407   5.339
 4504SOL    HW214412   5.831   2.419   5.269
 4505SOL     OW14413   1.182   6.211   5.290
 4505SOL    HW114414   1.084   6.193   5.283
 4505SOL    HW214415   1.228   6.179   5.207
 4506SOL     OW14416   4.255   1.355   5.327
 4506SOL    HW114417   4.273   1.257   5.334
 4506SOL    HW214418   4.341   1.406   5.329
 4507SOL     OW14419   4.815   5.033   1.156
 4507SOL    HW114420   4.848   5.110   1.101
 4507SOL    HW214421   4.829   4.948   1.106
 4508SOL     OW14422   1.606   3.832   0.208
 4508SOL    HW114423   1.514   3.842   0.247
 4508SOL    HW214424   1.651   3.921   0.204
 4509SOL     OW14425   4.322   2.052   4.657
 4509SOL    HW114426   4.339   1.954   4.648
 4509SOL    HW214427   4.272   2.085   4.577
 4510SOL     OW14428   5.690   0.514   4.970
 4510SOL    HW114429   5.629   0.469   4.904
 4510SOL    HW214430   5.761   0.449   4.998
 4511SOL     OW14431   6.680   3.037   0.386
 4511SOL    HW114432   6.615   3.008   0.456
 4511SOL    HW214433   6.631   3.081   0.311
 4512SOL     OW14434   2.265   6.654   6.742
 4512SOL    HW114435   2.356   6.614   6.745
 4512SOL    HW214436   2.203   6.593   6.694
 4513SOL     OW14437   4.450   6.577   1.739
 4513SOL    HW114438   4.535   6.629   1.736
 4513SOL    HW214439   4.386   6.613   1.670
 4514SOL     OW14440   3.392   1.000   4.797
 4514SOL    HW114441   3.381   1.040   4.888
 4514SOL    HW214442   3.302   0.989   4.755
 4515SOL     OW14443   6.892   4.791   0.324
 4515SOL    HW114444   6.953   4.837   0.388
 4515SOL    HW214445   6.922   4.809   0.231
 4516SOL     OW14446   1.234   1.463   5.096
 4516SOL    HW114447   1.171   1.385   5.088
 4516SOL    HW214448   1.234   1.497   5.189
 4517SOL     OW14449   3.321   6.920   6.591
 4517SOL    HW114450   3.370   7.007   6.585
 4517SOL    HW214451   3.326   6.872   6.503
 4518SOL     OW14452   0.956   1.916   3.930
 4518SOL    HW114453   1.043   1.948   3.967
 4518SOL    HW214454   0.893   1.894   4.005
 4519SOL     OW14455   0.093   2.470   3.631
 4519SOL    HW114456   0.146   2.540   3.678
 4519SOL    HW214457   0.054   2.508   3.547
 4520SOL     OW14458   6.350   4.622   2.312
 4520SOL    HW114459   6.367   4.718   2.288
 4520SOL    HW214460   6.410   4.563   2.259
 4521SOL     OW14461   4.810   2.249   6.269
 4521SOL    HW114462   4.907   2.223   6.275
 4521SOL    HW214463   4.757   2.194   6.334
 4522SOL     OW14464   5.759   6.449   3.544
 4522SOL    HW114465   5.800   6.403   3.465
 4522SOL    HW214466   5.820   6.523   3.574
 4523SOL     OW14467   3.159   4.894   0.619
 4523SOL    HW114468   3.120   4.855   0.536
 4523SOL    HW214469   3.259   4.895   0.611
 4524SOL     OW14470   5.767   1.350   5.513
 4524SOL    HW114471   5.685   1.334   5.457
 4524SOL    HW214472   5.807   1.262   5.540
 4525SOL     OW14473   6.391   1.575   4.360
 4525SOL    HW114474   6.480   1.553   4.321
 4525SOL    HW214475   6.369   1.509   4.432
 4526SOL     OW14476   4.538   6.590   0.992
 4526SOL    HW114477   4.479   6.543   1.058
 4526SOL    HW214478   4.562   6.680   1.026
 4527SOL     OW14479   5.020   1.135   3.154
 4527SOL    HW114480   5.106   1.188   3.153
 4527SOL    HW214481   5.020   1.071   3.077
 4528SOL     OW14482   5.399   0.227   0.404
 4528SOL    HW114483   5.395   0.235   0.304
 4528SOL    HW214484   5.384   0.132   0.431
 4529SOL     OW14485   2.782   0.725   2.742
 4529SOL    HW114486   2.744   0.815   2.723
 4529SOL    HW214487   2.864   0.734   2.800
 4530SOL     OW14488   0.835   3.524   5.323
 4530SOL    HW114489   0.769   3.451   5.307
 4530SOL    HW214490   0.806   3.577   5.403
 4531SOL     OW14491   1.195   3.389   3.444
 4531SOL    HW114492   1.293   3.407   3.444
 4531SOL    HW214493   1.174   3.321   3.514
 4532SOL     OW14494   6.565   1.694   1.238
 4532SOL    HW114495   6.624   1.666   1.162
 4532SOL    HW214496   6.579   1.632   1.315
 4533SOL     OW14497   1.888   6.092   2.787
 4533SOL    HW114498   1.902   6.083   2.688
 4533SOL    HW214499   1.823   6.166   2.804
 4534SOL     OW14500   5.570   3.855   5.055
 4534SOL    HW114501   5.525   3.833   4.968
 4534SOL    HW214502   5.601   3.770   5.098
 4535SOL     OW14503   5.050   3.089   1.928
 4535SOL    HW114504   5.074   3.011   1.870
 4535SOL    HW214505   4.951   3.098   1.933
 4536SOL     OW14506   5.474   0.761   4.668
 4536SOL    HW114507   5.525   0.842   4.640
 4536SOL    HW214508   5.467   0.759   4.767
 4537SOL     OW14509   3.672   3.412   6.869
 4537SOL    HW114510   3.770   3.427   6.883
 4537SOL    HW214511   3.641   3.337   6.927
 4538SOL     OW14512   3.335   1.722   3.226
 4538SOL    HW114513   3.354   1.684   3.136
 4538SOL    HW214514   3.374   1.663   3.296
 4539SOL     OW14515   2.259   2.113   3.530
 4539SOL    HW114516   2.169   2.118   3.572
 4539SOL    HW214517   2.292   2.019   3.533
 4540SOL     OW14518   3.701   3.219   4.757
 4540SOL    HW114519   3.718   3.313   4.726
 4540SOL    HW214520   3.616   3.217   4.810
 4541SOL     OW14521   5.213   1.432   0.522
 4541SOL    HW114522   5.217   1.496   0.599
 4541SOL    HW214523   5.294   1.444   0.464
 4542SOL     OW14524   6.021   5.922   1.983
 4542SOL    HW114525   5.954   5.958   1.918
 4542SOL    HW214526   6.094   5.875   1.934
 4543SOL     OW14527   4.871   2.150   0.884
 4543SOL    HW114528   4.832   2.062   0.909
 4543SOL    HW214529   4.884   2.154   0.785
 4544SOL     OW14530   2.637   5.908   6.590
 4544SOL    HW114531   2.664   5.826   6.539
 4544SOL    HW214532   2.566   5.884   6.656
 4545SOL     OW14533   4.307   2.147   5.245
 4545SOL    HW114534   4.320   2.069   5.306
 4545SOL    HW214535   4.210   2.158   5.224
 4546SOL     OW14536   1.155   6.322   6.592
 4546SOL    HW114537   1.137   6.258   6.667
 4546SOL    HW214538   1.156   6.273   6.505
 4547SOL     OW14539   5.479   2.601   1.339
 4547SOL    HW114540   5.425   2.555   1.410
 4547SOL    HW214541   5.500   2.535   1.266
 4548SOL     OW14542   0.074   4.399   3.823
 4548SOL    HW114543   0.024   4.316   3.800
 4548SOL    HW214544   0.154   4.376   3.879
 4549SOL     OW14545   6.528   3.430   2.749
 4549SOL    HW114546   6.508   3.414   2.846
 4549SOL    HW214547   6.541   3.527   2.734
 4550SOL     OW14548   1.049   5.874   3.245
 4550SOL    HW114549   1.067   5.817   3.165
 4550SOL    HW214550   1.013   5.817   3.319
 4551SOL     OW14551   0.328   2.523   5.050
 4551SOL    HW114552   0.314   2.548   4.954
 4551SOL    HW214553   0.408   2.463   5.057
 4552SOL     OW14554   0.594   3.320   4.925
 4552SOL    HW114555   0.587   3.419   4.913
 4552SOL    HW214556   0.671   3.299   4.985
 4553SOL     OW14557   4.581   5.088   0.282
 4553SOL    HW114558   4.615   5.180   0.263
 4553SOL    HW214559   4.635   5.022   0.230
 4554SOL     OW14560   4.277   6.806   2.698
 4554SOL    HW114561   4.192   6.770   2.737
 4554SOL    HW214562   4.337   6.730   2.675
 4555SOL     OW14563   4.455   2.075   6.839
 4555SOL    HW114564   4.500   2.066   6.928
 4555SOL    HW214565   4.501   2.016   6.773
 4556SOL     OW14566   4.286   0.647   3.497
 4556SOL    HW114567   4.246   0.739   3.491
 4556SOL    HW214568   4.288   0.618   3.593
 4557SOL     OW14569   5.465   0.188   5.749
 4557SOL    HW114570   5.488   0.230   5.661
 4557SOL    HW214571   5.386   0.236   5.789
 4558SOL     OW14572   5.897   3.718   6.384
 4558SOL    HW114573   5.899   3.741   6.287
 4558SOL    HW214574   5.815   3.756   6.426
 4559SOL     OW14575   1.049   6.364   1.123
 4559SOL    HW114576   1.055   6.380   1.222
 4559SOL    HW214577   1.120   6.300   1.095
 4560SOL     OW14578   5.136   2.898   2.951
 4560SOL    HW114579   5.234   2.908   2.933
 4560SOL    HW214580   5.103   2.979   2.998
 4561SOL     OW14581   3.258   1.347   0.256
 4561SOL    HW114582   3.166   1.324   0.225
 4561SOL    HW214583   3.256   1.376   0.351
 4562SOL     OW14584   3.343   5.711   6.343
 4562SOL    HW114585   3.294   5.798   6.342
 4562SOL    HW214586   3.279   5.637   6.365
 4563SOL     OW14587   5.640   1.652   0.383
 4563SOL    HW114588   5.630   1.650   0.482
 4563SOL    HW214589   5.715   1.591   0.356
 4564SOL     OW14590   1.008   5.213   0.879
 4564SOL    HW114591   0.951   5.284   0.922
 4564SOL    HW214592   1.060   5.165   0.950
 4565SOL     OW14593   0.621   1.557   5.127
 4565SOL    HW114594   0.697   1.519   5.076
 4565SOL    HW214595   0.562   1.610   5.066
 4566SOL     OW14596   0.273   6.824   6.833
 4566SOL    HW114597   0.228   6.855   6.916
 4566SOL    HW214598   0.299   6.728   6.842
 4567SOL     OW14599   6.804   1.101   0.395
 4567SOL    HW114600   6.872   1.166   0.361
 4567SOL    HW214601   6.847   1.041   0.462
 4568SOL     OW14602   3.281   4.654   5.722
 4568SOL    HW114603   3.277   4.729   5.657
 4568SOL    HW214604   3.225   4.578   5.689
 4569SOL     OW14605   0.917   1.699   4.340
 4569SOL    HW114606   0.992   1.663   4.285
 4569SOL    HW214607   0.911   1.647   4.426
 4570SOL     OW14608   0.067   5.667   3.364
 4570SOL    HW114609   0.100   5.585   3.316
 4570SOL    HW214610   0.144   5.713   3.408
 4571SOL     OW14611   3.095   3.070   4.362
 4571SOL    HW114612   3.164   3.009   4.322
 4571SOL    HW214613   3.064   3.135   4.293
 4572SOL     OW14614   0.726   7.018   1.445
 4572SOL    HW114615   0.724   6.964   1.529
 4572SOL    HW214616   0.811   6.999   1.396
 4573SOL     OW14617   6.194   6.078   1.321
 4573SOL    HW114618   6.100   6.109   1.305
 4573SOL    HW214619   6.248   6.152   1.361
 4574SOL     OW14620   6.987   4.759   1.245
 4574SOL    HW114621   6.970   4.762   1.343
 4574SOL    HW214622   0.031   4.828   1.221
 4575SOL     OW14623   6.345   1.679   0.933
 4575SOL    HW114624   6.361   1.591   0.977
 4575SOL    HW214625   6.257   1.676   0.884
 4576SOL     OW14626   2.895   5.871   6.673
 4576SOL    HW114627   2.959   5.942   6.643
 4576SOL    HW214628   2.801   5.904   6.660
 4577SOL     OW14629   0.731   3.375   2.911
 4577SOL    HW114630   0.646   3.337   2.946
 4577SOL    HW214631   0.807   3.346   2.969
 4578SOL     OW14632   0.288   3.550   3.720
 4578SOL    HW114633   0.270   3.648   3.732
 4578SOL    HW214634   0.245   3.518   3.635
 4579SOL     OW14635   4.731   1.724   2.814
 4579SOL    HW114636   4.679   1.722   2.899
 4579SOL    HW214637   4.762   1.817   2.796
 4580SOL     OW14638   5.903   5.468   0.943
 4580SOL    HW114639   5.893   5.533   0.869
 4580SOL    HW214640   5.997   5.431   0.943
 4581SOL     OW14641   3.238   5.205   3.295
 4581SOL    HW114642   3.331   5.177   3.269
 4581SOL    HW214643   3.206   5.275   3.231
 4582SOL     OW14644   4.875   0.026   3.717
 4582SOL    HW114645   4.970   0.045   3.740
 4582SOL    HW214646   4.837   6.983   3.782
 4583SOL     OW14647   2.894   2.121   5.268
 4583SOL    HW114648   2.819   2.058   5.250
 4583SOL    HW214649   2.953   2.127   5.188
 4584SOL     OW14650   6.906   6.013   6.138
 4584SOL    HW114651   6.929   5.932   6.191
 4584SOL    HW214652   6.936   6.001   6.044
 4585SOL     OW14653   3.051   6.332   3.304
 4585SOL    HW114654   2.991   6.363   3.377
 4585SOL    HW214655   3.116   6.405   3.280
 4586SOL     OW14656   3.398   5.614   1.811
 4586SOL    HW114657   3.400   5.545   1.739
 4586SOL    HW214658   3.469   5.594   1.878
 4587SOL     OW14659   4.073   3.240   1.216
 4587SOL    HW114660   4.012   3.300   1.267
 4587SOL    HW214661   4.163   3.281   1.208
 4588SOL     OW14662   4.081   3.735   4.816
 4588SOL    HW114663   4.128   3.650   4.840
 4588SOL    HW214664   4.009   3.716   4.749
 4589SOL     OW14665   6.305   2.273   3.021
 4589SOL    HW114666   6.298   2.338   2.946
 4589SOL    HW214667   6.370   2.307   3.089
 4590SOL     OW14668   3.852   5.475   2.693
 4590SOL    HW114669   3.874   5.471   2.596
 4590SOL    HW214670   3.861   5.383   2.733
 4591SOL     OW14671   6.136   5.615   5.599
 4591SOL    HW114672   6.218   5.561   5.580
 4591SOL    HW214673   6.059   5.555   5.617
 4592SOL     OW14674   4.037   2.908   0.671
 4592SOL    HW114675   3.983   2.975   0.723
 4592SOL    HW214676   3.977   2.836   0.637
 4593SOL     OW14677   3.985   5.699   2.763
 4593SOL    HW114678   3.936   5.613   2.754
 4593SOL    HW214679   4.077   5.682   2.798
 4594SOL     OW14680   3.333   1.699   1.859
 4594SOL    HW114681   3.402   1.737   1.920
 4594SOL    HW214682   3.243   1.738   1.880
 4595SOL     OW14683   3.464   2.990   6.340
 4595SOL    HW114684   3.405   3.014   6.417
 4595SOL    HW214685   3.443   2.897   6.309
 4596SOL     OW14686   6.267   6.292   2.634
 4596SOL    HW114687   6.272   6.199   2.672
 4596SOL    HW214688   6.220   6.288   2.546
 4597SOL     OW14689   5.006   4.446   6.291
 4597SOL    HW114690   4.933   4.480   6.352
 4597SOL    HW214691   5.070   4.520   6.272
 4598SOL     OW14692   2.010   5.479   6.685
 4598SOL    HW114693   2.051   5.416   6.750
 4598SOL    HW214694   2.073   5.554   6.667
 4599SOL     OW14695   1.580   4.333   1.486
 4599SOL    HW114696   1.678   4.348   1.479
 4599SOL    HW214697   1.544   4.298   1.399
 4600SOL     OW14698   3.193   5.790   6.953
 4600SOL    HW114699   3.157   5.760   0.018
 4600SOL    HW214700   3.171   5.720   6.884
 4601SOL     OW14701   1.899   1.107   5.144
 4601SOL    HW114702   1.935   1.039   5.209
 4601SOL    HW214703   1.974   1.142   5.088
 4602SOL     OW14704   1.959   6.906   1.578
 4602SOL    HW114705   2.020   6.961   1.634
 4602SOL    HW214706   2.014   6.849   1.516
 4603SOL     OW14707   3.394   6.738   1.871
 4603SOL    HW114708   3.471   6.700   1.819
 4603SOL    HW214709   3.420   6.745   1.967
 4604SOL     OW14710   4.026   0.366   2.571
 4604SOL    HW114711   3.942   0.362   2.626
 4604SOL    HW214712   4.083   0.287   2.591
 4605SOL     OW14713   4.758   0.826   4.347
 4605SOL    HW114714   4.709   0.789   4.425
 4605SOL    HW214715   4.701   0.817   4.265
 4606SOL     OW14716   6.678   6.729   4.386
 4606SOL    HW114717   6.773   6.753   4.362
 4606SOL    HW214718   6.661   6.633   4.364
 4607SOL     OW14719   2.717   1.871   1.452
 4607SOL    HW114720   2.798   1.919   1.486
 4607SOL    HW214721   2.691   1.910   1.363
 4608SOL     OW14722   1.297   5.003   4.969
 4608SOL    HW114723   1.306   4.905   4.988
 4608SOL    HW214724   1.388   5.042   4.955
 4609SOL     OW14725   4.301   5.851   6.799
 4609SOL    HW114726   4.376   5.829   6.863
 4609SOL    HW214727   4.269   5.944   6.816
 4610SOL     OW14728   6.836   2.883   7.010
 4610SOL    HW114729   6.876   2.877   6.919
 4610SOL    HW214730   6.782   2.800   0.004
 4611SOL     OW14731   0.675   3.848   6.976
 4611SOL    HW114732   0.702   3.775   6.914
 4611SOL    HW214733   0.638   3.808   0.037
 4612SOL     OW14734   1.871   6.189   6.736
 4612SOL    HW114735   1.959   6.212   6.775
 4612SOL    HW214736   1.840   6.263   6.676
 4613SOL     OW14737   2.822   5.548   2.994
 4613SOL    HW114738   2.734   5.594   3.005
 4613SOL    HW214739   2.842   5.537   2.896
 4614SOL     OW14740   2.260   5.650   0.368
 4614SOL    HW114741   2.237   5.682   0.460
 4614SOL    HW214742   2.231   5.555   0.358
 4615SOL     OW14743   1.428   1.806   0.103
 4615SOL    HW114744   1.343   1.855   0.120
 4615SOL    HW214745   1.419   1.750   0.021
 4616SOL     OW14746   6.053   7.001   6.347
 4616SOL    HW114747   6.107   7.005   6.431
 4616SOL    HW214748   5.978   6.936   6.359
 4617SOL     OW14749   0.961   2.475   2.784
 4617SOL    HW114750   0.914   2.388   2.799
 4617SOL    HW214751   0.895   2.550   2.790
 4618SOL     OW14752   0.762   2.677   5.800
 4618SOL    HW114753   0.745   2.625   5.883
 4618SOL    HW214754   0.847   2.729   5.809
 4619SOL     OW14755   4.788   0.914   3.739
 4619SOL    HW114756   4.841   0.981   3.791
 4619SOL    HW214757   4.722   0.869   3.799
 4620SOL     OW14758   3.601   4.548   0.214
 4620SOL    HW114759   3.518   4.585   0.173
 4620SOL    HW214760   3.676   4.553   0.148
 4621SOL     OW14761   6.687   1.340   4.830
 4621SOL    HW114762   6.600   1.291   4.824
 4621SOL    HW214763   6.671   1.431   4.869
 4622SOL     OW14764   1.728   3.022   0.817
 4622SOL    HW114765   1.638   3.025   0.861
 4622SOL    HW214766   1.758   3.115   0.795
 4623SOL     OW14767   0.145   5.039   0.756
 4623SOL    HW114768   0.165   5.103   0.682
 4623SOL    HW214769   0.062   5.068   0.804
 4624SOL     OW14770   4.624   1.275   3.537
 4624SOL    HW114771   4.572   1.255   3.620
 4624SOL    HW214772   4.561   1.276   3.459
 4625SOL     OW14773   1.282   4.408   0.127
 4625SOL    HW114774   1.230   4.329   0.157
 4625SOL    HW214775   1.314   4.394   0.033
 4626SOL     OW14776   6.463   4.769   1.931
 4626SOL    HW114777   6.449   4.857   1.885
 4626SOL    HW214778   6.374   4.725   1.945
 4627SOL     OW14779   3.704   5.815   5.586
 4627SOL    HW114780   3.681   5.842   5.679
 4627SOL    HW214781   3.756   5.729   5.589
 4628SOL     OW14782   6.282   5.065   2.107
 4628SOL    HW114783   6.224   5.096   2.182
 4628SOL    HW214784   6.355   5.007   2.143
 4629SOL     OW14785   2.141   5.296   5.848
 4629SOL    HW114786   2.155   5.205   5.886
 4629SOL    HW214787   2.226   5.348   5.853
 4630SOL     OW14788   2.667   5.830   3.271
 4630SOL    HW114789   2.690   5.734   3.255
 4630SOL    HW214790   2.592   5.836   3.336
 4631SOL     OW14791   2.371   6.262   3.885
 4631SOL    HW114792   2.370   6.314   3.799
 4631SOL    HW214793   2.335   6.170   3.868
 4632SOL     OW14794   4.629   5.202   4.494
 4632SOL    HW114795   4.534   5.190   4.466
 4632SOL    HW214796   4.647   5.299   4.510
 4633SOL     OW14797   6.480   1.671   5.246
 4633SOL    HW114798   6.548   1.602   5.220
 4633SOL    HW214799   6.406   1.671   5.178
 4634SOL     OW14800   3.028   4.819   0.409
 4634SOL    HW114801   3.001   4.839   0.315
 4634SOL    HW214802   2.969   4.747   0.446
 4635SOL     OW14803   5.534   2.931   2.534
 4635SOL    HW114804   5.458   2.867   2.547
 4635SOL    HW214805   5.519   2.984   2.450
 4636SOL     OW14806   2.971   5.268   0.462
 4636SOL    HW114807   2.923   5.353   0.484
 4636SOL    HW214808   2.963   5.205   0.538
 4637SOL     OW14809   1.185   0.174   5.933
 4637SOL    HW114810   1.162   0.235   5.858
 4637SOL    HW214811   1.131   0.090   5.926
 4638SOL     OW14812   3.886   3.192   6.397
 4638SOL    HW114813   3.814   3.143   6.446
 4638SOL    HW214814   3.922   3.265   6.456
 4639SOL     OW14815   0.590   4.172   5.758
 4639SOL    HW114816   0.659   4.100   5.760
 4639SOL    HW214817   0.514   4.144   5.698
 4640SOL     OW14818   4.913   4.626   4.039
 4640SOL    HW114819   4.991   4.666   3.991
 4640SOL    HW214820   4.882   4.690   4.110
 4641SOL     OW14821   2.557   5.025   4.241
 4641SOL    HW114822   2.557   4.943   4.298
 4641SOL    HW214823   2.467   5.037   4.200
 4642SOL     OW14824   6.286   5.327   4.556
 4642SOL    HW114825   6.187   5.336   4.543
 4642SOL    HW214826   6.325   5.276   4.480
 4643SOL     OW14827   4.200   2.352   1.163
 4643SOL    HW114828   4.251   2.394   1.238
 4643SOL    HW214829   4.210   2.408   1.080
 4644SOL     OW14830   1.690   5.644   4.584
 4644SOL    HW114831   1.761   5.713   4.570
 4644SOL    HW214832   1.641   5.663   4.669
 4645SOL     OW14833   2.162   6.525   4.290
 4645SOL    HW114834   2.187   6.599   4.228
 4645SOL    HW214835   2.225   6.522   4.367
 4646SOL     OW14836   2.875   0.091   2.255
 4646SOL    HW114837   2.811   0.120   2.183
 4646SOL    HW214838   2.863   0.148   2.336
 4647SOL     OW14839   0.786   0.117   3.508
 4647SOL    HW114840   0.756   0.067   3.590
 4647SOL    HW214841   0.886   0.112   3.502
 4648SOL     OW14842   2.997   6.516   2.986
 4648SOL    HW114843   2.941   6.531   2.904
 4648SOL    HW214844   2.944   6.542   3.067
 4649SOL     OW14845   5.272   0.691   5.521
 4649SOL    HW114846   5.287   0.684   5.620
 4649SOL    HW214847   5.266   0.788   5.495
 4650SOL     OW14848   4.640   6.251   3.413
 4650SOL    HW114849   4.689   6.272   3.329
 4650SOL    HW214850   4.599   6.335   3.450
 4651SOL     OW14851   6.982   2.284   2.018
 4651SOL    HW114852   0.057   2.292   2.006
 4651SOL    HW214853   6.935   2.334   1.946
 4652SOL     OW14854   0.455   0.214   4.025
 4652SOL    HW114855   0.426   0.129   3.981
 4652SOL    HW214856   0.380   0.280   4.021
 4653SOL     OW14857   6.755   6.536   0.279
 4653SOL    HW114858   6.708   6.528   0.367
 4653SOL    HW214859   6.713   6.476   0.212
 4654SOL     OW14860   0.918   6.894   0.646
 4654SOL    HW114861   0.878   6.939   0.726
 4654SOL    HW214862   0.856   6.903   0.568
 4655SOL     OW14863   0.481   4.289   2.734
 4655SOL    HW114864   0.440   4.326   2.650
 4655SOL    HW214865   0.408   4.259   2.796
 4656SOL     OW14866   0.850   0.842   2.891
 4656SOL    HW114867   0.859   0.876   2.985
 4656SOL    HW214868   0.916   0.888   2.832
 4657SOL     OW14869   4.663   6.756   1.673
 4657SOL    HW114870   4.632   6.796   1.587
 4657SOL    HW214871   4.761   6.776   1.686
 4658SOL     OW14872   4.305   0.277   3.252
 4658SOL    HW114873   4.255   0.201   3.210
 4658SOL    HW214874   4.400   0.275   3.221
 4659SOL     OW14875   1.706   2.947   4.989
 4659SOL    HW114876   1.662   3.035   5.004
 4659SOL    HW214877   1.637   2.877   4.971
 4660SOL     OW14878   0.258   1.519   5.323
 4660SOL    HW114879   0.355   1.495   5.326
 4660SOL    HW214880   0.204   1.445   5.364
 4661SOL     OW14881   3.468   4.167   4.498
 4661SOL    HW114882   3.374   4.202   4.494
 4661SOL    HW214883   3.500   4.168   4.593
 4662SOL     OW14884   5.257   0.140   5.465
 4662SOL    HW114885   5.345   0.186   5.473
 4662SOL    HW214886   5.242   0.113   5.370
 4663SOL     OW14887   0.003   1.808   2.149
 4663SOL    HW114888   0.058   1.745   2.095
 4663SOL    HW214889   0.062   1.863   2.207
 4664SOL     OW14890   2.240   2.671   6.408
 4664SOL    HW114891   2.277   2.708   6.493
 4664SOL    HW214892   2.303   2.690   6.333
 4665SOL     OW14893   5.074   7.002   6.181
 4665SOL    HW114894   5.144   7.004   6.252
 4665SOL    HW214895   5.117   6.984   6.092
 4666SOL     OW14896   2.356   2.015   6.838
 4666SOL    HW114897   2.259   2.025   6.817
 4666SOL    HW214898   2.380   2.075   6.914
 4667SOL     OW14899   6.658   5.064   6.594
 4667SOL    HW114900   6.680   5.122   6.673
 4667SOL    HW214901   6.579   5.006   6.616
 4668SOL     OW14902   6.674   1.613   4.336
 4668SOL    HW114903   6.673   1.531   4.392
 4668SOL    HW214904   6.732   1.682   4.380
 4669SOL     OW14905   1.758   5.909   0.390
 4669SOL    HW114906   1.661   5.894   0.371
 4669SOL    HW214907   1.812   5.837   0.346
 4670SOL     OW14908   2.927   1.446   4.922
 4670SOL    HW114909   2.906   1.378   4.852
 4670SOL    HW214910   2.941   1.535   4.878
 4671SOL     OW14911   6.007   3.238   1.549
 4671SOL    HW114912   5.966   3.263   1.461
 4671SOL    HW214913   5.971   3.149   1.579
 4672SOL     OW14914   1.749   4.477   6.401
 4672SOL    HW114915   1.813   4.406   6.372
 4672SOL    HW214916   1.764   4.559   6.347
 4673SOL     OW14917   3.732   0.330   1.906
 4673SOL    HW114918   3.795   0.367   1.837
 4673SOL    HW214919   3.676   0.258   1.865
 4674SOL     OW14920   4.997   5.549   5.450
 4674SOL    HW114921   5.000   5.457   5.492
 4674SOL    HW214922   4.984   5.617   5.522
 4675SOL     OW14923   1.407   4.295   1.277
 4675SOL    HW114924   1.351   4.356   1.221
 4675SOL    HW214925   1.456   4.231   1.217
 4676SOL     OW14926   1.677   5.976   3.320
 4676SOL    HW114927   1.627   6.048   3.368
 4676SOL    HW214928   1.698   6.006   3.227
 4677SOL     OW14929   1.565   1.784   0.562
 4677SOL    HW114930   1.636   1.744   0.619
 4677SOL    HW214931   1.519   1.857   0.612
 4678SOL     OW14932   1.831   4.173   2.822
 4678SOL    HW114933   1.790   4.116   2.893
 4678SOL    HW214934   1.760   4.204   2.759
 4679SOL     OW14935   5.465   6.085   1.771
 4679SOL    HW114936   5.543   6.045   1.819
 4679SOL    HW214937   5.498   6.151   1.703
 4680SOL     OW14938   2.791   1.762   1.813
 4680SOL    HW114939   2.754   1.675   1.845
 4680SOL    HW214940   2.799   1.759   1.713
 4681SOL     OW14941   5.080   4.542   0.518
 4681SOL    HW114942   4.982   4.528   0.530
 4681SOL    HW214943   5.115   4.598   0.593
 4682SOL     OW14944   4.627   3.315   6.704
 4682SOL    HW114945   4.613   3.217   6.717
 4682SOL    HW214946   4.709   3.330   6.648
 4683SOL     OW14947   6.139   4.340   3.587
 4683SOL    HW114948   6.217   4.375   3.535
 4683SOL    HW214949   6.162   4.338   3.685
 4684SOL     OW14950   3.928   6.301   0.577
 4684SOL    HW114951   3.901   6.219   0.528
 4684SOL    HW214952   3.979   6.361   0.516
 4685SOL     OW14953   2.351   3.608   6.194
 4685SOL    HW114954   2.387   3.548   6.122
 4685SOL    HW214955   2.291   3.676   6.152
 4686SOL     OW14956   3.124   6.058   0.966
 4686SOL    HW114957   3.026   6.057   0.949
 4686SOL    HW214958   3.164   5.971   0.938
 4687SOL     OW14959   3.056   1.589   3.197
 4687SOL    HW114960   3.076   1.513   3.135
 4687SOL    HW214961   3.112   1.580   3.279
 4688SOL     OW14962   5.437   2.396   5.911
 4688SOL    HW114963   5.468   2.473   5.856
 4688SOL    HW214964   5.472   2.406   6.005
 4689SOL     OW14965   5.300   0.808   0.823
 4689SOL    HW114966   5.342   0.844   0.740
 4689SOL    HW214967   5.371   0.769   0.882
 4690SOL     OW14968   2.442   1.708   0.541
 4690SOL    HW114969   2.373   1.753   0.485
 4690SOL    HW214970   2.398   1.640   0.600
 4691SOL     OW14971   5.168   4.529   0.061
 4691SOL    HW114972   5.158   4.460   7.013
 4691SOL    HW214973   5.084   4.583   0.067
 4692SOL     OW14974   6.759   4.306   2.565
 4692SOL    HW114975   6.672   4.351   2.545
 4692SOL    HW214976   6.772   4.301   2.664
 4693SOL     OW14977   1.807   0.921   3.862
 4693SOL    HW114978   1.832   0.896   3.769
 4693SOL    HW214979   1.712   0.952   3.864
 4694SOL     OW14980   2.314   1.490   0.635
 4694SOL    HW114981   2.234   1.433   0.650
 4694SOL    HW214982   2.355   1.468   0.546
 4695SOL     OW14983   1.222   5.776   0.908
 4695SOL    HW114984   1.316   5.778   0.941
 4695SOL    HW214985   1.211   5.842   0.833
 4696SOL     OW14986   1.179   5.319   6.319
 4696SOL    HW114987   1.079   5.321   6.315
 4696SOL    HW214988   1.213   5.234   6.278
 4697SOL     OW14989   1.957   3.981   1.424
 4697SOL    HW114990   2.012   4.060   1.397
 4697SOL    HW214991   2.016   3.913   1.467
 4698SOL     OW14992   4.687   0.156   3.237
 4698SOL    HW114993   4.734   0.191   3.318
 4698SOL    HW214994   4.647   0.066   3.259
 4699SOL     OW14995   0.328   0.843   2.056
 4699SOL    HW114996   0.410   0.786   2.059
 4699SOL    HW214997   0.326   0.895   1.971
 4700SOL     OW14998   6.677   2.155   2.632
 4700SOL    HW114999   6.681   2.056   2.647
 4700SOL    HW215000   6.760   2.185   2.585
 4701SOL     OW15001   3.213   2.057   2.075
 4701SOL    HW115002   3.284   2.061   2.006
 4701SOL    HW215003   3.123   2.053   2.031
 4702SOL     OW15004   4.734   5.095   0.044
 4702SOL    HW115005   4.657   5.051   7.021
 4702SOL    HW215006   4.820   5.053   0.013
 4703SOL     OW15007   1.109   4.719   2.634
 4703SOL    HW115008   1.184   4.781   2.608
 4703SOL    HW215009   1.103   4.644   2.568
 4704SOL     OW15010   0.002   6.014   5.889
 4704SOL    HW115011   0.092   6.054   5.868
 4704SOL    HW215012   6.970   6.012   5.806
 4705SOL     OW15013   2.926   2.555   0.976
 4705SOL    HW115014   2.913   2.581   1.072
 4705SOL    HW215015   2.885   2.465   0.960
 4706SOL     OW15016   1.200   0.109   0.993
 4706SOL    HW115017   1.189   0.037   0.924
 4706SOL    HW215018   1.262   0.179   0.958
 4707SOL     OW15019   1.581   6.697   0.981
 4707SOL    HW115020   1.499   6.640   0.987
 4707SOL    HW215021   1.661   6.638   0.976
 4708SOL     OW15022   1.169   2.037   4.860
 4708SOL    HW115023   1.257   2.012   4.901
 4708SOL    HW215024   1.161   1.994   4.770
 4709SOL     OW15025   4.795   5.068   4.872
 4709SOL    HW115026   4.831   5.144   4.818
 4709SOL    HW215027   4.718   5.027   4.824
 4710SOL     OW15028   5.326   6.798   4.605
 4710SOL    HW115029   5.414   6.813   4.649
 4710SOL    HW215030   5.323   6.849   4.518
 4711SOL     OW15031   6.157   3.110   3.556
 4711SOL    HW115032   6.102   3.034   3.523
 4711SOL    HW215033   6.213   3.080   3.633
 4712SOL     OW15034   4.334   4.422   5.594
 4712SOL    HW115035   4.364   4.327   5.591
 4712SOL    HW215036   4.320   4.450   5.689
 4713SOL     OW15037   5.711   4.524   1.245
 4713SOL    HW115038   5.683   4.454   1.179
 4713SOL    HW215039   5.631   4.555   1.296
 4714SOL     OW15040   6.473   1.832   6.614
 4714SOL    HW115041   6.405   1.821   6.686
 4714SOL    HW215042   6.432   1.806   6.526
 4715SOL     OW15043   6.337   1.773   1.913
 4715SOL    HW115044   6.318   1.677   1.936
 4715SOL    HW215045   6.287   1.798   1.830
 4716SOL     OW15046   4.147   5.503   5.365
 4716SOL    HW115047   4.150   5.429   5.432
 4716SOL    HW215048   4.054   5.513   5.330
 4717SOL     OW15049   2.893   5.382   5.502
 4717SOL    HW115050   2.929   5.295   5.535
 4717SOL    HW215051   2.809   5.366   5.451
 4718SOL     OW15052   5.347   2.989   0.736
 4718SOL    HW115053   5.413   2.914   0.737
 4718SOL    HW215054   5.369   3.052   0.661
 4719SOL     OW15055   5.991   3.044   3.295
 4719SOL    HW115056   6.010   2.955   3.335
 4719SOL    HW215057   5.927   3.094   3.354
 4720SOL     OW15058   3.438   4.959   0.574
 4720SOL    HW115059   3.446   5.030   0.504
 4720SOL    HW215060   3.518   4.963   0.634
 4721SOL     OW15061   6.209   3.427   1.862
 4721SOL    HW115062   6.154   3.382   1.933
 4721SOL    HW215063   6.152   3.493   1.813
 4722SOL     OW15064   1.050   4.870   6.880
 4722SOL    HW115065   1.057   4.850   6.978
 4722SOL    HW215066   1.028   4.786   6.831
 4723SOL     OW15067   3.784   4.876   5.885
 4723SOL    HW115068   3.735   4.838   5.807
 4723SOL    HW215069   3.857   4.936   5.853
 4724SOL     OW15070   0.211   6.455   3.992
 4724SOL    HW115071   0.173   6.383   4.049
 4724SOL    HW215072   0.209   6.426   3.896
 4725SOL     OW15073   5.374   5.063   0.826
 4725SOL    HW115074   5.416   4.991   0.771
 4725SOL    HW215075   5.404   5.052   0.921
 4726SOL     OW15076   1.596   2.892   5.698
 4726SOL    HW115077   1.657   2.851   5.631
 4726SOL    HW215078   1.650   2.925   5.776
 4727SOL     OW15079   0.607   5.518   0.482
 4727SOL    HW115080   0.578   5.596   0.427
 4727SOL    HW215081   0.702   5.496   0.461
 4728SOL     OW15082   6.270   1.120   3.025
 4728SOL    HW115083   6.249   1.032   2.983
 4728SOL    HW215084   6.284   1.189   2.954
 4729SOL     OW15085   5.322   0.631   0.179
 4729SOL    HW115086   5.284   0.541   0.203
 4729SOL    HW215087   5.398   0.619   0.115
 4730SOL     OW15088   3.588   0.204   4.979
 4730SOL    HW115089   3.663   0.236   4.921
 4730SOL    HW215090   3.624   0.181   5.070
 4731SOL     OW15091   2.758   0.677   0.536
 4731SOL    HW115092   2.707   0.739   0.596
 4731SOL    HW215093   2.848   0.717   0.516
 4732SOL     OW15094   0.609   3.612   5.127
 4732SOL    HW115095   0.610   3.552   5.207
 4732SOL    HW215096   0.697   3.659   5.119
 4733SOL     OW15097   2.266   4.110   3.204
 4733SOL    HW115098   2.347   4.170   3.208
 4733SOL    HW215099   2.204   4.143   3.133
 4734SOL     OW15100   5.080   3.286   5.726
 4734SOL    HW115101   5.018   3.208   5.715
 4734SOL    HW215102   5.106   3.321   5.636
 4735SOL     OW15103   0.380   6.190   4.299
 4735SOL    HW115104   0.365   6.125   4.373
 4735SOL    HW215105   0.402   6.140   4.215
 4736SOL     OW15106   6.886   2.107   3.653
 4736SOL    HW115107   6.815   2.167   3.688
 4736SOL    HW215108   6.873   2.094   3.555
 4737SOL     OW15109   1.916   5.110   0.998
 4737SOL    HW115110   1.960   5.092   1.086
 4737SOL    HW215111   1.829   5.157   1.013
 4738SOL     OW15112   2.634   0.510   4.268
 4738SOL    HW115113   2.650   0.483   4.362
 4738SOL    HW215114   2.699   0.582   4.243
 4739SOL     OW15115   6.297   2.888   4.811
 4739SOL    HW115116   6.231   2.950   4.854
 4739SOL    HW215117   6.390   2.919   4.832
 4740SOL     OW15118   0.845   1.029   1.416
 4740SOL    HW115119   0.841   1.114   1.469
 4740SOL    HW215120   0.753   0.992   1.407
 4741SOL     OW15121   4.129   4.660   0.891
 4741SOL    HW115122   4.082   4.661   0.980
 4741SOL    HW215123   4.082   4.596   0.831
 4742SOL     OW15124   2.289   5.612   1.778
 4742SOL    HW115125   2.385   5.583   1.782
 4742SOL    HW215126   2.286   5.711   1.762
 4743SOL     OW15127   2.472   1.332   6.014
 4743SOL    HW115128   2.559   1.373   6.041
 4743SOL    HW215129   2.478   1.300   5.919
 4744SOL     OW15130   1.837   3.412   5.409
 4744SOL    HW115131   1.770   3.337   5.406
 4744SOL    HW215132   1.893   3.411   5.327
 4745SOL     OW15133   3.212   5.243   5.499
 4745SOL    HW115134   3.306   5.246   5.533
 4745SOL    HW215135   3.156   5.187   5.560
 4746SOL     OW15136   6.142   5.668   0.222
 4746SOL    HW115137   6.193   5.621   0.295
 4746SOL    HW215138   6.150   5.767   0.233
 4747SOL     OW15139   0.012   2.887   0.156
 4747SOL    HW115140   6.965   2.870   0.088
 4747SOL    HW215141   6.994   2.927   0.238
 4748SOL     OW15142   1.057   0.868   1.356
 4748SOL    HW115143   0.971   0.910   1.386
 4748SOL    HW215144   1.080   0.792   1.418
 4749SOL     OW15145   2.067   6.729   0.235
 4749SOL    HW115146   2.149   6.683   0.202
 4749SOL    HW215147   2.061   6.718   0.334
 4750SOL     OW15148   0.408   1.600   3.895
 4750SOL    HW115149   0.500   1.566   3.877
 4750SOL    HW215150   0.382   1.578   3.989
 4751SOL     OW15151   1.563   4.556   0.039
 4751SOL    HW115152   1.491   4.544   6.995
 4751SOL    HW215153   1.542   4.634   0.097
 4752SOL     OW15154   2.240   6.112   1.118
 4752SOL    HW115155   2.235   6.208   1.089
 4752SOL    HW215156   2.151   6.084   1.154
 4753SOL     OW15157   5.633   0.222   5.287
 4753SOL    HW115158   5.681   0.271   5.214
 4753SOL    HW215159   5.551   0.179   5.250
 4754SOL     OW15160   6.449   6.976   6.288
 4754SOL    HW115161   6.501   7.014   6.212
 4754SOL    HW215162   6.407   6.889   6.260
 4755SOL     OW15163   2.339   1.109   6.334
 4755SOL    HW115164   2.342   1.196   6.285
 4755SOL    HW215165   2.340   1.126   6.433
 4756SOL     OW15166   5.055   2.411   1.710
 4756SOL    HW115167   5.133   2.448   1.762
 4756SOL    HW215168   4.988   2.482   1.695
 4757SOL     OW15169   2.419   2.650   2.072
 4757SOL    HW115170   2.349   2.721   2.070
 4757SOL    HW215171   2.445   2.626   1.978
 4758SOL     OW15172   4.178   5.317   5.856
 4758SOL    HW115173   4.198   5.301   5.759
 4758SOL    HW215174   4.080   5.334   5.867
 4759SOL     OW15175   5.384   5.859   4.840
 4759SOL    HW115176   5.326   5.936   4.866
 4759SOL    HW215177   5.466   5.859   4.897
 4760SOL     OW15178   1.783   1.463   1.560
 4760SOL    HW115179   1.831   1.550   1.575
 4760SOL    HW215180   1.801   1.401   1.636
 4761SOL     OW15181   6.486   0.140   6.673
 4761SOL    HW115182   6.538   0.055   6.667
 4761SOL    HW215183   6.535   0.213   6.626
 4762SOL     OW15184   2.415   4.807   2.109
 4762SOL    HW115185   2.386   4.808   2.204
 4762SOL    HW215186   2.444   4.714   2.084
 4763SOL     OW15187   6.573   5.995   3.004
 4763SOL    HW115188   6.545   5.913   2.953
 4763SOL    HW215189   6.606   5.968   3.095
 4764SOL     OW15190   4.675   3.819   5.359
 4764SOL    HW115191   4.684   3.753   5.285
 4764SOL    HW215192   4.717   3.905   5.332
 4765SOL     OW15193   4.594   6.136   5.144
 4765SOL    HW115194   4.640   6.074   5.208
 4765SOL    HW215195   4.567   6.219   5.192
 4766SOL     OW15196   3.174   0.969   3.245
 4766SOL    HW115197   3.153   1.064   3.267
 4766SOL    HW215198   3.090   0.919   3.225
 4767SOL     OW15199   4.060   0.005   1.160
 4767SOL    HW115200   3.973   0.030   1.200
 4767SOL    HW215201   4.057   6.933   1.131
 4768SOL     OW15202   4.814   1.499   4.579
 4768SOL    HW115203   4.763   1.581   4.555
 4768SOL    HW215204   4.758   1.418   4.561
 4769SOL     OW15205   4.040   5.848   1.341
 4769SOL    HW115206   4.013   5.904   1.262
 4769SOL    HW215207   3.958   5.823   1.393
 4770SOL     OW15208   2.466   0.465   3.011
 4770SOL    HW115209   2.427   0.400   3.077
 4770SOL    HW215210   2.392   0.520   2.971
 4771SOL     OW15211   3.353   5.215   6.430
 4771SOL    HW115212   3.339   5.175   6.520
 4771SOL    HW215213   3.349   5.144   6.360
 4772SOL     OW15214   2.752   0.082   0.993
 4772SOL    HW115215   2.797   0.020   1.057
 4772SOL    HW215216   2.791   0.173   1.002
 4773SOL     OW15217   0.158   5.363   4.108
 4773SOL    HW115218   0.103   5.389   4.187
 4773SOL    HW215219   0.138   5.268   4.082
 4774SOL     OW15220   0.820   3.060   2.252
 4774SOL    HW115221   0.782   3.118   2.179
 4774SOL    HW215222   0.854   3.117   2.326
 4775SOL     OW15223   4.883   0.580   2.591
 4775SOL    HW115224   4.871   0.500   2.531
 4775SOL    HW215225   4.939   0.554   2.670
 4776SOL     OW15226   2.393   6.170   2.532
 4776SOL    HW115227   2.343   6.173   2.619
 4776SOL    HW215228   2.471   6.233   2.536
 4777SOL     OW15229   2.502   4.589   0.924
 4777SOL    HW115230   2.454   4.503   0.944
 4777SOL    HW215231   2.457   4.664   0.972
 4778SOL     OW15232   5.214   3.292   2.006
 4778SOL    HW115233   5.170   3.381   1.994
 4778SOL    HW215234   5.144   3.222   2.015
 4779SOL     OW15235   6.477   0.066   2.860
 4779SOL    HW115236   6.570   0.039   2.839
 4779SOL    HW215237   6.417   7.009   2.857
 4780SOL     OW15238   0.883   0.569   5.860
 4780SOL    HW115239   0.936   0.507   5.801
 4780SOL    HW215240   0.932   0.583   5.946
 4781SOL     OW15241   1.997   5.979   1.228
 4781SOL    HW115242   1.963   5.967   1.322
 4781SOL    HW215243   2.019   5.889   1.190
 4782SOL     OW15244   5.314   0.209   0.033
 4782SOL    HW115245   5.228   0.251   0.004
 4782SOL    HW215246   5.354   0.158   6.981
 4783SOL     OW15247   4.345   4.517   0.731
 4783SOL    HW115248   4.346   4.423   0.766
 4783SOL    HW215249   4.347   4.581   0.808
 4784SOL     OW15250   6.152   4.813   5.667
 4784SOL    HW115251   6.110   4.818   5.577
 4784SOL    HW215252   6.091   4.852   5.736
 4785SOL     OW15253   6.712   6.747   0.810
 4785SOL    HW115254   6.731   6.667   0.868
 4785SOL    HW215255   6.764   6.739   0.725
 4786SOL     OW15256   2.017   2.674   2.336
 4786SOL    HW115257   1.964   2.614   2.396
 4786SOL    HW215258   2.102   2.700   2.382
 4787SOL     OW15259   2.946   2.163   3.409
 4787SOL    HW115260   2.899   2.169   3.321
 4787SOL    HW215261   3.034   2.210   3.402
 4788SOL     OW15262   1.264   5.784   5.694
 4788SOL    HW115263   1.234   5.806   5.601
 4788SOL    HW215264   1.322   5.859   5.728
 4789SOL     OW15265   5.170   0.420   0.324
 4789SOL    HW115266   5.121   0.437   0.410
 4789SOL    HW215267   5.183   0.321   0.312
 4790SOL     OW15268   5.226   2.561   6.613
 4790SOL    HW115269   5.188   2.626   6.547
 4790SOL    HW215270   5.325   2.556   6.600
 4791SOL     OW15271   5.898   0.344   2.388
 4791SOL    HW115272   5.952   0.312   2.466
 4791SOL    HW215273   5.824   0.279   2.370
 4792SOL     OW15274   2.101   3.273   2.646
 4792SOL    HW115275   2.112   3.296   2.743
 4792SOL    HW215276   2.131   3.179   2.631
 4793SOL     OW15277   1.449   0.425   5.943
 4793SOL    HW115278   1.493   0.347   5.897
 4793SOL    HW215279   1.432   0.401   6.038
 4794SOL     OW15280   3.726   6.719   2.810
 4794SOL    HW115281   3.642   6.677   2.774
 4794SOL    HW215282   3.702   6.793   2.872
 4795SOL     OW15283   6.620   2.871   4.668
 4795SOL    HW115284   6.599   2.774   4.683
 4795SOL    HW215285   6.584   2.925   4.745
 4796SOL     OW15286   4.844   2.608   0.280
 4796SOL    HW115287   4.823   2.692   0.331
 4796SOL    HW215288   4.789   2.605   0.197
 4797SOL     OW15289   1.210   5.361   5.839
 4797SOL    HW115290   1.276   5.392   5.908
 4797SOL    HW215291   1.188   5.437   5.778
 4798SOL     OW15292   0.135   4.378   5.225
 4798SOL    HW115293   0.188   4.441   5.281
 4798SOL    HW215294   0.123   4.291   5.274
 4799SOL     OW15295   5.520   1.370   4.875
 4799SOL    HW115296   5.423   1.392   4.882
 4799SOL    HW215297   5.556   1.403   4.788
 4800SOL     OW15298   3.116   2.839   6.222
 4800SOL    HW115299   3.032   2.857   6.171
 4800SOL    HW215300   3.110   2.879   6.313
 4801SOL     OW15301   1.921   1.984   0.208
 4801SOL    HW115302   1.942   1.989   0.306
 4801SOL    HW215303   1.823   1.977   0.195
 4802SOL     OW15304   1.954   6.605   2.224
 4802SOL    HW115305   1.875   6.661   2.249
 4802SOL    HW215306   1.959   6.525   2.285
 4803SOL     OW15307   0.646   6.820   1.076
 4803SOL    HW115308   0.671   6.724   1.067
 4803SOL    HW215309   0.602   6.835   1.164
 4804SOL     OW15310   4.279   5.551   6.848
 4804SOL    HW115311   4.258   5.649   6.857
 4804SOL    HW215312   4.223   5.499   6.912
 4805SOL     OW15313   6.675   0.393   0.668
 4805SOL    HW115314   6.735   0.341   0.729
 4805SOL    HW215315   6.581   0.386   0.700
 4806SOL     OW15316   6.992   3.843   3.032
 4806SOL    HW115317   7.009   3.752   3.069
 4806SOL    HW215318   6.983   3.909   3.108
 4807SOL     OW15319   0.967   5.873   1.940
 4807SOL    HW115320   0.956   5.825   1.853
 4807SOL    HW215321   0.904   5.950   1.943
 4808SOL     OW15322   5.665   3.520   0.899
 4808SOL    HW115323   5.664   3.583   0.976
 4808SOL    HW215324   5.749   3.466   0.902
 4809SOL     OW15325   3.360   4.604   0.072
 4809SOL    HW115326   3.330   4.591   7.001
 4809SOL    HW215327   3.290   4.570   0.134
 4810SOL     OW15328   0.757   5.156   1.418
 4810SOL    HW115329   0.791   5.143   1.511
 4810SOL    HW215330   0.818   5.217   1.368
 4811SOL     OW15331   2.753   5.172   2.192
 4811SOL    HW115332   2.852   5.185   2.193
 4811SOL    HW215333   2.732   5.078   2.219
 4812SOL     OW15334   6.656   5.091   4.446
 4812SOL    HW115335   6.613   5.168   4.492
 4812SOL    HW215336   6.686   5.024   4.513
 4813SOL     OW15337   5.264   1.486   2.638
 4813SOL    HW115338   5.235   1.505   2.732
 4813SOL    HW215339   5.364   1.487   2.633
 4814SOL     OW15340   6.266   4.667   0.803
 4814SOL    HW115341   6.273   4.615   0.718
 4814SOL    HW215342   6.190   4.631   0.857
 4815SOL     OW15343   5.143   5.040   2.295
 4815SOL    HW115344   5.197   5.053   2.212
 4815SOL    HW215345   5.194   5.073   2.374
 4816SOL     OW15346   5.570   5.328   2.942
 4816SOL    HW115347   5.595   5.371   2.855
 4816SOL    HW215348   5.518   5.245   2.925
 4817SOL     OW15349   0.877   1.905   5.531
 4817SOL    HW115350   0.927   1.818   5.526
 4817SOL    HW215351   0.812   1.902   5.606
 4818SOL     OW15352   0.529   6.685   3.720
 4818SOL    HW115353   0.430   6.682   3.726
 4818SOL    HW215354   0.558   6.638   3.636
 4819SOL     OW15355   1.451   3.332   0.207
 4819SOL    HW115356   1.506   3.275   0.269
 4819SOL    HW215357   1.427   3.279   0.126
 4820SOL     OW15358   6.790   3.071   1.611
 4820SOL    HW115359   6.800   3.170   1.605
 4820SOL    HW215360   6.713   3.049   1.671
 4821SOL     OW15361   0.316   6.303   1.825
 4821SOL    HW115362   0.291   6.376   1.889
 4821SOL    HW215363   0.325   6.217   1.875
 4822SOL     OW15364   1.152   3.941   4.578
 4822SOL    HW115365   1.122   4.036   4.575
 4822SOL    HW215366   1.192   3.915   4.490
 4823SOL     OW15367   1.085   2.539   2.306
 4823SOL    HW115368   1.145   2.559   2.383
 4823SOL    HW215369   1.117   2.455   2.260
 4824SOL     OW15370   5.172   1.150   5.290
 4824SOL    HW115371   5.238   1.092   5.244
 4824SOL    HW215372   5.081   1.138   5.249
 4825SOL     OW15373   1.163   0.381   4.287
 4825SOL    HW115374   1.093   0.356   4.354
 4825SOL    HW215375   1.161   0.480   4.272
 4826SOL     OW15376   4.526   0.235   1.540
 4826SOL    HW115377   4.474   0.320   1.534
 4826SOL    HW215378   4.547   0.202   1.448
 4827SOL     OW15379   6.761   1.607   0.143
 4827SOL    HW115380   6.795   1.632   0.234
 4827SOL    HW215381   6.704   1.681   0.107
 4828SOL     OW15382   4.904   7.002   2.352
 4828SOL    HW115383   4.884   0.059   2.297
 4828SOL    HW215384   4.818   6.956   2.376
 4829SOL     OW15385   4.393   7.013   5.914
 4829SOL    HW115386   4.331   0.057   5.955
 4829SOL    HW215387   4.428   6.952   5.985
 4830SOL     OW15388   4.098   5.811   3.632
 4830SOL    HW115389   4.118   5.737   3.695
 4830SOL    HW215390   4.087   5.896   3.682
 4831SOL     OW15391   3.326   5.446   6.111
 4831SOL    HW115392   3.278   5.450   6.199
 4831SOL    HW215393   3.313   5.356   6.070
 4832SOL     OW15394   3.127   3.657   4.495
 4832SOL    HW115395   3.058   3.729   4.500
 4832SOL    HW215396   3.201   3.676   4.559
 4833SOL     OW15397   5.824   2.428   4.356
 4833SOL    HW115398   5.769   2.371   4.417
 4833SOL    HW215399   5.783   2.430   4.265
 4834SOL     OW15400   2.524   5.245   2.567
 4834SOL    HW115401   2.518   5.231   2.666
 4834SOL    HW215402   2.555   5.160   2.524
 4835SOL     OW15403   6.815   3.560   5.754
 4835SOL    HW115404   6.840   3.577   5.849
 4835SOL    HW215405   6.851   3.471   5.726
 4836SOL     OW15406   4.926   0.667   5.428
 4836SOL    HW115407   4.844   0.674   5.371
 4836SOL    HW215408   4.977   0.585   5.401
 4837SOL     OW15409   6.766   3.301   3.679
 4837SOL    HW115410   6.764   3.359   3.597
 4837SOL    HW215411   6.702   3.225   3.666
 4838SOL     OW15412   1.351   4.428   6.415
 4838SOL    HW115413   1.356   4.336   6.376
 4838SOL    HW215414   1.400   4.492   6.356
 4839SOL     OW15415   1.805   2.444   0.101
 4839SOL    HW115416   1.770   2.486   0.185
 4839SOL    HW215417   1.904   2.461   0.095
 4840SOL     OW15418   5.027   3.872   5.320
 4840SOL    HW115419   4.943   3.819   5.326
 4840SOL    HW215420   5.080   3.861   5.404
 4841SOL     OW15421   2.784   5.108   3.637
 4841SOL    HW115422   2.705   5.048   3.625
 4841SOL    HW215423   2.822   5.094   3.729
 4842SOL     OW15424   2.412   5.015   2.775
 4842SOL    HW115425   2.433   5.112   2.783
 4842SOL    HW215426   2.446   4.967   2.856
 4843SOL     OW15427   0.195   2.984   1.981
 4843SOL    HW115428   0.173   3.061   2.042
 4843SOL    HW215429   0.279   3.005   1.931
 4844SOL     OW15430   1.388   4.943   5.271
 4844SOL    HW115431   1.379   4.978   5.178
 4844SOL    HW215432   1.463   4.877   5.274
 4845SOL     OW15433   4.442   4.231   5.276
 4845SOL    HW115434   4.382   4.291   5.222
 4845SOL    HW215435   4.500   4.287   5.335
 4846SOL     OW15436   0.550   2.738   4.196
 4846SOL    HW115437   0.513   2.830   4.183
 4846SOL    HW215438   0.477   2.677   4.226
 4847SOL     OW15439   2.619   6.541   5.766
 4847SOL    HW115440   2.690   6.608   5.747
 4847SOL    HW215441   2.563   6.571   5.843
 4848SOL     OW15442   2.526   1.375   3.914
 4848SOL    HW115443   2.620   1.354   3.938
 4848SOL    HW215444   2.467   1.358   3.993
 4849SOL     OW15445   2.005   0.573   0.125
 4849SOL    HW115446   2.086   0.630   0.140
 4849SOL    HW215447   1.980   0.527   0.210
 4850SOL     OW15448   4.630   0.872   1.182
 4850SOL    HW115449   4.553   0.909   1.234
 4850SOL    HW215450   4.713   0.879   1.236
 4851SOL     OW15451   3.161   6.521   0.082
 4851SOL    HW115452   3.078   6.473   0.110
 4851SOL    HW215453   3.234   6.455   0.068
 4852SOL     OW15454   4.144   5.612   5.075
 4852SOL    HW115455   4.214   5.670   5.033
 4852SOL    HW215456   4.175   5.583   5.166
 4853SOL     OW15457   3.642   0.560   3.318
 4853SOL    HW115458   3.686   0.649   3.308
 4853SOL    HW215459   3.698   0.502   3.378
 4854SOL     OW15460   5.906   5.933   1.561
 4854SOL    HW115461   5.988   5.897   1.517
 4854SOL    HW215462   5.825   5.888   1.523
 4855SOL     OW15463   6.407   4.327   5.010
 4855SOL    HW115464   6.357   4.244   4.985
 4855SOL    HW215465   6.433   4.322   5.107
 4856SOL     OW15466   0.695   3.962   2.584
 4856SOL    HW115467   0.793   3.965   2.606
 4856SOL    HW215468   0.672   3.870   2.551
 4857SOL     OW15469   3.098   2.169   4.497
 4857SOL    HW115470   3.128   2.217   4.579
 4857SOL    HW215471   3.015   2.212   4.462
 4858SOL     OW15472   0.732   6.881   5.041
 4858SOL    HW115473   0.646   6.923   5.071
 4858SOL    HW215474   0.798   6.953   5.020
 4859SOL     OW15475   0.957   5.809   2.200
 4859SOL    HW115476   1.053   5.836   2.208
 4859SOL    HW215477   0.927   5.822   2.106
 4860SOL     OW15478   4.916   5.389   0.691
 4860SOL    HW115479   4.960   5.333   0.621
 4860SOL    HW215480   4.957   5.480   0.691
 4861SOL     OW15481   6.711   4.949   5.790
 4861SOL    HW115482   6.764   4.982   5.712
 4861SOL    HW215483   6.614   4.948   5.766
 4862SOL     OW15484   2.512   4.660   5.065
 4862SOL    HW115485   2.477   4.748   5.031
 4862SOL    HW215486   2.584   4.677   5.132
 4863SOL     OW15487   4.653   2.681   2.758
 4863SOL    HW115488   4.586   2.634   2.700
 4863SOL    HW215489   4.700   2.752   2.705
 4864SOL     OW15490   3.179   1.299   1.603
 4864SOL    HW115491   3.177   1.394   1.571
 4864SOL    HW215492   3.201   1.298   1.701
 4865SOL     OW15493   3.865   5.180   5.559
 4865SOL    HW115494   3.807   5.261   5.551
 4865SOL    HW215495   3.827   5.107   5.503
 4866SOL     OW15496   5.850   4.839   1.906
 4866SOL    HW115497   5.851   4.752   1.856
 4866SOL    HW215498   5.943   4.867   1.926
 4867SOL     OW15499   5.044   5.161   2.692
 4867SOL    HW115500   5.039   5.228   2.766
 4867SOL    HW215501   5.104   5.086   2.720
 4868SOL     OW15502   0.115   5.772   1.329
 4868SOL    HW115503   0.214   5.784   1.317
 4868SOL    HW215504   0.075   5.740   1.243
 4869SOL     OW15505   6.991   1.486   0.062
 4869SOL    HW115506   0.017   1.478   0.148
 4869SOL    HW215507   6.903   1.531   0.078
 4870SOL     OW15508   4.630   6.342   1.750
 4870SOL    HW115509   4.563   6.393   1.697
 4870SOL    HW215510   4.605   6.245   1.751
 4871SOL     OW15511   1.017   2.190   3.426
 4871SOL    HW115512   1.008   2.285   3.396
 4871SOL    HW215513   1.094   2.147   3.378
 4872SOL     OW15514   1.213   0.043   2.860
 4872SOL    HW115515   1.309   0.012   2.864
 4872SOL    HW215516   1.162   0.001   2.935
 4873SOL     OW15517   0.355   5.525   4.507
 4873SOL    HW115518   0.365   5.525   4.408
 4873SOL    HW215519   0.430   5.578   4.548
 4874SOL     OW15520   5.585   3.643   3.380
 4874SOL    HW115521   5.574   3.719   3.317
 4874SOL    HW215522   5.499   3.592   3.385
 4875SOL     OW15523   5.480   1.641   0.981
 4875SOL    HW115524   5.396   1.695   0.977
 4875SOL    HW215525   5.546   1.687   1.040
 4876SOL     OW15526   6.558   1.016   6.344
 4876SOL    HW115527   6.510   0.950   6.402
 4876SOL    HW215528   6.506   1.030   6.260
 4877SOL     OW15529   6.342   1.446   1.096
 4877SOL    HW115530   6.346   1.487   1.187
 4877SOL    HW215531   6.301   1.355   1.103
 4878SOL     OW15532   0.119   1.659   1.624
 4878SOL    HW115533   0.055   1.708   1.684
 4878SOL    HW215534   0.157   1.581   1.673
 4879SOL     OW15535   4.180   4.985   3.384
 4879SOL    HW115536   4.131   5.071   3.393
 4879SOL    HW215537   4.275   5.002   3.359
 4880SOL     OW15538   5.961   1.254   0.246
 4880SOL    HW115539   5.973   1.264   0.344
 4880SOL    HW215540   5.897   1.324   0.213
 4881SOL     OW15541   3.300   6.574   6.221
 4881SOL    HW115542   3.237   6.526   6.282
 4881SOL    HW215543   3.357   6.508   6.173
 4882SOL     OW15544   5.990   0.969   5.341
 4882SOL    HW115545   5.942   0.999   5.259
 4882SOL    HW215546   5.929   0.912   5.397
 4883SOL     OW15547   6.230   4.651   1.909
 4883SOL    HW115548   6.206   4.564   1.952
 4883SOL    HW215549   6.277   4.634   1.823
 4884SOL     OW15550   3.781   6.455   1.896
 4884SOL    HW115551   3.870   6.469   1.938
 4884SOL    HW215552   3.786   6.382   1.829
 4885SOL     OW15553   1.802   6.951   1.232
 4885SOL    HW115554   1.773   6.952   1.328
 4885SOL    HW215555   1.892   6.993   1.224
 4886SOL     OW15556   6.222   0.596   0.362
 4886SOL    HW115557   6.202   0.507   0.403
 4886SOL    HW215558   6.282   0.647   0.424
 4887SOL     OW15559   0.151   2.347   3.870
 4887SOL    HW115560   0.120   2.374   3.779
 4887SOL    HW215561   0.182   2.428   3.920
 4888SOL     OW15562   1.627   6.020   2.603
 4888SOL    HW115563   1.611   6.042   2.507
 4888SOL    HW215564   1.660   6.102   2.651
 4889SOL     OW15565   0.985   1.939   0.029
 4889SOL    HW115566   0.975   1.840   0.034
 4889SOL    HW215567   1.033   1.972   0.111
 4890SOL     OW15568   0.927   0.566   4.324
 4890SOL    HW115569   0.894   0.516   4.405
 4890SOL    HW215570   0.871   0.648   4.311
 4891SOL     OW15571   0.890   4.950   0.808
 4891SOL    HW115572   0.904   5.048   0.827
 4891SOL    HW215573   0.816   4.939   0.742
 4892SOL     OW15574   1.062   5.546   1.733
 4892SOL    HW115575   0.968   5.580   1.722
 4892SOL    HW215576   1.127   5.618   1.710
 4893SOL     OW15577   0.250   3.933   6.495
 4893SOL    HW115578   0.344   3.908   6.471
 4893SOL    HW215579   0.231   4.026   6.463
 4894SOL     OW15580   2.091   0.543   2.723
 4894SOL    HW115581   2.188   0.522   2.735
 4894SOL    HW215582   2.050   0.478   2.660
 4895SOL     OW15583   0.843   3.068   0.277
 4895SOL    HW115584   0.823   3.158   0.239
 4895SOL    HW215585   0.930   3.035   0.240
 4896SOL     OW15586   3.455   5.059   4.748
 4896SOL    HW115587   3.369   5.045   4.699
 4896SOL    HW215588   3.532   5.043   4.685
 4897SOL     OW15589   3.251   5.574   0.432
 4897SOL    HW115590   3.347   5.561   0.455
 4897SOL    HW215591   3.194   5.523   0.497
 4898SOL     OW15592   5.449   1.846   5.523
 4898SOL    HW115593   5.454   1.774   5.592
 4898SOL    HW215594   5.430   1.934   5.568
 4899SOL     OW15595   6.311   4.487   3.434
 4899SOL    HW115596   6.376   4.444   3.372
 4899SOL    HW215597   6.359   4.551   3.494
 4900SOL     OW15598   0.330   6.230   5.833
 4900SOL    HW115599   0.332   6.222   5.933
 4900SOL    HW215600   0.374   6.316   5.806
 4901SOL     OW15601   0.949   6.182   3.844
 4901SOL    HW115602   0.864   6.131   3.838
 4901SOL    HW215603   0.932   6.270   3.887
 4902SOL     OW15604   2.858   5.052   1.898
 4902SOL    HW115605   2.880   4.960   1.932
 4902SOL    HW215606   2.887   5.120   1.965
 4903SOL     OW15607   4.473   0.132   6.684
 4903SOL    HW115608   4.454   0.048   6.634
 4903SOL    HW215609   4.441   0.123   6.779
 4904SOL     OW15610   1.776   6.365   4.174
 4904SOL    HW115611   1.873   6.372   4.151
 4904SOL    HW215612   1.743   6.452   4.211
 4905SOL     OW15613   4.724   2.941   1.607
 4905SOL    HW115614   4.681   2.980   1.688
 4905SOL    HW215615   4.669   2.865   1.573
 4906SOL     OW15616   4.850   0.148   0.720
 4906SOL    HW115617   4.783   0.221   0.734
 4906SOL    HW215618   4.919   0.178   0.654
 4907SOL     OW15619   3.961   0.234   3.618
 4907SOL    HW115620   3.873   0.245   3.664
 4907SOL    HW215621   4.000   0.145   3.641
 4908SOL     OW15622   3.373   6.513   6.884
 4908SOL    HW115623   3.287   6.463   6.876
 4908SOL    HW215624   3.362   6.604   6.843
 4909SOL     OW15625   6.205   6.184   5.036
 4909SOL    HW115626   6.224   6.169   5.133
 4909SOL    HW215627   6.154   6.269   5.024
 4910SOL     OW15628   5.175   0.541   5.124
 4910SOL    HW115629   5.082   0.504   5.133
 4910SOL    HW215630   5.225   0.527   5.210
 4911SOL     OW15631   0.279   2.513   5.583
 4911SOL    HW115632   0.356   2.527   5.645
 4911SOL    HW215633   0.245   2.602   5.553
 4912SOL     OW15634   3.720   1.883   2.360
 4912SOL    HW115635   3.653   1.936   2.308
 4912SOL    HW215636   3.805   1.876   2.307
 4913SOL     OW15637   3.578   3.710   3.335
 4913SOL    HW115638   3.552   3.644   3.265
 4913SOL    HW215639   3.652   3.671   3.391
 4914SOL     OW15640   1.987   7.007   3.572
 4914SOL    HW115641   1.898   0.019   3.601
 4914SOL    HW215642   2.024   0.041   3.499
 4915SOL     OW15643   3.943   6.445   4.087
 4915SOL    HW115644   3.956   6.348   4.104
 4915SOL    HW215645   3.896   6.457   4.000
 4916SOL     OW15646   2.837   2.248   3.157
 4916SOL    HW115647   2.898   2.242   3.078
 4916SOL    HW215648   2.770   2.321   3.143
 4917SOL     OW15649   2.247   4.540   1.191
 4917SOL    HW115650   2.197   4.504   1.112
 4917SOL    HW215651   2.199   4.515   1.275
 4918SOL     OW15652   2.440   0.359   2.048
 4918SOL    HW115653   2.505   0.283   2.041
 4918SOL    HW215654   2.476   0.438   2.000
 4919SOL     OW15655   1.826   2.441   2.429
 4919SOL    HW115656   1.792   2.496   2.504
 4919SOL    HW215657   1.752   2.424   2.364
 4920SOL     OW15658   4.331   0.926   0.756
 4920SOL    HW115659   4.356   0.839   0.797
 4920SOL    HW215660   4.309   0.992   0.828
 4921SOL     OW15661   2.296   4.122   1.649
 4921SOL    HW115662   2.361   4.086   1.583
 4921SOL    HW215663   2.321   4.091   1.741
 4922SOL     OW15664   1.478   3.444   5.435
 4922SOL    HW115665   1.531   3.361   5.420
 4922SOL    HW215666   1.397   3.443   5.377
 4923SOL     OW15667   4.980   0.748   1.641
 4923SOL    HW115668   5.003   0.839   1.675
 4923SOL    HW215669   4.931   0.697   1.712
 4924SOL     OW15670   0.924   3.829   4.506
 4924SOL    HW115671   1.007   3.875   4.538
 4924SOL    HW215672   0.940   3.730   4.505
 4925SOL     OW15673   4.838   6.348   0.739
 4925SOL    HW115674   4.797   6.260   0.761
 4925SOL    HW215675   4.871   6.391   0.823
 4926SOL     OW15676   4.739   2.485   2.133
 4926SOL    HW115677   4.645   2.458   2.156
 4926SOL    HW215678   4.772   2.429   2.058
 4927SOL     OW15679   3.349   2.937   2.872
 4927SOL    HW115680   3.306   3.025   2.851
 4927SOL    HW215681   3.351   2.924   2.972
 4928SOL     OW15682   0.679   6.594   0.046
 4928SOL    HW115683   0.638   6.666   7.013
 4928SOL    HW215684   0.654   6.504   0.008
 4929SOL     OW15685   1.156   4.906   4.653
 4929SOL    HW115686   1.077   4.967   4.660
 4929SOL    HW215687   1.172   4.884   4.557
 4930SOL     OW15688   0.308   2.108   0.201
 4930SOL    HW115689   0.247   2.174   0.157
 4930SOL    HW215690   0.254   2.036   0.245
 4931SOL     OW15691   0.649   0.189   0.436
 4931SOL    HW115692   0.682   0.164   0.527
 4931SOL    HW215693   0.637   0.288   0.431
 4932SOL     OW15694   2.465   2.182   1.454
 4932SOL    HW115695   2.422   2.136   1.532
 4932SOL    HW215696   2.397   2.199   1.383
 4933SOL     OW15697   2.783   1.325   3.968
 4933SOL    HW115698   2.804   1.227   3.964
 4933SOL    HW215699   2.852   1.376   3.917
 4934SOL     OW15700   0.411   5.475   4.257
 4934SOL    HW115701   0.370   5.398   4.207
 4934SOL    HW215702   0.375   5.561   4.220
 4935SOL     OW15703   2.122   1.635   6.802
 4935SOL    HW115704   2.065   1.704   6.758
 4935SOL    HW215705   2.066   1.578   6.862
 4936SOL     OW15706   3.623   6.120   1.410
 4936SOL    HW115707   3.528   6.087   1.411
 4936SOL    HW215708   3.623   6.220   1.420
 4937SOL     OW15709   0.880   2.998   6.060
 4937SOL    HW115710   0.797   2.974   6.009
 4937SOL    HW215711   0.960   2.969   6.008
 4938SOL     OW15712   3.304   4.588   1.454
 4938SOL    HW115713   3.209   4.613   1.437
 4938SOL    HW215714   3.351   4.664   1.500
 4939SOL     OW15715   1.297   1.828   1.457
 4939SOL    HW115716   1.228   1.900   1.453
 4939SOL    HW215717   1.254   1.742   1.484
 4940SOL     OW15718   0.036   2.957   3.770
 4940SOL    HW115719   0.076   3.003   3.849
 4940SOL    HW215720   6.998   2.884   3.801
 4941SOL     OW15721   4.130   2.365   5.427
 4941SOL    HW115722   4.202   2.351   5.495
 4941SOL    HW215723   4.156   2.439   5.366
 4942SOL     OW15724   5.396   2.952   3.562
 4942SOL    HW115725   5.312   2.956   3.617
 4942SOL    HW215726   5.392   2.872   3.502
 4943SOL     OW15727   5.183   3.224   6.665
 4943SOL    HW115728   5.279   3.251   6.657
 4943SOL    HW215729   5.175   3.151   6.733
 4944SOL     OW15730   1.458   5.030   1.514
 4944SOL    HW115731   1.519   4.967   1.561
 4944SOL    HW215732   1.508   5.076   1.441
 4945SOL     OW15733   1.950   0.540   5.154
 4945SOL    HW115734   1.858   0.518   5.123
 4945SOL    HW215735   1.994   0.457   5.189
 4946SOL     OW15736   1.489   4.776   0.729
 4946SOL    HW115737   1.400   4.806   0.761
 4946SOL    HW215738   1.558   4.846   0.750
 4947SOL     OW15739   1.685   1.093   1.774
 4947SOL    HW115740   1.598   1.141   1.767
 4947SOL    HW215741   1.671   0.996   1.758
 4948SOL     OW15742   1.493   2.362   1.327
 4948SOL    HW115743   1.433   2.285   1.305
 4948SOL    HW215744   1.449   2.448   1.300
 4949SOL     OW15745   6.322   3.080   5.915
 4949SOL    HW115746   6.277   3.166   5.938
 4949SOL    HW215747   6.419   3.097   5.899
 4950SOL     OW15748   2.667   4.521   5.532
 4950SOL    HW115749   2.754   4.494   5.572
 4950SOL    HW215750   2.592   4.489   5.590
 4951SOL     OW15751   5.422   5.953   3.613
 4951SOL    HW115752   5.482   5.980   3.537
 4951SOL    HW215753   5.470   5.886   3.670
 4952SOL     OW15754   0.253   0.254   5.938
 4952SOL    HW115755   0.293   0.237   5.848
 4952SOL    HW215756   0.205   0.341   5.937
 4953SOL     OW15757   1.290   2.180   5.259
 4953SOL    HW115758   1.382   2.180   5.298
 4953SOL    HW215759   1.222   2.189   5.332
 4954SOL     OW15760   2.835   3.813   5.121
 4954SOL    HW115761   2.749   3.855   5.151
 4954SOL    HW215762   2.910   3.846   5.177
 4955SOL     OW15763   2.875   5.848   0.117
 4955SOL    HW115764   2.948   5.820   0.179
 4955SOL    HW215765   2.887   5.803   0.028
 4956SOL     OW15766   2.282   0.316   4.838
 4956SOL    HW115767   2.262   0.400   4.788
 4956SOL    HW215768   2.264   0.329   4.935
 4957SOL     OW15769   6.453   4.071   6.686
 4957SOL    HW115770   6.505   4.136   6.630
 4957SOL    HW215771   6.517   4.006   6.728
 4958SOL     OW15772   2.368   0.266   6.320
 4958SOL    HW115773   2.313   0.341   6.355
 4958SOL    HW215774   2.462   0.276   6.353
 4959SOL     OW15775   6.967   2.887   1.676
 4959SOL    HW115776   6.953   2.848   1.768
 4959SOL    HW215777   6.896   2.954   1.657
 4960SOL     OW15778   4.045   4.895   3.847
 4960SOL    HW115779   4.101   4.820   3.814
 4960SOL    HW215780   3.985   4.927   3.774
 4961SOL     OW15781   3.147   0.724   6.842
 4961SOL    HW115782   3.089   0.718   6.924
 4961SOL    HW215783   3.137   0.815   6.802
 4962SOL     OW15784   6.861   3.851   0.895
 4962SOL    HW115785   6.819   3.764   0.866
 4962SOL    HW215786   6.959   3.846   0.881
 4963SOL     OW15787   0.694   4.344   0.132
 4963SOL    HW115788   0.659   4.401   0.058
 4963SOL    HW215789   0.744   4.267   0.094
 4964SOL     OW15790   2.688   6.841   4.660
 4964SOL    HW115791   2.784   6.842   4.632
 4964SOL    HW215792   2.633   6.796   4.590
 4965SOL     OW15793   1.262   6.505   2.758
 4965SOL    HW115794   1.229   6.442   2.828
 4965SOL    HW215795   1.202   6.585   2.754
 4966SOL     OW15796   3.102   6.258   4.268
 4966SOL    HW115797   3.075   6.324   4.338
 4966SOL    HW215798   3.033   6.185   4.264
 4967SOL     OW15799   3.972   4.765   5.534
 4967SOL    HW115800   4.005   4.681   5.492
 4967SOL    HW215801   4.003   4.769   5.629
 4968SOL     OW15802   0.609   1.388   3.908
 4968SOL    HW115803   0.563   1.330   3.975
 4968SOL    HW215804   0.590   1.354   3.816
 4969SOL     OW15805   0.656   6.654   2.186
 4969SOL    HW115806   0.628   6.559   2.205
 4969SOL    HW215807   0.743   6.672   2.231
 4970SOL     OW15808   1.529   1.538   1.374
 4970SOL    HW115809   1.564   1.603   1.441
 4970SOL    HW215810   1.594   1.463   1.363
 4971SOL     OW15811   6.802   6.055   2.857
 4971SOL    HW115812   6.725   6.049   2.921
 4971SOL    HW215813   6.860   6.132   2.882
 4972SOL     OW15814   1.820   4.266   1.395
 4972SOL    HW115815   1.852   4.181   1.438
 4972SOL    HW215816   1.789   4.246   1.302
 4973SOL     OW15817   0.295   0.687   0.823
 4973SOL    HW115818   0.346   0.672   0.907
 4973SOL    HW215819   0.203   0.650   0.833
 4974SOL     OW15820   3.683   4.552   6.156
 4974SOL    HW115821   3.604   4.571   6.213
 4974SOL    HW215822   3.658   4.562   6.060
 4975SOL     OW15823   5.740   3.581   0.292
 4975SOL    HW115824   5.834   3.588   0.324
 4975SOL    HW215825   5.708   3.487   0.302
 4976SOL     OW15826   0.979   6.946   4.289
 4976SOL    HW115827   0.984   0.020   4.268
 4976SOL    HW215828   0.938   6.898   4.212
 4977SOL     OW15829   2.817   5.370   6.082
 4977SOL    HW115830   2.723   5.394   6.058
 4977SOL    HW215831   2.869   5.352   5.999
 4978SOL     OW15832   5.177   4.448   5.501
 4978SOL    HW115833   5.220   4.359   5.486
 4978SOL    HW215834   5.101   4.459   5.437
 4979SOL     OW15835   1.508   0.119   6.487
 4979SOL    HW115836   1.461   0.050   6.542
 4979SOL    HW215837   1.594   0.144   6.532
 4980SOL     OW15838   6.200   3.764   2.979
 4980SOL    HW115839   6.252   3.829   2.924
 4980SOL    HW215840   6.120   3.734   2.927
 4981SOL     OW15841   3.546   5.036   2.006
 4981SOL    HW115842   3.467   5.077   1.959
 4981SOL    HW215843   3.547   4.938   1.990
 4982SOL     OW15844   4.517   1.363   6.980
 4982SOL    HW115845   4.528   1.278   6.928
 4982SOL    HW215846   4.487   1.436   6.919
 4983SOL     OW15847   6.502   5.077   4.035
 4983SOL    HW115848   6.585   5.079   4.090
 4983SOL    HW215849   6.474   4.982   4.021
 4984SOL     OW15850   4.941   4.502   3.019
 4984SOL    HW115851   4.979   4.526   3.109
 4984SOL    HW215852   4.956   4.405   3.001
 4985SOL     OW15853   6.012   6.032   2.696
 4985SOL    HW115854   5.993   5.941   2.657
 4985SOL    HW215855   6.078   6.023   2.771
 4986SOL     OW15856   0.440   4.656   1.911
 4986SOL    HW115857   0.534   4.653   1.943
 4986SOL    HW215858   0.433   4.718   1.833
 4987SOL     OW15859   0.664   0.239   2.329
 4987SOL    HW115860   0.679   0.337   2.324
 4987SOL    HW215861   0.631   0.215   2.421
 4988SOL     OW15862   5.609   0.293   3.627
 4988SOL    HW115863   5.693   0.264   3.674
 4988SOL    HW215864   5.632   0.359   3.557
 4989SOL     OW15865   5.257   0.765   2.139
 4989SOL    HW115866   5.216   0.848   2.176
 4989SOL    HW215867   5.334   0.789   2.079
 4990SOL     OW15868   4.329   1.449   6.527
 4990SOL    HW115869   4.274   1.378   6.483
 4990SOL    HW215870   4.292   1.539   6.503
 4991SOL     OW15871   1.041   6.063   4.938
 4991SOL    HW115872   0.943   6.052   4.956
 4991SOL    HW215873   1.054   6.091   4.843
 4992SOL     OW15874   0.044   0.760   3.508
 4992SOL    HW115875   6.986   0.759   3.452
 4992SOL    HW215876   0.019   0.774   3.604
 4993SOL     OW15877   4.497   6.220   5.515
 4993SOL    HW115878   4.437   6.149   5.476
 4993SOL    HW215879   4.443   6.278   5.577
 4994SOL     OW15880   2.957   5.124   5.602
 4994SOL    HW115881   2.881   5.126   5.667
 4994SOL    HW215882   3.025   5.058   5.633
 4995SOL     OW15883   0.427   0.698   4.493
 4995SOL    HW115884   0.405   0.624   4.429
 4995SOL    HW215885   0.436   0.661   4.585
 4996SOL     OW15886   0.086   1.887   4.082
 4996SOL    HW115887   0.068   1.964   4.144
 4996SOL    HW215888   0.182   1.890   4.054
 4997SOL     OW15889   3.457   2.051   1.486
 4997SOL    HW115890   3.480   2.120   1.554
 4997SOL    HW215891   3.358   2.048   1.473
 4998SOL     OW15892   1.330   3.166   3.284
 4998SOL    HW115893   1.391   3.141   3.209
 4998SOL    HW215894   1.332   3.265   3.298
 4999SOL     OW15895   1.375   3.533   4.767
 4999SOL    HW115896   1.317   3.499   4.841
 4999SOL    HW215897   1.382   3.632   4.772
 5000SOL     OW15898   3.096   5.948   3.318
 5000SOL    HW115899   3.044   5.927   3.235
 5000SOL    HW215900   3.033   5.978   3.390
 5001SOL     OW15901   0.753   5.276   2.871
 5001SOL    HW115902   0.842   5.319   2.886
 5001SOL    HW215903   0.707   5.262   2.959
 5002SOL     OW15904   0.633   4.602   2.613
 5002SOL    HW115905   0.585   4.521   2.578
 5002SOL    HW215906   0.577   4.683   2.597
 5003SOL     OW15907   4.181   6.099   3.187
 5003SOL    HW115908   4.091   6.143   3.199
 5003SOL    HW215909   4.190   6.067   3.093
 5004SOL     OW15910   3.195   5.999   6.394
 5004SOL    HW115911   3.114   6.055   6.380
 5004SOL    HW215912   3.276   6.058   6.394
 5005SOL     OW15913   3.008   3.177   6.548
 5005SOL    HW115914   2.961   3.106   6.495
 5005SOL    HW215915   2.987   3.266   6.509
 5006SOL     OW15916   5.494   1.455   1.777
 5006SOL    HW115917   5.559   1.527   1.802
 5006SOL    HW215918   5.440   1.430   1.856
 5007SOL     OW15919   6.228   0.800   0.800
 5007SOL    HW115920   6.222   0.880   0.860
 5007SOL    HW215921   6.139   0.756   0.794
 5008SOL     OW15922   6.613   6.684   1.676
 5008SOL    HW115923   6.629   6.782   1.688
 5008SOL    HW215924   6.692   6.632   1.709
 5009SOL     OW15925   0.968   2.921   0.517
 5009SOL    HW115926   0.936   2.999   0.462
 5009SOL    HW215927   0.927   2.837   0.481
 5010SOL     OW15928   3.329   2.565   0.245
 5010SOL    HW115929   3.318   2.570   0.146
 5010SOL    HW215930   3.355   2.472   0.271
 5011SOL     OW15931   1.866   3.730   0.121
 5011SOL    HW115932   1.939   3.746   0.187
 5011SOL    HW215933   1.778   3.747   0.165
 5012SOL     OW15934   5.632   2.300   5.431
 5012SOL    HW115935   5.704   2.358   5.394
 5012SOL    HW215936   5.660   2.263   5.519
 5013SOL     OW15937   6.155   0.361   5.561
 5013SOL    HW115938   6.168   0.322   5.469
 5013SOL    HW215939   6.237   0.413   5.587
 5014SOL     OW15940   6.739   4.305   0.417
 5014SOL    HW115941   6.761   4.400   0.438
 5014SOL    HW215942   6.686   4.266   0.492
 5015SOL     OW15943   5.597   0.538   4.553
 5015SOL    HW115944   5.519   0.478   4.572
 5015SOL    HW215945   5.577   0.630   4.588
 5016SOL     OW15946   1.201   3.172   4.788
 5016SOL    HW115947   1.278   3.207   4.734
 5016SOL    HW215948   1.163   3.246   4.843
 5017SOL     OW15949   0.854   2.652   0.887
 5017SOL    HW115950   0.936   2.698   0.855
 5017SOL    HW215951   0.813   2.705   0.962
 5018SOL     OW15952   0.442   5.519   2.356
 5018SOL    HW115953   0.515   5.545   2.292
 5018SOL    HW215954   0.355   5.554   2.322
 5019SOL     OW15955   1.832   5.554   5.632
 5019SOL    HW115956   1.922   5.547   5.588
 5019SOL    HW215957   1.839   5.611   5.714
 5020SOL     OW15958   0.593   6.959   4.777
 5020SOL    HW115959   0.511   7.015   4.763
 5020SOL    HW215960   0.610   6.950   4.875
 5021SOL     OW15961   1.557   0.381   1.178
 5021SOL    HW115962   1.555   0.286   1.148
 5021SOL    HW215963   1.538   0.386   1.276
 5022SOL     OW15964   0.224   2.838   1.572
 5022SOL    HW115965   0.155   2.811   1.639
 5022SOL    HW215966   0.180   2.854   1.484
 5023SOL     OW15967   6.923   3.667   1.460
 5023SOL    HW115968   6.901   3.765   1.454
 5023SOL    HW215969   6.842   3.616   1.489
 5024SOL     OW15970   5.327   4.045   0.637
 5024SOL    HW115971   5.250   4.070   0.695
 5024SOL    HW215972   5.413   4.059   0.687
 5025SOL     OW15973   4.148   1.701   4.335
 5025SOL    HW115974   4.208   1.622   4.351
 5025SOL    HW215975   4.109   1.730   4.423
 5026SOL     OW15976   6.578   5.316   4.586
 5026SOL    HW115977   6.484   5.348   4.577
 5026SOL    HW215978   6.637   5.393   4.611
 5027SOL     OW15979   5.449   0.929   1.264
 5027SOL    HW115980   5.509   0.888   1.195
 5027SOL    HW215981   5.417   1.018   1.231
 5028SOL     OW15982   0.109   1.940   3.097
 5028SOL    HW115983   0.123   1.925   3.195
 5028SOL    HW215984   0.112   2.038   3.077
 5029SOL     OW15985   6.543   3.125   2.436
 5029SOL    HW115986   6.458   3.100   2.483
 5029SOL    HW215987   6.614   3.145   2.504
 5030SOL     OW15988   6.878   5.786   6.333
 5030SOL    HW115989   6.780   5.774   6.317
 5030SOL    HW215990   6.902   5.754   6.425
 5031SOL     OW15991   6.993   1.016   5.136
 5031SOL    HW115992   6.944   1.099   5.109
 5031SOL    HW215993   7.007   1.017   5.235
 5032SOL     OW15994   3.384   2.306   6.263
 5032SOL    HW115995   3.403   2.381   6.327
 5032SOL    HW215996   3.470   2.264   6.235
 5033SOL     OW15997   2.185   1.432   0.190
 5033SOL    HW115998   2.252   1.382   0.135
 5033SOL    HW215999   2.231   1.504   0.242
 5034SOL     OW16000   4.210   6.721   4.307
 5034SOL    HW116001   4.304   6.716   4.340
 5034SOL    HW216002   4.165   6.801   4.347
 5035SOL     OW16003   6.883   4.256   5.375
 5035SOL    HW116004   6.964   4.253   5.435
 5035SOL    HW216005   6.911   4.237   5.281
 5036SOL     OW16006   6.897   4.555   5.646
 5036SOL    HW116007   6.822   4.552   5.712
 5036SOL    HW216008   6.862   4.536   5.554
 5037SOL     OW16009   4.390   4.538   1.441
 5037SOL    HW116010   4.454   4.594   1.495
 5037SOL    HW216011   4.382   4.448   1.482
 5038SOL     OW16012   3.815   3.561   4.253
 5038SOL    HW116013   3.913   3.543   4.261
 5038SOL    HW216014   3.787   3.550   4.158
 5039SOL     OW16015   2.119   3.324   6.154
 5039SOL    HW116016   2.183   3.388   6.109
 5039SOL    HW216017   2.140   3.231   6.125
 5040SOL     OW16018   1.240   5.319   5.537
 5040SOL    HW116019   1.222   5.252   5.609
 5040SOL    HW216020   1.324   5.295   5.489
 5041SOL     OW16021   1.267   2.864   1.959
 5041SOL    HW116022   1.193   2.833   2.019
 5041SOL    HW216023   1.344   2.897   2.014
 5042SOL     OW16024   6.864   3.637   6.538
 5042SOL    HW116025   6.878   3.679   6.448
 5042SOL    HW216026   6.943   3.580   6.561
 5043SOL     OW16027   4.428   0.704   0.276
 5043SOL    HW116028   4.465   0.794   0.301
 5043SOL    HW216029   4.328   0.710   0.271
 5044SOL     OW16030   0.095   6.232   1.666
 5044SOL    HW116031   0.027   6.303   1.651
 5044SOL    HW216032   0.163   6.264   1.732
 5045SOL     OW16033   6.327   4.977   5.897
 5045SOL    HW116034   6.236   5.014   5.879
 5045SOL    HW216035   6.380   5.042   5.951
 5046SOL     OW16036   3.900   3.843   4.182
 5046SOL    HW116037   3.819   3.786   4.180
 5046SOL    HW216038   3.884   3.921   4.243
 5047SOL     OW16039   2.103   3.551   2.835
 5047SOL    HW116040   2.115   3.465   2.884
 5047SOL    HW216041   2.103   3.627   2.901
 5048SOL     OW16042   1.774   0.881   4.942
 5048SOL    HW116043   1.716   0.957   4.974
 5048SOL    HW216044   1.806   0.828   5.020
 5049SOL     OW16045   5.830   1.212   6.428
 5049SOL    HW116046   5.809   1.117   6.451
 5049SOL    HW216047   5.903   1.245   6.489
 5050SOL     OW16048   1.567   1.621   6.809
 5050SOL    HW116049   1.492   1.663   6.759
 5050SOL    HW216050   1.533   1.545   6.865
 5051SOL     OW16051   4.069   4.670   1.157
 5051SOL    HW116052   4.115   4.759   1.160
 5051SOL    HW216053   3.971   4.682   1.167
 5052SOL     OW16054   3.988   1.899   6.116
 5052SOL    HW116055   3.921   1.858   6.178
 5052SOL    HW216056   4.064   1.937   6.170
 5053SOL     OW16057   0.838   5.152   3.177
 5053SOL    HW116058   0.745   5.145   3.141
 5053SOL    HW216059   0.859   5.248   3.196
 5054SOL     OW16060   3.748   4.928   5.474
 5054SOL    HW116061   3.807   4.867   5.526
 5054SOL    HW216062   3.680   4.874   5.423
 5055SOL     OW16063   0.781   2.810   6.272
 5055SOL    HW116064   0.796   2.858   6.185
 5055SOL    HW216065   0.845   2.734   6.279
 5056SOL     OW16066   5.222   4.065   5.296
 5056SOL    HW116067   5.238   4.106   5.206
 5056SOL    HW216068   5.147   3.999   5.289
 5057SOL     OW16069   0.894   0.130   2.208
 5057SOL    HW116070   0.889   0.040   2.250
 5057SOL    HW216071   0.810   0.180   2.227
 5058SOL     OW16072   3.590   4.595   6.795
 5058SOL    HW116073   3.627   4.562   6.708
 5058SOL    HW216074   3.661   4.589   6.865
 5059SOL     OW16075   0.205   0.153   3.336
 5059SOL    HW116076   0.208   0.128   3.432
 5059SOL    HW216077   0.169   0.245   3.326
 5060SOL     OW16078   6.795   2.167   6.222
 5060SOL    HW116079   6.811   2.098   6.292
 5060SOL    HW216080   6.699   2.168   6.196
 5061SOL     OW16081   4.848   2.180   6.962
 5061SOL    HW116082   4.850   2.108   6.892
 5061SOL    HW216083   4.773   2.161   0.002
 5062SOL     OW16084   0.301   0.076   2.105
 5062SOL    HW116085   0.401   0.073   2.101
 5062SOL    HW216086   0.263   0.031   2.025
 5063SOL     OW16087   0.285   6.783   1.543
 5063SOL    HW116088   0.321   6.751   1.630
 5063SOL    HW216089   0.306   6.880   1.531
 5064SOL     OW16090   4.700   3.054   0.266
 5064SOL    HW116091   4.608   3.040   0.303
 5064SOL    HW216092   4.694   3.066   0.167
 5065SOL     OW16093   3.240   0.081   5.423
 5065SOL    HW116094   3.208   0.170   5.455
 5065SOL    HW216095   3.340   0.079   5.424
 5066SOL     OW16096   5.532   3.983   1.700
 5066SOL    HW116097   5.528   4.079   1.672
 5066SOL    HW216098   5.445   3.956   1.741
 5067SOL     OW16099   5.517   1.361   0.008
 5067SOL    HW116100   5.422   1.358   0.039
 5067SOL    HW216101   5.521   1.335   6.935
 5068SOL     OW16102   2.920   4.385   1.031
 5068SOL    HW116103   2.956   4.335   1.109
 5068SOL    HW216104   2.890   4.477   1.060
 5069SOL     OW16105   1.470   4.161   2.634
 5069SOL    HW116106   1.403   4.121   2.572
 5069SOL    HW216107   1.424   4.190   2.718
 5070SOL     OW16108   4.947   3.382   4.182
 5070SOL    HW116109   4.898   3.338   4.257
 5070SOL    HW216110   5.015   3.445   4.219
 5071SOL     OW16111   4.365   2.404   4.737
 5071SOL    HW116112   4.375   2.305   4.734
 5071SOL    HW216113   4.308   2.429   4.815
 5072SOL     OW16114   0.610   5.622   0.773
 5072SOL    HW116115   0.551   5.702   0.783
 5072SOL    HW216116   0.602   5.585   0.681
 5073SOL     OW16117   6.676   6.706   2.510
 5073SOL    HW116118   6.581   6.723   2.486
 5073SOL    HW216119   6.687   6.610   2.536
 5074SOL     OW16120   3.162   4.025   0.037
 5074SOL    HW116121   3.116   4.100   0.084
 5074SOL    HW216122   3.204   4.059   6.976
 5075SOL     OW16123   0.039   0.944   5.641
 5075SOL    HW116124   0.116   0.922   5.701
 5075SOL    HW216125   6.987   0.980   5.696
 5076SOL     OW16126   3.385   0.556   0.734
 5076SOL    HW116127   3.371   0.653   0.753
 5076SOL    HW216128   3.427   0.512   0.813
 5077SOL     OW16129   1.586   2.436   3.821
 5077SOL    HW116130   1.519   2.500   3.784
 5077SOL    HW216131   1.540   2.369   3.880
 5078SOL     OW16132   1.270   2.053   3.350
 5078SOL    HW116133   1.345   2.068   3.414
 5078SOL    HW216134   1.296   2.087   3.259
 5079SOL     OW16135   2.900   5.661   6.169
 5079SOL    HW116136   2.869   5.569   6.144
 5079SOL    HW216137   2.993   5.656   6.205
 5080SOL     OW16138   5.582   6.463   4.967
 5080SOL    HW116139   5.674   6.495   4.948
 5080SOL    HW216140   5.533   6.532   5.021
 5081SOL     OW16141   3.181   4.065   2.997
 5081SOL    HW116142   3.278   4.076   3.021
 5081SOL    HW216143   3.127   4.054   3.080
 5082SOL     OW16144   6.045   6.666   5.661
 5082SOL    HW116145   6.112   6.735   5.633
 5082SOL    HW216146   6.071   6.629   5.750
 5083SOL     OW16147   1.582   6.884   2.220
 5083SOL    HW116148   1.604   6.822   2.145
 5083SOL    HW216149   1.503   6.940   2.196
 5084SOL     OW16150   1.413   4.655   4.313
 5084SOL    HW116151   1.495   4.602   4.293
 5084SOL    HW216152   1.356   4.605   4.378
 5085SOL     OW16153   5.498   1.256   6.767
 5085SOL    HW116154   5.535   1.246   6.674
 5085SOL    HW216155   5.404   1.289   6.762
 5086SOL     OW16156   6.262   4.787   4.163
 5086SOL    HW116157   6.225   4.873   4.200
 5086SOL    HW216158   6.358   4.800   4.139
 5087SOL     OW16159   6.731   6.402   4.392
 5087SOL    HW116160   6.781   6.448   4.319
 5087SOL    HW216161   6.637   6.436   4.396
 5088SOL     OW16162   6.405   1.044   6.130
 5088SOL    HW116163   6.347   0.974   6.088
 5088SOL    HW216164   6.411   1.124   6.071
 5089SOL     OW16165   6.445   3.311   3.018
 5089SOL    HW116166   6.349   3.338   3.011
 5089SOL    HW216167   6.453   3.239   3.087
 5090SOL     OW16168   2.383   4.749   1.094
 5090SOL    HW116169   2.399   4.821   1.161
 5090SOL    HW216170   2.336   4.672   1.138
 5091SOL     OW16171   1.187   6.087   2.926
 5091SOL    HW116172   1.169   5.997   2.966
 5091SOL    HW216173   1.203   6.078   2.828
 5092SOL     OW16174   3.576   2.579   1.737
 5092SOL    HW116175   3.481   2.605   1.752
 5092SOL    HW216176   3.596   2.494   1.786
 5093SOL     OW16177   1.335   2.351   1.861
 5093SOL    HW116178   1.292   2.386   1.778
 5093SOL    HW216179   1.387   2.425   1.905
 5094SOL     OW16180   0.828   6.973   5.699
 5094SOL    HW116181   0.851   6.876   5.703
 5094SOL    HW216182   0.743   6.989   5.749
 5095SOL     OW16183   1.596   0.684   4.567
 5095SOL    HW116184   1.635   0.761   4.517
 5095SOL    HW216185   1.662   0.653   4.636
 5096SOL     OW16186   4.864   3.693   0.772
 5096SOL    HW116187   4.963   3.709   0.777
 5096SOL    HW216188   4.837   3.630   0.844
 5097SOL     OW16189   1.615   0.829   5.808
 5097SOL    HW116190   1.698   0.866   5.849
 5097SOL    HW216191   1.549   0.903   5.793
 5098SOL     OW16192   0.859   1.147   1.772
 5098SOL    HW116193   0.939   1.197   1.804
 5098SOL    HW216194   0.819   1.194   1.693
 5099SOL     OW16195   1.181   0.567   5.722
 5099SOL    HW116196   1.281   0.575   5.723
 5099SOL    HW216197   1.155   0.475   5.691
 5100SOL     OW16198   5.217   7.015   6.447
 5100SOL    HW116199   5.305   0.038   6.455
 5100SOL    HW216200   5.164   0.005   6.531
 5101SOL     OW16201   4.790   6.352   0.153
 5101SOL    HW116202   4.745   6.286   0.093
 5101SOL    HW216203   4.888   6.354   0.133
 5102SOL     OW16204   5.497   0.877   5.657
 5102SOL    HW116205   5.548   0.952   5.698
 5102SOL    HW216206   5.426   0.913   5.596
 5103SOL     OW16207   0.055   0.409   4.200
 5103SOL    HW116208   7.020   0.333   4.231
 5103SOL    HW216209   0.019   0.495   4.235
 5104SOL     OW16210   2.192   0.926   1.574
 5104SOL    HW116211   2.189   0.879   1.662
 5104SOL    HW216212   2.108   0.978   1.562
 5105SOL     OW16213   4.205   4.136   6.494
 5105SOL    HW116214   4.214   4.082   6.411
 5105SOL    HW216215   4.292   4.136   6.544
 5106SOL     OW16216   3.262   0.240   2.667
 5106SOL    HW116217   3.302   0.307   2.729
 5106SOL    HW216218   3.250   0.280   2.577
 5107SOL     OW16219   2.804   0.557   6.941
 5107SOL    HW116220   2.861   0.570   6.860
 5107SOL    HW216221   2.711   0.532   6.913
 5108SOL     OW16222   3.014   3.741   3.811
 5108SOL    HW116223   2.981   3.696   3.728
 5108SOL    HW216224   3.112   3.723   3.822
 5109SOL     OW16225   0.404   1.375   1.010
 5109SOL    HW116226   0.503   1.376   1.019
 5109SOL    HW216227   0.374   1.461   0.968
 5110SOL     OW16228   2.259   6.416   6.039
 5110SOL    HW116229   2.266   6.338   6.101
 5110SOL    HW216230   2.221   6.387   5.951
 5111SOL     OW16231   1.064   1.379   6.474
 5111SOL    HW116232   1.065   1.374   6.374
 5111SOL    HW216233   0.977   1.343   6.507
 5112SOL     OW16234   0.210   6.374   3.678
 5112SOL    HW116235   0.113   6.360   3.659
 5112SOL    HW216236   0.251   6.425   3.603
 5113SOL     OW16237   1.031   0.694   0.479
 5113SOL    HW116238   1.086   0.774   0.499
 5113SOL    HW216239   0.993   0.702   0.386
 5114SOL     OW16240   3.328   4.716   0.421
 5114SOL    HW116241   3.239   4.731   0.378
 5114SOL    HW216242   3.371   4.804   0.442
 5115SOL     OW16243   1.642   4.113   6.590
 5115SOL    HW116244   1.703   4.050   6.541
 5115SOL    HW216245   1.609   4.183   6.527
 5116SOL     OW16246   4.877   4.846   6.308
 5116SOL    HW116247   4.973   4.821   6.320
 5116SOL    HW216248   4.822   4.762   6.307
 5117SOL     OW16249   2.671   4.755   4.022
 5117SOL    HW116250   2.614   4.804   3.956
 5117SOL    HW216251   2.614   4.724   4.098
 5118SOL     OW16252   4.544   6.009   0.136
 5118SOL    HW116253   4.533   6.002   0.235
 5118SOL    HW216254   4.510   5.926   0.092
 5119SOL     OW16255   5.400   0.893   1.927
 5119SOL    HW116256   5.476   0.938   1.974
 5119SOL    HW216257   5.325   0.959   1.913
 5120SOL     OW16258   5.853   0.725   3.159
 5120SOL    HW116259   5.789   0.774   3.219
 5120SOL    HW216260   5.875   0.636   3.199
 5121SOL     OW16261   0.079   3.182   5.513
 5121SOL    HW116262   0.166   3.131   5.515
 5121SOL    HW216263   0.089   3.262   5.455
 5122SOL     OW16264   2.593   0.570   3.401
 5122SOL    HW116265   2.689   0.549   3.380
 5122SOL    HW216266   2.562   0.644   3.341
 5123SOL     OW16267   5.299   3.802   3.438
 5123SOL    HW116268   5.300   3.769   3.344
 5123SOL    HW216269   5.388   3.842   3.460
 5124SOL     OW16270   2.476   6.422   6.413
 5124SOL    HW116271   2.499   6.372   6.329
 5124SOL    HW216272   2.431   6.360   6.477
 5125SOL     OW16273   0.174   3.701   4.211
 5125SOL    HW116274   0.167   3.602   4.204
 5125SOL    HW216275   0.246   3.734   4.149
 5126SOL     OW16276   6.119   4.769   6.513
 5126SOL    HW116277   6.216   4.756   6.531
 5126SOL    HW216278   6.104   4.857   6.468
 5127SOL     OW16279   5.629   3.837   6.798
 5127SOL    HW116280   5.625   3.884   6.885
 5127SOL    HW216281   5.538   3.802   6.774
 5128SOL     OW16282   1.205   0.676   6.716
 5128SOL    HW116283   1.281   0.626   6.674
 5128SOL    HW216284   1.217   0.674   6.816
 5129SOL     OW16285   5.380   0.108   2.124
 5129SOL    HW116286   5.386   0.198   2.167
 5129SOL    HW216287   5.414   0.038   2.188
 5130SOL     OW16288   1.260   5.160   4.745
 5130SOL    HW116289   1.227   5.068   4.721
 5130SOL    HW216290   1.285   5.162   4.842
 5131SOL     OW16291   3.183   4.906   3.505
 5131SOL    HW116292   3.122   4.907   3.426
 5131SOL    HW216293   3.278   4.903   3.474
 5132SOL     OW16294   3.737   1.457   6.584
 5132SOL    HW116295   3.774   1.365   6.582
 5132SOL    HW216296   3.648   1.459   6.537
 5133SOL     OW16297   3.858   5.917   6.599
 5133SOL    HW116298   3.786   5.911   6.669
 5133SOL    HW216299   3.845   5.844   6.532
 5134SOL     OW16300   6.328   6.711   1.234
 5134SOL    HW116301   6.254   6.740   1.174
 5134SOL    HW216302   6.318   6.754   1.324
 5135SOL     OW16303   6.402   3.115   2.202
 5135SOL    HW116304   6.474   3.130   2.269
 5135SOL    HW216305   6.416   3.027   2.156
 5136SOL     OW16306   0.887   0.778   6.276
 5136SOL    HW116307   0.846   0.718   6.207
 5136SOL    HW216308   0.921   0.722   6.352
 5137SOL     OW16309   4.994   2.639   5.314
 5137SOL    HW116310   4.924   2.568   5.310
 5137SOL    HW216311   5.068   2.609   5.374
 5138SOL     OW16312   3.658   3.711   4.440
 5138SOL    HW116313   3.679   3.681   4.347
 5138SOL    HW216314   3.563   3.744   4.443
 5139SOL     OW16315   1.858   0.126   5.111
 5139SOL    HW116316   1.943   0.079   5.088
 5139SOL    HW216317   1.849   0.133   5.210
 5140SOL     OW16318   4.139   1.951   5.754
 5140SOL    HW116319   4.076   1.909   5.820
 5140SOL    HW216320   4.200   1.880   5.719
 5141SOL     OW16321   6.798   2.875   1.912
 5141SOL    HW116322   6.824   2.947   1.975
 5141SOL    HW216323   6.699   2.871   1.905
 5142SOL     OW16324   0.190   6.756   3.546
 5142SOL    HW116325   0.240   6.741   3.631
 5142SOL    HW216326   0.200   6.851   3.518
 5143SOL     OW16327   0.818   4.695   4.408
 5143SOL    HW116328   0.845   4.787   4.434
 5143SOL    HW216329   0.890   4.630   4.433
 5144SOL     OW16330   1.850   3.644   6.565
 5144SOL    HW116331   1.943   3.616   6.538
 5144SOL    HW216332   1.836   3.624   6.662
 5145SOL     OW16333   2.689   6.564   6.546
 5145SOL    HW116334   2.635   6.499   6.492
 5145SOL    HW216335   2.687   6.653   6.502
 5146SOL     OW16336   4.362   4.729   5.933
 5146SOL    HW116337   4.313   4.767   6.011
 5146SOL    HW216338   4.355   4.629   5.934
 5147SOL     OW16339   4.844   3.155   3.256
 5147SOL    HW116340   4.906   3.161   3.177
 5147SOL    HW216341   4.791   3.070   3.249
 5148SOL     OW16342   0.552   0.814   1.704
 5148SOL    HW116343   0.605   0.880   1.758
 5148SOL    HW216344   0.485   0.864   1.648
 5149SOL     OW16345   5.583   4.463   3.503
 5149SOL    HW116346   5.556   4.560   3.498
 5149SOL    HW216347   5.570   4.430   3.596
 5150SOL     OW16348   1.319   4.974   3.915
 5150SOL    HW116349   1.382   4.935   3.982
 5150SOL    HW216350   1.246   5.023   3.963
 5151SOL     OW16351   5.832   4.761   2.173
 5151SOL    HW116352   5.840   4.763   2.073
 5151SOL    HW216353   5.837   4.666   2.204
 5152SOL     OW16354   1.459   0.360   6.365
 5152SOL    HW116355   1.391   0.354   6.292
 5152SOL    HW216356   1.466   0.272   6.412
 5153SOL     OW16357   1.341   1.628   0.529
 5153SOL    HW116358   1.358   1.588   0.620
 5153SOL    HW216359   1.423   1.678   0.500
 5154SOL     OW16360   0.671   3.002   6.628
 5154SOL    HW116361   0.758   3.047   6.606
 5154SOL    HW216362   0.630   2.967   6.544
 5155SOL     OW16363   2.235   1.830   0.363
 5155SOL    HW116364   2.253   1.858   0.269
 5155SOL    HW216365   2.207   1.909   0.418
 5156SOL     OW16366   5.417   5.016   5.900
 5156SOL    HW116367   5.430   4.964   5.815
 5156SOL    HW216368   5.401   5.112   5.878
 5157SOL     OW16369   3.792   0.694   2.433
 5157SOL    HW116370   3.813   0.772   2.373
 5157SOL    HW216371   3.876   0.662   2.476
 5158SOL     OW16372   4.256   1.348   2.683
 5158SOL    HW116373   4.170   1.315   2.724
 5158SOL    HW216374   4.271   1.443   2.709
 5159SOL     OW16375   5.389   3.524   6.080
 5159SOL    HW116376   5.391   3.577   5.996
 5159SOL    HW216377   5.320   3.453   6.073
 5160SOL     OW16378   0.184   6.300   3.320
 5160SOL    HW116379   0.092   6.281   3.286
 5160SOL    HW216380   0.196   6.399   3.331
 5161SOL     OW16381   0.645   3.303   0.461
 5161SOL    HW116382   0.644   3.236   0.535
 5161SOL    HW216383   0.708   3.377   0.483
 5162SOL     OW16384   0.134   6.523   2.894
 5162SOL    HW116385   0.086   6.555   2.976
 5162SOL    HW216386   0.195   6.595   2.860
 5163SOL     OW16387   3.258   6.344   1.972
 5163SOL    HW116388   3.215   6.432   1.954
 5163SOL    HW216389   3.197   6.270   1.943
 5164SOL     OW16390   2.874   3.687   1.135
 5164SOL    HW116391   2.883   3.615   1.204
 5164SOL    HW216392   2.815   3.759   1.171
 5165SOL     OW16393   1.712   4.840   0.081
 5165SOL    HW116394   1.703   4.912   0.012
 5165SOL    HW216395   1.808   4.814   0.089
 5166SOL     OW16396   1.862   5.605   1.656
 5166SOL    HW116397   1.836   5.550   1.577
 5166SOL    HW216398   1.932   5.556   1.708
 5167SOL     OW16399   5.292   3.051   5.296
 5167SOL    HW116400   5.361   3.122   5.308
 5167SOL    HW216401   5.201   3.092   5.302
 5168SOL     OW16402   4.105   2.204   1.953
 5168SOL    HW116403   4.042   2.186   1.877
 5168SOL    HW216404   4.058   2.188   2.040
 5169SOL     OW16405   4.198   0.558   4.015
 5169SOL    HW116406   4.239   0.641   3.977
 5169SOL    HW216407   4.185   0.570   4.114
 5170SOL     OW16408   1.443   3.604   6.461
 5170SOL    HW116409   1.512   3.658   6.414
 5170SOL    HW216410   1.468   3.594   6.557
 5171SOL     OW16411   2.033   5.984   5.483
 5171SOL    HW116412   1.985   5.972   5.569
 5171SOL    HW216413   2.117   5.931   5.483
 5172SOL     OW16414   0.548   5.040   3.960
 5172SOL    HW116415   0.611   4.964   3.945
 5172SOL    HW216416   0.458   5.016   3.926
 5173SOL     OW16417   4.392   3.881   5.822
 5173SOL    HW116418   4.448   3.856   5.743
 5173SOL    HW216419   4.296   3.871   5.799
 5174SOL     OW16420   2.390   6.638   3.395
 5174SOL    HW116421   2.376   6.643   3.493
 5174SOL    HW216422   2.303   6.653   3.348
 5175SOL     OW16423   3.174   4.388   6.915
 5175SOL    HW116424   3.221   4.337   6.988
 5175SOL    HW216425   3.238   4.452   6.873
 5176SOL     OW16426   5.301   5.304   0.333
 5176SOL    HW116427   5.395   5.335   0.350
 5176SOL    HW216428   5.266   5.348   0.250
 5177SOL     OW16429   4.824   0.813   0.736
 5177SOL    HW116430   4.751   0.857   0.788
 5177SOL    HW216431   4.885   0.883   0.699
 5178SOL     OW16432   0.859   3.450   1.824
 5178SOL    HW116433   0.779   3.509   1.812
 5178SOL    HW216434   0.904   3.436   1.736
 5179SOL     OW16435   6.067   4.616   3.349
 5179SOL    HW116436   6.152   4.575   3.382
 5179SOL    HW216437   6.038   4.570   3.266
 5180SOL     OW16438   2.773   0.001   1.446
 5180SOL    HW116439   2.770   6.983   1.355
 5180SOL    HW216440   2.819   0.090   1.440
 5181SOL     OW16441   0.393   0.766   6.639
 5181SOL    HW116442   0.303   0.799   6.610
 5181SOL    HW216443   0.432   0.708   6.568
 5182SOL     OW16444   4.252   5.049   2.813
 5182SOL    HW116445   4.308   5.053   2.895
 5182SOL    HW216446   4.187   5.125   2.813
 5183SOL     OW16447   4.156   1.734   3.717
 5183SOL    HW116448   4.215   1.806   3.753
 5183SOL    HW216449   4.122   1.760   3.627
 5184SOL     OW16450   2.034   1.663   4.134
 5184SOL    HW116451   1.973   1.614   4.071
 5184SOL    HW216452   2.108   1.706   4.082
 5185SOL     OW16453   5.505   0.648   1.785
 5185SOL    HW116454   5.477   0.740   1.813
 5185SOL    HW216455   5.598   0.651   1.748
 5186SOL     OW16456   6.802   3.117   5.858
 5186SOL    HW116457   6.862   3.098   5.935
 5186SOL    HW216458   6.847   3.183   5.797
 5187SOL     OW16459   2.254   4.486   5.350
 5187SOL    HW116460   2.272   4.471   5.252
 5187SOL    HW216461   2.225   4.400   5.392
 5188SOL     OW16462   6.656   6.929   1.782
 5188SOL    HW116463   6.651   6.918   1.881
 5188SOL    HW216464   6.589   6.998   1.752
 5189SOL     OW16465   5.728   0.383   6.084
 5189SOL    HW116466   5.747   0.331   6.000
 5189SOL    HW216467   5.814   0.398   6.133
 5190SOL     OW16468   1.589   2.930   1.600
 5190SOL    HW116469   1.539   3.016   1.597
 5190SOL    HW216470   1.682   2.946   1.632
 5191SOL     OW16471   2.905   5.883   2.214
 5191SOL    HW116472   2.952   5.874   2.302
 5191SOL    HW216473   2.841   5.960   2.218
 5192SOL     OW16474   2.053   5.478   1.798
 5192SOL    HW116475   2.057   5.388   1.840
 5192SOL    HW216476   2.146   5.515   1.788
 5193SOL     OW16477   5.599   0.368   6.830
 5193SOL    HW116478   5.687   0.399   6.793
 5193SOL    HW216479   5.526   0.396   6.768
 5194SOL     OW16480   4.229   1.872   0.080
 5194SOL    HW116481   4.270   1.963   0.090
 5194SOL    HW216482   4.247   1.837   7.012
 5195SOL     OW16483   0.286   1.089   4.211
 5195SOL    HW116484   0.224   1.155   4.253
 5195SOL    HW216485   0.278   1.001   4.257
 5196SOL     OW16486   4.395   6.888   3.512
 5196SOL    HW116487   4.418   6.791   3.502
 5196SOL    HW216488   4.423   6.938   3.431
 5197SOL     OW16489   1.489   4.427   6.035
 5197SOL    HW116490   1.407   4.473   6.001
 5197SOL    HW216491   1.463   4.348   6.091
 5198SOL     OW16492   5.369   5.482   3.032
 5198SOL    HW116493   5.383   5.580   3.040
 5198SOL    HW216494   5.457   5.435   3.037
 5199SOL     OW16495   6.740   5.525   1.232
 5199SOL    HW116496   6.646   5.493   1.219
 5199SOL    HW216497   6.782   5.475   1.307
 5200SOL     OW16498   0.238   3.870   5.681
 5200SOL    HW116499   0.160   3.916   5.639
 5200SOL    HW216500   0.207   3.819   5.761
 5201SOL     OW16501   1.850   5.712   3.868
 5201SOL    HW116502   1.751   5.720   3.877
 5201SOL    HW216503   1.893   5.799   3.893
 5202SOL     OW16504   6.602   3.531   6.562
 5202SOL    HW116505   6.699   3.557   6.565
 5202SOL    HW216506   6.593   3.433   6.578
 5203SOL     OW16507   0.234   2.738   6.883
 5203SOL    HW116508   0.288   2.822   6.891
 5203SOL    HW216509   0.199   2.712   6.973
 5204SOL     OW16510   4.396   5.003   0.450
 5204SOL    HW116511   4.469   5.029   0.386
 5204SOL    HW216512   4.337   4.935   0.406
 5205SOL     OW16513   1.405   1.135   1.602
 5205SOL    HW116514   1.437   1.044   1.629
 5205SOL    HW216515   1.409   1.197   1.680
 5206SOL     OW16516   0.304   4.387   7.015
 5206SOL    HW116517   0.241   4.446   0.042
 5206SOL    HW216518   0.279   4.292   0.004
 5207SOL     OW16519   1.596   5.572   4.326
 5207SOL    HW116520   1.654   5.569   4.407
 5207SOL    HW216521   1.653   5.562   4.244
 5208SOL     OW16522   4.176   0.771   0.295
 5208SOL    HW116523   4.097   0.726   0.253
 5208SOL    HW216524   4.148   0.811   0.382
 5209SOL     OW16525   6.112   5.940   3.418
 5209SOL    HW116526   6.020   5.957   3.383
 5209SOL    HW216527   6.129   6.000   3.496
 5210SOL     OW16528   4.992   3.836   4.048
 5210SOL    HW116529   4.970   3.882   3.962
 5210SOL    HW216530   4.945   3.748   4.052
 5211SOL     OW16531   3.328   3.507   3.485
 5211SOL    HW116532   3.349   3.600   3.515
 5211SOL    HW216533   3.329   3.502   3.385
 5212SOL     OW16534   0.587   2.360   0.308
 5212SOL    HW116535   0.581   2.457   0.283
 5212SOL    HW216536   0.504   2.332   0.356
 5213SOL     OW16537   5.151   2.881   5.485
 5213SOL    HW116538   5.192   2.894   5.395
 5213SOL    HW216539   5.160   2.785   5.512
 5214SOL     OW16540   5.647   1.554   5.182
 5214SOL    HW116541   5.629   1.627   5.248
 5214SOL    HW216542   5.587   1.565   5.103
 5215SOL     OW16543   5.271   4.482   3.478
 5215SOL    HW116544   5.232   4.390   3.487
 5215SOL    HW216545   5.357   4.476   3.426
 5216SOL     OW16546   5.083   4.334   1.665
 5216SOL    HW116547   5.118   4.379   1.746
 5216SOL    HW216548   5.064   4.402   1.594
 5217SOL     OW16549   3.546   5.307   4.024
 5217SOL    HW116550   3.537   5.300   4.124
 5217SOL    HW216551   3.626   5.362   4.002
 5218SOL     OW16552   1.867   6.706   3.893
 5218SOL    HW116553   1.845   6.696   3.991
 5218SOL    HW216554   1.782   6.703   3.840
 5219SOL     OW16555   3.074   6.993   6.319
 5219SOL    HW116556   3.148   6.929   6.299
 5219SOL    HW216557   3.020   6.959   6.395
 5220SOL     OW16558   1.234   5.860   2.215
 5220SOL    HW116559   1.208   5.779   2.267
 5220SOL    HW216560   1.333   5.870   2.216
 5221SOL     OW16561   5.291   1.279   4.445
 5221SOL    HW116562   5.227   1.305   4.372
 5221SOL    HW216563   5.371   1.236   4.404
 5222SOL     OW16564   2.362   0.662   4.387
 5222SOL    HW116565   2.273   0.617   4.402
 5222SOL    HW216566   2.384   0.720   4.466
 5223SOL     OW16567   4.911   0.391   1.363
 5223SOL    HW116568   4.828   0.335   1.358
 5223SOL    HW216569   4.989   0.337   1.333
 5224SOL     OW16570   6.765   2.228   2.342
 5224SOL    HW116571   6.849   2.244   2.290
 5224SOL    HW216572   6.754   2.130   2.357
 5225SOL     OW16573   6.905   0.073   3.982
 5225SOL    HW116574   6.973   0.043   4.050
 5225SOL    HW216575   6.839   7.023   3.968
 5226SOL     OW16576   1.002   6.227   4.473
 5226SOL    HW116577   0.960   6.304   4.522
 5226SOL    HW216578   0.966   6.224   4.379
 5227SOL     OW16579   6.925   5.155   3.684
 5227SOL    HW116580   7.022   5.136   3.699
 5227SOL    HW216581   6.911   5.188   3.590
 5228SOL     OW16582   5.579   1.640   0.674
 5228SOL    HW116583   5.492   1.637   0.722
 5228SOL    HW216584   5.614   1.734   0.673
 5229SOL     OW16585   0.980   4.326   6.560
 5229SOL    HW116586   0.914   4.292   6.627
 5229SOL    HW216587   0.986   4.263   6.483
 5230SOL     OW16588   0.059   0.792   1.050
 5230SOL    HW116589   0.088   0.850   1.126
 5230SOL    HW216590   0.094   0.829   0.964
 5231SOL     OW16591   3.921   3.027   4.201
 5231SOL    HW116592   3.830   2.988   4.218
 5231SOL    HW216593   3.955   3.069   4.285
 5232SOL     OW16594   4.429   1.993   6.473
 5232SOL    HW116595   4.481   1.951   6.398
 5232SOL    HW216596   4.467   2.084   6.492
 5233SOL     OW16597   6.347   6.531   1.685
 5233SOL    HW116598   6.412   6.606   1.684
 5233SOL    HW216599   6.375   6.462   1.618
 5234SOL     OW16600   3.023   0.406   0.553
 5234SOL    HW116601   3.065   0.381   0.640
 5234SOL    HW216602   2.927   0.378   0.554
 5235SOL     OW16603   1.454   3.668   0.794
 5235SOL    HW116604   1.463   3.681   0.893
 5235SOL    HW216605   1.383   3.600   0.775
 5236SOL     OW16606   5.612   2.978   1.423
 5236SOL    HW116607   5.571   2.918   1.493
 5236SOL    HW216608   5.553   3.057   1.409
 5237SOL     OW16609   2.515   2.110   5.477
 5237SOL    HW116610   2.601   2.115   5.528
 5237SOL    HW216611   2.529   2.143   5.384
 5238SOL     OW16612   1.280   5.301   0.663
 5238SOL    HW116613   1.289   5.330   0.567
 5238SOL    HW216614   1.224   5.219   0.667
 5239SOL     OW16615   2.900   3.395   3.962
 5239SOL    HW116616   2.917   3.375   3.865
 5239SOL    HW216617   2.852   3.482   3.970
 5240SOL     OW16618   3.072   2.487   5.361
 5240SOL    HW116619   2.989   2.431   5.363
 5240SOL    HW216620   3.132   2.453   5.288
 5241SOL     OW16621   0.844   5.888   6.642
 5241SOL    HW116622   0.784   5.953   6.689
 5241SOL    HW216623   0.791   5.809   6.612
 5242SOL     OW16624   6.131   1.144   5.490
 5242SOL    HW116625   6.083   1.174   5.572
 5242SOL    HW216626   6.071   1.087   5.434
 5243SOL     OW16627   0.791   5.836   1.095
 5243SOL    HW116628   0.864   5.785   1.051
 5243SOL    HW216629   0.746   5.779   1.164
 5244SOL     OW16630   3.890   3.806   5.525
 5244SOL    HW116631   3.891   3.793   5.426
 5244SOL    HW216632   3.847   3.727   5.569
 5245SOL     OW16633   4.018   4.145   5.671
 5245SOL    HW116634   4.031   4.215   5.600
 5245SOL    HW216635   4.050   4.181   5.759
 5246SOL     OW16636   0.242   3.939   3.151
 5246SOL    HW116637   0.245   3.934   3.052
 5246SOL    HW216638   0.206   3.853   3.188
 5247SOL     OW16639   0.071   5.502   0.528
 5247SOL    HW116640   0.068   5.577   0.461
 5247SOL    HW216641   0.018   5.528   0.609
 5248SOL     OW16642   5.226   0.671   5.792
 5248SOL    HW116643   5.200   0.765   5.813
 5248SOL    HW216644   5.219   0.616   5.875
 5249SOL     OW16645   0.730   5.453   3.992
 5249SOL    HW116646   0.748   5.371   4.047
 5249SOL    HW216647   0.739   5.430   3.895
 5250SOL     OW16648   0.477   1.516   6.041
 5250SOL    HW116649   0.552   1.559   6.091
 5250SOL    HW216650   0.401   1.581   6.033
 5251SOL     OW16651   6.779   3.551   1.019
 5251SOL    HW116652   6.776   3.573   0.922
 5251SOL    HW216653   6.686   3.534   1.053
 5252SOL     OW16654   2.493   6.196   1.067
 5252SOL    HW116655   2.525   6.286   1.098
 5252SOL    HW216656   2.401   6.179   1.100
 5253SOL     OW16657   5.747   3.383   4.452
 5253SOL    HW116658   5.777   3.381   4.356
 5253SOL    HW216659   5.758   3.476   4.488
 5254SOL     OW16660   4.676   1.190   3.894
 5254SOL    HW116661   4.739   1.126   3.937
 5254SOL    HW216662   4.583   1.154   3.901
 5255SOL     OW16663   3.649   0.550   4.821
 5255SOL    HW116664   3.636   0.539   4.723
 5255SOL    HW216665   3.602   0.632   4.852
 5256SOL     OW16666   5.082   1.491   3.362
 5256SOL    HW116667   5.119   1.573   3.406
 5256SOL    HW216668   5.116   1.410   3.409
 5257SOL     OW16669   3.825   6.855   1.180
 5257SOL    HW116670   3.875   6.772   1.204
 5257SOL    HW216671   3.816   6.913   1.261
 5258SOL     OW16672   5.087   4.164   1.959
 5258SOL    HW116673   5.108   4.178   2.055
 5258SOL    HW216674   4.989   4.151   1.948
 5259SOL     OW16675   4.870   6.095   2.489
 5259SOL    HW116676   4.875   6.191   2.463
 5259SOL    HW216677   4.802   6.049   2.432
 5260SOL     OW16678   5.372   3.431   0.719
 5260SOL    HW116679   5.439   3.463   0.785
 5260SOL    HW216680   5.401   3.342   0.682
 5261SOL     OW16681   6.989   2.029   4.932
 5261SOL    HW116682   6.989   2.041   4.832
 5261SOL    HW216683   0.054   2.058   4.968
 5262SOL     OW16684   2.782   6.869   2.855
 5262SOL    HW116685   2.808   6.931   2.781
 5262SOL    HW216686   2.807   6.909   2.943
 5263SOL     OW16687   1.646   0.196   5.895
 5263SOL    HW116688   1.659   0.119   5.958
 5263SOL    HW216689   1.700   0.274   5.925
 5264SOL     OW16690   6.410   1.617   1.555
 5264SOL    HW116691   6.503   1.588   1.532
 5264SOL    HW216692   6.349   1.538   1.549
 5265SOL     OW16693   5.605   4.116   2.253
 5265SOL    HW116694   5.591   4.070   2.165
 5265SOL    HW216695   5.568   4.208   2.248
 5266SOL     OW16696   2.421   6.516   1.769
 5266SOL    HW116697   2.409   6.481   1.862
 5266SOL    HW216698   2.363   6.597   1.757
 5267SOL     OW16699   4.631   4.820   5.899
 5267SOL    HW116700   4.646   4.917   5.917
 5267SOL    HW216701   4.533   4.803   5.888
 5268SOL     OW16702   6.605   5.653   5.146
 5268SOL    HW116703   6.510   5.635   5.172
 5268SOL    HW216704   6.665   5.637   5.225
 5269SOL     OW16705   1.773   5.449   3.458
 5269SOL    HW116706   1.700   5.516   3.469
 5269SOL    HW216707   1.740   5.359   3.487
 5270SOL     OW16708   5.289   2.336   1.060
 5270SOL    HW116709   5.240   2.417   1.094
 5270SOL    HW216710   5.223   2.263   1.044
 5271SOL     OW16711   4.329   4.875   5.245
 5271SOL    HW116712   4.240   4.915   5.264
 5271SOL    HW216713   4.397   4.913   5.307
 5272SOL     OW16714   0.567   5.711   5.120
 5272SOL    HW116715   0.546   5.619   5.089
 5272SOL    HW216716   0.635   5.708   5.193
 5273SOL     OW16717   0.712   2.259   3.982
 5273SOL    HW116718   0.650   2.196   3.935
 5273SOL    HW216719   0.791   2.278   3.923
 5274SOL     OW16720   6.731   4.955   3.724
 5274SOL    HW116721   6.796   5.030   3.706
 5274SOL    HW216722   6.769   4.895   3.794
 5275SOL     OW16723   2.870   0.001   6.119
 5275SOL    HW116724   2.941   0.010   6.189
 5275SOL    HW216725   2.785   0.040   6.153
 5276SOL     OW16726   6.865   6.930   0.961
 5276SOL    HW116727   6.799   6.871   0.915
 5276SOL    HW216728   6.849   6.928   1.059
 5277SOL     OW16729   1.695   2.092   3.647
 5277SOL    HW116730   1.750   2.083   3.564
 5277SOL    HW216731   1.666   2.001   3.678
 5278SOL     OW16732   6.312   6.444   6.204
 5278SOL    HW116733   6.387   6.494   6.248
 5278SOL    HW216734   6.343   6.354   6.176
 5279SOL     OW16735   1.569   5.836   6.419
 5279SOL    HW116736   1.529   5.857   6.330
 5279SOL    HW216737   1.567   5.918   6.476
 5280SOL     OW16738   3.696   6.259   5.183
 5280SOL    HW116739   3.643   6.322   5.127
 5280SOL    HW216740   3.697   6.168   5.140
 5281SOL     OW16741   1.157   0.359   4.771
 5281SOL    HW116742   1.174   0.399   4.861
 5281SOL    HW216743   1.225   0.394   4.706
 5282SOL     OW16744   2.417   0.256   2.435
 5282SOL    HW116745   2.400   0.329   2.502
 5282SOL    HW216746   2.337   0.247   2.375
 5283SOL     OW16747   1.022   0.481   3.698
 5283SOL    HW116748   0.957   0.424   3.647
 5283SOL    HW216749   0.977   0.568   3.721
 5284SOL     OW16750   4.897   2.354   2.702
 5284SOL    HW116751   4.802   2.325   2.703
 5284SOL    HW216752   4.957   2.274   2.705
 5285SOL     OW16753   0.861   2.861   3.361
 5285SOL    HW116754   0.791   2.829   3.297
 5285SOL    HW216755   0.831   2.946   3.403
 5286SOL     OW16756   6.621   3.688   0.464
 5286SOL    HW116757   6.697   3.750   0.484
 5286SOL    HW216758   6.552   3.735   0.409
 5287SOL     OW16759   3.265   5.388   1.973
 5287SOL    HW116760   3.305   5.473   2.005
 5287SOL    HW216761   3.240   5.396   1.876
 5288SOL     OW16762   4.833   0.208   2.153
 5288SOL    HW116763   4.774   0.247   2.083
 5288SOL    HW216764   4.911   0.162   2.110
 5289SOL     OW16765   2.262   4.996   6.534
 5289SOL    HW116766   2.169   4.968   6.510
 5289SOL    HW216767   2.279   5.088   6.500
 5290SOL     OW16768   1.659   4.272   5.660
 5290SOL    HW116769   1.636   4.343   5.727
 5290SOL    HW216770   1.671   4.313   5.570
 5291SOL     OW16771   2.441   4.492   5.680
 5291SOL    HW116772   2.358   4.522   5.633
 5291SOL    HW216773   2.439   4.524   5.774
 5292SOL     OW16774   6.375   4.055   6.078
 5292SOL    HW116775   6.352   4.002   5.997
 5292SOL    HW216776   6.320   4.022   6.155
 5293SOL     OW16777   2.139   5.363   4.965
 5293SOL    HW116778   2.221   5.410   4.934
 5293SOL    HW216779   2.071   5.362   4.892
 5294SOL     OW16780   4.663   0.843   5.509
 5294SOL    HW116781   4.623   0.908   5.574
 5294SOL    HW216782   4.760   0.830   5.530
 5295SOL     OW16783   3.961   1.291   3.354
 5295SOL    HW116784   4.009   1.243   3.428
 5295SOL    HW216785   3.864   1.266   3.356
 5296SOL     OW16786   3.885   3.723   0.531
 5296SOL    HW116787   3.973   3.690   0.567
 5296SOL    HW216788   3.898   3.760   0.439
 5297SOL     OW16789   2.058   3.270   0.739
 5297SOL    HW116790   2.150   3.268   0.701
 5297SOL    HW216791   2.063   3.255   0.838
 5298SOL     OW16792   2.386   6.132   6.828
 5298SOL    HW116793   2.295   6.091   6.836
 5298SOL    HW216794   2.445   6.097   6.900
 5299SOL     OW16795   3.110   2.455   0.791
 5299SOL    HW116796   3.058   2.502   0.862
 5299SOL    HW216797   3.097   2.356   0.800
 5300SOL     OW16798   0.635   5.270   0.920
 5300SOL    HW116799   0.721   5.314   0.891
 5300SOL    HW216800   0.585   5.239   0.839
 5301SOL     OW16801   4.425   0.356   6.533
 5301SOL    HW116802   4.431   0.272   6.587
 5301SOL    HW216803   4.403   0.333   6.438
 5302SOL     OW16804   5.435   6.291   3.748
 5302SOL    HW116805   5.422   6.340   3.661
 5302SOL    HW216806   5.365   6.220   3.756
 5303SOL     OW16807   0.352   5.024   5.671
 5303SOL    HW116808   0.350   5.105   5.731
 5303SOL    HW216809   0.312   4.946   5.719
 5304SOL     OW16810   6.132   1.039   0.937
 5304SOL    HW116811   6.034   1.059   0.935
 5304SOL    HW216812   6.178   1.092   0.865
 5305SOL     OW16813   1.502   5.200   2.370
 5305SOL    HW116814   1.406   5.200   2.343
 5305SOL    HW216815   1.556   5.149   2.303
 5306SOL     OW16816   0.173   4.276   5.908
 5306SOL    HW116817   0.136   4.331   5.833
 5306SOL    HW216818   0.273   4.287   5.911
 5307SOL     OW16819   4.461   1.978   0.472
 5307SOL    HW116820   4.467   2.053   0.406
 5307SOL    HW216821   4.539   1.917   0.461
 5308SOL     OW16822   1.106   4.483   2.461
 5308SOL    HW116823   1.205   4.488   2.477
 5308SOL    HW216824   1.088   4.446   2.370
 5309SOL     OW16825   3.495   5.843   2.130
 5309SOL    HW116826   3.594   5.852   2.137
 5309SOL    HW216827   3.451   5.926   2.164
 5310SOL     OW16828   6.303   3.227   2.679
 5310SOL    HW116829   6.246   3.307   2.697
 5310SOL    HW216830   6.399   3.249   2.695
 5311SOL     OW16831   5.984   6.947   0.007
 5311SOL    HW116832   6.001   0.018   7.003
 5311SOL    HW216833   6.064   6.912   0.057
 5312SOL     OW16834   0.279   6.039   1.978
 5312SOL    HW116835   0.360   5.983   1.963
 5312SOL    HW216836   0.254   6.035   2.075
 5313SOL     OW16837   0.728   4.396   5.706
 5313SOL    HW116838   0.665   4.320   5.719
 5313SOL    HW216839   0.700   4.449   5.626
 5314SOL     OW16840   4.703   0.184   1.114
 5314SOL    HW116841   4.794   0.217   1.087
 5314SOL    HW216842   4.639   0.195   1.039
 5315SOL     OW16843   4.718   2.772   3.002
 5315SOL    HW116844   4.658   2.774   2.922
 5315SOL    HW216845   4.805   2.731   2.977
 5316SOL     OW16846   1.101   4.052   5.375
 5316SOL    HW116847   1.004   4.048   5.397
 5316SOL    HW216848   1.143   4.128   5.425
 5317SOL     OW16849   6.355   1.017   5.524
 5317SOL    HW116850   6.268   1.063   5.507
 5317SOL    HW216851   6.406   1.067   5.594
 5318SOL     OW16852   0.471   2.878   0.560
 5318SOL    HW116853   0.537   2.883   0.485
 5318SOL    HW216854   0.520   2.873   0.647
 5319SOL     OW16855   4.749   6.018   1.054
 5319SOL    HW116856   4.717   5.972   1.137
 5319SOL    HW216857   4.844   5.992   1.036
 5320SOL     OW16858   4.153   5.675   1.119
 5320SOL    HW116859   4.241   5.684   1.167
 5320SOL    HW216860   4.089   5.626   1.178
 5321SOL     OW16861   2.399   4.475   4.775
 5321SOL    HW116862   2.386   4.453   4.679
 5321SOL    HW216863   2.357   4.404   4.831
 5322SOL     OW16864   5.514   6.916   0.230
 5322SOL    HW116865   5.509   6.816   0.234
 5322SOL    HW216866   5.596   6.943   0.180
 5323SOL     OW16867   4.399   1.331   5.746
 5323SOL    HW116868   4.473   1.292   5.693
 5323SOL    HW216869   4.329   1.368   5.685
 5324SOL     OW16870   2.951   2.366   0.181
 5324SOL    HW116871   3.032   2.358   0.123
 5324SOL    HW216872   2.972   2.329   0.272
 5325SOL     OW16873   3.164   1.316   4.966
 5325SOL    HW116874   3.072   1.351   4.950
 5325SOL    HW216875   3.221   1.335   4.886
 5326SOL     OW16876   6.642   5.686   3.542
 5326SOL    HW116877   6.699   5.657   3.618
 5326SOL    HW216878   6.699   5.711   3.464
 5327SOL     OW16879   6.054   2.341   4.942
 5327SOL    HW116880   5.969   2.305   4.903
 5327SOL    HW216881   6.032   2.415   5.006
 5328SOL     OW16882   3.158   3.722   6.098
 5328SOL    HW116883   3.220   3.691   6.025
 5328SOL    HW216884   3.121   3.812   6.075
 5329SOL     OW16885   0.533   5.165   6.493
 5329SOL    HW116886   0.516   5.263   6.487
 5329SOL    HW216887   0.488   5.119   6.417
 5330SOL     OW16888   3.780   4.565   7.010
 5330SOL    HW116889   3.848   4.506   6.966
 5330SOL    HW216890   3.825   4.649   0.017
 5331SOL     OW16891   5.998   2.134   6.469
 5331SOL    HW116892   6.026   2.116   6.375
 5331SOL    HW216893   6.028   2.225   6.496
 5332SOL     OW16894   1.007   3.423   1.585
 5332SOL    HW116895   1.090   3.373   1.609
 5332SOL    HW216896   0.969   3.387   1.500
 5333SOL     OW16897   1.224   1.252   3.373
 5333SOL    HW116898   1.213   1.156   3.349
 5333SOL    HW216899   1.302   1.290   3.324
 5334SOL     OW16900   3.040   0.851   4.765
 5334SOL    HW116901   2.960   0.887   4.815
 5334SOL    HW216902   3.012   0.823   4.673
 5335SOL     OW16903   0.046   6.091   0.962
 5335SOL    HW116904   0.056   6.171   0.904
 5335SOL    HW216905   0.073   6.114   1.055
 5336SOL     OW16906   2.140   3.435   2.370
 5336SOL    HW116907   2.137   3.376   2.289
 5336SOL    HW216908   2.140   3.378   2.452
 5337SOL     OW16909   5.196   4.156   1.287
 5337SOL    HW116910   5.103   4.123   1.271
 5337SOL    HW216911   5.218   4.148   1.385
 5338SOL     OW16912   6.023   1.278   6.996
 5338SOL    HW116913   5.998   1.375   6.997
 5338SOL    HW216914   6.035   1.246   0.066
 5339SOL     OW16915   6.952   1.429   3.736
 5339SOL    HW116916   6.978   1.516   3.778
 5339SOL    HW216917   6.853   1.416   3.743
 5340SOL     OW16918   5.869   3.760   0.570
 5340SOL    HW116919   5.917   3.708   0.640
 5340SOL    HW216920   5.793   3.706   0.533
 5341SOL     OW16921   3.799   2.356   6.571
 5341SOL    HW116922   3.801   2.448   6.610
 5341SOL    HW216923   3.707   2.318   6.581
 5342SOL     OW16924   3.903   0.732   4.864
 5342SOL    HW116925   3.818   0.681   4.852
 5342SOL    HW216926   3.900   0.815   4.809
 5343SOL     OW16927   3.267   3.655   3.734
 5343SOL    HW116928   3.353   3.660   3.785
 5343SOL    HW216929   3.273   3.710   3.651
 5344SOL     OW16930   1.879   2.207   2.604
 5344SOL    HW116931   1.935   2.250   2.676
 5344SOL    HW216932   1.862   2.273   2.532
 5345SOL     OW16933   4.129   6.082   1.578
 5345SOL    HW116934   4.091   6.120   1.493
 5345SOL    HW216935   4.056   6.039   1.631
 5346SOL     OW16936   3.021   6.229   3.866
 5346SOL    HW116937   3.096   6.225   3.931
 5346SOL    HW216938   3.000   6.136   3.834
 5347SOL     OW16939   0.247   2.576   1.948
 5347SOL    HW116940   0.222   2.526   2.030
 5347SOL    HW216941   0.189   2.657   1.939
 5348SOL     OW16942   1.016   1.500   0.591
 5348SOL    HW116943   0.992   1.569   0.523
 5348SOL    HW216944   1.048   1.544   0.674
 5349SOL     OW16945   1.226   2.242   0.393
 5349SOL    HW116946   1.144   2.184   0.388
 5349SOL    HW216947   1.307   2.187   0.374
 5350SOL     OW16948   2.236   0.586   6.130
 5350SOL    HW116949   2.320   0.640   6.139
 5350SOL    HW216950   2.207   0.555   6.221
 5351SOL     OW16951   5.167   5.463   2.042
 5351SOL    HW116952   5.210   5.433   2.127
 5351SOL    HW216953   5.190   5.399   1.968
 5352SOL     OW16954   2.097   5.927   4.064
 5352SOL    HW116955   2.121   6.007   4.118
 5352SOL    HW216956   2.015   5.946   4.009
 5353SOL     OW16957   3.427   5.778   4.405
 5353SOL    HW116958   3.490   5.758   4.330
 5353SOL    HW216959   3.411   5.695   4.458
 5354SOL     OW16960   1.584   5.016   2.129
 5354SOL    HW116961   1.652   5.037   2.059
 5354SOL    HW216962   1.514   4.957   2.091
 5355SOL     OW16963   5.032   2.545   3.882
 5355SOL    HW116964   5.125   2.529   3.915
 5355SOL    HW216965   5.000   2.465   3.830
 5356SOL     OW16966   6.144   4.430   2.044
 5356SOL    HW116967   6.077   4.372   1.997
 5356SOL    HW216968   6.237   4.397   2.024
 5357SOL     OW16969   3.152   0.350   0.807
 5357SOL    HW116970   3.083   0.399   0.861
 5357SOL    HW216971   3.231   0.409   0.792
 5358SOL     OW16972   3.897   2.035   0.733
 5358SOL    HW116973   3.861   2.040   0.640
 5358SOL    HW216974   3.910   2.128   0.769
 5359SOL     OW16975   2.085   2.060   6.827
 5359SOL    HW116976   2.100   2.112   6.911
 5359SOL    HW216977   2.030   2.113   6.763
 5360SOL     OW16978   4.090   6.826   4.592
 5360SOL    HW116979   3.998   6.799   4.622
 5360SOL    HW216980   4.145   6.744   4.578
 5361SOL     OW16981   2.291   6.843   4.630
 5361SOL    HW116982   2.387   6.867   4.642
 5361SOL    HW216983   2.240   6.923   4.598
 5362SOL     OW16984   5.167   4.096   3.730
 5362SOL    HW116985   5.080   4.062   3.768
 5362SOL    HW216986   5.219   4.141   3.803
 5363SOL     OW16987   0.835   5.944   6.326
 5363SOL    HW116988   0.759   5.880   6.311
 5363SOL    HW216989   0.849   5.957   6.424
 5364SOL     OW16990   6.693   5.802   1.225
 5364SOL    HW116991   6.725   5.841   1.139
 5364SOL    HW216992   6.724   5.707   1.232
 5365SOL     OW16993   3.960   3.215   6.819
 5365SOL    HW116994   3.923   3.222   6.912
 5365SOL    HW216995   4.057   3.236   6.820
 5366SOL     OW16996   5.450   5.052   1.917
 5366SOL    HW116997   5.549   5.063   1.906
 5366SOL    HW216998   5.431   4.958   1.947
 5367SOL     OW16999   0.502   5.336   0.317
 5367SOL    HW117000   0.543   5.389   0.391
 5367SOL    HW217001   0.417   5.379   0.287
 5368SOL     OW17002   5.284   1.262   3.192
 5368SOL    HW117003   5.333   1.240   3.277
 5368SOL    HW217004   5.339   1.323   3.136
 5369SOL     OW17005   2.897   6.025   3.540
 5369SOL    HW117006   2.817   6.075   3.508
 5369SOL    HW217007   2.899   6.026   3.640
 5370SOL     OW17008   3.957   3.335   1.710
 5370SOL    HW117009   3.871   3.348   1.759
 5370SOL    HW217010   3.946   3.263   1.641
 5371SOL     OW17011   1.684   3.758   3.975
 5371SOL    HW117012   1.600   3.766   3.921
 5371SOL    HW217013   1.661   3.740   4.070
 5372SOL     OW17014   2.179   5.889   2.624
 5372SOL    HW117015   2.153   5.903   2.529
 5372SOL    HW217016   2.219   5.973   2.661
 5373SOL     OW17017   2.925   4.808   4.116
 5373SOL    HW117018   2.828   4.799   4.095
 5373SOL    HW217019   2.935   4.823   4.215
 5374SOL     OW17020   1.105   3.822   6.855
 5374SOL    HW117021   1.161   3.904   6.866
 5374SOL    HW217022   1.105   3.770   6.940
 5375SOL     OW17023   1.279   4.724   5.033
 5375SOL    HW117024   1.185   4.755   5.038
 5375SOL    HW217025   1.288   4.635   5.079
 5376SOL     OW17026   1.613   2.922   1.191
 5376SOL    HW117027   1.612   3.018   1.162
 5376SOL    HW217028   1.552   2.910   1.269
 5377SOL     OW17029   6.635   0.082   1.531
 5377SOL    HW117030   6.594   0.047   1.447
 5377SOL    HW217031   6.733   0.059   1.531
 5378SOL     OW17032   6.810   0.498   1.533
 5378SOL    HW117033   6.757   0.439   1.594
 5378SOL    HW217034   6.802   0.464   1.439
 5379SOL     OW17035   0.637   5.226   4.848
 5379SOL    HW117036   0.736   5.225   4.833
 5379SOL    HW217037   0.592   5.175   4.775
 5380SOL     OW17038   2.256   1.055   3.353
 5380SOL    HW117039   2.173   1.108   3.335
 5380SOL    HW217040   2.333   1.118   3.364
 5381SOL     OW17041   6.384   3.810   0.365
 5381SOL    HW117042   6.290   3.785   0.344
 5381SOL    HW217043   6.393   3.910   0.366
 5382SOL     OW17044   3.064   0.015   2.075
 5382SOL    HW117045   2.990   0.051   2.131
 5382SOL    HW217046   3.026   6.984   2.001
 5383SOL     OW17047   2.626   2.445   5.200
 5383SOL    HW117048   2.697   2.449   5.270
 5383SOL    HW217049   2.573   2.529   5.201
 5384SOL     OW17050   6.530   0.591   3.765
 5384SOL    HW117051   6.436   0.555   3.761
 5384SOL    HW217052   6.532   0.675   3.819
 5385SOL     OW17053   2.948   3.695   2.940
 5385SOL    HW117054   3.031   3.639   2.939
 5385SOL    HW217055   2.928   3.724   3.034
 5386SOL     OW17056   4.464   6.760   4.438
 5386SOL    HW117057   4.485   6.771   4.535
 5386SOL    HW217058   4.546   6.731   4.389
 5387SOL     OW17059   2.204   5.772   3.310
 5387SOL    HW117060   2.223   5.729   3.221
 5387SOL    HW217061   2.148   5.710   3.365
 5388SOL     OW17062   5.051   6.694   3.277
 5388SOL    HW117063   5.067   6.732   3.186
 5388SOL    HW217064   4.981   6.746   3.324
 5389SOL     OW17065   5.005   0.935   1.837
 5389SOL    HW117066   5.098   0.966   1.857
 5389SOL    HW217067   4.970   0.883   1.915
 5390SOL     OW17068   4.275   4.643   4.150
 5390SOL    HW117069   4.176   4.644   4.165
 5390SOL    HW217070   4.319   4.592   4.224
 5391SOL     OW17071   2.159   2.093   0.454
 5391SOL    HW117072   2.193   2.148   0.378
 5391SOL    HW217073   2.183   2.138   0.540
 5392SOL     OW17074   5.945   3.448   0.972
 5392SOL    HW117075   6.003   3.377   1.012
 5392SOL    HW217076   5.915   3.511   1.043
 5393SOL     OW17077   6.164   6.512   6.740
 5393SOL    HW117078   6.083   6.564   6.769
 5393SOL    HW217079   6.153   6.416   6.769
 5394SOL     OW17080   6.724   3.911   6.458
 5394SOL    HW117081   6.761   3.879   6.546
 5394SOL    HW217082   6.713   3.833   6.397
 5395SOL     OW17083   4.680   0.762   1.992
 5395SOL    HW117084   4.644   0.790   1.903
 5395SOL    HW217085   4.723   0.840   2.037
 5396SOL     OW17086   5.143   3.781   3.015
 5396SOL    HW117087   5.089   3.849   2.965
 5396SOL    HW217088   5.085   3.733   3.080
 5397SOL     OW17089   6.576   2.725   1.861
 5397SOL    HW117090   6.631   2.675   1.793
 5397SOL    HW217091   6.495   2.764   1.816
 5398SOL     OW17092   3.677   1.632   1.966
 5398SOL    HW117093   3.597   1.683   2.000
 5398SOL    HW217094   3.759   1.688   1.979
 5399SOL     OW17095   2.341   6.164   0.524
 5399SOL    HW117096   2.355   6.249   0.575
 5399SOL    HW217097   2.243   6.151   0.509
 5400SOL     OW17098   2.891   3.910   0.470
 5400SOL    HW117099   2.926   3.964   0.546
 5400SOL    HW217100   2.803   3.947   0.441
 5401SOL     OW17101   5.609   3.341   1.305
 5401SOL    HW117102   5.575   3.363   1.397
 5401SOL    HW217103   5.555   3.266   1.266
 5402SOL     OW17104   2.289   5.902   1.713
 5402SOL    HW117105   2.218   5.960   1.753
 5402SOL    HW217106   2.266   5.882   1.617
 5403SOL     OW17107   6.147   3.442   6.270
 5403SOL    HW117108   6.150   3.352   6.228
 5403SOL    HW217109   6.066   3.492   6.238
 5404SOL     OW17110   0.874   1.672   3.568
 5404SOL    HW117111   0.898   1.726   3.487
 5404SOL    HW217112   0.927   1.587   3.569
 5405SOL     OW17113   6.274   5.404   0.519
 5405SOL    HW117114   6.250   5.347   0.440
 5405SOL    HW217115   6.359   5.454   0.499
 5406SOL     OW17116   2.116   1.420   6.338
 5406SOL    HW117117   2.176   1.437   6.417
 5406SOL    HW217118   2.026   1.392   6.370
 5407SOL     OW17119   4.792   3.432   0.563
 5407SOL    HW117120   4.730   3.461   0.636
 5407SOL    HW217121   4.860   3.368   0.600
 5408SOL     OW17122   3.087   1.385   6.361
 5408SOL    HW117123   3.029   1.466   6.371
 5408SOL    HW217124   3.038   1.314   6.311
 5409SOL     OW17125   5.235   0.254   3.743
 5409SOL    HW117126   5.248   0.239   3.841
 5409SOL    HW217127   5.288   0.185   3.692
 5410SOL     OW17128   2.804   2.312   1.667
 5410SOL    HW117129   2.787   2.218   1.640
 5410SOL    HW217130   2.867   2.314   1.745
 5411SOL     OW17131   6.419   5.307   5.735
 5411SOL    HW117132   6.409   5.404   5.713
 5411SOL    HW217133   6.424   5.254   5.650
 5412SOL     OW17134   5.104   1.872   0.627
 5412SOL    HW117135   5.084   1.785   0.673
 5412SOL    HW217136   5.193   1.866   0.583
 5413SOL     OW17137   2.859   1.648   1.373
 5413SOL    HW117138   2.793   1.721   1.361
 5413SOL    HW217139   2.812   1.559   1.374
 5414SOL     OW17140   5.322   1.957   4.876
 5414SOL    HW117141   5.243   1.940   4.934
 5414SOL    HW217142   5.388   1.882   4.886
 5415SOL     OW17143   0.833   5.748   1.555
 5415SOL    HW117144   0.821   5.716   1.649
 5415SOL    HW217145   0.772   5.697   1.494
 5416SOL     OW17146   5.109   5.227   5.981
 5416SOL    HW117147   5.087   5.130   5.969
 5416SOL    HW217148   5.196   5.235   6.030
 5417SOL     OW17149   3.730   6.889   5.054
 5417SOL    HW117150   3.747   6.977   5.098
 5417SOL    HW217151   3.658   6.841   5.104
 5418SOL     OW17152   3.406   6.794   3.885
 5418SOL    HW117153   3.309   6.814   3.870
 5418SOL    HW217154   3.442   6.741   3.808
 5419SOL     OW17155   3.825   5.541   0.141
 5419SOL    HW117156   3.846   5.513   0.235
 5419SOL    HW217157   3.733   5.509   0.117
 5420SOL     OW17158   1.822   3.200   2.493
 5420SOL    HW117159   1.737   3.166   2.452
 5420SOL    HW217160   1.896   3.134   2.476
 5421SOL     OW17161   1.603   3.407   1.690
 5421SOL    HW117162   1.699   3.428   1.676
 5421SOL    HW217163   1.569   3.460   1.768
 5422SOL     OW17164   0.440   5.306   0.710
 5422SOL    HW117165   0.383   5.252   0.648
 5422SOL    HW217166   0.461   5.394   0.668
 5423SOL     OW17167   6.647   3.060   6.703
 5423SOL    HW117168   6.573   3.107   6.752
 5423SOL    HW217169   6.735   3.091   6.737
 5424SOL     OW17170   5.839   3.167   3.467
 5424SOL    HW117171   5.899   3.170   3.546
 5424SOL    HW217172   5.803   3.259   3.449
 5425SOL     OW17173   4.531   0.943   4.672
 5425SOL    HW117174   4.584   1.018   4.712
 5425SOL    HW217175   4.471   0.979   4.600
 5426SOL     OW17176   6.701   5.632   4.256
 5426SOL    HW117177   6.602   5.625   4.271
 5426SOL    HW217178   6.745   5.547   4.286
 5427SOL     OW17179   4.950   5.356   6.386
 5427SOL    HW117180   5.012   5.426   6.351
 5427SOL    HW217181   4.987   5.320   6.472
 5428SOL     OW17182   6.892   6.883   1.223
 5428SOL    HW117183   6.907   6.971   1.268
 5428SOL    HW217184   6.927   6.810   1.281
 5429SOL     OW17185   2.285   2.071   6.258
 5429SOL    HW117186   2.260   1.988   6.207
 5429SOL    HW217187   2.384   2.085   6.252
 5430SOL     OW17188   0.477   3.168   6.069
 5430SOL    HW117189   0.382   3.198   6.069
 5430SOL    HW217190   0.525   3.210   5.992
 5431SOL     OW17191   2.970   6.051   0.664
 5431SOL    HW117192   2.885   6.035   0.614
 5431SOL    HW217193   2.951   6.045   0.762
 5432SOL     OW17194   5.371   0.451   6.693
 5432SOL    HW117195   5.274   0.429   6.682
 5432SOL    HW217196   5.422   0.416   6.614
 5433SOL     OW17197   0.247   1.727   5.143
 5433SOL    HW117198   0.225   1.804   5.203
 5433SOL    HW217199   0.235   1.642   5.193
 5434SOL     OW17200   3.435   0.697   5.615
 5434SOL    HW117201   3.357   0.715   5.555
 5434SOL    HW217202   3.509   0.657   5.561
 5435SOL     OW17203   5.746   6.986   1.954
 5435SOL    HW117204   5.662   7.017   1.909
 5435SOL    HW217205   5.816   6.967   1.885
 5436SOL     OW17206   5.117   3.557   4.309
 5436SOL    HW117207   5.072   3.564   4.398
 5436SOL    HW217208   5.159   3.644   4.286
 5437SOL     OW17209   2.636   3.940   0.353
 5437SOL    HW117210   2.611   3.856   0.401
 5437SOL    HW217211   2.610   3.932   0.257
 5438SOL     OW17212   6.743   2.926   2.595
 5438SOL    HW117213   6.769   2.941   2.690
 5438SOL    HW217214   6.650   2.888   2.591
 5439SOL     OW17215   0.671   2.391   0.867
 5439SOL    HW117216   0.759   2.438   0.862
 5439SOL    HW217217   0.603   2.442   0.814
 5440SOL     OW17218   1.003   1.246   0.740
 5440SOL    HW117219   1.005   1.226   0.838
 5440SOL    HW217220   0.980   1.343   0.727
 5441SOL     OW17221   4.700   2.145   3.033
 5441SOL    HW117222   4.664   2.124   3.124
 5441SOL    HW217223   4.697   2.243   3.017
 5442SOL     OW17224   3.624   5.932   3.644
 5442SOL    HW117225   3.569   6.002   3.689
 5442SOL    HW217226   3.565   5.857   3.614
 5443SOL     OW17227   3.423   0.392   3.908
 5443SOL    HW117228   3.420   0.384   3.808
 5443SOL    HW217229   3.495   0.456   3.934
 5444SOL     OW17230   0.896   0.451   4.087
 5444SOL    HW117231   0.917   0.485   4.178
 5444SOL    HW217232   0.978   0.456   4.030
 5445SOL     OW17233   6.385   3.765   3.168
 5445SOL    HW117234   6.338   3.756   3.080
 5445SOL    HW217235   6.318   3.760   3.242
 5446SOL     OW17236   6.482   4.965   4.835
 5446SOL    HW117237   6.551   4.900   4.866
 5446SOL    HW217238   6.451   4.939   4.743
 5447SOL     OW17239   3.172   2.254   6.800
 5447SOL    HW117240   3.087   2.206   6.776
 5447SOL    HW217241   3.247   2.188   6.804
 5448SOL     OW17242   4.261   3.110   5.310
 5448SOL    HW117243   4.168   3.110   5.346
 5448SOL    HW217244   4.290   3.016   5.291
 5449SOL     OW17245   1.600   3.052   6.554
 5449SOL    HW117246   1.678   2.989   6.565
 5449SOL    HW217247   1.615   3.111   6.475
 5450SOL     OW17248   2.091   0.605   1.646
 5450SOL    HW117249   2.105   0.654   1.560
 5450SOL    HW217250   2.133   0.656   1.721
 5451SOL     OW17251   1.938   6.387   3.263
 5451SOL    HW117252   1.882   6.344   3.192
 5451SOL    HW217253   2.033   6.391   3.232
 5452SOL     OW17254   2.344   4.563   6.925
 5452SOL    HW117255   2.385   4.538   6.838
 5452SOL    HW217256   2.304   4.655   6.918
 5453SOL     OW17257   6.103   3.888   0.770
 5453SOL    HW117258   6.099   3.788   0.758
 5453SOL    HW217259   6.195   3.920   0.749
 5454SOL     OW17260   0.168   4.355   6.674
 5454SOL    HW117261   0.207   4.446   6.688
 5454SOL    HW217262   0.225   4.287   6.719
 5455SOL     OW17263   6.360   3.516   7.010
 5455SOL    HW117264   6.425   3.538   0.060
 5455SOL    HW217265   6.300   3.442   0.016
 5456SOL     OW17266   3.530   6.627   0.151
 5456SOL    HW117267   3.619   6.623   0.197
 5456SOL    HW217268   3.497   6.534   0.135
 5457SOL     OW17269   5.564   2.146   0.441
 5457SOL    HW117270   5.561   2.057   0.396
 5457SOL    HW217271   5.563   2.133   0.540
 5458SOL     OW17272   0.131   4.557   0.096
 5458SOL    HW117273   0.154   4.651   0.124
 5458SOL    HW217274   0.041   4.556   0.052
 5459SOL     OW17275   2.264   4.334   0.021
 5459SOL    HW117276   2.277   4.409   6.979
 5459SOL    HW217277   2.270   4.369   0.114
 5460SOL     OW17278   2.700   6.604   2.853
 5460SOL    HW117279   2.612   6.615   2.900
 5460SOL    HW217280   2.741   6.694   2.837
 5461SOL     OW17281   5.890   6.242   5.098
 5461SOL    HW117282   5.906   6.319   5.036
 5461SOL    HW217283   5.910   6.269   5.192
 5462SOL     OW17284   0.900   0.458   7.015
 5462SOL    HW117285   0.869   0.550   6.992
 5462SOL    HW217286   0.823   0.405   0.029
 5463SOL     OW17287   6.280   2.524   0.216
 5463SOL    HW117288   6.283   2.475   0.303
 5463SOL    HW217289   6.213   2.598   0.221
 5464SOL     OW17290   1.497   0.776   4.303
 5464SOL    HW117291   1.431   0.823   4.244
 5464SOL    HW217292   1.531   0.840   4.372
 5465SOL     OW17293   3.827   6.768   3.285
 5465SOL    HW117294   3.736   6.805   3.265
 5465SOL    HW217295   3.818   6.686   3.342
 5466SOL     OW17296   5.532   4.544   5.300
 5466SOL    HW117297   5.442   4.580   5.321
 5466SOL    HW217298   5.565   4.489   5.377
 5467SOL     OW17299   5.195   2.508   3.215
 5467SOL    HW117300   5.139   2.431   3.247
 5467SOL    HW217301   5.136   2.573   3.166
 5468SOL     OW17302   5.275   1.872   4.291
 5468SOL    HW117303   5.279   1.776   4.264
 5468SOL    HW217304   5.368   1.910   4.297
 5469SOL     OW17305   3.996   5.361   0.005
 5469SOL    HW117306   3.953   5.337   6.941
 5469SOL    HW217307   3.937   5.424   0.055
 5470SOL     OW17308   2.579   5.526   3.503
 5470SOL    HW117309   2.674   5.507   3.525
 5470SOL    HW217310   2.546   5.459   3.436
 5471SOL     OW17311   5.680   6.710   1.663
 5471SOL    HW117312   5.653   6.669   1.750
 5471SOL    HW217313   5.691   6.638   1.594
 5472SOL     OW17314   3.743   3.747   6.088
 5472SOL    HW117315   3.754   3.846   6.081
 5472SOL    HW217316   3.834   3.704   6.092
 5473SOL     OW17317   0.878   3.572   3.183
 5473SOL    HW117318   0.975   3.547   3.177
 5473SOL    HW217319   0.838   3.570   3.092
 5474SOL     OW17320   1.161   4.416   3.926
 5474SOL    HW117321   1.147   4.437   4.023
 5474SOL    HW217322   1.212   4.331   3.916
 5475SOL     OW17323   2.860   2.624   0.053
 5475SOL    HW117324   2.843   2.546   0.113
 5475SOL    HW217325   2.958   2.635   0.039
 5476SOL     OW17326   2.499   3.771   6.377
 5476SOL    HW117327   2.490   3.738   6.283
 5476SOL    HW217328   2.409   3.795   6.413
 5477SOL     OW17329   1.887   3.489   3.336
 5477SOL    HW117330   1.909   3.540   3.419
 5477SOL    HW217331   1.819   3.419   3.358
 5478SOL     OW17332   4.776   5.077   5.164
 5478SOL    HW117333   4.731   5.166   5.176
 5478SOL    HW217334   4.795   5.062   5.067
 5479SOL     OW17335   4.891   0.682   5.937
 5479SOL    HW117336   4.898   0.647   6.030
 5479SOL    HW217337   4.795   0.686   5.910
 5480SOL     OW17338   6.892   3.579   3.919
 5480SOL    HW117339   6.952   3.499   3.915
 5480SOL    HW217340   6.803   3.556   3.880
 5481SOL     OW17341   3.624   0.818   4.284
 5481SOL    HW117342   3.646   0.824   4.187
 5481SOL    HW217343   3.709   0.815   4.337
 5482SOL     OW17344   3.998   4.518   1.609
 5482SOL    HW117345   3.961   4.425   1.602
 5482SOL    HW217346   3.924   4.582   1.628
 5483SOL     OW17347   0.651   2.945   5.508
 5483SOL    HW117348   0.639   2.854   5.467
 5483SOL    HW217349   0.574   2.964   5.569
 5484SOL     OW17350   4.932   0.415   5.065
 5484SOL    HW117351   4.928   0.458   4.975
 5484SOL    HW217352   4.868   0.338   5.068
 5485SOL     OW17353   3.524   6.715   5.197
 5485SOL    HW117354   3.523   6.686   5.101
 5485SOL    HW217355   3.531   6.634   5.256
 5486SOL     OW17356   2.791   5.919   4.868
 5486SOL    HW117357   2.715   5.931   4.931
 5486SOL    HW217358   2.840   5.835   4.889
 5487SOL     OW17359   2.988   4.692   6.256
 5487SOL    HW117360   2.976   4.776   6.309
 5487SOL    HW217361   3.072   4.699   6.203
 5488SOL     OW17362   0.145   1.173   0.291
 5488SOL    HW117363   0.104   1.083   0.306
 5488SOL    HW217364   0.203   1.171   0.210
 5489SOL     OW17365   6.546   3.491   2.281
 5489SOL    HW117366   6.545   3.545   2.197
 5489SOL    HW217367   6.477   3.419   2.275
 5490SOL     OW17368   1.476   6.979   2.866
 5490SOL    HW117369   1.487   7.009   2.961
 5490SOL    HW217370   1.552   7.015   2.811
 5491SOL     OW17371   6.983   2.946   0.841
 5491SOL    HW117372   6.914   2.874   0.834
 5491SOL    HW217373   0.049   2.909   0.819
 5492SOL     OW17374   1.285   3.844   5.674
 5492SOL    HW117375   1.339   3.868   5.594
 5492SOL    HW217376   1.228   3.764   5.653
 5493SOL     OW17377   4.162   3.615   2.188
 5493SOL    HW117378   4.144   3.598   2.285
 5493SOL    HW217379   4.260   3.630   2.175
 5494SOL     OW17380   6.132   4.449   5.372
 5494SOL    HW117381   6.146   4.435   5.274
 5494SOL    HW217382   6.092   4.539   5.387
 5495SOL     OW17383   5.893   0.944   0.777
 5495SOL    HW117384   5.896   0.974   0.682
 5495SOL    HW217385   5.936   0.854   0.786
 5496SOL     OW17386   4.187   0.998   3.788
 5496SOL    HW117387   4.234   1.062   3.850
 5496SOL    HW217388   4.097   0.976   3.825
 5497SOL     OW17389   0.337   0.929   5.646
 5497SOL    HW117390   0.423   0.979   5.645
 5497SOL    HW217391   0.300   0.925   5.553
 5498SOL     OW17392   0.334   5.507   1.923
 5498SOL    HW117393   0.291   5.418   1.938
 5498SOL    HW217394   0.288   5.554   1.849
 5499SOL     OW17395   0.553   0.393   3.722
 5499SOL    HW117396   0.599   0.460   3.780
 5499SOL    HW217397   0.458   0.420   3.708
 5500SOL     OW17398   1.404   0.885   6.840
 5500SOL    HW117399   1.440   0.883   6.933
 5500SOL    HW217400   1.310   0.918   6.841
 5501SOL     OW17401   3.897   2.105   0.248
 5501SOL    HW117402   3.933   2.012   0.238
 5501SOL    HW217403   3.970   2.171   0.231
 5502SOL     OW17404   5.028   3.721   6.393
 5502SOL    HW117405   5.045   3.630   6.429
 5502SOL    HW217406   5.108   3.754   6.344
 5503SOL     OW17407   0.664   4.076   0.645
 5503SOL    HW117408   0.708   4.164   0.625
 5503SOL    HW217409   0.607   4.085   0.727
 5504SOL     OW17410   4.421   0.892   6.373
 5504SOL    HW117411   4.399   0.952   6.450
 5504SOL    HW217412   4.515   0.860   6.382
 5505SOL     OW17413   2.307   4.207   3.868
 5505SOL    HW117414   2.214   4.176   3.885
 5505SOL    HW217415   2.352   4.145   3.804
 5506SOL     OW17416   6.804   3.407   6.294
 5506SOL    HW117417   6.802   3.505   6.314
 5506SOL    HW217418   6.779   3.356   6.376
 5507SOL     OW17419   3.741   0.516   5.679
 5507SOL    HW117420   3.800   0.436   5.681
 5507SOL    HW217421   3.783   0.590   5.733
 5508SOL     OW17422   1.175   0.888   0.229
 5508SOL    HW117423   1.241   0.836   0.284
 5508SOL    HW217424   1.106   0.825   0.192
 5509SOL     OW17425   0.424   5.550   1.026
 5509SOL    HW117426   0.389   5.464   0.989
 5509SOL    HW217427   0.452   5.610   0.952
 5510SOL     OW17428   5.072   5.594   0.237
 5510SOL    HW117429   5.161   5.577   0.195
 5510SOL    HW217430   5.029   5.507   0.258
 5511SOL     OW17431   0.727   1.581   5.504
 5511SOL    HW117432   0.819   1.546   5.486
 5511SOL    HW217433   0.710   1.661   5.446
 5512SOL     OW17434   3.303   0.722   1.425
 5512SOL    HW117435   3.232   0.750   1.489
 5512SOL    HW217436   3.345   0.802   1.383
 5513SOL     OW17437   3.664   5.187   6.254
 5513SOL    HW117438   3.732   5.176   6.182
 5513SOL    HW217439   3.625   5.279   6.250
 5514SOL     OW17440   3.622   6.693   4.916
 5514SOL    HW117441   3.679   6.773   4.937
 5514SOL    HW217442   3.578   6.706   4.827
 5515SOL     OW17443   2.101   5.556   2.096
 5515SOL    HW117444   2.031   5.529   2.030
 5515SOL    HW217445   2.111   5.656   2.094
 5516SOL     OW17446   2.327   2.736   4.961
 5516SOL    HW117447   2.251   2.746   4.897
 5516SOL    HW217448   2.353   2.826   4.996
 5517SOL     OW17449   1.679   4.078   2.365
 5517SOL    HW117450   1.734   3.996   2.380
 5517SOL    HW217451   1.586   4.062   2.398
 5518SOL     OW17452   5.318   4.249   5.825
 5518SOL    HW117453   5.320   4.347   5.806
 5518SOL    HW217454   5.359   4.231   5.914
 5519SOL     OW17455   5.190   2.979   3.729
 5519SOL    HW117456   5.091   2.992   3.716
 5519SOL    HW217457   5.213   2.994   3.825
 5520SOL     OW17458   5.659   6.141   2.295
 5520SOL    HW117459   5.723   6.067   2.275
 5520SOL    HW217460   5.657   6.157   2.394
 5521SOL     OW17461   5.723   5.174   2.175
 5521SOL    HW117462   5.675   5.251   2.132
 5521SOL    HW217463   5.800   5.147   2.117
 5522SOL     OW17464   5.925   5.614   1.519
 5522SOL    HW117465   5.845   5.670   1.496
 5522SOL    HW217466   5.955   5.636   1.612
 5523SOL     OW17467   5.411   0.677   3.330
 5523SOL    HW117468   5.406   0.668   3.231
 5523SOL    HW217469   5.427   0.587   3.371
 5524SOL     OW17470   3.545   0.834   5.382
 5524SOL    HW117471   3.625   0.891   5.398
 5524SOL    HW217472   3.574   0.741   5.360
 5525SOL     OW17473   6.543   2.778   0.758
 5525SOL    HW117474   6.537   2.832   0.674
 5525SOL    HW217475   6.595   2.829   0.826
 5526SOL     OW17476   4.772   4.082   3.218
 5526SOL    HW117477   4.686   4.117   3.182
 5526SOL    HW217478   4.768   4.082   3.318
 5527SOL     OW17479   5.114   2.837   4.108
 5527SOL    HW117480   5.058   2.919   4.099
 5527SOL    HW217481   5.111   2.785   4.023
 5528SOL     OW17482   1.236   2.142   1.549
 5528SOL    HW117483   1.138   2.145   1.525
 5528SOL    HW217484   1.290   2.132   1.465
 5529SOL     OW17485   2.529   0.710   3.160
 5529SOL    HW117486   2.449   0.765   3.137
 5529SOL    HW217487   2.535   0.632   3.097
 5530SOL     OW17488   6.547   2.402   1.790
 5530SOL    HW117489   6.485   2.460   1.844
 5530SOL    HW217490   6.503   2.314   1.772
 5531SOL     OW17491   3.919   3.990   1.433
 5531SOL    HW117492   4.000   3.938   1.405
 5531SOL    HW217493   3.848   3.927   1.465
 5532SOL     OW17494   2.012   2.373   0.556
 5532SOL    HW117495   1.937   2.378   0.622
 5532SOL    HW217496   2.014   2.282   0.514
 5533SOL     OW17497   4.740   1.290   4.216
 5533SOL    HW117498   4.724   1.371   4.159
 5533SOL    HW217499   4.827   1.300   4.264
 5534SOL     OW17500   1.092   1.110   5.576
 5534SOL    HW117501   1.005   1.074   5.611
 5534SOL    HW217502   1.102   1.085   5.480
 5535SOL     OW17503   0.898   1.485   2.489
 5535SOL    HW117504   0.997   1.476   2.478
 5535SOL    HW217505   0.870   1.436   2.572
 5536SOL     OW17506   3.154   1.014   5.007
 5536SOL    HW117507   3.165   1.108   4.975
 5536SOL    HW217508   3.227   0.991   5.071
 5537SOL     OW17509   3.787   1.338   2.809
 5537SOL    HW117510   3.816   1.324   2.904
 5537SOL    HW217511   3.710   1.277   2.789
 5538SOL     OW17512   4.496   5.449   4.741
 5538SOL    HW117513   4.566   5.483   4.804
 5538SOL    HW217514   4.534   5.444   4.649
 5539SOL     OW17515   2.234   2.518   0.767
 5539SOL    HW117516   2.189   2.580   0.831
 5539SOL    HW217517   2.174   2.501   0.689
 5540SOL     OW17518   4.952   4.635   3.264
 5540SOL    HW117519   4.865   4.650   3.218
 5540SOL    HW217520   4.940   4.568   3.337
 5541SOL     OW17521   4.906   1.654   6.422
 5541SOL    HW117522   4.901   1.593   6.343
 5541SOL    HW217523   4.887   1.748   6.394
 5542SOL     OW17524   3.755   4.819   6.140
 5542SOL    HW117525   3.752   4.850   6.045
 5542SOL    HW217526   3.738   4.720   6.143
 5543SOL     OW17527   6.378   3.732   6.650
 5543SOL    HW117528   6.336   3.820   6.626
 5543SOL    HW217529   6.373   3.670   6.571
 5544SOL     OW17530   5.810   0.839   5.499
 5544SOL    HW117531   5.735   0.811   5.439
 5544SOL    HW217532   5.866   0.759   5.523
 5545SOL     OW17533   4.164   1.904   2.733
 5545SOL    HW117534   4.079   1.905   2.785
 5545SOL    HW217535   4.218   1.985   2.757
 5546SOL     OW17536   1.940   5.390   6.012
 5546SOL    HW117537   1.841   5.404   6.003
 5546SOL    HW217538   1.979   5.373   5.922
 5547SOL     OW17539   3.383   4.940   5.489
 5547SOL    HW117540   3.396   5.016   5.426
 5547SOL    HW217541   3.442   4.864   5.462
 5548SOL     OW17542   6.306   3.813   5.424
 5548SOL    HW117543   6.236   3.865   5.471
 5548SOL    HW217544   6.289   3.815   5.325
 5549SOL     OW17545   2.979   4.567   6.969
 5549SOL    HW117546   3.033   4.485   6.948
 5549SOL    HW217547   3.015   4.645   6.917
 5550SOL     OW17548   2.642   6.098   1.393
 5550SOL    HW117549   2.718   6.161   1.380
 5550SOL    HW217550   2.646   6.059   1.485
 5551SOL     OW17551   1.561   1.795   3.314
 5551SOL    HW117552   1.578   1.893   3.325
 5551SOL    HW217553   1.530   1.757   3.401
 5552SOL     OW17554   6.936   2.448   1.368
 5552SOL    HW117555   6.843   2.412   1.374
 5552SOL    HW217556   6.936   2.533   1.315
 5553SOL     OW17557   4.516   5.858   0.394
 5553SOL    HW117558   4.423   5.893   0.395
 5553SOL    HW217559   4.555   5.863   0.486
 5554SOL     OW17560   3.066   2.026   5.041
 5554SOL    HW117561   3.111   2.115   5.037
 5554SOL    HW217562   2.974   2.034   5.004
 5555SOL     OW17563   0.250   4.912   3.570
 5555SOL    HW117564   0.220   4.872   3.484
 5555SOL    HW217565   0.343   4.881   3.591
 5556SOL     OW17566   0.523   2.183   5.302
 5556SOL    HW117567   0.596   2.156   5.364
 5556SOL    HW217568   0.516   2.118   5.227
 5557SOL     OW17569   2.139   6.370   4.060
 5557SOL    HW117570   2.158   6.413   4.149
 5557SOL    HW217571   2.195   6.414   3.990
 5558SOL     OW17572   5.290   3.061   5.004
 5558SOL    HW117573   5.369   3.114   5.035
 5558SOL    HW217574   5.217   3.066   5.072
 5559SOL     OW17575   1.819   0.615   0.782
 5559SOL    HW117576   1.778   0.702   0.760
 5559SOL    HW217577   1.791   0.587   0.874
 5560SOL     OW17578   0.374   1.243   3.558
 5560SOL    HW117579   0.361   1.263   3.461
 5560SOL    HW217580   0.294   1.273   3.609
 5561SOL     OW17581   1.594   3.266   3.125
 5561SOL    HW117582   1.604   3.302   3.218
 5561SOL    HW217583   1.594   3.166   3.129
 5562SOL     OW17584   2.396   3.427   6.413
 5562SOL    HW117585   2.403   3.489   6.335
 5562SOL    HW217586   2.443   3.341   6.391
 5563SOL     OW17587   4.653   5.853   2.726
 5563SOL    HW117588   4.570   5.880   2.679
 5563SOL    HW217589   4.633   5.776   2.788
 5564SOL     OW17590   5.134   3.469   1.599
 5564SOL    HW117591   5.066   3.482   1.671
 5564SOL    HW217592   5.109   3.390   1.543
 5565SOL     OW17593   3.521   2.512   5.554
 5565SOL    HW117594   3.581   2.439   5.523
 5565SOL    HW217595   3.451   2.530   5.484
 5566SOL     OW17596   1.841   4.985   1.275
 5566SOL    HW117597   1.927   5.008   1.230
 5566SOL    HW217598   1.845   4.890   1.307
 5567SOL     OW17599   1.534   5.495   1.741
 5567SOL    HW117600   1.570   5.446   1.662
 5567SOL    HW217601   1.606   5.551   1.782
 5568SOL     OW17602   3.827   1.317   1.707
 5568SOL    HW117603   3.841   1.317   1.608
 5568SOL    HW217604   3.734   1.348   1.727
 5569SOL     OW17605   4.161   1.655   0.286
 5569SOL    HW117606   4.075   1.621   0.323
 5569SOL    HW217607   4.143   1.704   0.200
 5570SOL     OW17608   6.381   3.901   5.791
 5570SOL    HW117609   6.374   3.959   5.710
 5570SOL    HW217610   6.461   3.841   5.783
 5571SOL     OW17611   6.882   5.776   6.934
 5571SOL    HW117612   6.862   5.848   6.867
 5571SOL    HW217613   6.798   5.749   6.980
 5572SOL     OW17614   4.568   2.577   6.448
 5572SOL    HW117615   4.519   2.617   6.370
 5572SOL    HW217616   4.660   2.550   6.418
 5573SOL     OW17617   1.297   4.085   1.056
 5573SOL    HW117618   1.255   4.014   1.114
 5573SOL    HW217619   1.238   4.104   0.978
 5574SOL     OW17620   0.943   6.050   5.257
 5574SOL    HW117621   0.991   5.994   5.190
 5574SOL    HW217622   0.844   6.046   5.239
 5575SOL     OW17623   1.457   1.483   0.743
 5575SOL    HW117624   1.451   1.419   0.820
 5575SOL    HW217625   1.542   1.467   0.694
 5576SOL     OW17626   6.028   6.359   0.622
 5576SOL    HW117627   6.027   6.380   0.720
 5576SOL    HW217628   6.081   6.428   0.573
 5577SOL     OW17629   1.834   3.717   5.446
 5577SOL    HW117630   1.863   3.743   5.354
 5577SOL    HW217631   1.815   3.619   5.449
 5578SOL     OW17632   4.291   2.587   0.189
 5578SOL    HW117633   4.265   2.645   0.267
 5578SOL    HW217634   4.315   2.645   0.112
 5579SOL     OW17635   4.930   3.959   6.765
 5579SOL    HW117636   4.863   3.905   6.714
 5579SOL    HW217637   4.981   3.899   6.827
 5580SOL     OW17638   5.927   1.625   0.314
 5580SOL    HW117639   6.024   1.604   0.301
 5580SOL    HW217640   5.903   1.709   0.266
 5581SOL     OW17641   2.243   1.538   6.576
 5581SOL    HW117642   2.218   1.613   6.514
 5581SOL    HW217643   2.219   1.563   6.669
 5582SOL     OW17644   3.817   3.328   3.599
 5582SOL    HW117645   3.837   3.335   3.697
 5582SOL    HW217646   3.835   3.416   3.555
 5583SOL     OW17647   3.653   0.182   1.430
 5583SOL    HW117648   3.681   0.260   1.487
 5583SOL    HW217649   3.623   0.215   1.341
 5584SOL     OW17650   6.274   3.374   3.666
 5584SOL    HW117651   6.256   3.292   3.612
 5584SOL    HW217652   6.345   3.428   3.623
 5585SOL     OW17653   5.733   0.432   4.301
 5585SOL    HW117654   5.702   0.341   4.272
 5585SOL    HW217655   5.698   0.452   4.392
 5586SOL     OW17656   1.800   1.326   5.666
 5586SOL    HW117657   1.861   1.321   5.745
 5586SOL    HW217658   1.707   1.306   5.694
 5587SOL     OW17659   3.433   0.614   4.339
 5587SOL    HW117660   3.521   0.645   4.303
 5587SOL    HW217661   3.420   0.650   4.431
 5588SOL     OW17662   2.705   0.217   5.938
 5588SOL    HW117663   2.715   0.155   5.859
 5588SOL    HW217664   2.609   0.235   5.954
 5589SOL     OW17665   4.373   2.701   6.267
 5589SOL    HW117666   4.368   2.625   6.202
 5589SOL    HW217667   4.383   2.787   6.217
 5590SOL     OW17668   0.092   5.991   3.888
 5590SOL    HW117669   0.099   5.918   3.956
 5590SOL    HW217670   0.006   6.040   3.900
 5591SOL     OW17671   5.503   0.689   0.945
 5591SOL    HW117672   5.553   0.770   0.975
 5591SOL    HW217673   5.452   0.650   1.022
 5592SOL     OW17674   1.819   3.393   2.702
 5592SOL    HW117675   1.911   3.427   2.721
 5592SOL    HW217676   1.824   3.323   2.630
 5593SOL     OW17677   1.203   3.016   5.524
 5593SOL    HW117678   1.186   3.051   5.616
 5593SOL    HW217679   1.220   3.092   5.461
 5594SOL     OW17680   1.848   0.772   0.008
 5594SOL    HW117681   1.772   0.714   7.001
 5594SOL    HW217682   1.917   0.715   0.052
 5595SOL     OW17683   0.180   2.377   5.948
 5595SOL    HW117684   0.262   2.429   5.967
 5595SOL    HW217685   0.184   2.288   5.994
 5596SOL     OW17686   4.884   0.652   3.033
 5596SOL    HW117687   4.881   0.598   3.117
 5596SOL    HW217688   4.911   0.593   2.957
 5597SOL     OW17689   6.941   0.525   6.202
 5597SOL    HW117690   6.947   0.591   6.126
 5597SOL    HW217691   6.904   0.439   6.168
 5598SOL     OW17692   6.599   1.592   3.829
 5598SOL    HW117693   6.505   1.612   3.805
 5598SOL    HW217694   6.634   1.519   3.770
 5599SOL     OW17695   4.922   3.480   3.187
 5599SOL    HW117696   5.020   3.463   3.201
 5599SOL    HW217697   4.876   3.393   3.171
 5600SOL     OW17698   2.328   1.738   2.293
 5600SOL    HW117699   2.265   1.742   2.215
 5600SOL    HW217700   2.422   1.736   2.260
 5601SOL     OW17701   5.610   2.649   5.478
 5601SOL    HW117702   5.604   2.599   5.564
 5601SOL    HW217703   5.579   2.743   5.492
 5602SOL     OW17704   0.569   2.058   2.725
 5602SOL    HW117705   0.576   2.089   2.820
 5602SOL    HW217706   0.596   1.962   2.720
 5603SOL     OW17707   4.210   2.112   4.420
 5603SOL    HW117708   4.154   2.033   4.397
 5603SOL    HW217709   4.191   2.186   4.357
 5604SOL     OW17710   0.656   0.157   4.185
 5604SOL    HW117711   0.689   0.063   4.174
 5604SOL    HW217712   0.591   0.178   4.112
 5605SOL     OW17713   3.140   5.850   4.143
 5605SOL    HW117714   3.048   5.851   4.104
 5605SOL    HW217715   3.177   5.757   4.137
 5606SOL     OW17716   4.510   2.081   1.013
 5606SOL    HW117717   4.496   2.078   0.914
 5606SOL    HW217718   4.568   2.159   1.036
 5607SOL     OW17719   6.234   2.731   2.278
 5607SOL    HW117720   6.332   2.727   2.258
 5607SOL    HW217721   6.216   2.694   2.368
 5608SOL     OW17722   4.296   1.099   3.288
 5608SOL    HW117723   4.238   1.134   3.362
 5608SOL    HW217724   4.381   1.151   3.285
 5609SOL     OW17725   6.578   0.071   0.871
 5609SOL    HW117726   6.547   7.019   0.930
 5609SOL    HW217727   6.586   0.038   0.777
 5610SOL     OW17728   4.908   4.670   0.050
 5610SOL    HW117729   4.877   4.580   0.019
 5610SOL    HW217730   4.831   4.721   0.086
 5611SOL     OW17731   0.157   4.947   1.158
 5611SOL    HW117732   0.139   5.023   1.095
 5611SOL    HW217733   0.255   4.934   1.167
 5612SOL     OW17734   2.629   1.399   0.878
 5612SOL    HW117735   2.692   1.341   0.931
 5612SOL    HW217736   2.681   1.474   0.837
 5613SOL     OW17737   6.875   5.440   5.610
 5613SOL    HW117738   6.937   5.504   5.655
 5613SOL    HW217739   6.785   5.482   5.599
 5614SOL     OW17740   5.502   2.263   3.956
 5614SOL    HW117741   5.430   2.195   3.944
 5614SOL    HW217742   5.527   2.269   4.053
 5615SOL     OW17743   0.385   3.225   3.402
 5615SOL    HW117744   0.443   3.305   3.412
 5615SOL    HW217745   0.312   3.244   3.336
 5616SOL     OW17746   1.825   3.632   2.531
 5616SOL    HW117747   1.772   3.591   2.605
 5616SOL    HW217748   1.923   3.619   2.548
 5617SOL     OW17749   1.622   5.414   6.418
 5617SOL    HW117750   1.585   5.451   6.332
 5617SOL    HW217751   1.554   5.426   6.490
 5618SOL     OW17752   6.786   6.129   3.359
 5618SOL    HW117753   6.846   6.165   3.288
 5618SOL    HW217754   6.839   6.109   3.441
 5619SOL     OW17755   3.963   3.039   3.942
 5619SOL    HW117756   3.942   3.044   4.039
 5619SOL    HW217757   4.061   3.022   3.930
 5620SOL     OW17758   4.574   4.831   5.596
 5620SOL    HW117759   4.638   4.824   5.673
 5620SOL    HW217760   4.521   4.747   5.589
 5621SOL     OW17761   1.147   2.467   5.650
 5621SOL    HW117762   1.111   2.382   5.689
 5621SOL    HW217763   1.146   2.538   5.721
 5622SOL     OW17764   4.838   6.115   4.552
 5622SOL    HW117765   4.926   6.155   4.579
 5622SOL    HW217766   4.850   6.059   4.471
 5623SOL     OW17767   5.101   5.794   3.576
 5623SOL    HW117768   5.155   5.744   3.644
 5623SOL    HW217769   5.088   5.888   3.606
 5624SOL     OW17770   6.718   4.459   4.450
 5624SOL    HW117771   6.701   4.437   4.354
 5624SOL    HW217772   6.803   4.415   4.479
 5625SOL     OW17773   0.983   5.913   5.587
 5625SOL    HW117774   1.037   5.899   5.504
 5625SOL    HW217775   0.939   5.827   5.614
 5626SOL     OW17776   1.315   4.467   5.120
 5626SOL    HW117777   1.216   4.459   5.123
 5626SOL    HW217778   1.353   4.385   5.076
 5627SOL     OW17779   1.265   5.848   6.787
 5627SOL    HW117780   1.305   5.759   6.811
 5627SOL    HW217781   1.293   5.916   6.855
 5628SOL     OW17782   2.480   2.450   1.401
 5628SOL    HW117783   2.497   2.363   1.446
 5628SOL    HW217784   2.389   2.449   1.359
 5629SOL     OW17785   5.356   3.653   1.563
 5629SOL    HW117786   5.368   3.720   1.489
 5629SOL    HW217787   5.266   3.610   1.555
 5630SOL     OW17788   2.114   4.158   6.907
 5630SOL    HW117789   2.037   4.161   6.970
 5630SOL    HW217790   2.197   4.188   6.955
 5631SOL     OW17791   4.204   1.187   1.589
 5631SOL    HW117792   4.242   1.197   1.497
 5631SOL    HW217793   4.224   1.269   1.642
 5632SOL     OW17794   5.682   0.033   5.751
 5632SOL    HW117795   5.695   0.023   5.653
 5632SOL    HW217796   5.611   0.101   5.769
 5633SOL     OW17797   0.872   5.596   5.670
 5633SOL    HW117798   0.903   5.537   5.595
 5633SOL    HW217799   0.785   5.562   5.704
 5634SOL     OW17800   2.481   7.013   0.323
 5634SOL    HW117801   2.500   6.918   0.347
 5634SOL    HW217802   2.436   7.017   0.234
 5635SOL     OW17803   2.041   0.978   6.434
 5635SOL    HW117804   2.033   0.900   6.496
 5635SOL    HW217805   1.984   0.962   6.354
 5636SOL     OW17806   6.334   1.870   5.776
 5636SOL    HW117807   6.291   1.784   5.748
 5636SOL    HW217808   6.327   1.879   5.875
 5637SOL     OW17809   4.946   6.741   4.719
 5637SOL    HW117810   4.921   6.837   4.704
 5637SOL    HW217811   4.926   6.716   4.813
 5638SOL     OW17812   5.667   5.295   0.982
 5638SOL    HW117813   5.671   5.218   0.918
 5638SOL    HW217814   5.754   5.344   0.980
 5639SOL     OW17815   1.176   0.490   1.286
 5639SOL    HW117816   1.091   0.500   1.235
 5639SOL    HW217817   1.200   0.393   1.293
 5640SOL     OW17818   2.591   5.667   2.992
 5640SOL    HW117819   2.507   5.656   3.046
 5640SOL    HW217820   2.569   5.712   2.906
 5641SOL     OW17821   0.867   3.988   3.796
 5641SOL    HW117822   0.917   3.910   3.834
 5641SOL    HW217823   0.932   4.051   3.754
 5642SOL     OW17824   1.581   4.932   0.477
 5642SOL    HW117825   1.570   4.834   0.491
 5642SOL    HW217826   1.600   4.976   0.565
 5643SOL     OW17827   4.757   1.939   4.705
 5643SOL    HW117828   4.684   1.872   4.716
 5643SOL    HW217829   4.766   1.963   4.608
 5644SOL     OW17830   4.163   0.908   4.971
 5644SOL    HW117831   4.089   0.968   4.943
 5644SOL    HW217832   4.127   0.817   4.990
 5645SOL     OW17833   5.862   5.640   3.541
 5645SOL    HW117834   5.784   5.592   3.580
 5645SOL    HW217835   5.862   5.735   3.573
 5646SOL     OW17836   0.489   6.534   4.002
 5646SOL    HW117837   0.432   6.593   3.945
 5646SOL    HW217838   0.503   6.446   3.957
 5647SOL     OW17839   5.769   5.303   6.160
 5647SOL    HW117840   5.806   5.272   6.247
 5647SOL    HW217841   5.715   5.386   6.173
 5648SOL     OW17842   1.796   1.787   3.767
 5648SOL    HW117843   1.894   1.785   3.788
 5648SOL    HW217844   1.748   1.723   3.828
 5649SOL     OW17845   0.640   1.040   5.284
 5649SOL    HW117846   0.570   1.083   5.227
 5649SOL    HW217847   0.730   1.069   5.253
 5650SOL     OW17848   6.986   4.829   0.046
 5650SOL    HW117849   6.899   4.873   0.024
 5650SOL    HW217850   0.020   4.893   0.097
 5651SOL     OW17851   6.615   0.667   2.180
 5651SOL    HW117852   6.603   0.732   2.256
 5651SOL    HW217853   6.548   0.594   2.188
 5652SOL     OW17854   4.862   5.228   0.947
 5652SOL    HW117855   4.787   5.177   0.906
 5652SOL    HW217856   4.893   5.300   0.885
 5653SOL     OW17857   0.251   5.946   6.274
 5653SOL    HW117858   0.335   5.967   6.323
 5653SOL    HW217859   0.217   6.028   6.229
 5654SOL     OW17860   6.855   0.176   5.346
 5654SOL    HW117861   6.769   0.226   5.359
 5654SOL    HW217862   6.850   0.088   5.394
 5655SOL     OW17863   6.940   3.518   4.256
 5655SOL    HW117864   6.873   3.444   4.257
 5655SOL    HW217865   0.007   3.481   4.234
 5656SOL     OW17866   3.597   4.270   0.021
 5656SOL    HW117867   3.668   4.251   0.089
 5656SOL    HW217868   3.634   4.333   6.976
 5657SOL     OW17869   3.558   0.110   1.825
 5657SOL    HW117870   3.521   0.114   1.732
 5657SOL    HW217871   3.594   0.019   1.842
 5658SOL     OW17872   3.587   6.895   5.710
 5658SOL    HW117873   3.686   6.885   5.703
 5658SOL    HW217874   3.544   6.869   5.623
 5659SOL     OW17875   3.071   3.879   2.768
 5659SOL    HW117876   3.006   3.823   2.817
 5659SOL    HW217877   3.112   3.946   2.830
 5660SOL     OW17878   4.811   6.688   6.817
 5660SOL    HW117879   4.711   6.687   6.819
 5660SOL    HW217880   4.843   6.632   6.741
 5661SOL     OW17881   6.574   5.341   4.171
 5661SOL    HW117882   6.533   5.430   4.150
 5661SOL    HW217883   6.506   5.269   4.157
 5662SOL     OW17884   2.095   4.481   4.116
 5662SOL    HW117885   2.173   4.436   4.159
 5662SOL    HW217886   2.128   4.556   4.058
 5663SOL     OW17887   1.682   4.148   0.806
 5663SOL    HW117888   1.654   4.110   0.894
 5663SOL    HW217889   1.623   4.225   0.782
 5664SOL     OW17890   6.881   4.718   1.960
 5664SOL    HW117891   6.943   4.796   1.973
 5664SOL    HW217892   6.793   4.737   2.003
 5665SOL     OW17893   2.148   3.420   5.849
 5665SOL    HW117894   2.220   3.484   5.875
 5665SOL    HW217895   2.128   3.429   5.751
 5666SOL     OW17896   5.553   4.379   1.083
 5666SOL    HW117897   5.454   4.384   1.066
 5666SOL    HW217898   5.587   4.288   1.059
 5667SOL     OW17899   6.500   5.307   2.890
 5667SOL    HW117900   6.588   5.347   2.916
 5667SOL    HW217901   6.457   5.267   2.971
 5668SOL     OW17902   5.519   1.907   6.593
 5668SOL    HW117903   5.543   1.813   6.617
 5668SOL    HW217904   5.593   1.947   6.539
 5669SOL     OW17905   0.807   4.872   6.499
 5669SOL    HW117906   0.881   4.873   6.432
 5669SOL    HW217907   0.728   4.824   6.461
 5670SOL     OW17908   0.438   3.591   4.358
 5670SOL    HW117909   0.479   3.630   4.441
 5670SOL    HW217910   0.344   3.624   4.349
 5671SOL     OW17911   1.510   0.737   6.190
 5671SOL    HW117912   1.433   0.744   6.126
 5671SOL    HW217913   1.565   0.821   6.184
 5672SOL     OW17914   5.090   4.534   5.793
 5672SOL    HW117915   4.993   4.560   5.796
 5672SOL    HW217916   5.121   4.535   5.698
 5673SOL     OW17917   0.345   0.621   1.795
 5673SOL    HW117918   0.373   0.554   1.864
 5673SOL    HW217919   0.426   0.661   1.753
 5674SOL     OW17920   6.703   3.372   1.424
 5674SOL    HW117921   6.776   3.391   1.490
 5674SOL    HW217922   6.689   3.453   1.367
 5675SOL     OW17923   4.438   2.538   5.188
 5675SOL    HW117924   4.480   2.600   5.121
 5675SOL    HW217925   4.338   2.546   5.181
 5676SOL     OW17926   2.143   0.350   1.874
 5676SOL    HW117927   2.147   0.399   1.787
 5676SOL    HW217928   2.124   0.415   1.948
 5677SOL     OW17929   6.184   0.877   3.409
 5677SOL    HW117930   6.154   0.792   3.452
 5677SOL    HW217931   6.188   0.949   3.479
 5678SOL     OW17932   2.908   6.818   3.283
 5678SOL    HW117933   2.886   6.900   3.230
 5678SOL    HW217934   2.997   6.828   3.326
 5679SOL     OW17935   1.829   6.624   4.960
 5679SOL    HW117936   1.897   6.590   4.895
 5679SOL    HW217937   1.750   6.659   4.910
 5680SOL     OW17938   2.400   5.630   6.571
 5680SOL    HW117939   2.332   5.678   6.628
 5680SOL    HW217940   2.381   5.532   6.572
 5681SOL     OW17941   1.120   3.115   6.789
 5681SOL    HW117942   1.107   3.123   6.888
 5681SOL    HW217943   1.171   3.194   6.755
 5682SOL     OW17944   0.904   3.002   5.443
 5682SOL    HW117945   0.816   2.982   5.486
 5682SOL    HW217946   0.951   2.917   5.420
 5683SOL     OW17947   3.486   2.519   6.465
 5683SOL    HW117948   3.443   2.596   6.417
 5683SOL    HW217949   3.574   2.499   6.423
 5684SOL     OW17950   3.443   4.083   4.121
 5684SOL    HW117951   3.514   4.051   4.185
 5684SOL    HW217952   3.477   4.074   4.027
 5685SOL     OW17953   6.995   4.981   2.020
 5685SOL    HW117954   6.912   5.036   2.011
 5685SOL    HW217955   0.035   5.005   1.947
 5686SOL     OW17956   3.794   0.183   0.638
 5686SOL    HW117957   3.859   0.107   0.629
 5686SOL    HW217958   3.711   0.163   0.587
 5687SOL     OW17959   5.268   5.245   5.344
 5687SOL    HW117960   5.302   5.231   5.251
 5687SOL    HW217961   5.242   5.158   5.384
 5688SOL     OW17962   5.696   2.290   1.397
 5688SOL    HW117963   5.629   2.250   1.459
 5688SOL    HW217964   5.650   2.344   1.327
 5689SOL     OW17965   4.241   1.699   0.919
 5689SOL    HW117966   4.196   1.718   1.006
 5689SOL    HW217967   4.200   1.755   0.847
 5690SOL     OW17968   4.212   5.899   0.949
 5690SOL    HW117969   4.171   5.829   1.007
 5690SOL    HW217970   4.163   5.985   0.961
 5691SOL     OW17971   2.103   0.078   1.762
 5691SOL    HW117972   2.168   0.087   1.686
 5691SOL    HW217973   2.111   0.159   1.820
 5692SOL     OW17974   6.232   3.359   5.944
 5692SOL    HW117975   6.139   3.390   5.922
 5692SOL    HW217976   6.297   3.431   5.925
 5693SOL     OW17977   4.523   2.558   2.452
 5693SOL    HW117978   4.475   2.524   2.372
 5693SOL    HW217979   4.608   2.603   2.423
 5694SOL     OW17980   0.529   0.993   3.466
 5694SOL    HW117981   0.584   1.032   3.392
 5694SOL    HW217982   0.542   1.048   3.549
 5695SOL     OW17983   1.702   3.249   3.403
 5695SOL    HW117984   1.702   3.151   3.421
 5695SOL    HW217985   1.646   3.296   3.471
 5696SOL     OW17986   2.745   1.031   5.269
 5696SOL    HW117987   2.728   0.936   5.243
 5696SOL    HW217988   2.779   1.082   5.190
 5697SOL     OW17989   6.869   2.505   0.325
 5697SOL    HW117990   6.779   2.526   0.289
 5697SOL    HW217991   6.917   2.590   0.346
 5698SOL     OW17992   0.900   3.096   1.596
 5698SOL    HW117993   0.894   3.181   1.544
 5698SOL    HW217994   0.912   3.118   1.693
 5699SOL     OW17995   6.027   1.099   5.085
 5699SOL    HW117996   6.082   1.173   5.047
 5699SOL    HW217997   5.936   1.099   5.043
 5700SOL     OW17998   1.568   5.769   5.248
 5700SOL    HW117999   1.643   5.834   5.247
 5700SOL    HW218000   1.481   5.818   5.256
 5701SOL     OW18001   6.898   5.617   2.344
 5701SOL    HW118002   6.872   5.711   2.320
 5701SOL    HW218003   6.830   5.578   2.406
 5702SOL     OW18004   2.191   6.492   6.525
 5702SOL    HW118005   2.261   6.428   6.557
 5702SOL    HW218006   2.168   6.472   6.430
 5703SOL     OW18007   4.455   4.678   0.337
 5703SOL    HW118008   4.506   4.604   0.380
 5703SOL    HW218009   4.376   4.701   0.394
 5704SOL     OW18010   4.546   5.088   3.694
 5704SOL    HW118011   4.579   5.104   3.787
 5704SOL    HW218012   4.488   5.164   3.665
 5705SOL     OW18013   6.018   7.012   1.127
 5705SOL    HW118014   5.958   0.044   1.185
 5705SOL    HW218015   5.967   6.982   1.046
 5706SOL     OW18016   1.182   1.561   6.928
 5706SOL    HW118017   1.128   1.511   6.860
 5706SOL    HW218018   1.232   1.496   6.985
 5707SOL     OW18019   1.877   1.160   6.167
 5707SOL    HW118020   1.789   1.208   6.167
 5707SOL    HW218021   1.920   1.172   6.256
 5708SOL     OW18022   5.231   7.000   2.362
 5708SOL    HW118023   5.134   6.978   2.361
 5708SOL    HW218024   5.244   0.072   2.337
 5709SOL     OW18025   0.589   6.425   3.040
 5709SOL    HW118026   0.525   6.498   3.016
 5709SOL    HW218027   0.551   6.372   3.116
 5710SOL     OW18028   2.968   3.372   6.000
 5710SOL    HW118029   2.910   3.451   6.019
 5710SOL    HW218030   3.064   3.400   5.996
 5711SOL     OW18031   4.948   1.198   3.797
 5711SOL    HW118032   4.858   1.228   3.827
 5711SOL    HW218033   4.961   1.223   3.701
 5712SOL     OW18034   6.991   6.315   5.952
 5712SOL    HW118035   7.003   6.296   5.855
 5712SOL    HW218036   6.894   6.325   5.972
 5713SOL     OW18037   0.228   2.984   2.500
 5713SOL    HW118038   0.167   3.036   2.560
 5713SOL    HW218039   0.173   2.935   2.432
 5714SOL     OW18040   1.336   0.671   6.001
 5714SOL    HW118041   1.345   0.572   6.013
 5714SOL    HW218042   1.375   0.697   5.912
 5715SOL     OW18043   1.587   6.409   2.213
 5715SOL    HW118044   1.510   6.391   2.151
 5715SOL    HW218045   1.608   6.506   2.212
 5716SOL     OW18046   1.606   3.787   6.313
 5716SOL    HW118047   1.573   3.864   6.258
 5716SOL    HW218048   1.687   3.815   6.365
 5717SOL     OW18049   1.042   4.419   1.271
 5717SOL    HW118050   1.061   4.370   1.186
 5717SOL    HW218051   1.070   4.363   1.349
 5718SOL     OW18052   2.516   4.897   6.176
 5718SOL    HW118053   2.579   4.947   6.117
 5718SOL    HW218054   2.469   4.827   6.122
 5719SOL     OW18055   3.231   0.437   6.447
 5719SOL    HW118056   3.167   0.505   6.482
 5719SOL    HW218057   3.302   0.420   6.516
 5720SOL     OW18058   1.291   5.583   5.377
 5720SOL    HW118059   1.256   5.534   5.457
 5720SOL    HW218060   1.391   5.578   5.376
 5721SOL     OW18061   0.275   3.107   0.851
 5721SOL    HW118062   0.222   3.180   0.894
 5721SOL    HW218063   0.287   3.032   0.917
 5722SOL     OW18064   5.808   0.212   4.828
 5722SOL    HW118065   5.823   0.116   4.805
 5722SOL    HW218066   5.883   0.267   4.792
 5723SOL     OW18067   3.921   5.835   0.345
 5723SOL    HW118068   4.009   5.845   0.299
 5723SOL    HW218069   3.871   5.759   0.304
 5724SOL     OW18070   5.604   2.020   6.130
 5724SOL    HW118071   5.676   2.079   6.165
 5724SOL    HW218072   5.637   1.970   6.050
 5725SOL     OW18073   5.194   5.088   4.288
 5725SOL    HW118074   5.180   4.990   4.272
 5725SOL    HW218075   5.132   5.119   4.360
 5726SOL     OW18076   5.539   3.647   5.682
 5726SOL    HW118077   5.483   3.700   5.618
 5726SOL    HW218078   5.496   3.646   5.772
 5727SOL     OW18079   5.703   1.902   3.096
 5727SOL    HW118080   5.785   1.892   3.152
 5727SOL    HW218081   5.630   1.942   3.152
 5728SOL     OW18082   6.145   0.634   5.349
 5728SOL    HW118083   6.236   0.615   5.314
 5728SOL    HW218084   6.151   0.675   5.440
 5729SOL     OW18085   0.095   1.224   6.215
 5729SOL    HW118086   0.188   1.250   6.189
 5729SOL    HW218087   0.085   1.233   6.315
 5730SOL     OW18088   3.992   5.584   5.895
 5730SOL    HW118089   3.956   5.589   5.802
 5730SOL    HW218090   3.979   5.672   5.941
 5731SOL     OW18091   2.432   1.023   4.018
 5731SOL    HW118092   2.442   0.935   4.063
 5731SOL    HW218093   2.460   1.015   3.922
 5732SOL     OW18094   5.949   5.270   4.901
 5732SOL    HW118095   6.043   5.265   4.868
 5732SOL    HW218096   5.947   5.253   4.999
 5733SOL     OW18097   3.393   0.725   7.014
 5733SOL    HW118098   3.315   0.787   7.018
 5733SOL    HW218099   3.385   0.656   0.062
 5734SOL     OW18100   1.675   6.777   5.638
 5734SOL    HW118101   1.578   6.801   5.637
 5734SOL    HW218102   1.704   6.758   5.732
 5735SOL     OW18103   4.090   0.829   2.248
 5735SOL    HW118104   4.126   0.752   2.301
 5735SOL    HW218105   4.140   0.837   2.162
 5736SOL     OW18106   4.438   4.091   6.667
 5736SOL    HW118107   4.397   4.135   6.747
 5736SOL    HW218108   4.522   4.045   6.694
 5737SOL     OW18109   4.925   5.054   1.435
 5737SOL    HW118110   4.858   5.048   1.360
 5737SOL    HW218111   4.885   5.104   1.511
 5738SOL     OW18112   3.641   0.974   6.488
 5738SOL    HW118113   3.681   1.045   6.546
 5738SOL    HW218114   3.682   0.979   6.397
 5739SOL     OW18115   2.702   0.702   5.888
 5739SOL    HW118116   2.676   0.691   5.792
 5739SOL    HW218117   2.691   0.615   5.936
 5740SOL     OW18118   5.438   3.794   1.169
 5740SOL    HW118119   5.380   3.794   1.251
 5740SOL    HW218120   5.496   3.713   1.170
 5741SOL     OW18121   0.700   3.634   4.145
 5741SOL    HW118122   0.800   3.630   4.142
 5741SOL    HW218123   0.667   3.580   4.222
 5742SOL     OW18124   4.266   0.383   3.510
 5742SOL    HW118125   4.269   0.323   3.430
 5742SOL    HW218126   4.263   0.478   3.481
 5743SOL     OW18127   3.429   4.141   5.625
 5743SOL    HW118128   3.465   4.193   5.703
 5743SOL    HW218129   3.383   4.059   5.658
 5744SOL     OW18130   5.639   6.750   2.923
 5744SOL    HW118131   5.541   6.735   2.922
 5744SOL    HW218132   5.662   6.826   2.862
 5745SOL     OW18133   2.398   2.586   3.789
 5745SOL    HW118134   2.379   2.683   3.776
 5745SOL    HW218135   2.468   2.575   3.861
 5746SOL     OW18136   3.853   0.424   3.411
 5746SOL    HW118137   3.926   0.415   3.343
 5746SOL    HW218138   3.875   0.369   3.491
 5747SOL     OW18139   1.167   6.096   2.030
 5747SOL    HW118140   1.099   6.146   2.084
 5747SOL    HW218141   1.198   6.015   2.081
 5748SOL     OW18142   0.317   6.055   0.652
 5748SOL    HW118143   0.362   6.096   0.731
 5748SOL    HW218144   0.225   6.026   0.677
 5749SOL     OW18145   1.647   6.271   5.208
 5749SOL    HW118146   1.741   6.255   5.238
 5749SOL    HW218147   1.612   6.189   5.161
 5750SOL     OW18148   0.122   4.073   4.219
 5750SOL    HW118149   0.027   4.046   4.237
 5750SOL    HW218150   0.180   4.039   4.293
 5751SOL     OW18151   2.097   3.784   4.201
 5751SOL    HW118152   2.074   3.810   4.107
 5751SOL    HW218153   2.039   3.708   4.229
 5752SOL     OW18154   5.487   0.256   0.760
 5752SOL    HW118155   5.442   0.328   0.707
 5752SOL    HW218156   5.462   0.265   0.857
 5753SOL     OW18157   2.976   3.907   4.884
 5753SOL    HW118158   2.919   3.868   4.956
 5753SOL    HW218159   3.054   3.954   4.925
 5754SOL     OW18160   1.092   5.832   1.693
 5754SOL    HW118161   1.018   5.826   1.627
 5754SOL    HW218162   1.096   5.924   1.732
 5755SOL     OW18163   2.292   2.268   6.600
 5755SOL    HW118164   2.391   2.274   6.590
 5755SOL    HW218165   2.263   2.322   6.679
 5756SOL     OW18166   6.302   6.300   1.925
 5756SOL    HW118167   6.303   6.334   1.831
 5756SOL    HW218168   6.336   6.206   1.927
 5757SOL     OW18169   6.985   6.377   3.597
 5757SOL    HW118170   6.937   6.301   3.552
 5757SOL    HW218171   6.960   6.463   3.552
 5758SOL     OW18172   1.542   6.416   3.180
 5758SOL    HW118173   1.600   6.351   3.131
 5758SOL    HW218174   1.599   6.472   3.240
 5759SOL     OW18175   4.365   6.871   1.724
 5759SOL    HW118176   4.387   6.963   1.755
 5759SOL    HW218177   4.372   6.807   1.800
 5760SOL     OW18178   6.706   3.332   2.074
 5760SOL    HW118179   6.639   3.358   2.144
 5760SOL    HW218180   6.676   3.365   1.985
 5761SOL     OW18181   5.609   5.992   4.592
 5761SOL    HW118182   5.660   5.916   4.551
 5761SOL    HW218183   5.639   6.006   4.686
 5762SOL     OW18184   5.391   4.176   6.959
 5762SOL    HW118185   5.458   4.244   6.992
 5762SOL    HW218186   5.323   4.159   0.006
 5763SOL     OW18187   5.505   0.615   0.564
 5763SOL    HW118188   5.442   0.539   0.578
 5763SOL    HW218189   5.579   0.611   0.631
 5764SOL     OW18190   4.357   5.274   3.601
 5764SOL    HW118191   4.391   5.368   3.599
 5764SOL    HW218192   4.284   5.266   3.669
 5765SOL     OW18193   6.227   5.083   0.978
 5765SOL    HW118194   6.259   5.099   1.071
 5765SOL    HW218195   6.285   5.015   0.934
 5766SOL     OW18196   1.271   1.678   4.761
 5766SOL    HW118197   1.250   1.583   4.740
 5766SOL    HW218198   1.192   1.735   4.739
 5767SOL     OW18199   2.006   0.865   0.583
 5767SOL    HW118200   2.063   0.825   0.655
 5767SOL    HW218201   1.910   0.863   0.612
 5768SOL     OW18202   6.715   6.911   3.953
 5768SOL    HW118203   6.738   6.814   3.945
 5768SOL    HW218204   6.644   6.923   4.022
 5769SOL     OW18205   1.891   5.504   6.450
 5769SOL    HW118206   1.800   5.463   6.447
 5769SOL    HW218207   1.927   5.496   6.543
 5770SOL     OW18208   0.670   5.912   0.772
 5770SOL    HW118209   0.712   5.851   0.839
 5770SOL    HW218210   0.694   6.006   0.793
 5771SOL     OW18211   1.941   5.453   3.788
 5771SOL    HW118212   1.958   5.521   3.859
 5771SOL    HW218213   1.921   5.499   3.701
 5772SOL     OW18214   4.516   0.802   1.765
 5772SOL    HW118215   4.434   0.815   1.821
 5772SOL    HW218216   4.518   0.872   1.694
 5773SOL     OW18217   4.311   2.024   2.162
 5773SOL    HW118218   4.281   2.001   2.255
 5773SOL    HW218219   4.257   2.100   2.127
 5774SOL     OW18220   0.978   6.531   3.721
 5774SOL    HW118221   1.021   6.447   3.687
 5774SOL    HW218222   1.048   6.589   3.764
 5775SOL     OW18223   0.431   5.627   3.200
 5775SOL    HW118224   0.470   5.570   3.272
 5775SOL    HW218225   0.504   5.666   3.144
 5776SOL     OW18226   2.168   0.559   3.086
 5776SOL    HW118227   2.138   0.472   3.048
 5776SOL    HW218228   2.227   0.606   3.020
 5777SOL     OW18229   1.608   0.445   3.001
 5777SOL    HW118230   1.548   0.448   2.921
 5777SOL    HW218231   1.590   0.524   3.060
 5778SOL     OW18232   1.375   1.356   6.508
 5778SOL    HW118233   1.280   1.363   6.477
 5778SOL    HW218234   1.385   1.274   6.564
 5779SOL     OW18235   4.662   2.246   6.738
 5779SOL    HW118236   4.584   2.205   6.785
 5779SOL    HW218237   4.736   2.261   6.803
 5780SOL     OW18238   5.832   5.424   4.290
 5780SOL    HW118239   5.742   5.430   4.247
 5780SOL    HW218240   5.903   5.420   4.219
 5781SOL     OW18241   6.885   4.676   5.261
 5781SOL    HW118242   6.837   4.600   5.304
 5781SOL    HW218243   6.983   4.668   5.279
 5782SOL     OW18244   1.086   1.208   6.966
 5782SOL    HW118245   1.059   1.263   6.887
 5782SOL    HW218246   1.122   1.269   0.013
 5783SOL     OW18247   1.451   1.740   2.047
 5783SOL    HW118248   1.532   1.760   2.102
 5783SOL    HW218249   1.478   1.733   1.951
 5784SOL     OW18250   0.649   6.060   6.690
 5784SOL    HW118251   0.586   6.122   6.737
 5784SOL    HW218252   0.621   6.050   6.595
 5785SOL     OW18253   2.783   1.898   0.458
 5785SOL    HW118254   2.796   1.807   0.417
 5785SOL    HW218255   2.686   1.914   0.474
 5786SOL     OW18256   6.950   4.026   0.076
 5786SOL    HW118257   6.954   4.109   0.131
 5786SOL    HW218258   6.910   4.047   7.010
 5787SOL     OW18259   1.836   2.055   5.571
 5787SOL    HW118260   1.801   2.006   5.650
 5787SOL    HW218261   1.835   2.153   5.589
 5788SOL     OW18262   2.401   1.271   2.567
 5788SOL    HW118263   2.381   1.355   2.516
 5788SOL    HW218264   2.387   1.192   2.507
 5789SOL     OW18265   3.309   5.132   6.766
 5789SOL    HW118266   3.348   5.042   6.742
 5789SOL    HW218267   3.336   5.156   6.859
 5790SOL     OW18268   0.232   3.267   4.711
 5790SOL    HW118269   0.295   3.212   4.767
 5790SOL    HW218270   0.262   3.362   4.711
 5791SOL     OW18271   3.125   0.245   2.389
 5791SOL    HW118272   3.178   0.329   2.383
 5791SOL    HW218273   3.186   0.166   2.382
 5792SOL     OW18274   0.488   2.264   2.987
 5792SOL    HW118275   0.407   2.313   3.019
 5792SOL    HW218276   0.510   2.294   2.894
 5793SOL     OW18277   6.886   1.046   3.590
 5793SOL    HW118278   6.948   0.988   3.641
 5793SOL    HW218279   6.842   1.111   3.652
 5794SOL     OW18280   3.737   2.492   0.081
 5794SOL    HW118281   3.699   2.403   0.059
 5794SOL    HW218282   3.830   2.481   0.117
 5795SOL     OW18283   5.778   5.187   5.535
 5795SOL    HW118284   5.754   5.259   5.470
 5795SOL    HW218285   5.706   5.180   5.604
 5796SOL     OW18286   3.572   0.896   0.109
 5796SOL    HW118287   3.670   0.876   0.110
 5796SOL    HW218288   3.522   0.816   0.077
 5797SOL     OW18289   3.750   1.725   5.161
 5797SOL    HW118290   3.652   1.745   5.162
 5797SOL    HW218291   3.787   1.733   5.254
 5798SOL     OW18292   0.633   3.688   5.582
 5798SOL    HW118293   0.552   3.740   5.608
 5798SOL    HW218294   0.666   3.719   5.493
 5799SOL     OW18295   5.534   0.608   3.922
 5799SOL    HW118296   5.501   0.663   3.999
 5799SOL    HW218297   5.522   0.511   3.943
 5800SOL     OW18298   5.597   5.994   1.255
 5800SOL    HW118299   5.537   6.074   1.257
 5800SOL    HW218300   5.604   5.959   1.161
 5801SOL     OW18301   0.556   1.996   4.310
 5801SOL    HW118302   0.501   1.948   4.378
 5801SOL    HW218303   0.635   1.940   4.285
 5802SOL     OW18304   0.674   4.401   6.669
 5802SOL    HW118305   0.611   4.441   6.736
 5802SOL    HW218306   0.741   4.344   6.717
 5803SOL     OW18307   1.346   5.158   1.747
 5803SOL    HW118308   1.411   5.146   1.672
 5803SOL    HW218309   1.262   5.199   1.712
 5804SOL     OW18310   6.266   4.322   3.976
 5804SOL    HW118311   6.298   4.320   3.881
 5804SOL    HW218312   6.332   4.370   4.033
 5805SOL     OW18313   3.821   4.165   6.757
 5805SOL    HW118314   3.908   4.116   6.758
 5805SOL    HW218315   3.746   4.100   6.745
 5806SOL     OW18316   0.256   6.495   6.703
 5806SOL    HW118317   0.355   6.501   6.716
 5806SOL    HW218318   0.236   6.484   6.606
 5807SOL     OW18319   1.238   3.799   1.776
 5807SOL    HW118320   1.252   3.729   1.846
 5807SOL    HW218321   1.299   3.876   1.793
 5808SOL     OW18322   5.516   3.754   2.680
 5808SOL    HW118323   5.416   3.750   2.687
 5808SOL    HW218324   5.556   3.718   2.764
 5809SOL     OW18325   6.566   2.536   4.135
 5809SOL    HW118326   6.532   2.461   4.079
 5809SOL    HW218327   6.665   2.527   4.148
 5810SOL     OW18328   3.081   0.878   4.265
 5810SOL    HW118329   3.131   0.939   4.204
 5810SOL    HW218330   3.003   0.838   4.216
 5811SOL     OW18331   3.114   0.470   4.958
 5811SOL    HW118332   3.083   0.552   5.006
 5811SOL    HW218333   3.159   0.408   5.023
 5812SOL     OW18334   4.948   0.365   4.435
 5812SOL    HW118335   4.869   0.384   4.493
 5812SOL    HW218336   5.013   0.441   4.440
 5813SOL     OW18337   1.320   1.091   6.383
 5813SOL    HW118338   1.390   1.085   6.454
 5813SOL    HW218339   1.344   1.164   6.319
 5814SOL     OW18340   6.406   4.235   0.686
 5814SOL    HW118341   6.490   4.220   0.632
 5814SOL    HW218342   6.346   4.297   0.636
 5815SOL     OW18343   4.667   2.489   3.399
 5815SOL    HW118344   4.737   2.510   3.330
 5815SOL    HW218345   4.638   2.573   3.444
 5816SOL     OW18346   5.828   6.483   0.508
 5816SOL    HW118347   5.742   6.463   0.555
 5816SOL    HW218348   5.893   6.409   0.524
 5817SOL     OW18349   5.545   2.887   5.629
 5817SOL    HW118350   5.625   2.879   5.689
 5817SOL    HW218351   5.463   2.897   5.685
 5818SOL     OW18352   6.881   6.048   4.607
 5818SOL    HW118353   6.797   5.998   4.584
 5818SOL    HW218354   6.901   6.036   4.704
 5819SOL     OW18355   4.164   0.432   0.711
 5819SOL    HW118356   4.255   0.461   0.681
 5819SOL    HW218357   4.130   0.360   0.649
 5820SOL     OW18358   4.584   0.186   3.728
 5820SOL    HW118359   4.484   0.198   3.731
 5820SOL    HW218360   4.606   0.090   3.743
 5821SOL     OW18361   1.874   0.869   2.220
 5821SOL    HW118362   1.811   0.799   2.185
 5821SOL    HW218363   1.841   0.902   2.308
 5822SOL     OW18364   0.629   2.009   1.638
 5822SOL    HW118365   0.687   2.084   1.668
 5822SOL    HW218366   0.539   2.044   1.611
 5823SOL     OW18367   1.132   1.039   5.300
 5823SOL    HW118368   1.161   0.958   5.250
 5823SOL    HW218369   1.158   1.121   5.250
 5824SOL     OW18370   6.978   6.629   3.068
 5824SOL    HW118371   6.944   6.708   3.017
 5824SOL    HW218372   6.921   6.615   3.149
 5825SOL     OW18373   2.049   2.344   5.743
 5825SOL    HW118374   1.966   2.348   5.687
 5825SOL    HW218375   2.128   2.329   5.684
 5826SOL     OW18376   6.840   5.877   5.658
 5826SOL    HW118377   6.742   5.889   5.671
 5826SOL    HW218378   6.868   5.921   5.573
 5827SOL     OW18379   1.346   5.586   4.439
 5827SOL    HW118380   1.432   5.536   4.426
 5827SOL    HW218381   1.274   5.543   4.385
 5828SOL     OW18382   7.018   3.240   1.915
 5828SOL    HW118383   0.031   3.185   1.841
 5828SOL    HW218384   6.958   3.184   1.972
 5829SOL     OW18385   2.679   1.236   2.603
 5829SOL    HW118386   2.709   1.327   2.629
 5829SOL    HW218387   2.580   1.229   2.613
 5830SOL     OW18388   4.021   0.663   5.596
 5830SOL    HW118389   4.046   0.575   5.636
 5830SOL    HW218390   4.073   0.736   5.639
 5831SOL     OW18391   6.313   6.846   3.912
 5831SOL    HW118392   6.309   6.784   3.991
 5831SOL    HW218393   6.269   6.933   3.936
 5832SOL     OW18394   4.308   3.740   5.405
 5832SOL    HW118395   4.365   3.818   5.378
 5832SOL    HW218396   4.225   3.739   5.351
 5833SOL     OW18397   3.377   3.272   4.082
 5833SOL    HW118398   3.339   3.182   4.063
 5833SOL    HW218399   3.329   3.340   4.026
 5834SOL     OW18400   6.067   1.799   0.588
 5834SOL    HW118401   6.057   1.773   0.684
 5834SOL    HW218402   5.990   1.857   0.561
 5835SOL     OW18403   5.033   2.653   3.065
 5835SOL    HW118404   5.086   2.733   3.036
 5835SOL    HW218405   5.022   2.591   2.987
 5836SOL     OW18406   2.664   6.158   3.448
 5836SOL    HW118407   2.631   6.084   3.390
 5836SOL    HW218408   2.588   6.218   3.473
 5837SOL     OW18409   4.200   4.628   6.563
 5837SOL    HW118410   4.194   4.710   6.506
 5837SOL    HW218411   4.138   4.558   6.528
 5838SOL     OW18412   1.997   1.636   6.177
 5838SOL    HW118413   2.085   1.682   6.159
 5838SOL    HW218414   2.006   1.575   6.255
 5839SOL     OW18415   0.347   2.659   2.312
 5839SOL    HW118416   0.408   2.696   2.242
 5839SOL    HW218417   0.374   2.694   2.402
 5840SOL     OW18418   1.414   5.644   0.007
 5840SOL    HW118419   1.480   5.662   6.957
 5840SOL    HW218420   1.347   5.718   0.011
 5841SOL     OW18421   5.774   2.684   2.351
 5841SOL    HW118422   5.685   2.664   2.390
 5841SOL    HW218423   5.844   2.629   2.395
 5842SOL     OW18424   3.403   3.312   0.840
 5842SOL    HW118425   3.462   3.390   0.821
 5842SOL    HW218426   3.348   3.291   0.759
 5843SOL     OW18427   2.226   4.060   2.546
 5843SOL    HW118428   2.213   3.982   2.608
 5843SOL    HW218429   2.247   4.027   2.454
 5844SOL     OW18430   0.369   6.724   5.878
 5844SOL    HW118431   0.281   6.684   5.903
 5844SOL    HW218432   0.354   6.808   5.826
 5845SOL     OW18433   1.024   1.112   3.089
 5845SOL    HW118434   1.051   1.090   3.182
 5845SOL    HW218435   0.925   1.130   3.086
 5846SOL     OW18436   6.795   3.089   4.985
 5846SOL    HW118437   6.880   3.102   4.935
 5846SOL    HW218438   6.747   3.176   4.993
 5847SOL     OW18439   1.896   1.747   2.348
 5847SOL    HW118440   1.931   1.677   2.410
 5847SOL    HW218441   1.952   1.830   2.357
 5848SOL     OW18442   2.484   4.864   3.877
 5848SOL    HW118443   2.510   4.918   3.797
 5848SOL    HW218444   2.425   4.918   3.936
 5849SOL     OW18445   0.457   0.541   6.017
 5849SOL    HW118446   0.395   0.577   6.087
 5849SOL    HW218447   0.544   0.516   6.059
 5850SOL     OW18448   1.071   3.121   2.003
 5850SOL    HW118449   1.095   3.029   2.034
 5850SOL    HW218450   1.147   3.159   1.949
 5851SOL     OW18451   5.404   2.925   2.925
 5851SOL    HW118452   5.447   2.942   3.014
 5851SOL    HW218453   5.407   3.008   2.870
 5852SOL     OW18454   4.535   6.554   3.125
 5852SOL    HW118455   4.592   6.473   3.141
 5852SOL    HW218456   4.505   6.554   3.030
 5853SOL     OW18457   3.192   5.832   5.806
 5853SOL    HW118458   3.124   5.813   5.877
 5853SOL    HW218459   3.226   5.746   5.768
 5854SOL     OW18460   6.562   3.292   5.841
 5854SOL    HW118461   6.572   3.314   5.938
 5854SOL    HW218462   6.638   3.234   5.811
 5855SOL     OW18463   0.888   1.033   5.177
 5855SOL    HW118464   0.974   1.029   5.227
 5855SOL    HW218465   0.884   0.958   5.111
 5856SOL     OW18466   1.984   5.347   3.329
 5856SOL    HW118467   2.041   5.426   3.349
 5856SOL    HW218468   1.889   5.368   3.352
 5857SOL     OW18469   5.626   2.500   4.998
 5857SOL    HW118470   5.659   2.558   4.923
 5857SOL    HW218471   5.564   2.430   4.961
 5858SOL     OW18472   2.553   2.400   1.840
 5858SOL    HW118473   2.632   2.414   1.779
 5858SOL    HW218474   2.586   2.390   1.934
 5859SOL     OW18475   5.486   6.166   1.017
 5859SOL    HW118476   5.467   6.170   1.115
 5859SOL    HW218477   5.572   6.215   0.998
 5860SOL     OW18478   2.295   3.864   1.849
 5860SOL    HW118479   2.297   3.768   1.878
 5860SOL    HW218480   2.268   3.922   1.926
 5861SOL     OW18481   5.558   1.557   3.786
 5861SOL    HW118482   5.458   1.552   3.793
 5861SOL    HW218483   5.594   1.467   3.761
 5862SOL     OW18484   4.174   5.249   3.140
 5862SOL    HW118485   4.269   5.277   3.129
 5862SOL    HW218486   4.118   5.329   3.165
 5863SOL     OW18487   2.851   0.773   5.502
 5863SOL    HW118488   2.786   0.832   5.549
 5863SOL    HW218489   2.867   0.691   5.557
 5864SOL     OW18490   4.155   4.042   1.639
 5864SOL    HW118491   4.083   3.977   1.660
 5864SOL    HW218492   4.244   3.997   1.643
 5865SOL     OW18493   5.189   0.636   3.959
 5865SOL    HW118494   5.123   0.563   3.978
 5865SOL    HW218495   5.243   0.614   3.878
 5866SOL     OW18496   3.943   6.142   6.695
 5866SOL    HW118497   3.908   6.067   6.639
 5866SOL    HW218498   3.867   6.197   6.729
 5867SOL     OW18499   0.300   3.093   0.571
 5867SOL    HW118500   0.376   3.028   0.568
 5867SOL    HW218501   0.266   3.101   0.664
 5868SOL     OW18502   0.072   0.454   4.911
 5868SOL    HW118503   7.016   0.395   4.897
 5868SOL    HW218504   0.059   0.539   4.860
 5869SOL     OW18505   2.222   4.988   3.716
 5869SOL    HW118506   2.211   5.033   3.628
 5869SOL    HW218507   2.269   4.900   3.703
 5870SOL     OW18508   4.714   5.515   4.924
 5870SOL    HW118509   4.784   5.549   4.861
 5870SOL    HW218510   4.720   5.415   4.930
 5871SOL     OW18511   4.242   3.671   0.005
 5871SOL    HW118512   4.265   3.710   0.094
 5871SOL    HW218513   4.198   3.582   0.018
 5872SOL     OW18514   3.890   5.988   6.952
 5872SOL    HW118515   3.904   5.899   6.994
 5872SOL    HW218516   3.974   6.015   6.904
 5873SOL     OW18517   2.154   2.587   0.484
 5873SOL    HW118518   2.107   2.499   0.492
 5873SOL    HW218519   2.089   2.661   0.497
 5874SOL     OW18520   2.778   3.135   1.317
 5874SOL    HW118521   2.774   3.195   1.398
 5874SOL    HW218522   2.719   3.172   1.246
 5875SOL     OW18523   3.915   1.302   0.506
 5875SOL    HW118524   3.931   1.321   0.409
 5875SOL    HW218525   3.975   1.228   0.536
 5876SOL     OW18526   3.380   3.067   6.891
 5876SOL    HW118527   3.282   3.057   6.911
 5876SOL    HW218528   3.432   2.999   6.942
 5877SOL     OW18529   6.085   6.351   1.401
 5877SOL    HW118530   6.046   6.292   1.471
 5877SOL    HW218531   6.185   6.343   1.403
 5878SOL     OW18532   5.583   5.749   2.920
 5878SOL    HW118533   5.573   5.846   2.897
 5878SOL    HW218534   5.603   5.740   3.018
 5879SOL     OW18535   3.646   3.043   6.090
 5879SOL    HW118536   3.601   3.045   6.180
 5879SOL    HW218537   3.583   3.007   6.022
 5880SOL     OW18538   4.504   3.792   5.606
 5880SOL    HW118539   4.480   3.702   5.641
 5880SOL    HW218540   4.556   3.783   5.521
 5881SOL     OW18541   1.400   6.767   2.400
 5881SOL    HW118542   1.483   6.714   2.418
 5881SOL    HW218543   1.420   6.842   2.338
 5882SOL     OW18544   1.329   6.523   5.799
 5882SOL    HW118545   1.373   6.453   5.855
 5882SOL    HW218546   1.249   6.483   5.754
 5883SOL     OW18547   7.016   2.702   0.457
 5883SOL    HW118548   6.981   2.791   0.430
 5883SOL    HW218549   0.092   2.705   0.459
 5884SOL     OW18550   6.775   0.915   3.937
 5884SOL    HW118551   6.710   0.920   4.013
 5884SOL    HW218552   6.750   0.982   3.867
 5885SOL     OW18553   0.422   5.827   0.894
 5885SOL    HW118554   0.388   5.895   0.958
 5885SOL    HW218555   0.493   5.868   0.836
 5886SOL     OW18556   1.542   2.998   3.070
 5886SOL    HW118557   1.606   2.927   3.102
 5886SOL    HW218558   1.452   2.957   3.053
 5887SOL     OW18559   2.339   2.067   1.724
 5887SOL    HW118560   2.284   2.061   1.807
 5887SOL    HW218561   2.325   1.986   1.668
 5888SOL     OW18562   2.792   0.047   0.728
 5888SOL    HW118563   2.770   0.041   0.825
 5888SOL    HW218564   2.764   0.137   0.693
 5889SOL     OW18565   6.901   1.628   1.493
 5889SOL    HW118566   6.884   1.691   1.417
 5889SOL    HW218567   6.984   1.655   1.541
 5890SOL     OW18568   2.027   6.486   2.497
 5890SOL    HW118569   1.980   6.569   2.526
 5890SOL    HW218570   2.101   6.464   2.561
 5891SOL     OW18571   3.007   3.352   0.457
 5891SOL    HW118572   2.914   3.350   0.420
 5891SOL    HW218573   3.052   3.264   0.438
 5892SOL     OW18574   0.274   4.067   0.562
 5892SOL    HW118575   0.235   3.986   0.605
 5892SOL    HW218576   0.350   4.041   0.503
 5893SOL     OW18577   0.924   5.173   1.630
 5893SOL    HW118578   1.001   5.237   1.624
 5893SOL    HW218579   0.937   5.113   1.709
 5894SOL     OW18580   1.000   5.902   5.916
 5894SOL    HW118581   0.980   5.965   5.841
 5894SOL    HW218582   1.056   5.826   5.882
 5895SOL     OW18583   6.353   3.286   4.886
 5895SOL    HW118584   6.343   3.354   4.814
 5895SOL    HW218585   6.308   3.317   4.969
 5896SOL     OW18586   5.333   1.408   1.989
 5896SOL    HW118587   5.274   1.455   1.923
 5896SOL    HW218588   5.325   1.453   2.078
 5897SOL     OW18589   3.992   1.700   1.640
 5897SOL    HW118590   4.023   1.606   1.626
 5897SOL    HW218591   4.018   1.756   1.561
 5898SOL     OW18592   1.986   1.662   5.437
 5898SOL    HW118593   2.017   1.660   5.532
 5898SOL    HW218594   1.978   1.568   5.402
 5899SOL     OW18595   6.615   5.285   6.295
 5899SOL    HW118596   6.715   5.278   6.294
 5899SOL    HW218597   6.576   5.196   6.318
 5900SOL     OW18598   0.315   5.393   2.976
 5900SOL    HW118599   0.386   5.447   2.929
 5900SOL    HW218600   0.345   5.298   2.983
 5901SOL     OW18601   1.010   0.301   6.669
 5901SOL    HW118602   0.949   0.378   6.688
 5901SOL    HW218603   1.059   0.318   6.584
 5902SOL     OW18604   5.645   3.612   4.827
 5902SOL    HW118605   5.631   3.648   4.735
 5902SOL    HW218606   5.558   3.582   4.865
 5903SOL     OW18607   5.411   2.941   6.821
 5903SOL    HW118608   5.447   2.864   6.873
 5903SOL    HW218609   5.476   2.967   6.749
 5904SOL     OW18610   1.034   5.007   1.878
 5904SOL    HW118611   1.120   4.966   1.847
 5904SOL    HW218612   0.964   4.936   1.882
 5905SOL     OW18613   5.162   1.018   3.515
 5905SOL    HW118614   5.091   0.986   3.453
 5905SOL    HW218615   5.121   1.079   3.583
 5906SOL     OW18616   5.848   1.101   5.646
 5906SOL    HW118617   5.761   1.118   5.691
 5906SOL    HW218618   5.842   1.018   5.590
 5907SOL     OW18619   1.558   1.047   0.015
 5907SOL    HW118620   1.580   0.975   0.081
 5907SOL    HW218621   1.619   1.124   0.029
 5908SOL     OW18622   4.498   3.257   0.010
 5908SOL    HW118623   4.447   3.308   0.079
 5908SOL    HW218624   4.489   3.303   6.945
 5909SOL     OW18625   0.653   4.532   5.478
 5909SOL    HW118626   0.674   4.624   5.446
 5909SOL    HW218627   0.590   4.488   5.414
 5910SOL     OW18628   1.804   3.943   1.661
 5910SOL    HW118629   1.875   3.997   1.705
 5910SOL    HW218630   1.798   3.968   1.564
 5911SOL     OW18631   6.983   5.456   6.266
 5911SOL    HW118632   6.938   5.373   6.299
 5911SOL    HW218633   7.020   5.507   6.344
 5912SOL     OW18634   6.107   3.225   6.761
 5912SOL    HW118635   6.025   3.282   6.758
 5912SOL    HW218636   6.118   3.189   6.854
 5913SOL     OW18637   2.348   2.863   5.653
 5913SOL    HW118638   2.416   2.825   5.715
 5913SOL    HW218639   2.283   2.792   5.627
 5914SOL     OW18640   2.575   5.883   0.394
 5914SOL    HW118641   2.502   5.865   0.460
 5914SOL    HW218642   2.539   5.875   0.301
 5915SOL     OW18643   5.705   2.783   3.063
 5915SOL    HW118644   5.648   2.709   3.099
 5915SOL    HW218645   5.719   2.770   2.965
 5916SOL     OW18646   4.359   0.097   5.595
 5916SOL    HW118647   4.305   0.153   5.657
 5916SOL    HW218648   4.308   0.081   5.511
 5917SOL     OW18649   3.436   2.900   3.458
 5917SOL    HW118650   3.338   2.905   3.474
 5917SOL    HW218651   3.454   2.871   3.364
 5918SOL     OW18652   1.442   3.879   4.385
 5918SOL    HW118653   1.383   3.939   4.331
 5918SOL    HW218654   1.535   3.917   4.387
 5919SOL     OW18655   2.705   2.559   0.718
 5919SOL    HW118656   2.768   2.553   0.641
 5919SOL    HW218657   2.612   2.540   0.687
 5920SOL     OW18658   3.048   6.681   6.918
 5920SOL    HW118659   3.100   6.624   6.982
 5920SOL    HW218660   3.022   6.766   6.964
 5921SOL     OW18661   3.913   5.321   5.881
 5921SOL    HW118662   3.927   5.410   5.923
 5921SOL    HW218663   3.817   5.311   5.855
 5922SOL     OW18664   6.827   4.832   3.070
 5922SOL    HW118665   6.884   4.763   3.027
 5922SOL    HW218666   6.837   4.827   3.169
 5923SOL     OW18667   6.342   0.393   3.778
 5923SOL    HW118668   6.402   0.322   3.742
 5923SOL    HW218669   6.283   0.354   3.850
 5924SOL     OW18670   5.197   2.348   4.682
 5924SOL    HW118671   5.123   2.412   4.660
 5924SOL    HW218672   5.159   2.260   4.708
 5925SOL     OW18673   4.895   5.607   2.676
 5925SOL    HW118674   4.803   5.569   2.686
 5925SOL    HW218675   4.889   5.705   2.658
 5926SOL     OW18676   3.808   5.742   1.524
 5926SOL    HW118677   3.738   5.725   1.455
 5926SOL    HW218678   3.769   5.731   1.615
 5927SOL     OW18679   2.555   5.997   1.714
 5927SOL    HW118680   2.460   5.966   1.712
 5927SOL    HW218681   2.603   5.956   1.791
 5928SOL     OW18682   2.077   0.697   2.388
 5928SOL    HW118683   1.978   0.691   2.379
 5928SOL    HW218684   2.101   0.714   2.484
 5929SOL     OW18685   0.980   6.689   5.808
 5929SOL    HW118686   1.034   6.727   5.733
 5929SOL    HW218687   1.021   6.603   5.840
 5930SOL     OW18688   6.151   1.561   3.988
 5930SOL    HW118689   6.228   1.625   3.988
 5930SOL    HW218690   6.182   1.471   3.958
 5931SOL     OW18691   6.019   5.390   1.918
 5931SOL    HW118692   6.024   5.463   1.851
 5931SOL    HW218693   6.107   5.383   1.966
 5932SOL     OW18694   2.433   6.436   0.836
 5932SOL    HW118695   2.475   6.511   0.887
 5932SOL    HW218696   2.372   6.385   0.897
 5933SOL     OW18697   0.487   3.847   2.140
 5933SOL    HW118698   0.407   3.789   2.148
 5933SOL    HW218699   0.478   3.926   2.201
 5934SOL     OW18700   3.768   3.403   3.197
 5934SOL    HW118701   3.727   3.372   3.282
 5934SOL    HW218702   3.866   3.417   3.211
 5935SOL     OW18703   3.532   4.122   4.760
 5935SOL    HW118704   3.584   4.154   4.839
 5935SOL    HW218705   3.441   4.092   4.790
 5936SOL     OW18706   4.732   4.397   6.589
 5936SOL    HW118707   4.649   4.343   6.573
 5936SOL    HW218708   4.737   4.470   6.521
 5937SOL     OW18709   0.710   3.784   1.475
 5937SOL    HW118710   0.798   3.812   1.437
 5937SOL    HW218711   0.637   3.840   1.435
 5938SOL     OW18712   1.904   4.787   3.438
 5938SOL    HW118713   1.854   4.702   3.453
 5938SOL    HW218714   1.841   4.857   3.405
 5939SOL     OW18715   3.399   0.701   2.928
 5939SOL    HW118716   3.326   0.662   2.983
 5939SOL    HW218717   3.468   0.742   2.988
 5940SOL     OW18718   3.737   6.684   2.123
 5940SOL    HW118719   3.763   6.708   2.217
 5940SOL    HW218720   3.751   6.586   2.108
 5941SOL     OW18721   6.122   4.910   1.942
 5941SOL    HW118722   6.204   4.966   1.952
 5941SOL    HW218723   6.144   4.814   1.958
 5942SOL     OW18724   4.042   2.858   6.579
 5942SOL    HW118725   4.085   2.871   6.489
 5942SOL    HW218726   4.104   2.807   6.638
 5943SOL     OW18727   2.127   5.932   0.808
 5943SOL    HW118728   2.129   5.940   0.908
 5943SOL    HW218729   2.059   5.864   0.781
 5944SOL     OW18730   4.962   1.195   1.985
 5944SOL    HW118731   4.868   1.163   1.991
 5944SOL    HW218732   4.971   1.256   1.907
 5945SOL     OW18733   6.894   4.934   5.143
 5945SOL    HW118734   6.890   4.842   5.181
 5945SOL    HW218735   6.925   4.930   5.048
 5946SOL     OW18736   3.500   4.258   5.863
 5946SOL    HW118737   3.566   4.187   5.886
 5946SOL    HW218738   3.419   4.248   5.921
 5947SOL     OW18739   4.241   3.247   1.806
 5947SOL    HW118740   4.267   3.151   1.795
 5947SOL    HW218741   4.145   3.260   1.780
 5948SOL     OW18742   3.723   4.935   2.960
 5948SOL    HW118743   3.821   4.936   2.937
 5948SOL    HW218744   3.685   5.027   2.949
 5949SOL     OW18745   3.800   4.709   1.169
 5949SOL    HW118746   3.791   4.646   1.092
 5949SOL    HW218747   3.794   4.803   1.135
 5950SOL     OW18748   6.135   2.009   4.350
 5950SOL    HW118749   6.202   2.080   4.327
 5950SOL    HW218750   6.175   1.919   4.333
 5951SOL     OW18751   1.210   6.574   4.451
 5951SOL    HW118752   1.230   6.672   4.452
 5951SOL    HW218753   1.267   6.529   4.383
 5952SOL     OW18754   6.475   5.692   3.989
 5952SOL    HW118755   6.568   5.727   3.982
 5952SOL    HW218756   6.453   5.640   3.906
 5953SOL     OW18757   0.004   3.132   4.875
 5953SOL    HW118758   0.067   3.197   4.918
 5953SOL    HW218759   0.046   3.041   4.875
 5954SOL     OW18760   6.997   4.505   6.002
 5954SOL    HW118761   6.925   4.495   5.934
 5954SOL    HW218762   0.062   4.508   5.956
 5955SOL     OW18763   5.649   5.475   2.221
 5955SOL    HW118764   5.712   5.553   2.216
 5955SOL    HW218765   5.562   5.500   2.179
 5956SOL     OW18766   3.970   1.842   0.154
 5956SOL    HW118767   4.065   1.861   0.129
 5956SOL    HW218768   3.919   1.814   0.072
 5957SOL     OW18769   5.182   6.405   6.357
 5957SOL    HW118770   5.185   6.413   6.258
 5957SOL    HW218771   5.276   6.404   6.393
 5958SOL     OW18772   6.512   6.365   2.262
 5958SOL    HW118773   6.498   6.391   2.357
 5958SOL    HW218774   6.442   6.409   2.205
 5959SOL     OW18775   3.099   1.934   5.692
 5959SOL    HW118776   3.075   1.958   5.787
 5959SOL    HW218777   3.064   2.006   5.631
 5960SOL     OW18778   2.886   0.188   3.967
 5960SOL    HW118779   2.915   0.280   3.941
 5960SOL    HW218780   2.966   0.130   3.979
 5961SOL     OW18781   3.579   1.130   4.613
 5961SOL    HW118782   3.558   1.206   4.674
 5961SOL    HW218783   3.494   1.081   4.592
 5962SOL     OW18784   4.991   5.309   2.900
 5962SOL    HW118785   4.925   5.275   2.967
 5962SOL    HW218786   5.001   5.408   2.912
 5963SOL     OW18787   3.671   3.749   3.680
 5963SOL    HW118788   3.695   3.714   3.771
 5963SOL    HW218789   3.573   3.733   3.664
 5964SOL     OW18790   6.741   5.238   6.825
 5964SOL    HW118791   6.836   5.218   6.849
 5964SOL    HW218792   6.683   5.223   6.906
 5965SOL     OW18793   1.506   2.455   6.208
 5965SOL    HW118794   1.582   2.423   6.151
 5965SOL    HW218795   1.543   2.495   6.292
 5966SOL     OW18796   3.069   5.568   5.053
 5966SOL    HW118797   3.100   5.498   4.988
 5966SOL    HW218798   3.123   5.561   5.137
 5967SOL     OW18799   4.602   6.337   2.566
 5967SOL    HW118800   4.689   6.366   2.526
 5967SOL    HW218801   4.529   6.347   2.498
 5968SOL     OW18802   6.404   1.939   2.941
 5968SOL    HW118803   6.421   2.037   2.952
 5968SOL    HW218804   6.378   1.919   2.847
 5969SOL     OW18805   6.227   2.785   4.545
 5969SOL    HW118806   6.236   2.797   4.644
 5969SOL    HW218807   6.131   2.795   4.519
 5970SOL     OW18808   0.904   3.722   2.693
 5970SOL    HW118809   0.944   3.723   2.784
 5970SOL    HW218810   0.957   3.782   2.632
 5971SOL     OW18811   2.049   0.322   3.007
 5971SOL    HW118812   2.088   0.280   2.926
 5971SOL    HW218813   1.956   0.289   3.021
 5972SOL     OW18814   4.677   6.514   0.574
 5972SOL    HW118815   4.677   6.607   0.610
 5972SOL    HW218816   4.727   6.454   0.638
 5973SOL     OW18817   1.837   4.990   2.490
 5973SOL    HW118818   1.776   5.019   2.563
 5973SOL    HW218819   1.932   5.012   2.514
 5974SOL     OW18820   6.789   3.946   6.037
 5974SOL    HW118821   6.872   4.000   6.024
 5974SOL    HW218822   6.719   4.004   6.079
 5975SOL     OW18823   3.910   2.302   0.823
 5975SOL    HW118824   3.851   2.347   0.757
 5975SOL    HW218825   3.906   2.351   0.910
 5976SOL     OW18826   3.424   2.888   4.475
 5976SOL    HW118827   3.413   2.884   4.376
 5976SOL    HW218828   3.349   2.941   4.516
 5977SOL     OW18829   1.621   4.557   2.126
 5977SOL    HW118830   1.607   4.463   2.095
 5977SOL    HW218831   1.532   4.597   2.150
 5978SOL     OW18832   5.107   3.891   2.670
 5978SOL    HW118833   5.192   3.877   2.620
 5978SOL    HW218834   5.038   3.931   2.609
 5979SOL     OW18835   6.151   0.260   3.431
 5979SOL    HW118836   6.230   0.321   3.437
 5979SOL    HW218837   6.166   0.193   3.357
 5980SOL     OW18838   4.570   4.575   6.954
 5980SOL    HW118839   4.642   4.505   6.960
 5980SOL    HW218840   4.586   4.632   6.874
 5981SOL     OW18841   6.607   1.718   1.777
 5981SOL    HW118842   6.526   1.669   1.746
 5981SOL    HW218843   6.632   1.686   1.869
 5982SOL     OW18844   6.291   2.255   6.717
 5982SOL    HW118845   6.304   2.226   6.622
 5982SOL    HW218846   6.344   2.195   6.778
 5983SOL     OW18847   2.044   2.043   4.326
 5983SOL    HW118848   2.056   2.100   4.407
 5983SOL    HW218849   1.968   1.979   4.340
 5984SOL     OW18850   0.286   6.213   4.704
 5984SOL    HW118851   0.216   6.263   4.653
 5984SOL    HW218852   0.243   6.157   4.775
 5985SOL     OW18853   5.510   1.947   3.285
 5985SOL    HW118854   5.431   2.008   3.279
 5985SOL    HW218855   5.482   1.860   3.327
 5986SOL     OW18856   3.094   3.031   3.443
 5986SOL    HW118857   3.133   3.021   3.535
 5986SOL    HW218858   3.054   3.122   3.434
 5987SOL     OW18859   4.699   0.563   5.204
 5987SOL    HW118860   4.753   0.484   5.234
 5987SOL    HW218861   4.689   0.560   5.104
 5988SOL     OW18862   3.807   0.113   4.557
 5988SOL    HW118863   3.811   0.022   4.598
 5988SOL    HW218864   3.837   0.107   4.461
 5989SOL     OW18865   2.174   7.020   6.613
 5989SOL    HW118866   2.236   7.003   6.536
 5989SOL    HW218867   2.084   6.981   6.593
 5990SOL     OW18868   3.552   4.585   0.486
 5990SOL    HW118869   3.461   4.621   0.503
 5990SOL    HW218870   3.569   4.582   0.387
 5991SOL     OW18871   3.856   5.033   5.237
 5991SOL    HW118872   3.818   4.964   5.298
 5991SOL    HW218873   3.844   5.003   5.142
 5992SOL     OW18874   3.638   1.071   3.964
 5992SOL    HW118875   3.689   1.050   3.881
 5992SOL    HW218876   3.700   1.074   4.042
 5993SOL     OW18877   2.951   6.321   5.296
 5993SOL    HW118878   3.022   6.251   5.299
 5993SOL    HW218879   2.914   6.334   5.388
 5994SOL     OW18880   6.142   2.139   1.911
 5994SOL    HW118881   6.163   2.199   1.989
 5994SOL    HW218882   6.227   2.106   1.871
 5995SOL     OW18883   6.951   5.432   1.066
 5995SOL    HW118884   6.888   5.441   1.143
 5995SOL    HW218885   6.993   5.341   1.068
 5996SOL     OW18886   0.455   5.603   6.927
 5996SOL    HW118887   0.366   5.616   6.882
 5996SOL    HW218888   0.444   5.537   7.002
 5997SOL     OW18889   0.431   0.299   1.838
 5997SOL    HW118890   0.382   0.350   1.909
 5997SOL    HW218891   0.528   0.322   1.841
 5998SOL     OW18892   5.238   2.157   2.392
 5998SOL    HW118893   5.294   2.236   2.370
 5998SOL    HW218894   5.218   2.157   2.490
 5999SOL     OW18895   1.276   1.800   3.465
 5999SOL    HW118896   1.251   1.782   3.560
 5999SOL    HW218897   1.248   1.893   3.439
 6000SOL     OW18898   4.206   5.065   2.318
 6000SOL    HW118899   4.242   5.078   2.411
 6000SOL    HW218900   4.280   5.080   2.252
 6001SOL     OW18901   6.919   3.304   6.750
 6001SOL    HW118902   6.988   3.375   6.733
 6001SOL    HW218903   6.859   3.333   6.824
 6002SOL     OW18904   0.499   6.847   1.295
 6002SOL    HW118905   0.510   6.915   1.368
 6002SOL    HW218906   0.405   6.850   1.260
 6003SOL     OW18907   5.414   3.850   4.796
 6003SOL    HW118908   5.403   3.781   4.724
 6003SOL    HW218909   5.327   3.897   4.812
 6004SOL     OW18910   0.512   3.710   3.083
 6004SOL    HW118911   0.605   3.729   3.053
 6004SOL    HW218912   0.501   3.738   3.178
 6005SOL     OW18913   4.146   5.369   4.107
 6005SOL    HW118914   4.139   5.289   4.048
 6005SOL    HW218915   4.236   5.412   4.095
 6006SOL     OW18916   2.978   6.986   6.624
 6006SOL    HW118917   2.905   6.960   6.687
 6006SOL    HW218918   3.063   6.940   6.651
 6007SOL     OW18919   5.553   3.120   3.730
 6007SOL    HW118920   5.488   3.079   3.666
 6007SOL    HW218921   5.550   3.220   3.721
 6008SOL     OW18922   3.422   5.506   5.473
 6008SOL    HW118923   3.509   5.551   5.495
 6008SOL    HW218924   3.426   5.410   5.500
 6009SOL     OW18925   2.606   2.164   4.800
 6009SOL    HW118926   2.618   2.190   4.704
 6009SOL    HW218927   2.615   2.245   4.858
 6010SOL     OW18928   2.317   4.387   2.428
 6010SOL    HW118929   2.355   4.408   2.338
 6010SOL    HW218930   2.233   4.334   2.417
 6011SOL     OW18931   5.112   2.834   1.849
 6011SOL    HW118932   5.018   2.801   1.843
 6011SOL    HW218933   5.164   2.801   1.770
 6012SOL     OW18934   6.780   2.173   6.811
 6012SOL    HW118935   6.794   2.081   6.773
 6012SOL    HW218936   6.688   2.204   6.789
 6013SOL     OW18937   6.365   1.183   1.837
 6013SOL    HW118938   6.455   1.192   1.879
 6013SOL    HW218939   6.296   1.174   1.909
 6014SOL     OW18940   6.048   1.701   0.846
 6014SOL    HW118941   6.055   1.673   0.941
 6014SOL    HW218942   6.007   1.628   0.792
 6015SOL     OW18943   5.798   1.851   5.113
 6015SOL    HW118944   5.880   1.851   5.170
 6015SOL    HW218945   5.722   1.810   5.163
 6016SOL     OW18946   0.746   0.888   5.707
 6016SOL    HW118947   0.745   0.792   5.681
 6016SOL    HW218948   0.667   0.935   5.667
 6017SOL     OW18949   5.966   5.358   3.687
 6017SOL    HW118950   5.880   5.309   3.702
 6017SOL    HW218951   6.026   5.303   3.628
 6018SOL     OW18952   3.148   2.981   0.276
 6018SOL    HW118953   3.137   2.881   0.278
 6018SOL    HW218954   3.130   3.018   0.367
 6019SOL     OW18955   4.520   1.229   3.263
 6019SOL    HW118956   4.618   1.218   3.248
 6019SOL    HW218957   4.482   1.290   3.193
 6020SOL     OW18958   3.228   6.944   2.383
 6020SOL    HW118959   3.246   6.965   2.287
 6020SOL    HW218960   3.153   6.879   2.390
 6021SOL     OW18961   4.645   0.879   2.800
 6021SOL    HW118962   4.667   0.894   2.896
 6021SOL    HW218963   4.705   0.934   2.743
 6022SOL     OW18964   4.770   1.270   3.165
 6022SOL    HW118965   4.861   1.227   3.168
 6022SOL    HW218966   4.748   1.294   3.071
 6023SOL     OW18967   6.370   0.698   3.294
 6023SOL    HW118968   6.307   0.749   3.353
 6023SOL    HW218969   6.455   0.680   3.344
 6024SOL     OW18970   0.652   4.669   2.080
 6024SOL    HW118971   0.596   4.601   2.126
 6024SOL    HW218972   0.624   4.761   2.109
 6025SOL     OW18973   4.276   0.887   1.856
 6025SOL    HW118974   4.225   0.890   1.770
 6025SOL    HW218975   4.219   0.925   1.929
 6026SOL     OW18976   0.394   5.098   5.221
 6026SOL    HW118977   0.344   5.120   5.305
 6026SOL    HW218978   0.377   5.169   5.153
 6027SOL     OW18979   2.175   4.300   6.409
 6027SOL    HW118980   2.243   4.259   6.349
 6027SOL    HW218981   2.086   4.301   6.363
 6028SOL     OW18982   1.678   4.356   0.597
 6028SOL    HW118983   1.589   4.401   0.605
 6028SOL    HW218984   1.743   4.399   0.660
 6029SOL     OW18985   1.904   6.275   0.536
 6029SOL    HW118986   1.804   6.270   0.531
 6029SOL    HW218987   1.942   6.183   0.536
 6030SOL     OW18988   2.656   0.983   2.705
 6030SOL    HW118989   2.571   0.943   2.669
 6030SOL    HW218990   2.671   1.072   2.662
 6031SOL     OW18991   5.293   6.154   5.740
 6031SOL    HW118992   5.303   6.107   5.653
 6031SOL    HW218993   5.195   6.163   5.762
 6032SOL     OW18994   1.625   3.518   2.864
 6032SOL    HW118995   1.684   3.448   2.823
 6032SOL    HW218996   1.547   3.534   2.805
 6033SOL     OW18997   2.359   2.018   3.093
 6033SOL    HW118998   2.272   2.057   3.060
 6033SOL    HW218999   2.398   2.080   3.162
 6034SOL     OW19000   2.593   4.794   4.412
 6034SOL    HW119001   2.576   4.718   4.350
 6034SOL    HW219002   2.568   4.767   4.505
 6035SOL     OW19003   5.310   0.979   4.335
 6035SOL    HW119004   5.302   0.893   4.385
 6035SOL    HW219005   5.403   1.014   4.343
 6036SOL     OW19006   0.195   6.729   4.861
 6036SOL    HW119007   0.117   6.668   4.854
 6036SOL    HW219008   0.225   6.756   4.770
 6037SOL     OW19009   4.831   4.597   5.792
 6037SOL    HW119010   4.825   4.675   5.854
 6037SOL    HW219011   4.792   4.623   5.703
 6038SOL     OW19012   0.489   3.170   6.377
 6038SOL    HW119013   0.453   3.137   6.290
 6038SOL    HW219014   0.580   3.210   6.363
 6039SOL     OW19015   3.339   3.666   2.422
 6039SOL    HW119016   3.364   3.682   2.326
 6039SOL    HW219017   3.400   3.599   2.462
 6040SOL     OW19018   0.936   1.744   6.221
 6040SOL    HW119019   1.029   1.741   6.258
 6040SOL    HW219020   0.940   1.742   6.121
 6041SOL     OW19021   0.868   2.138   6.901
 6041SOL    HW119022   0.919   2.070   6.953
 6041SOL    HW219023   0.770   2.129   6.921
 6042SOL     OW19024   5.600   5.344   2.444
 6042SOL    HW119025   5.551   5.264   2.412
 6042SOL    HW219026   5.630   5.399   2.365
 6043SOL     OW19027   1.617   4.926   4.613
 6043SOL    HW119028   1.656   4.834   4.608
 6043SOL    HW219029   1.518   4.921   4.604
 6044SOL     OW19030   0.175   1.594   1.354
 6044SOL    HW119031   0.271   1.611   1.331
 6044SOL    HW219032   0.161   1.612   1.451
 6045SOL     OW19033   5.690   5.858   0.605
 6045SOL    HW119034   5.710   5.769   0.564
 6045SOL    HW219035   5.621   5.905   0.551
 6046SOL     OW19036   2.645   2.333   0.158
 6046SOL    HW119037   2.649   2.341   0.257
 6046SOL    HW219038   2.737   2.316   0.122
 6047SOL     OW19039   6.203   0.702   3.842
 6047SOL    HW119040   6.181   0.798   3.860
 6047SOL    HW219041   6.205   0.652   3.929
 6048SOL     OW19042   3.717   0.590   3.683
 6048SOL    HW119043   3.670   0.672   3.654
 6048SOL    HW219044   3.812   0.592   3.651
 6049SOL     OW19045   4.181   3.188   6.528
 6049SOL    HW119046   4.171   3.287   6.541
 6049SOL    HW219047   4.264   3.169   6.477
 6050SOL     OW19048   3.757   4.413   5.635
 6050SOL    HW119049   3.812   4.449   5.710
 6050SOL    HW219050   3.718   4.325   5.663
 6051SOL     OW19051   1.955   2.633   2.653
 6051SOL    HW119052   1.898   2.609   2.732
 6051SOL    HW219053   2.009   2.554   2.625
 6052SOL     OW19054   6.576   0.681   0.232
 6052SOL    HW119055   6.604   0.599   0.181
 6052SOL    HW219056   6.574   0.661   0.330
 6053SOL     OW19057   3.631   0.497   6.967
 6053SOL    HW119058   3.596   0.572   6.911
 6053SOL    HW219059   3.703   0.449   6.916
 6054SOL     OW19060   2.087   4.478   1.406
 6054SOL    HW119061   2.098   4.518   1.497
 6054SOL    HW219062   1.992   4.449   1.393
 6055SOL     OW19063   5.469   1.263   5.472
 6055SOL    HW119064   5.419   1.305   5.397
 6055SOL    HW219065   5.424   1.178   5.498
 6056SOL     OW19066   4.646   1.540   5.907
 6056SOL    HW119067   4.715   1.551   5.978
 6056SOL    HW219068   4.558   1.518   5.949
 6057SOL     OW19069   4.549   1.057   5.070
 6057SOL    HW119070   4.573   1.017   5.159
 6057SOL    HW219071   4.480   1.000   5.025
 6058SOL     OW19072   5.552   3.271   4.028
 6058SOL    HW119073   5.490   3.196   4.005
 6058SOL    HW219074   5.520   3.318   4.110
 6059SOL     OW19075   4.718   5.454   6.242
 6059SOL    HW119076   4.724   5.553   6.232
 6059SOL    HW219077   4.797   5.421   6.294
 6060SOL     OW19078   3.860   4.349   5.978
 6060SOL    HW119079   3.953   4.313   5.980
 6060SOL    HW219080   3.817   4.335   6.067
 6061SOL     OW19081   3.325   2.052   6.639
 6061SOL    HW119082   3.282   2.075   6.552
 6061SOL    HW219083   3.267   1.988   6.690
 6062SOL     OW19084   2.409   1.057   4.914
 6062SOL    HW119085   2.412   1.029   5.010
 6062SOL    HW219086   2.464   1.139   4.902
 6063SOL     OW19087   4.292   0.605   6.600
 6063SOL    HW119088   4.344   0.675   6.648
 6063SOL    HW219089   4.348   0.523   6.590
 6064SOL     OW19090   1.598   5.601   3.154
 6064SOL    HW119091   1.550   5.687   3.169
 6064SOL    HW219092   1.589   5.574   3.058
 6065SOL     OW19093   6.442   6.761   0.754
 6065SOL    HW119094   6.525   6.813   0.775
 6065SOL    HW219095   6.463   6.663   0.755
 6066SOL     OW19096   4.498   1.761   1.338
 6066SOL    HW119097   4.568   1.814   1.290
 6066SOL    HW219098   4.460   1.692   1.276
 6067SOL     OW19099   6.527   1.675   6.180
 6067SOL    HW119100   6.521   1.582   6.145
 6067SOL    HW219101   6.620   1.710   6.167
 6068SOL     OW19102   4.851   3.069   4.984
 6068SOL    HW119103   4.785   3.114   5.044
 6068SOL    HW219104   4.903   3.002   5.036
 6069SOL     OW19105   0.001   3.933   5.476
 6069SOL    HW119106   6.947   3.954   5.536
 6069SOL    HW219107   0.005   3.834   5.460
 6070SOL     OW19108   4.168   1.660   6.504
 6070SOL    HW119109   4.173   1.753   6.538
 6070SOL    HW219110   4.171   1.661   6.404
 6071SOL     OW19111   4.239   6.010   5.957
 6071SOL    HW119112   4.326   6.055   5.973
 6071SOL    HW219113   4.214   6.019   5.860
 6072SOL     OW19114   0.988   1.885   1.536
 6072SOL    HW119115   0.965   1.983   1.534
 6072SOL    HW219116   1.014   1.858   1.628
 6073SOL     OW19117   6.226   3.263   0.129
 6073SOL    HW119118   6.211   3.283   0.226
 6073SOL    HW219119   6.141   3.230   0.088
 6074SOL     OW19120   1.015   6.767   4.816
 6074SOL    HW119121   1.032   6.691   4.879
 6074SOL    HW219122   0.969   6.732   4.734
 6075SOL     OW19123   6.727   3.419   6.901
 6075SOL    HW119124   6.640   3.370   6.894
 6075SOL    HW219125   6.710   3.517   6.897
 6076SOL     OW19126   2.583   6.519   4.745
 6076SOL    HW119127   2.635   6.517   4.831
 6076SOL    HW219128   2.624   6.587   4.683
 6077SOL     OW19129   5.401   5.681   2.705
 6077SOL    HW119130   5.323   5.742   2.720
 6077SOL    HW219131   5.467   5.693   2.779
 6078SOL     OW19132   3.347   5.187   3.850
 6078SOL    HW119133   3.421   5.226   3.905
 6078SOL    HW219134   3.330   5.247   3.771
 6079SOL     OW19135   2.443   3.306   0.121
 6079SOL    HW119136   2.499   3.229   0.090
 6079SOL    HW219137   2.346   3.280   0.119
 6080SOL     OW19138   6.388   1.942   0.962
 6080SOL    HW119139   6.392   1.845   0.937
 6080SOL    HW219140   6.299   1.962   1.002
 6081SOL     OW19141   6.562   3.522   4.203
 6081SOL    HW119142   6.612   3.473   4.274
 6081SOL    HW219143   6.530   3.610   4.240
 6082SOL     OW19144   3.764   0.166   2.950
 6082SOL    HW119145   3.771   0.237   3.020
 6082SOL    HW219146   3.854   0.126   2.933
 6083SOL     OW19147   1.336   5.267   6.582
 6083SOL    HW119148   1.347   5.168   6.578
 6083SOL    HW219149   1.272   5.296   6.511
 6084SOL     OW19150   6.703   5.201   4.822
 6084SOL    HW119151   6.673   5.244   4.737
 6084SOL    HW219152   6.664   5.110   4.829
 6085SOL     OW19153   0.099   3.810   0.121
 6085SOL    HW119154   0.023   3.873   0.107
 6085SOL    HW219155   0.097   3.738   0.051
 6086SOL     OW19156   3.858   1.137   4.135
 6086SOL    HW119157   3.815   1.173   4.217
 6086SOL    HW219158   3.900   1.211   4.084
 6087SOL     OW19159   5.730   6.605   0.152
 6087SOL    HW119160   5.764   6.640   0.239
 6087SOL    HW219161   5.740   6.675   0.081
 6088SOL     OW19162   0.064   6.642   4.474
 6088SOL    HW119163   0.087   6.611   4.381
 6088SOL    HW219164   0.137   6.701   4.508
 6089SOL     OW19165   0.618   3.728   1.016
 6089SOL    HW119166   0.612   3.659   0.943
 6089SOL    HW219167   0.543   3.713   1.080
 6090SOL     OW19168   0.526   6.008   5.978
 6090SOL    HW119169   0.454   5.967   5.922
 6090SOL    HW219170   0.514   6.107   5.982
 6091SOL     OW19171   6.934   1.768   1.748
 6091SOL    HW119172   6.844   1.729   1.726
 6091SOL    HW219173   6.922   1.854   1.798
 6092SOL     OW19174   2.564   0.742   2.239
 6092SOL    HW119175   2.536   0.799   2.162
 6092SOL    HW219176   2.663   0.741   2.246
 6093SOL     OW19177   1.875   3.480   1.630
 6093SOL    HW119178   1.863   3.568   1.676
 6093SOL    HW219179   1.936   3.422   1.684
 6094SOL     OW19180   1.743   1.345   1.304
 6094SOL    HW119181   1.771   1.391   1.388
 6094SOL    HW219182   1.773   1.250   1.306
 6095SOL     OW19183   5.215   3.136   0.121
 6095SOL    HW119184   5.123   3.102   0.102
 6095SOL    HW219185   5.213   3.195   0.202
 6096SOL     OW19186   5.158   1.117   3.950
 6096SOL    HW119187   5.070   1.138   3.908
 6096SOL    HW219188   5.148   1.040   4.013
 6097SOL     OW19189   2.366   0.562   2.631
 6097SOL    HW119190   2.466   0.568   2.637
 6097SOL    HW219191   2.336   0.604   2.546
 6098SOL     OW19192   1.916   2.520   6.136
 6098SOL    HW119193   1.980   2.452   6.170
 6098SOL    HW219194   1.857   2.479   6.066
 6099SOL     OW19195   5.612   5.474   5.054
 6099SOL    HW119196   5.675   5.533   5.104
 6099SOL    HW219197   5.518   5.505   5.068
 6100SOL     OW19198   6.578   3.336   6.106
 6100SOL    HW119199   6.525   3.391   6.171
 6100SOL    HW219200   6.674   3.336   6.132
 6101SOL     OW19201   6.793   2.222   5.821
 6101SOL    HW119202   6.696   2.229   5.843
 6101SOL    HW219203   6.844   2.291   5.872
 6102SOL     OW19204   2.816   0.987   4.445
 6102SOL    HW119205   2.764   1.010   4.527
 6102SOL    HW219206   2.852   0.895   4.453
 6103SOL     OW19207   0.254   0.879   4.403
 6103SOL    HW119208   0.171   0.889   4.458
 6103SOL    HW219209   0.305   0.799   4.434
 6104SOL     OW19210   5.884   1.945   6.862
 6104SOL    HW119211   5.850   1.865   6.912
 6104SOL    HW219212   5.807   2.005   6.840
 6105SOL     OW19213   3.534   5.783   6.161
 6105SOL    HW119214   3.578   5.712   6.106
 6105SOL    HW219215   3.477   5.739   6.231
 6106SOL     OW19216   3.198   4.818   6.619
 6106SOL    HW119217   3.284   4.790   6.577
 6106SOL    HW219218   3.139   4.861   6.551
 6107SOL     OW19219   2.268   4.675   4.912
 6107SOL    HW119220   2.326   4.604   4.873
 6107SOL    HW219221   2.321   4.760   4.921
 6108SOL     OW19222   0.570   1.881   3.914
 6108SOL    HW119223   0.659   1.877   3.958
 6108SOL    HW219224   0.578   1.929   3.826
 6109SOL     OW19225   4.933   2.397   0.442
 6109SOL    HW119226   5.032   2.387   0.434
 6109SOL    HW219227   4.906   2.486   0.405
 6110SOL     OW19228   3.466   2.588   6.039
 6110SOL    HW119229   3.564   2.574   6.023
 6110SOL    HW219230   3.417   2.576   5.953
 6111SOL     OW19231   1.004   4.853   3.050
 6111SOL    HW119232   1.076   4.793   3.085
 6111SOL    HW219233   0.951   4.890   3.127
 6112SOL     OW19234   1.915   1.742   2.912
 6112SOL    HW119235   1.962   1.654   2.910
 6112SOL    HW219236   1.966   1.808   2.857
 6113SOL     OW19237   1.275   0.319   6.148
 6113SOL    HW119238   1.251   0.290   6.056
 6113SOL    HW219239   1.208   0.283   6.213
 6114SOL     OW19240   5.331   5.537   0.169
 6114SOL    HW119241   5.383   5.511   0.087
 6114SOL    HW219242   5.376   5.615   0.213
 6115SOL     OW19243   5.029   5.231   3.245
 6115SOL    HW119244   5.078   5.153   3.207
 6115SOL    HW219245   5.092   5.308   3.255
 6116SOL     OW19246   2.665   1.012   1.910
 6116SOL    HW119247   2.737   0.966   1.858
 6116SOL    HW219248   2.705   1.056   1.990
 6117SOL     OW19249   6.105   6.869   4.139
 6117SOL    HW119250   6.066   6.919   4.062
 6117SOL    HW219251   6.035   6.854   4.208
 6118SOL     OW19252   6.443   1.597   2.480
 6118SOL    HW119253   6.437   1.512   2.531
 6118SOL    HW219254   6.358   1.610   2.428
 6119SOL     OW19255   0.622   4.740   5.029
 6119SOL    HW119256   0.577   4.830   5.028
 6119SOL    HW219257   0.681   4.732   4.949
 6120SOL     OW19258   3.038   6.975   3.619
 6120SOL    HW119259   3.105   0.016   3.655
 6120SOL    HW219260   2.958   0.002   3.587
 6121SOL     OW19261   0.656   2.745   3.692
 6121SOL    HW119262   0.606   2.714   3.773
 6121SOL    HW219263   0.707   2.669   3.653
 6122SOL     OW19264   3.761   6.116   3.000
 6122SOL    HW119265   3.662   6.128   2.997
 6122SOL    HW219266   3.787   6.039   2.941
 6123SOL     OW19267   6.825   0.983   1.228
 6123SOL    HW119268   6.754   0.981   1.299
 6123SOL    HW219269   6.856   1.077   1.214
 6124SOL     OW19270   3.329   0.317   5.066
 6124SOL    HW119271   3.424   0.311   5.037
 6124SOL    HW219272   3.323   0.312   5.166
 6125SOL     OW19273   2.229   6.417   1.555
 6125SOL    HW119274   2.287   6.433   1.635
 6125SOL    HW219275   2.247   6.325   1.520
 6126SOL     OW19276   5.043   5.043   3.880
 6126SOL    HW119277   4.945   5.035   3.865
 6126SOL    HW219278   5.061   5.112   3.950
 6127SOL     OW19279   2.366   6.755   1.508
 6127SOL    HW119280   2.451   6.704   1.521
 6127SOL    HW219281   2.319   6.765   1.596
 6128SOL     OW19282   0.077   3.214   0.488
 6128SOL    HW119283   0.109   3.306   0.464
 6128SOL    HW219284   0.155   3.154   0.506
 6129SOL     OW19285   5.951   3.630   2.894
 6129SOL    HW119286   5.937   3.580   2.979
 6129SOL    HW219287   5.866   3.675   2.868
 6130SOL     OW19288   5.802   2.920   3.622
 6130SOL    HW119289   5.758   2.983   3.559
 6130SOL    HW219290   5.749   2.835   3.628
 6131SOL     OW19291   0.086   1.247   5.845
 6131SOL    HW119292   0.157   1.295   5.793
 6131SOL    HW219293   0.129   1.180   5.905
 6132SOL     OW19294   3.830   2.119   6.838
 6132SOL    HW119295   3.778   2.184   6.782
 6132SOL    HW219296   3.909   2.087   6.786
 6133SOL     OW19297   0.497   3.452   1.624
 6133SOL    HW119298   0.490   3.355   1.603
 6133SOL    HW219299   0.593   3.480   1.619
 6134SOL     OW19300   3.259   3.341   6.886
 6134SOL    HW119301   3.208   3.427   6.892
 6134SOL    HW219302   3.268   3.300   6.977
 6135SOL     OW19303   6.483   6.914   1.025
 6135SOL    HW119304   6.404   6.953   1.073
 6135SOL    HW219305   6.518   6.837   1.077
 6136SOL     OW19306   1.153   1.447   2.424
 6136SOL    HW119307   1.217   1.438   2.499
 6136SOL    HW219308   1.158   1.539   2.386
 6137SOL     OW19309   3.497   6.872   5.440
 6137SOL    HW119310   3.522   6.839   5.349
 6137SOL    HW219311   3.398   6.864   5.452
 6138SOL     OW19312   3.920   6.401   2.548
 6138SOL    HW119313   3.946   6.338   2.621
 6138SOL    HW219314   3.820   6.413   2.549
 6139SOL     OW19315   1.635   4.208   5.272
 6139SOL    HW119316   1.718   4.165   5.235
 6139SOL    HW219317   1.655   4.303   5.296
 6140SOL     OW19318   0.921   0.012   1.724
 6140SOL    HW119319   0.878   0.080   1.784
 6140SOL    HW219320   0.964   6.964   1.779
 6141SOL     OW19321   6.868   5.344   5.183
 6141SOL    HW119322   6.777   5.327   5.146
 6141SOL    HW219323   6.891   5.273   5.250
 6142SOL     OW19324   6.630   4.088   0.560
 6142SOL    HW119325   6.680   4.036   0.491
 6142SOL    HW219326   6.633   4.038   0.647
 6143SOL     OW19327   6.201   5.204   6.222
 6143SOL    HW119328   6.147   5.286   6.241
 6143SOL    HW219329   6.223   5.200   6.125
 6144SOL     OW19330   0.189   4.153   3.288
 6144SOL    HW119331   0.206   4.082   3.220
 6144SOL    HW219332   0.273   4.172   3.339
 6145SOL     OW19333   5.007   4.922   3.455
 6145SOL    HW119334   5.047   4.833   3.477
 6145SOL    HW219335   4.914   4.927   3.493
 6146SOL     OW19336   5.233   1.375   3.583
 6146SOL    HW119337   5.261   1.293   3.633
 6146SOL    HW219338   5.177   1.432   3.642
 6147SOL     OW19339   2.250   4.413   2.959
 6147SOL    HW119340   2.160   4.380   2.988
 6147SOL    HW219341   2.251   4.424   2.860
 6148SOL     OW19342   6.593   6.202   4.238
 6148SOL    HW119343   6.515   6.180   4.296
 6148SOL    HW219344   6.649   6.273   4.281
 6149SOL     OW19345   3.412   4.900   3.359
 6149SOL    HW119346   3.452   4.987   3.328
 6149SOL    HW219347   3.420   4.833   3.285
 6150SOL     OW19348   4.928   5.920   6.684
 6150SOL    HW119349   4.946   5.938   6.588
 6150SOL    HW219350   4.916   5.821   6.697
 6151SOL     OW19351   5.325   2.680   5.327
 6151SOL    HW119352   5.358   2.588   5.310
 6151SOL    HW219353   5.402   2.740   5.349
 6152SOL     OW19354   5.386   4.673   6.589
 6152SOL    HW119355   5.286   4.673   6.598
 6152SOL    HW219356   5.418   4.578   6.584
 6153SOL     OW19357   4.687   3.945   1.390
 6153SOL    HW119358   4.658   4.041   1.397
 6153SOL    HW219359   4.607   3.888   1.375
 6154SOL     OW19360   6.130   1.880   2.068
 6154SOL    HW119361   6.080   1.955   2.024
 6154SOL    HW219362   6.221   1.872   2.027
 6155SOL     OW19363   0.407   3.289   4.407
 6155SOL    HW119364   0.357   3.283   4.494
 6155SOL    HW219365   0.464   3.371   4.407
 6156SOL     OW19366   5.348   6.657   2.923
 6156SOL    HW119367   5.315   6.574   2.877
 6156SOL    HW219368   5.342   6.644   3.022
 6157SOL     OW19369   2.442   2.140   3.908
 6157SOL    HW119370   2.497   2.062   3.879
 6157SOL    HW219371   2.439   2.208   3.835
 6158SOL     OW19372   4.526   0.706   6.700
 6158SOL    HW119373   4.540   0.794   6.655
 6158SOL    HW219374   4.475   0.720   6.784
 6159SOL     OW19375   5.444   1.656   6.955
 6159SOL    HW119376   5.359   1.650   6.903
 6159SOL    HW219377   5.475   1.564   6.979
 6160SOL     OW19378   5.517   5.744   0.811
 6160SOL    HW119379   5.461   5.823   0.835
 6160SOL    HW219380   5.594   5.774   0.754
 6161SOL     OW19381   5.806   0.834   5.872
 6161SOL    HW119382   5.722   0.847   5.925
 6161SOL    HW219383   5.876   0.792   5.930
 6162SOL     OW19384   1.435   5.601   4.093
 6162SOL    HW119385   1.374   5.526   4.068
 6162SOL    HW219386   1.468   5.587   4.187
 6163SOL     OW19387   5.893   3.888   1.000
 6163SOL    HW119388   5.905   3.853   0.907
 6163SOL    HW219389   5.815   3.951   1.001
 6164SOL     OW19390   2.069   2.024   1.130
 6164SOL    HW119391   2.136   1.952   1.113
 6164SOL    HW219392   2.040   2.021   1.225
 6165SOL     OW19393   3.850   6.106   0.400
 6165SOL    HW119394   3.764   6.137   0.442
 6165SOL    HW219395   3.829   6.045   0.324
 6166SOL     OW19396   3.296   1.705   5.897
 6166SOL    HW119397   3.230   1.666   5.833
 6166SOL    HW219398   3.267   1.686   5.991
 6167SOL     OW19399   0.178   4.587   2.447
 6167SOL    HW119400   0.095   4.613   2.398
 6167SOL    HW219401   0.154   4.545   2.534
 6168SOL     OW19402   0.319   3.604   1.434
 6168SOL    HW119403   0.377   3.547   1.493
 6168SOL    HW219404   0.237   3.553   1.409
 6169SOL     OW19405   2.215   4.046   2.066
 6169SOL    HW119406   2.192   4.020   2.160
 6169SOL    HW219407   2.219   4.145   2.058
 6170SOL     OW19408   0.034   3.424   5.348
 6170SOL    HW119409   0.121   3.435   5.301
 6170SOL    HW219410   6.996   3.370   5.292
 6171SOL     OW19411   0.846   0.518   0.571
 6171SOL    HW119412   0.911   0.589   0.544
 6171SOL    HW219413   0.868   0.486   0.663
 6172SOL     OW19414   0.624   2.845   3.194
 6172SOL    HW119415   0.570   2.870   3.114
 6172SOL    HW219416   0.583   2.886   3.275
 6173SOL     OW19417   7.019   6.910   2.954
 6173SOL    HW119418   7.011   6.993   2.899
 6173SOL    HW219419   0.002   6.935   3.051
 6174SOL     OW19420   5.245   4.771   2.981
 6174SOL    HW119421   5.245   4.732   3.073
 6174SOL    HW219422   5.172   4.729   2.927
 6175SOL     OW19423   2.781   1.213   5.061
 6175SOL    HW119424   2.829   1.301   5.065
 6175SOL    HW219425   2.696   1.225   5.010
 6176SOL     OW19426   4.082   4.259   5.338
 6176SOL    HW119427   4.141   4.315   5.280
 6176SOL    HW219428   4.061   4.173   5.291
 6177SOL     OW19429   5.222   1.139   1.974
 6177SOL    HW119430   5.278   1.222   1.980
 6177SOL    HW219431   5.127   1.162   1.993
 6178SOL     OW19432   4.956   3.698   2.398
 6178SOL    HW119433   5.047   3.658   2.404
 6178SOL    HW219434   4.890   3.637   2.442
 6179SOL     OW19435   6.450   5.012   1.831
 6179SOL    HW119436   6.461   5.084   1.899
 6179SOL    HW219437   6.423   5.052   1.744
 6180SOL     OW19438   2.971   5.089   0.686
 6180SOL    HW119439   3.035   5.012   0.680
 6180SOL    HW219440   2.958   5.114   0.782
 6181SOL     OW19441   4.730   4.982   6.587
 6181SOL    HW119442   4.761   4.980   6.492
 6181SOL    HW219443   4.702   5.075   6.610
 6182SOL     OW19444   3.225   3.494   0.256
 6182SOL    HW119445   3.276   3.533   0.332
 6182SOL    HW219446   3.129   3.483   0.282
 6183SOL     OW19447   1.256   2.301   0.726
 6183SOL    HW119448   1.175   2.250   0.699
 6183SOL    HW219449   1.275   2.371   0.657
 6184SOL     OW19450   2.748   1.178   6.313
 6184SOL    HW119451   2.711   1.192   6.405
 6184SOL    HW219452   2.769   1.267   6.272
 6185SOL     OW19453   3.712   2.849   4.880
 6185SOL    HW119454   3.622   2.858   4.839
 6185SOL    HW219455   3.764   2.778   4.833
 6186SOL     OW19456   5.950   1.976   1.735
 6186SOL    HW119457   5.863   1.940   1.768
 6186SOL    HW219458   5.983   2.046   1.799
 6187SOL     OW19459   5.238   2.654   5.036
 6187SOL    HW119460   5.252   2.555   5.042
 6187SOL    HW219461   5.250   2.695   5.127
 6188SOL     OW19462   2.277   2.296   5.338
 6188SOL    HW119463   2.358   2.266   5.288
 6188SOL    HW219464   2.290   2.280   5.436
 6189SOL     OW19465   4.935   6.153   1.995
 6189SOL    HW119466   4.968   6.107   2.077
 6189SOL    HW219467   4.855   6.104   1.959
 6190SOL     OW19468   6.126   2.523   5.390
 6190SOL    HW119469   6.201   2.493   5.330
 6190SOL    HW219470   6.151   2.505   5.486
 6191SOL     OW19471   3.039   3.596   6.297
 6191SOL    HW119472   3.088   3.619   6.213
 6191SOL    HW219473   2.979   3.671   6.322
 6192SOL     OW19474   2.110   2.154   0.056
 6192SOL    HW119475   2.025   2.111   0.086
 6192SOL    HW219476   2.125   2.238   0.108
 6193SOL     OW19477   5.257   5.456   0.573
 6193SOL    HW119478   5.233   5.393   0.499
 6193SOL    HW219479   5.306   5.406   0.645
 6194SOL     OW19480   6.608   0.563   6.321
 6194SOL    HW119481   6.703   0.567   6.293
 6194SOL    HW219482   6.592   0.630   6.393
 6195SOL     OW19483   6.134   0.211   5.315
 6195SOL    HW119484   6.061   0.159   5.270
 6195SOL    HW219485   6.220   0.161   5.306
 6196SOL     OW19486   4.985   4.189   3.043
 6196SOL    HW119487   4.942   4.156   2.959
 6196SOL    HW219488   4.922   4.179   3.120
 6197SOL     OW19489   2.267   5.341   2.525
 6197SOL    HW119490   2.264   5.429   2.573
 6197SOL    HW219491   2.354   5.296   2.542
 6198SOL     OW19492   6.042   6.065   6.634
 6198SOL    HW119493   5.993   6.152   6.642
 6198SOL    HW219494   6.021   6.008   6.713
 6199SOL     OW19495   0.828   0.347   0.846
 6199SOL    HW119496   0.828   0.304   0.936
 6199SOL    HW219497   0.908   0.407   0.838
 6200SOL     OW19498   2.028   2.087   1.779
 6200SOL    HW119499   1.998   2.015   1.716
 6200SOL    HW219500   1.992   2.175   1.747
 6201SOL     OW19501   6.607   3.734   3.962
 6201SOL    HW119502   6.606   3.703   4.057
 6201SOL    HW219503   6.636   3.658   3.903
 6202SOL     OW19504   6.584   1.415   2.910
 6202SOL    HW119505   6.513   1.415   2.980
 6202SOL    HW219506   6.673   1.401   2.954
 6203SOL     OW19507   6.423   5.476   1.948
 6203SOL    HW119508   6.356   5.450   2.017
 6203SOL    HW219509   6.382   5.469   1.857
 6204SOL     OW19510   1.702   6.859   5.299
 6204SOL    HW119511   1.720   6.938   5.357
 6204SOL    HW219512   1.625   6.879   5.238
 6205SOL     OW19513   4.914   3.849   2.189
 6205SOL    HW119514   4.839   3.913   2.205
 6205SOL    HW219515   4.929   3.793   2.270
 6206SOL     OW19516   5.124   1.825   3.679
 6206SOL    HW119517   5.221   1.832   3.657
 6206SOL    HW219518   5.070   1.874   3.611
 6207SOL     OW19519   1.429   5.847   4.395
 6207SOL    HW119520   1.414   5.752   4.419
 6207SOL    HW219521   1.477   5.852   4.307
 6208SOL     OW19522   3.785   2.856   5.666
 6208SOL    HW119523   3.858   2.800   5.705
 6208SOL    HW219524   3.800   2.867   5.568
 6209SOL     OW19525   3.982   4.205   1.273
 6209SOL    HW119526   4.043   4.271   1.318
 6209SOL    HW219527   3.948   4.140   1.341
 6210SOL     OW19528   4.785   2.892   3.253
 6210SOL    HW119529   4.858   2.866   3.316
 6210SOL    HW219530   4.776   2.822   3.182
 6211SOL     OW19531   4.680   5.748   5.042
 6211SOL    HW119532   4.735   5.762   5.124
 6211SOL    HW219533   4.695   5.655   5.008
 6212SOL     OW19534   3.580   5.475   6.214
 6212SOL    HW119535   3.634   5.479   6.130
 6212SOL    HW219536   3.483   5.470   6.190
 6213SOL     OW19537   4.431   6.187   0.935
 6213SOL    HW119538   4.443   6.151   1.027
 6213SOL    HW219539   4.335   6.183   0.909
 6214SOL     OW19540   5.945   6.086   5.309
 6214SOL    HW119541   5.897   6.091   5.221
 6214SOL    HW219542   6.042   6.103   5.296
 6215SOL     OW19543   5.067   2.180   6.311
 6215SOL    HW119544   5.102   2.087   6.303
 6215SOL    HW219545   5.136   2.238   6.356
 6216SOL     OW19546   5.136   3.100   3.388
 6216SOL    HW119547   5.232   3.073   3.398
 6216SOL    HW219548   5.078   3.018   3.389
 6217SOL     OW19549   0.890   4.405   2.588
 6217SOL    HW119550   0.981   4.439   2.563
 6217SOL    HW219551   0.825   4.428   2.515
 6218SOL     OW19552   4.968   6.612   0.282
 6218SOL    HW119553   4.952   6.635   0.378
 6218SOL    HW219554   4.882   6.615   0.232
 6219SOL     OW19555   1.121   0.894   5.053
 6219SOL    HW119556   1.208   0.885   5.004
 6219SOL    HW219557   1.090   0.804   5.083
 6220SOL     OW19558   3.736   1.295   1.167
 6220SOL    HW119559   3.767   1.377   1.214
 6220SOL    HW219560   3.652   1.315   1.117
 6221SOL     OW19561   6.551   5.878   6.777
 6221SOL    HW119562   6.466   5.843   6.737
 6221SOL    HW219563   6.580   5.960   6.727
 6222SOL     OW19564   6.087   1.335   2.380
 6222SOL    HW119565   6.030   1.357   2.459
 6222SOL    HW219566   6.055   1.250   2.338
 6223SOL     OW19567   0.337   4.900   3.847
 6223SOL    HW119568   0.343   4.811   3.892
 6223SOL    HW219569   0.281   4.892   3.764
 6224SOL     OW19570   4.618   1.899   6.682
 6224SOL    HW119571   4.640   1.803   6.665
 6224SOL    HW219572   4.642   1.954   6.602
 6225SOL     OW19573   3.788   7.018   6.458
 6225SOL    HW119574   3.741   0.068   6.410
 6225SOL    HW219575   3.760   6.930   6.419
 6226SOL     OW19576   1.218   1.046   3.873
 6226SOL    HW119577   1.286   1.093   3.816
 6226SOL    HW219578   1.191   1.105   3.949
 6227SOL     OW19579   2.788   3.786   5.511
 6227SOL    HW119580   2.777   3.882   5.484
 6227SOL    HW219581   2.807   3.781   5.609
 6228SOL     OW19582   2.054   2.617   3.811
 6228SOL    HW119583   1.968   2.597   3.857
 6228SOL    HW219584   2.124   2.554   3.844
 6229SOL     OW19585   0.327   3.520   4.765
 6229SOL    HW119586   0.285   3.587   4.705
 6229SOL    HW219587   0.275   3.513   4.850
 6230SOL     OW19588   0.470   1.170   1.902
 6230SOL    HW119589   0.400   1.098   1.905
 6230SOL    HW219590   0.426   1.258   1.886
 6231SOL     OW19591   6.338   4.857   6.950
 6231SOL    HW119592   6.274   4.781   6.939
 6231SOL    HW219593   6.377   4.855   0.018
 6232SOL     OW19594   5.661   1.061   7.010
 6232SOL    HW119595   5.627   1.045   0.079
 6232SOL    HW219596   5.595   1.115   6.958
 6233SOL     OW19597   0.094   3.500   1.323
 6233SOL    HW119598   0.105   3.400   1.328
 6233SOL    HW219599   0.047   3.533   1.404
 6234SOL     OW19600   6.498   6.860   4.608
 6234SOL    HW119601   6.580   6.918   4.613
 6234SOL    HW219602   6.508   6.795   4.533
 6235SOL     OW19603   6.572   0.837   2.412
 6235SOL    HW119604   6.609   0.928   2.395
 6235SOL    HW219605   6.625   0.792   2.484
 6236SOL     OW19606   0.451   4.451   0.729
 6236SOL    HW119607   0.448   4.379   0.798
 6236SOL    HW219608   0.381   4.434   0.660
 6237SOL     OW19609   3.899   0.516   1.431
 6237SOL    HW119610   3.934   0.423   1.421
 6237SOL    HW219611   3.963   0.570   1.485
 6238SOL     OW19612   2.771   6.522   4.364
 6238SOL    HW119613   2.684   6.564   4.393
 6238SOL    HW219614   2.777   6.524   4.265
 6239SOL     OW19615   4.997   0.707   2.381
 6239SOL    HW119616   5.030   0.801   2.384
 6239SOL    HW219617   4.941   0.689   2.462
 6240SOL     OW19618   3.928   3.072   4.478
 6240SOL    HW119619   3.982   3.086   4.561
 6240SOL    HW219620   3.865   2.996   4.491
 6241SOL     OW19621   2.304   6.636   3.664
 6241SOL    HW119622   2.379   6.649   3.728
 6241SOL    HW219623   2.228   6.696   3.689
 6242SOL     OW19624   2.914   1.882   3.455
 6242SOL    HW119625   2.922   1.855   3.359
 6242SOL    HW219626   2.909   1.981   3.461
 6243SOL     OW19627   5.734   1.623   5.893
 6243SOL    HW119628   5.669   1.573   5.837
 6243SOL    HW219629   5.692   1.648   5.980
 6244SOL     OW19630   4.203   4.696   2.422
 6244SOL    HW119631   4.112   4.736   2.435
 6244SOL    HW219632   4.205   4.646   2.336
 6245SOL     OW19633   0.889   4.545   2.024
 6245SOL    HW119634   0.856   4.468   1.970
 6245SOL    HW219635   0.810   4.594   2.062
 6246SOL     OW19636   0.945   6.559   4.349
 6246SOL    HW119637   0.866   6.593   4.400
 6246SOL    HW219638   1.028   6.571   4.404
 6247SOL     OW19639   6.861   5.718   3.735
 6247SOL    HW119640   6.872   5.641   3.797
 6247SOL    HW219641   6.948   5.738   3.690
 6248SOL     OW19642   3.552   3.241   0.037
 6248SOL    HW119643   3.501   3.167   0.080
 6248SOL    HW219644   3.525   3.329   0.077
 6249SOL     OW19645   6.757   2.568   0.742
 6249SOL    HW119646   6.773   2.522   0.829
 6249SOL    HW219647   6.662   2.601   0.739
 6250SOL     OW19648   0.136   0.317   0.838
 6250SOL    HW119649   0.173   0.289   0.750
 6250SOL    HW219650   0.090   0.406   0.828
 6251SOL     OW19651   2.992   6.907   4.252
 6251SOL    HW119652   2.926   6.972   4.291
 6251SOL    HW219653   3.034   6.855   4.327
 6252SOL     OW19654   2.723   5.348   6.920
 6252SOL    HW119655   2.690   5.364   6.827
 6252SOL    HW219656   2.823   5.358   6.922
 6253SOL     OW19657   3.204   5.050   4.662
 6253SOL    HW119658   3.213   5.000   4.576
 6253SOL    HW219659   3.112   5.088   4.669
 6254SOL     OW19660   0.362   6.003   1.109
 6254SOL    HW119661   0.293   6.048   1.166
 6254SOL    HW219662   0.450   6.048   1.122
 6255SOL     OW19663   0.479   1.891   0.956
 6255SOL    HW119664   0.422   1.876   0.875
 6255SOL    HW219665   0.529   1.977   0.945
 6256SOL     OW19666   4.782   5.237   3.055
 6256SOL    HW119667   4.723   5.311   3.088
 6256SOL    HW219668   4.797   5.171   3.128
 6257SOL     OW19669   4.147   4.063   1.111
 6257SOL    HW119670   4.092   4.110   1.180
 6257SOL    HW219671   4.147   3.965   1.129
 6258SOL     OW19672   4.343   6.796   6.181
 6258SOL    HW119673   4.331   6.702   6.213
 6258SOL    HW219674   4.319   6.801   6.084
 6259SOL     OW19675   2.131   0.103   5.486
 6259SOL    HW119676   2.199   0.176   5.492
 6259SOL    HW219677   2.118   0.062   5.576
 6260SOL     OW19678   2.050   1.240   0.340
 6260SOL    HW119679   2.090   1.316   0.290
 6260SOL    HW219680   2.122   1.192   0.391
 6261SOL     OW19681   3.896   6.299   1.700
 6261SOL    HW119682   3.844   6.264   1.621
 6261SOL    HW219683   3.928   6.222   1.755
 6262SOL     OW19684   6.338   6.497   2.100
 6262SOL    HW119685   6.400   6.564   2.061
 6262SOL    HW219686   6.321   6.423   2.034
 6263SOL     OW19687   0.151   5.657   4.597
 6263SOL    HW119688   0.238   5.622   4.562
 6263SOL    HW219689   0.160   5.676   4.695
 6264SOL     OW19690   1.148   0.226   1.333
 6264SOL    HW119691   1.153   0.131   1.303
 6264SOL    HW219692   1.057   0.247   1.367
 6265SOL     OW19693   4.473   1.719   0.191
 6265SOL    HW119694   4.421   1.692   0.272
 6265SOL    HW219695   4.410   1.736   0.115
 6266SOL     OW19696   2.868   5.388   3.565
 6266SOL    HW119697   2.812   5.390   3.648
 6266SOL    HW219698   2.962   5.414   3.588
 6267SOL     OW19699   1.115   6.993   5.280
 6267SOL    HW119700   1.075   6.904   5.258
 6267SOL    HW219701   1.200   7.006   5.227
 6268SOL     OW19702   3.143   0.305   1.960
 6268SOL    HW119703   3.093   0.227   1.922
 6268SOL    HW219704   3.087   0.350   2.029
 6269SOL     OW19705   5.712   5.780   1.439
 6269SOL    HW119706   5.655   5.701   1.460
 6269SOL    HW219707   5.672   5.830   1.362
 6270SOL     OW19708   1.647   6.264   0.469
 6270SOL    HW119709   1.576   6.243   0.402
 6270SOL    HW219710   1.606   6.308   0.549
 6271SOL     OW19711   6.207   3.168   6.508
 6271SOL    HW119712   6.223   3.215   6.422
 6271SOL    HW219713   6.169   3.233   6.575
 6272SOL     OW19714   6.075   0.140   0.255
 6272SOL    HW119715   6.069   0.165   0.352
 6272SOL    HW219716   5.990   0.094   0.228
 6273SOL     OW19717   7.020   0.345   1.711
 6273SOL    HW119718   0.041   0.417   1.764
 6273SOL    HW219719   6.958   0.387   1.645
 6274SOL     OW19720   3.797   5.814   5.207
 6274SOL    HW119721   3.824   5.756   5.129
 6274SOL    HW219722   3.708   5.856   5.186
 6275SOL     OW19723   2.078   5.700   0.592
 6275SOL    HW119724   2.073   5.605   0.624
 6275SOL    HW219725   1.998   5.719   0.535
 6276SOL     OW19726   2.084   5.353   2.889
 6276SOL    HW119727   2.003   5.411   2.900
 6276SOL    HW219728   2.117   5.323   2.979
 6277SOL     OW19729   5.175   2.543   1.183
 6277SOL    HW119730   5.173   2.514   1.279
 6277SOL    HW219731   5.094   2.598   1.163
 6278SOL     OW19732   2.846   6.674   5.708
 6278SOL    HW119733   2.863   6.655   5.611
 6278SOL    HW219734   2.933   6.680   5.756
 6279SOL     OW19735   3.139   6.576   1.900
 6279SOL    HW119736   3.097   6.626   1.976
 6279SOL    HW219737   3.224   6.622   1.873
 6280SOL     OW19738   7.004   1.679   6.512
 6280SOL    HW119739   0.014   1.633   6.595
 6280SOL    HW219740   6.914   1.718   6.530
 6281SOL     OW19741   6.147   4.287   5.584
 6281SOL    HW119742   6.130   4.328   5.494
 6281SOL    HW219743   6.063   4.244   5.618
 6282SOL     OW19744   1.022   3.717   6.203
 6282SOL    HW119745   0.993   3.739   6.296
 6282SOL    HW219746   1.099   3.653   6.206
 6283SOL     OW19747   1.343   5.992   5.857
 6283SOL    HW119748   1.258   5.991   5.911
 6283SOL    HW219749   1.410   5.931   5.899
 6284SOL     OW19750   2.541   4.158   0.143
 6284SOL    HW119751   2.541   4.126   0.048
 6284SOL    HW219752   2.488   4.095   0.199
 6285SOL     OW19753   1.390   3.381   3.000
 6285SOL    HW119754   1.380   3.470   3.046
 6285SOL    HW219755   1.460   3.327   3.047
 6286SOL     OW19756   0.920   3.021   4.896
 6286SOL    HW119757   1.001   3.007   4.839
 6286SOL    HW219758   0.838   3.023   4.838
 6287SOL     OW19759   4.490   4.930   5.020
 6287SOL    HW119760   4.431   4.874   5.077
 6287SOL    HW219761   4.485   5.026   5.049
 6288SOL     OW19762   3.587   3.115   6.630
 6288SOL    HW119763   3.546   3.037   6.584
 6288SOL    HW219764   3.687   3.105   6.630
 6289SOL     OW19765   2.654   4.664   6.339
 6289SOL    HW119766   2.650   4.724   6.419
 6289SOL    HW219767   2.684   4.716   6.259
 6290SOL     OW19768   5.391   5.575   5.130
 6290SOL    HW119769   5.303   5.536   5.157
 6290SOL    HW219770   5.400   5.667   5.168
 6291SOL     OW19771   3.384   3.208   2.685
 6291SOL    HW119772   3.429   3.192   2.773
 6291SOL    HW219773   3.430   3.155   2.614
 6292SOL     OW19774   2.127   3.405   4.673
 6292SOL    HW119775   2.032   3.381   4.653
 6292SOL    HW219776   2.176   3.323   4.703
 6293SOL     OW19777   5.098   1.101   6.861
 6293SOL    HW119778   5.132   1.063   6.948
 6293SOL    HW219779   4.998   1.102   6.862
 6294SOL     OW19780   2.699   1.467   3.445
 6294SOL    HW119781   2.713   1.559   3.482
 6294SOL    HW219782   2.704   1.470   3.345
 6295SOL     OW19783   5.825   4.583   5.602
 6295SOL    HW119784   5.876   4.626   5.527
 6295SOL    HW219785   5.777   4.653   5.655
 6296SOL     OW19786   0.168   2.661   6.630
 6296SOL    HW119787   0.179   2.686   6.726
 6296SOL    HW219788   0.130   2.739   6.580
 6297SOL     OW19789   5.717   0.725   4.272
 6297SOL    HW119790   5.759   0.635   4.277
 6297SOL    HW219791   5.765   0.788   4.333
 6298SOL     OW19792   5.983   4.697   0.264
 6298SOL    HW119793   5.929   4.654   0.336
 6298SOL    HW219794   5.962   4.794   0.260
 6299SOL     OW19795   4.735   2.012   2.792
 6299SOL    HW119796   4.741   2.049   2.885
 6299SOL    HW219797   4.642   2.020   2.758
 6300SOL     OW19798   3.528   0.147   5.738
 6300SOL    HW119799   3.471   0.181   5.813
 6300SOL    HW219800   3.524   0.047   5.736
 6301SOL     OW19801   3.273   6.889   0.722
 6301SOL    HW119802   3.209   6.966   0.722
 6301SOL    HW219803   3.358   6.916   0.768
 6302SOL     OW19804   3.038   1.350   5.600
 6302SOL    HW119805   3.105   1.297   5.548
 6302SOL    HW219806   3.006   1.296   5.677
 6303SOL     OW19807   1.462   5.976   6.198
 6303SOL    HW119808   1.527   6.052   6.194
 6303SOL    HW219809   1.375   6.010   6.234
 6304SOL     OW19810   3.923   0.925   3.096
 6304SOL    HW119811   3.869   0.937   3.013
 6304SOL    HW219812   4.021   0.928   3.072
 6305SOL     OW19813   0.617   5.822   5.688
 6305SOL    HW119814   0.674   5.831   5.769
 6305SOL    HW219815   0.526   5.859   5.707
 6306SOL     OW19816   6.708   4.663   3.947
 6306SOL    HW119817   6.743   4.582   3.900
 6306SOL    HW219818   6.779   4.734   3.950
 6307SOL     OW19819   4.005   3.692   3.274
 6307SOL    HW119820   4.061   3.619   3.234
 6307SOL    HW219821   3.934   3.718   3.209
 6308SOL     OW19822   0.357   2.947   0.096
 6308SOL    HW119823   0.257   2.939   0.087
 6308SOL    HW219824   0.380   2.959   0.193
 6309SOL     OW19825   1.282   6.362   4.705
 6309SOL    HW119826   1.269   6.430   4.633
 6309SOL    HW219827   1.222   6.283   4.687
 6310SOL     OW19828   1.920   6.978   3.257
 6310SOL    HW119829   2.005   0.003   3.234
 6310SOL    HW219830   1.881   6.938   3.174
 6311SOL     OW19831   5.601   1.119   5.759
 6311SOL    HW119832   5.511   1.157   5.738
 6311SOL    HW219833   5.639   1.166   5.839
 6312SOL     OW19834   3.293   6.768   6.806
 6312SOL    HW119835   3.287   6.812   6.717
 6312SOL    HW219836   3.201   6.745   6.838
 6313SOL     OW19837   5.526   6.005   3.049
 6313SOL    HW119838   5.608   6.055   3.021
 6313SOL    HW219839   5.552   5.929   3.109
 6314SOL     OW19840   2.460   0.295   1.543
 6314SOL    HW119841   2.395   0.365   1.573
 6314SOL    HW219842   2.552   0.323   1.569
 6315SOL     OW19843   2.311   2.867   3.821
 6315SOL    HW119844   2.213   2.870   3.839
 6315SOL    HW219845   2.361   2.889   3.905
 6316SOL     OW19846   5.483   1.543   4.545
 6316SOL    HW119847   5.410   1.475   4.536
 6316SOL    HW219848   5.476   1.608   4.469
 6317SOL     OW19849   5.235   4.394   1.898
 6317SOL    HW119850   5.184   4.317   1.936
 6317SOL    HW219851   5.330   4.366   1.882
 6318SOL     OW19852   6.434   0.296   5.912
 6318SOL    HW119853   6.380   0.216   5.890
 6318SOL    HW219854   6.435   0.311   6.011
 6319SOL     OW19855   5.767   2.071   4.419
 6319SOL    HW119856   5.799   2.052   4.326
 6319SOL    HW219857   5.808   2.005   4.482
 6320SOL     OW19858   6.798   1.260   4.085
 6320SOL    HW119859   6.760   1.208   4.008
 6320SOL    HW219860   6.765   1.354   4.082
 6321SOL     OW19861   5.501   2.120   0.721
 6321SOL    HW119862   5.440   2.041   0.725
 6321SOL    HW219863   5.446   2.204   0.731
 6322SOL     OW19864   1.626   0.931   1.332
 6322SOL    HW119865   1.618   0.837   1.363
 6322SOL    HW219866   1.534   0.969   1.317
 6323SOL     OW19867   2.682   2.857   1.201
 6323SOL    HW119868   2.742   2.929   1.236
 6323SOL    HW219869   2.648   2.803   1.278
 6324SOL     OW19870   4.487   1.340   0.910
 6324SOL    HW119871   4.558   1.304   0.849
 6324SOL    HW219872   4.474   1.438   0.891
 6325SOL     OW19873   1.718   2.391   3.285
 6325SOL    HW119874   1.652   2.327   3.245
 6325SOL    HW219875   1.668   2.463   3.334
 6326SOL     OW19876   5.387   5.298   5.805
 6326SOL    HW119877   5.408   5.310   5.708
 6326SOL    HW219878   5.300   5.344   5.826
 6327SOL     OW19879   6.899   0.680   3.025
 6327SOL    HW119880   6.829   0.615   2.997
 6327SOL    HW219881   6.942   0.650   3.110
 6328SOL     OW19882   3.982   3.070   5.800
 6328SOL    HW119883   4.010   3.134   5.728
 6328SOL    HW219884   3.947   3.122   5.878
 6329SOL     OW19885   1.335   2.816   5.595
 6329SOL    HW119886   1.287   2.899   5.568
 6329SOL    HW219887   1.428   2.839   5.626
 6330SOL     OW19888   5.222   0.498   3.598
 6330SOL    HW119889   5.218   0.426   3.668
 6330SOL    HW219890   5.286   0.470   3.526
 6331SOL     OW19891   6.803   3.070   2.854
 6331SOL    HW119892   6.843   3.160   2.872
 6331SOL    HW219893   6.875   3.001   2.854
 6332SOL     OW19894   2.197   1.873   0.844
 6332SOL    HW119895   2.258   1.944   0.878
 6332SOL    HW219896   2.194   1.798   0.910
 6333SOL     OW19897   4.977   1.054   0.524
 6333SOL    HW119898   5.068   1.079   0.559
 6333SOL    HW219899   4.954   1.114   0.447
 6334SOL     OW19900   2.380   1.372   1.856
 6334SOL    HW119901   2.314   1.433   1.813
 6334SOL    HW219902   2.458   1.426   1.890
 6335SOL     OW19903   5.926   1.535   0.603
 6335SOL    HW119904   5.966   1.453   0.563
 6335SOL    HW219905   5.950   1.615   0.548
 6336SOL     OW19906   0.732   3.314   6.300
 6336SOL    HW119907   0.805   3.250   6.324
 6336SOL    HW219908   0.719   3.314   6.201
 6337SOL     OW19909   4.765   5.522   5.257
 6337SOL    HW119910   4.841   5.497   5.198
 6337SOL    HW219911   4.770   5.619   5.279
 6338SOL     OW19912   3.192   1.959   4.011
 6338SOL    HW119913   3.172   1.994   3.919
 6338SOL    HW219914   3.148   1.871   4.023
 6339SOL     OW19915   1.207   4.522   3.518
 6339SOL    HW119916   1.220   4.439   3.572
 6339SOL    HW219917   1.296   4.553   3.482
 6340SOL     OW19918   2.462   4.333   1.466
 6340SOL    HW119919   2.483   4.236   1.452
 6340SOL    HW219920   2.405   4.342   1.548
 6341SOL     OW19921   1.245   4.813   3.707
 6341SOL    HW119922   1.289   4.857   3.785
 6341SOL    HW219923   1.199   4.729   3.739
 6342SOL     OW19924   2.124   1.650   2.097
 6342SOL    HW119925   2.054   1.714   2.064
 6342SOL    HW219926   2.121   1.567   2.043
 6343SOL     OW19927   2.681   6.018   0.645
 6343SOL    HW119928   2.659   6.103   0.694
 6343SOL    HW219929   2.630   6.015   0.559
 6344SOL     OW19930   6.933   1.417   3.471
 6344SOL    HW119931   6.923   1.417   3.571
 6344SOL    HW219932   0.004   1.438   3.447
 6345SOL     OW19933   5.918   3.705   1.490
 6345SOL    HW119934   5.837   3.753   1.525
 6345SOL    HW219935   5.969   3.767   1.430
 6346SOL     OW19936   0.083   4.295   5.504
 6346SOL    HW119937   0.097   4.374   5.564
 6346SOL    HW219938   0.171   4.261   5.472
 6347SOL     OW19939   2.484   2.273   2.964
 6347SOL    HW119940   2.450   2.179   2.968
 6347SOL    HW219941   2.502   2.306   3.057
 6348SOL     OW19942   0.319   2.368   5.349
 6348SOL    HW119943   0.331   2.405   5.441
 6348SOL    HW219944   0.394   2.306   5.327
 6349SOL     OW19945   0.082   0.617   0.081
 6349SOL    HW119946   0.110   0.706   0.045
 6349SOL    HW219947   7.007   0.604   0.067
 6350SOL     OW19948   1.116   4.292   1.915
 6350SOL    HW119949   1.119   4.332   2.007
 6350SOL    HW219950   1.160   4.355   1.850
 6351SOL     OW19951   5.609   3.143   2.319
 6351SOL    HW119952   5.556   3.200   2.256
 6351SOL    HW219953   5.706   3.149   2.295
 6352SOL     OW19954   2.230   0.691   4.795
 6352SOL    HW119955   2.220   0.626   4.719
 6352SOL    HW219956   2.156   0.757   4.792
 6353SOL     OW19957   3.116   6.021   6.726
 6353SOL    HW119958   3.062   6.007   6.809
 6353SOL    HW219959   3.191   5.954   6.724
 6354SOL     OW19960   4.934   4.455   2.450
 6354SOL    HW119961   4.935   4.358   2.471
 6354SOL    HW219962   4.983   4.505   2.522
 6355SOL     OW19963   2.681   4.781   1.001
 6355SOL    HW119964   2.746   4.789   0.926
 6355SOL    HW219965   2.626   4.699   0.989
 6356SOL     OW19966   5.455   4.166   6.673
 6356SOL    HW119967   5.391   4.104   6.628
 6356SOL    HW219968   5.440   4.165   6.772
 6357SOL     OW19969   5.389   1.594   1.548
 6357SOL    HW119970   5.300   1.564   1.513
 6357SOL    HW219971   5.416   1.535   1.624
 6358SOL     OW19972   1.520   2.765   6.579
 6358SOL    HW119973   1.459   2.701   6.626
 6358SOL    HW219974   1.480   2.857   6.583
 6359SOL     OW19975   5.726   6.123   0.324
 6359SOL    HW119976   5.652   6.147   0.387
 6359SOL    HW219977   5.728   6.024   0.311
 6360SOL     OW19978   0.831   2.236   2.828
 6360SOL    HW119979   0.826   2.164   2.897
 6360SOL    HW219980   0.742   2.281   2.820
 6361SOL     OW19981   0.497   0.442   6.878
 6361SOL    HW119982   0.522   0.435   6.781
 6361SOL    HW219983   0.399   0.424   6.888
 6362SOL     OW19984   1.289   5.503   6.733
 6362SOL    HW119985   1.328   5.419   6.694
 6362SOL    HW219986   1.310   5.580   6.672
 6363SOL     OW19987   3.063   5.261   3.938
 6363SOL    HW119988   3.151   5.221   3.913
 6363SOL    HW219989   2.989   5.197   3.915
 6364SOL     OW19990   2.508   2.614   4.790
 6364SOL    HW119991   2.561   2.690   4.754
 6364SOL    HW219992   2.442   2.647   4.856
 6365SOL     OW19993   5.853   4.995   3.631
 6365SOL    HW119994   5.922   4.935   3.591
 6365SOL    HW219995   5.838   4.969   3.727
 6366SOL     OW19996   6.060   6.821   4.554
 6366SOL    HW119997   6.124   6.894   4.578
 6366SOL    HW219998   6.011   6.846   4.471
 6367SOL     OW19999   2.932   1.772   2.912
 6367SOL    HW120000   2.993   1.851   2.916
 6367SOL    HW220001   2.860   1.790   2.844
 6368SOL     OW20002   4.937   3.330   4.774
 6368SOL    HW120003   4.903   3.365   4.861
 6368SOL    HW220004   5.004   3.258   4.790
 6369SOL     OW20005   3.109   6.139   6.143
 6369SOL    HW120006   3.202   6.100   6.145
 6369SOL    HW220007   3.063   6.111   6.060
 6370SOL     OW20008   5.549   3.648   3.886
 6370SOL    HW120009   5.583   3.743   3.883
 6370SOL    HW220010   5.455   3.648   3.920
 6371SOL     OW20011   5.644   3.782   1.561
 6371SOL    HW120012   5.565   3.721   1.568
 6371SOL    HW220013   5.629   3.863   1.618
 6372SOL     OW20014   6.796   0.691   2.657
 6372SOL    HW120015   6.723   0.704   2.725
 6372SOL    HW220016   6.882   0.669   2.704
 6373SOL     OW20017   5.288   3.849   1.380
 6373SOL    HW120018   5.195   3.814   1.394
 6373SOL    HW220019   5.294   3.943   1.414
 6374SOL     OW20020   4.752   2.856   0.487
 6374SOL    HW120021   4.730   2.952   0.504
 6374SOL    HW220022   4.710   2.800   0.559
 6375SOL     OW20023   6.672   2.864   2.307
 6375SOL    HW120024   6.631   2.940   2.358
 6375SOL    HW220025   6.606   2.789   2.301
 6376SOL     OW20026   3.497   0.808   5.931
 6376SOL    HW120027   3.506   0.870   6.009
 6376SOL    HW220028   3.478   0.716   5.965
 6377SOL     OW20029   6.884   0.591   0.575
 6377SOL    HW120030   6.800   0.571   0.626
 6377SOL    HW220031   6.886   0.537   0.491
 6378SOL     OW20032   5.745   5.369   3.143
 6378SOL    HW120033   5.685   5.337   3.071
 6378SOL    HW220034   5.788   5.455   3.116
 6379SOL     OW20035   3.150   6.188   7.023
 6379SOL    HW120036   3.078   6.140   6.973
 6379SOL    HW220037   3.236   6.137   7.016
 6380SOL     OW20038   1.273   2.995   5.210
 6380SOL    HW120039   1.208   3.061   5.248
 6380SOL    HW220040   1.224   2.912   5.185
 6381SOL     OW20041   4.366   3.145   0.344
 6381SOL    HW120042   4.382   3.127   0.247
 6381SOL    HW220043   4.342   3.242   0.357
 6382SOL     OW20044   2.176   1.392   1.418
 6382SOL    HW120045   2.198   1.356   1.327
 6382SOL    HW220046   2.114   1.470   1.409
 6383SOL     OW20047   1.995   1.993   2.404
 6383SOL    HW120048   1.955   2.042   2.326
 6383SOL    HW220049   2.027   2.059   2.472
 6384SOL     OW20050   6.320   2.532   1.873
 6384SOL    HW120051   6.238   2.478   1.851
 6384SOL    HW220052   6.320   2.615   1.817
 6385SOL     OW20053   0.014   3.036   1.097
 6385SOL    HW120054   6.960   3.089   1.132
 6385SOL    HW220055   7.017   3.000   1.007
 6386SOL     OW20056   1.920   3.386   0.252
 6386SOL    HW120057   2.004   3.386   0.197
 6386SOL    HW220058   1.845   3.424   0.198
 6387SOL     OW20059   6.257   0.577   6.805
 6387SOL    HW120060   6.270   0.562   6.903
 6387SOL    HW220061   6.240   0.490   6.760
 6388SOL     OW20062   6.463   5.540   2.733
 6388SOL    HW120063   6.449   5.459   2.790
 6388SOL    HW220064   6.494   5.512   2.642
 6389SOL     OW20065   1.644   0.699   6.634
 6389SOL    HW120066   1.643   0.794   6.666
 6389SOL    HW220067   1.714   0.688   6.564
 6390SOL     OW20068   6.715   1.019   6.642
 6390SOL    HW120069   6.772   1.085   6.692
 6390SOL    HW220070   6.770   0.976   6.570
 6391SOL     OW20071   1.741   2.063   4.987
 6391SOL    HW120072   1.768   2.135   5.051
 6391SOL    HW220073   1.743   2.098   4.893
 6392SOL     OW20074   3.692   6.299   3.703
 6392SOL    HW120075   3.745   6.261   3.628
 6392SOL    HW220076   3.748   6.363   3.755
 6393SOL     OW20077   6.384   5.837   1.579
 6393SOL    HW120078   6.401   5.794   1.490
 6393SOL    HW220079   6.367   5.935   1.565
 6394SOL     OW20080   0.898   5.241   1.168
 6394SOL    HW120081   0.980   5.299   1.178
 6394SOL    HW220082   0.921   5.146   1.189
 6395SOL     OW20083   1.740   4.134   3.243
 6395SOL    HW120084   1.742   4.094   3.152
 6395SOL    HW220085   1.823   4.188   3.257
 6396SOL     OW20086   7.018   3.740   0.355
 6396SOL    HW120087   0.059   3.762   0.282
 6396SOL    HW220088   6.948   3.678   0.319
 6397SOL     OW20089   5.860   2.112   3.686
 6397SOL    HW120090   5.947   2.159   3.700
 6397SOL    HW220091   5.812   2.104   3.773
 6398SOL     OW20092   0.919   6.954   1.254
 6398SOL    HW120093   1.014   6.928   1.238
 6398SOL    HW220094   0.860   6.910   1.186
 6399SOL     OW20095   2.507   0.829   6.040
 6399SOL    HW120096   2.553   0.751   5.998
 6399SOL    HW220097   2.567   0.869   6.111
 6400SOL     OW20098   1.494   5.444   3.337
 6400SOL    HW120099   1.543   5.509   3.279
 6400SOL    HW220100   1.443   5.493   3.407
 6401SOL     OW20101   3.903   5.699   3.310
 6401SOL    HW120102   3.831   5.722   3.244
 6401SOL    HW220103   3.868   5.708   3.403
 6402SOL     OW20104   2.403   4.413   5.127
 6402SOL    HW120105   2.453   4.496   5.101
 6402SOL    HW220106   2.352   4.379   5.048
 6403SOL     OW20107   5.031   6.303   4.923
 6403SOL    HW120108   5.012   6.233   4.992
 6403SOL    HW220109   5.101   6.366   4.957
 6404SOL     OW20110   4.056   0.634   2.517
 6404SOL    HW120111   4.055   0.534   2.509
 6404SOL    HW220112   4.023   0.660   2.609
 6405SOL     OW20113   5.503   1.046   2.298
 6405SOL    HW120114   5.458   1.116   2.353
 6405SOL    HW220115   5.435   0.978   2.269
 6406SOL     OW20116   1.163   2.855   2.603
 6406SOL    HW120117   1.082   2.902   2.570
 6406SOL    HW220118   1.230   2.921   2.635
 6407SOL     OW20119   1.935   6.000   3.032
 6407SOL    HW120120   1.936   6.004   2.932
 6407SOL    HW220121   1.847   5.964   3.063
 6408SOL     OW20122   6.550   0.615   0.480
 6408SOL    HW120123   6.589   0.582   0.566
 6408SOL    HW220124   6.469   0.670   0.499
 6409SOL     OW20125   6.521   4.785   4.125
 6409SOL    HW120126   6.545   4.743   4.213
 6409SOL    HW220127   6.596   4.770   4.060
 6410SOL     OW20128   3.366   1.954   5.788
 6410SOL    HW120129   3.290   1.963   5.724
 6410SOL    HW220130   3.360   1.865   5.834
 6411SOL     OW20131   0.327   2.306   2.708
 6411SOL    HW120132   0.252   2.353   2.753
 6411SOL    HW220133   0.290   2.241   2.641
 6412SOL     OW20134   3.008   0.762   0.051
 6412SOL    HW120135   2.932   0.699   0.064
 6412SOL    HW220136   2.987   0.850   0.095
 6413SOL     OW20137   4.606   5.140   3.986
 6413SOL    HW120138   4.527   5.092   4.025
 6413SOL    HW220139   4.595   5.239   4.000
 6414SOL     OW20140   1.101   6.798   0.111
 6414SOL    HW120141   1.192   6.809   0.070
 6414SOL    HW220142   1.074   6.884   0.156
 6415SOL     OW20143   1.026   2.457   3.337
 6415SOL    HW120144   0.975   2.521   3.394
 6415SOL    HW220145   1.102   2.504   3.294
 6416SOL     OW20146   2.836   0.709   6.653
 6416SOL    HW120147   2.755   0.652   6.651
 6416SOL    HW220148   2.816   0.794   6.703
 6417SOL     OW20149   4.506   1.616   0.858
 6417SOL    HW120150   4.413   1.653   0.862
 6417SOL    HW220151   4.563   1.676   0.801
 6418SOL     OW20152   4.399   5.191   1.458
 6418SOL    HW120153   4.454   5.108   1.463
 6418SOL    HW220154   4.333   5.192   1.534
 6419SOL     OW20155   0.556   6.535   6.737
 6419SOL    HW120156   0.497   6.614   6.720
 6419SOL    HW220157   0.649   6.555   6.706
 6420SOL     OW20158   1.924   3.584   4.155
 6420SOL    HW120159   1.941   3.517   4.228
 6420SOL    HW220160   1.844   3.639   4.179
 6421SOL     OW20161   4.986   0.048   1.570
 6421SOL    HW120162   4.925   0.070   1.646
 6421SOL    HW220163   4.932   0.014   1.493
 6422SOL     OW20164   6.389   2.467   4.762
 6422SOL    HW120165   6.340   2.506   4.840
 6422SOL    HW220166   6.482   2.505   4.760
 6423SOL     OW20167   2.232   4.454   4.550
 6423SOL    HW120168   2.162   4.394   4.588
 6423SOL    HW220169   2.258   4.421   4.459
 6424SOL     OW20170   0.112   4.301   4.968
 6424SOL    HW120171   0.200   4.291   4.921
 6424SOL    HW220172   0.123   4.363   5.046
 6425SOL     OW20173   0.511   6.181   2.862
 6425SOL    HW120174   0.529   6.270   2.906
 6425SOL    HW220175   0.416   6.156   2.875
 6426SOL     OW20176   4.468   4.556   4.648
 6426SOL    HW120177   4.471   4.553   4.748
 6426SOL    HW220178   4.527   4.485   4.610
 6427SOL     OW20179   2.918   3.340   3.707
 6427SOL    HW120180   2.930   3.258   3.650
 6427SOL    HW220181   2.934   3.422   3.652
 6428SOL     OW20182   5.051   2.466   0.149
 6428SOL    HW120183   4.983   2.521   0.199
 6428SOL    HW220184   5.115   2.527   0.103
 6429SOL     OW20185   2.509   0.726   5.685
 6429SOL    HW120186   2.525   0.798   5.618
 6429SOL    HW220187   2.507   0.637   5.639
 6430SOL     OW20188   6.868   0.331   4.805
 6430SOL    HW120189   6.824   0.259   4.859
 6430SOL    HW220190   6.801   0.400   4.780
 6431SOL     OW20191   3.988   4.946   1.827
 6431SOL    HW120192   4.016   4.929   1.922
 6431SOL    HW220193   3.888   4.950   1.822
 6432SOL     OW20194   4.213   4.499   6.091
 6432SOL    HW120195   4.262   4.485   6.177
 6432SOL    HW220196   4.149   4.574   6.101
 6433SOL     OW20197   2.678   5.662   6.444
 6433SOL    HW120198   2.724   5.630   6.361
 6433SOL    HW220199   2.584   5.628   6.445
 6434SOL     OW20200   3.448   5.476   5.846
 6434SOL    HW120201   3.396   5.532   5.783
 6434SOL    HW220202   3.411   5.487   5.939
 6435SOL     OW20203   5.220   1.176   0.561
 6435SOL    HW120204   5.220   1.275   0.575
 6435SOL    HW220205   5.303   1.137   0.599
 6436SOL     OW20206   6.999   3.825   3.903
 6436SOL    HW120207   7.017   3.844   4.000
 6436SOL    HW220208   6.985   3.727   3.891
 6437SOL     OW20209   0.649   1.268   5.688
 6437SOL    HW120210   0.642   1.291   5.785
 6437SOL    HW220211   0.672   1.350   5.635
 6438SOL     OW20212   0.549   5.772   0.353
 6438SOL    HW120213   0.535   5.839   0.427
 6438SOL    HW220214   0.476   5.782   0.286
 6439SOL     OW20215   5.213   6.928   3.338
 6439SOL    HW120216   5.160   6.911   3.255
 6439SOL    HW220217   5.193   7.019   3.373
 6440SOL     OW20218   2.348   1.489   6.199
 6440SOL    HW120219   2.249   1.477   6.213
 6440SOL    HW220220   2.379   1.425   6.129
 6441SOL     OW20221   0.264   0.879   2.399
 6441SOL    HW120222   0.313   0.966   2.402
 6441SOL    HW220223   0.261   0.839   2.491
 6442SOL     OW20224   2.994   2.712   5.522
 6442SOL    HW120225   3.046   2.655   5.460
 6442SOL    HW220226   3.042   2.719   5.609
 6443SOL     OW20227   4.508   2.474   1.129
 6443SOL    HW120228   4.556   2.432   1.052
 6443SOL    HW220229   4.429   2.525   1.096
 6444SOL     OW20230   0.152   3.227   5.079
 6444SOL    HW120231   0.221   3.175   5.029
 6444SOL    HW220232   0.197   3.286   5.146
 6445SOL     OW20233   3.012   3.930   3.244
 6445SOL    HW120234   2.922   3.950   3.282
 6445SOL    HW220235   3.081   3.941   3.315
 6446SOL     OW20236   2.355   1.740   6.860
 6446SOL    HW120237   2.264   1.721   6.823
 6446SOL    HW220238   2.363   1.838   6.880
 6447SOL     OW20239   6.445   4.425   0.967
 6447SOL    HW120240   6.379   4.437   0.892
 6447SOL    HW220241   6.519   4.491   0.957
 6448SOL     OW20242   4.846   5.218   1.654
 6448SOL    HW120243   4.811   5.309   1.629
 6448SOL    HW220244   4.780   5.172   1.712
 6449SOL     OW20245   2.205   5.857   1.448
 6449SOL    HW120246   2.237   5.766   1.420
 6449SOL    HW220247   2.105   5.858   1.447
 6450SOL     OW20248   0.212   3.740   0.759
 6450SOL    HW120249   0.275   3.691   0.820
 6450SOL    HW220250   0.245   3.736   0.665
 6451SOL     OW20251   3.406   2.572   1.304
 6451SOL    HW120252   3.502   2.547   1.317
 6451SOL    HW220253   3.370   2.614   1.387
 6452SOL     OW20254   5.263   2.819   3.263
 6452SOL    HW120255   5.289   2.912   3.235
 6452SOL    HW220256   5.335   2.755   3.237
 6453SOL     OW20257   3.574   0.083   0.844
 6453SOL    HW120258   3.629   0.004   0.869
 6453SOL    HW220259   3.588   0.104   0.747
 6454SOL     OW20260   6.072   2.640   2.825
 6454SOL    HW120261   5.975   2.631   2.799
 6454SOL    HW220262   6.091   2.736   2.849
 6455SOL     OW20263   6.266   3.738   3.457
 6455SOL    HW120264   6.196   3.675   3.423
 6455SOL    HW220265   6.258   3.748   3.556
 6456SOL     OW20266   6.377   1.474   3.062
 6456SOL    HW120267   6.397   1.569   3.035
 6456SOL    HW220268   6.279   1.463   3.074
 6457SOL     OW20269   4.698   0.333   1.918
 6457SOL    HW120270   4.722   0.415   1.865
 6457SOL    HW220271   4.599   0.328   1.928
 6458SOL     OW20272   1.020   5.016   3.748
 6458SOL    HW120273   0.956   4.962   3.693
 6458SOL    HW220274   1.113   4.985   3.730
 6459SOL     OW20275   6.365   2.993   2.818
 6459SOL    HW120276   6.423   2.945   2.753
 6459SOL    HW220277   6.323   3.072   2.774
 6460SOL     OW20278   0.154   5.677   6.656
 6460SOL    HW120279   0.116   5.702   6.745
 6460SOL    HW220280   0.219   5.747   6.626
 6461SOL     OW20281   2.910   4.921   1.425
 6461SOL    HW120282   2.871   4.956   1.509
 6461SOL    HW220283   2.953   4.832   1.442
 6462SOL     OW20284   1.351   4.144   5.110
 6462SOL    HW120285   1.420   4.071   5.107
 6462SOL    HW220286   1.326   4.161   5.206
 6463SOL     OW20287   4.112   1.211   1.296
 6463SOL    HW120288   4.082   1.120   1.265
 6463SOL    HW220289   4.162   1.256   1.222
 6464SOL     OW20290   1.070   5.767   4.341
 6464SOL    HW120291   1.119   5.737   4.423
 6464SOL    HW220292   1.099   5.859   4.317
 6465SOL     OW20293   4.693   1.989   3.627
 6465SOL    HW120294   4.689   2.071   3.569
 6465SOL    HW220295   4.700   2.017   3.723
 6466SOL     OW20296   0.540   3.445   0.236
 6466SOL    HW120297   0.594   3.406   0.162
 6466SOL    HW220298   0.555   3.393   0.320
 6467SOL     OW20299   3.289   1.230   1.203
 6467SOL    HW120300   3.386   1.243   1.182
 6467SOL    HW220301   3.261   1.295   1.274
 6468SOL     OW20302   3.185   0.380   0.257
 6468SOL    HW120303   3.235   0.464   0.237
 6468SOL    HW220304   3.135   0.391   0.344
 6469SOL     OW20305   3.594   1.748   3.019
 6469SOL    HW120306   3.649   1.730   2.937
 6469SOL    HW220307   3.507   1.789   2.992
 6470SOL     OW20308   6.384   2.465   6.944
 6470SOL    HW120309   6.347   2.520   7.018
 6470SOL    HW220310   6.313   2.448   6.876
 6471SOL     OW20311   0.184   6.417   4.919
 6471SOL    HW120312   0.164   6.349   4.989
 6471SOL    HW220313   0.115   6.414   4.847
 6472SOL     OW20314   6.923   5.925   2.566
 6472SOL    HW120315   6.856   5.907   2.638
 6472SOL    HW220316   6.997   5.981   2.604
 6473SOL     OW20317   2.196   1.169   4.006
 6473SOL    HW120318   2.274   1.107   4.017
 6473SOL    HW220319   2.227   1.263   4.019
 6474SOL     OW20320   3.861   6.020   4.993
 6474SOL    HW120321   3.800   5.962   5.048
 6474SOL    HW220322   3.951   5.976   4.986
 6475SOL     OW20323   5.723   4.784   3.189
 6475SOL    HW120324   5.799   4.822   3.135
 6475SOL    HW220325   5.728   4.684   3.187
 6476SOL     OW20326   4.138   1.369   6.345
 6476SOL    HW120327   4.065   1.428   6.309
 6476SOL    HW220328   4.212   1.364   6.278
 6477SOL     OW20329   6.613   6.132   1.614
 6477SOL    HW120330   6.683   6.145   1.683
 6477SOL    HW220331   6.655   6.102   1.528
 6478SOL     OW20332   3.594   5.901   1.648
 6478SOL    HW120333   3.668   5.946   1.599
 6478SOL    HW220334   3.549   5.967   1.709
 6479SOL     OW20335   3.452   6.426   4.002
 6479SOL    HW120336   3.447   6.367   4.082
 6479SOL    HW220337   3.489   6.515   4.028
 6480SOL     OW20338   3.425   1.084   6.973
 6480SOL    HW120339   3.418   1.174   7.016
 6480SOL    HW220340   3.475   1.022   0.010
 6481SOL     OW20341   3.293   2.643   1.674
 6481SOL    HW120342   3.218   2.678   1.730
 6481SOL    HW220343   3.267   2.555   1.634
 6482SOL     OW20344   6.607   3.401   5.291
 6482SOL    HW120345   6.558   3.314   5.285
 6482SOL    HW220346   6.557   3.470   5.239
 6483SOL     OW20347   0.980   5.772   5.201
 6483SOL    HW120348   1.032   5.819   5.273
 6483SOL    HW220349   1.043   5.743   5.129
 6484SOL     OW20350   2.725   0.955   4.197
 6484SOL    HW120351   2.750   0.970   4.293
 6484SOL    HW220352   2.636   0.910   4.193
 6485SOL     OW20353   2.154   0.041   4.503
 6485SOL    HW120354   2.055   0.033   4.516
 6485SOL    HW220355   2.173   0.058   4.406
 6486SOL     OW20356   1.746   5.265   2.993
 6486SOL    HW120357   1.704   5.270   2.902
 6486SOL    HW220358   1.804   5.345   3.008
 6487SOL     OW20359   0.257   4.441   4.400
 6487SOL    HW120360   0.260   4.503   4.321
 6487SOL    HW220361   0.307   4.358   4.378
 6488SOL     OW20362   4.582   5.464   4.473
 6488SOL    HW120363   4.625   5.551   4.448
 6488SOL    HW220364   4.488   5.462   4.440
 6489SOL     OW20365   4.123   2.847   6.300
 6489SOL    HW120366   4.042   2.900   6.275
 6489SOL    HW220367   4.203   2.883   6.252
 6490SOL     OW20368   1.779   2.085   6.472
 6490SOL    HW120369   1.794   2.168   6.527
 6490SOL    HW220370   1.865   2.036   6.462
 6491SOL     OW20371   1.241   0.546   0.260
 6491SOL    HW120372   1.300   0.466   0.244
 6491SOL    HW220373   1.146   0.521   0.245
 6492SOL     OW20374   3.687   3.719   4.980
 6492SOL    HW120375   3.590   3.697   4.976
 6492SOL    HW220376   3.741   3.635   4.975
 6493SOL     OW20377   0.981   4.385   5.996
 6493SOL    HW120378   0.929   4.315   6.046
 6493SOL    HW220379   0.960   4.475   6.033
 6494SOL     OW20380   6.137   6.751   2.014
 6494SOL    HW120381   6.061   6.755   2.079
 6494SOL    HW220382   6.136   6.663   1.966
 6495SOL     OW20383   0.200   0.029   3.605
 6495SOL    HW120384   0.263   0.074   3.668
 6495SOL    HW220385   0.107   0.058   3.624
 6496SOL     OW20386   5.099   0.484   1.962
 6496SOL    HW120387   5.167   0.467   1.891
 6496SOL    HW220388   5.140   0.472   2.052
 6497SOL     OW20389   0.236   1.624   0.904
 6497SOL    HW120390   0.266   1.575   0.823
 6497SOL    HW220391   0.222   1.720   0.882
 6498SOL     OW20392   1.264   4.291   3.637
 6498SOL    HW120393   1.263   4.192   3.625
 6498SOL    HW220394   1.255   4.313   3.735
 6499SOL     OW20395   5.909   3.960   4.124
 6499SOL    HW120396   5.816   3.973   4.089
 6499SOL    HW220397   5.916   3.870   4.167
 6500SOL     OW20398   1.450   3.630   2.651
 6500SOL    HW120399   1.466   3.611   2.554
 6500SOL    HW220400   1.492   3.717   2.675
 6501SOL     OW20401   6.358   2.130   1.248
 6501SOL    HW120402   6.262   2.111   1.271
 6501SOL    HW220403   6.410   2.045   1.246
 6502SOL     OW20404   6.229   3.832   1.875
 6502SOL    HW120405   6.179   3.772   1.812
 6502SOL    HW220406   6.206   3.807   1.969
 6503SOL     OW20407   6.705   3.242   5.564
 6503SOL    HW120408   6.615   3.271   5.533
 6503SOL    HW220409   6.711   3.142   5.560
 6504SOL     OW20410   4.463   6.159   6.623
 6504SOL    HW120411   4.384   6.116   6.581
 6504SOL    HW220412   4.542   6.151   6.562
 6505SOL     OW20413   5.983   5.667   6.899
 6505SOL    HW120414   5.986   5.570   6.876
 6505SOL    HW220415   5.938   5.718   6.825
 6506SOL     OW20416   0.348   3.144   2.835
 6506SOL    HW120417   0.266   3.162   2.780
 6506SOL    HW220418   0.396   3.230   2.852
 6507SOL     OW20419   4.027   4.572   6.780
 6507SOL    HW120420   4.012   4.483   6.824
 6507SOL    HW220421   4.114   4.571   6.731
 6508SOL     OW20422   1.333   6.568   1.733
 6508SOL    HW120423   1.394   6.525   1.667
 6508SOL    HW220424   1.315   6.504   1.808
 6509SOL     OW20425   3.772   1.568   5.595
 6509SOL    HW120426   3.843   1.559   5.665
 6509SOL    HW220427   3.682   1.568   5.638
 6510SOL     OW20428   4.503   6.205   5.938
 6510SOL    HW120429   4.518   6.195   6.036
 6510SOL    HW220430   4.464   6.295   5.919
 6511SOL     OW20431   3.232   0.844   0.262
 6511SOL    HW120432   3.151   0.826   0.206
 6511SOL    HW220433   3.259   0.939   0.252
 6512SOL     OW20434   3.350   0.802   1.116
 6512SOL    HW120435   3.389   0.886   1.155
 6512SOL    HW220436   3.340   0.813   1.017
 6513SOL     OW20437   2.765   5.383   4.416
 6513SOL    HW120438   2.741   5.411   4.508
 6513SOL    HW220439   2.701   5.424   4.350
 6514SOL     OW20440   5.871   0.295   5.609
 6514SOL    HW120441   5.966   0.307   5.581
 6514SOL    HW220442   5.839   0.205   5.578
 6515SOL     OW20443   2.073   5.161   2.279
 6515SOL    HW120444   2.150   5.191   2.223
 6515SOL    HW220445   2.107   5.108   2.356
 6516SOL     OW20446   0.139   3.285   1.018
 6516SOL    HW120447   0.190   3.239   1.091
 6516SOL    HW220448   0.041   3.273   1.033
 6517SOL     OW20449   6.650   2.822   6.631
 6517SOL    HW120450   6.664   2.819   6.532
 6517SOL    HW220451   6.628   2.915   6.659
 6518SOL     OW20452   1.161   1.449   2.955
 6518SOL    HW120453   1.112   1.503   3.023
 6518SOL    HW220454   1.097   1.386   2.911
 6519SOL     OW20455   1.318   1.636   3.262
 6519SOL    HW120456   1.379   1.701   3.217
 6519SOL    HW220457   1.288   1.674   3.350
 6520SOL     OW20458   0.290   5.761   0.210
 6520SOL    HW120459   0.294   5.843   0.153
 6520SOL    HW220460   0.209   5.764   0.268
 6521SOL     OW20461   1.563   3.016   4.137
 6521SOL    HW120462   1.558   3.112   4.110
 6521SOL    HW220463   1.488   2.966   4.093
 6522SOL     OW20464   2.610   3.901   5.280
 6522SOL    HW120465   2.529   3.945   5.241
 6522SOL    HW220466   2.589   3.805   5.300
 6523SOL     OW20467   5.833   0.611   0.304
 6523SOL    HW120468   5.742   0.573   0.322
 6523SOL    HW220469   5.876   0.560   0.230
 6524SOL     OW20470   2.216   2.511   1.286
 6524SOL    HW120471   2.122   2.540   1.304
 6524SOL    HW220472   2.260   2.577   1.225
 6525SOL     OW20473   1.319   4.820   3.424
 6525SOL    HW120474   1.283   4.804   3.516
 6525SOL    HW220475   1.342   4.917   3.414
 6526SOL     OW20476   0.219   0.206   0.583
 6526SOL    HW120477   0.249   0.296   0.553
 6526SOL    HW220478   0.298   0.150   0.606
 6527SOL     OW20479   0.861   2.627   0.352
 6527SOL    HW120480   0.849   2.612   0.254
 6527SOL    HW220481   0.780   2.673   0.389
 6528SOL     OW20482   6.052   0.861   5.783
 6528SOL    HW120483   5.957   0.868   5.753
 6528SOL    HW220484   6.092   0.777   5.748
 6529SOL     OW20485   6.790   1.484   2.285
 6529SOL    HW120486   6.885   1.451   2.285
 6529SOL    HW220487   6.729   1.409   2.257
 6530SOL     OW20488   0.610   2.499   2.213
 6530SOL    HW120489   0.565   2.588   2.217
 6530SOL    HW220490   0.685   2.502   2.147
 6531SOL     OW20491   3.914   3.274   5.611
 6531SOL    HW120492   3.910   3.347   5.679
 6531SOL    HW220493   3.840   3.209   5.627
 6532SOL     OW20494   1.331   0.540   0.816
 6532SOL    HW120495   1.323   0.558   0.914
 6532SOL    HW220496   1.336   0.627   0.767
 6533SOL     OW20497   4.106   3.785   6.821
 6533SOL    HW120498   4.123   3.728   6.741
 6533SOL    HW220499   4.162   3.753   6.898
 6534SOL     OW20500   6.148   5.127   2.346
 6534SOL    HW120501   6.128   5.224   2.362
 6534SOL    HW220502   6.066   5.073   2.362
 6535SOL     OW20503   6.240   3.358   5.141
 6535SOL    HW120504   6.229   3.264   5.173
 6535SOL    HW220505   6.264   3.416   5.219
 6536SOL     OW20506   0.600   3.380   5.333
 6536SOL    HW120507   0.612   3.282   5.316
 6536SOL    HW220508   0.590   3.395   5.432
 6537SOL     OW20509   6.053   4.693   4.633
 6537SOL    HW120510   6.089   4.678   4.725
 6537SOL    HW220511   5.974   4.634   4.618
 6538SOL     OW20512   2.322   3.602   5.320
 6538SOL    HW120513   2.419   3.591   5.341
 6538SOL    HW220514   2.269   3.531   5.366
 6539SOL     OW20515   6.290   0.683   6.281
 6539SOL    HW120516   6.351   0.684   6.202
 6539SOL    HW220517   6.341   0.710   6.363
 6540SOL     OW20518   4.461   2.448   6.077
 6540SOL    HW120519   4.529   2.446   6.004
 6540SOL    HW220520   4.384   2.506   6.050
 6541SOL     OW20521   5.927   1.199   4.728
 6541SOL    HW120522   6.026   1.187   4.732
 6541SOL    HW220523   5.883   1.128   4.783
 6542SOL     OW20524   1.617   3.443   4.743
 6542SOL    HW120525   1.680   3.512   4.779
 6542SOL    HW220526   1.523   3.471   4.761
 6543SOL     OW20527   3.901   2.089   4.833
 6543SOL    HW120528   3.965   2.127   4.900
 6543SOL    HW220529   3.869   2.161   4.772
 6544SOL     OW20530   0.949   6.778   1.504
 6544SOL    HW120531   0.980   6.872   1.507
 6544SOL    HW220532   0.970   6.737   1.415
 6545SOL     OW20533   4.316   0.323   1.155
 6545SOL    HW120534   4.410   0.354   1.139
 6545SOL    HW220535   4.290   0.260   1.082
 6546SOL     OW20536   5.243   3.997   6.074
 6546SOL    HW120537   5.173   3.952   6.019
 6546SOL    HW220538   5.205   4.076   6.120
 6547SOL     OW20539   5.737   5.821   0.281
 6547SOL    HW120540   5.652   5.776   0.307
 6547SOL    HW220541   5.804   5.752   0.253
 6548SOL     OW20542   0.712   2.514   5.586
 6548SOL    HW120543   0.676   2.585   5.525
 6548SOL    HW220544   0.724   2.551   5.678
 6549SOL     OW20545   5.148   6.908   1.768
 6549SOL    HW120546   5.151   6.928   1.670
 6549SOL    HW220547   5.198   6.979   1.818
 6550SOL     OW20548   6.573   6.937   3.173
 6550SOL    HW120549   6.490   6.885   3.151
 6550SOL    HW220550   6.552   7.003   3.245
 6551SOL     OW20551   3.063   3.438   1.673
 6551SOL    HW120552   2.999   3.445   1.750
 6551SOL    HW220553   3.109   3.525   1.660
 6552SOL     OW20554   2.160   0.245   0.327
 6552SOL    HW120555   2.139   0.155   0.363
 6552SOL    HW220556   2.258   0.264   0.338
 6553SOL     OW20557   0.107   0.805   2.872
 6553SOL    HW120558   0.112   0.904   2.883
 6553SOL    HW220559   0.039   0.768   2.936
 6554SOL     OW20560   3.222   1.084   4.551
 6554SOL    HW120561   3.284   1.036   4.488
 6554SOL    HW220562   3.136   1.033   4.557
 6555SOL     OW20563   6.557   1.920   4.454
 6555SOL    HW120564   6.532   2.006   4.409
 6555SOL    HW220565   6.475   1.864   4.466
 6556SOL     OW20566   5.916   3.198   3.741
 6556SOL    HW120567   5.938   3.112   3.786
 6556SOL    HW220568   5.818   3.216   3.751
 6557SOL     OW20569   1.732   6.710   2.344
 6557SOL    HW120570   1.674   6.641   2.387
 6557SOL    HW220571   1.677   6.789   2.316
 6558SOL     OW20572   5.358   4.874   0.478
 6558SOL    HW120573   5.277   4.899   0.532
 6558SOL    HW220574   5.372   4.942   0.407
 6559SOL     OW20575   6.233   2.812   6.052
 6559SOL    HW120576   6.158   2.860   6.098
 6559SOL    HW220577   6.307   2.877   6.033
 6560SOL     OW20578   4.836   4.876   0.629
 6560SOL    HW120579   4.882   4.910   0.547
 6560SOL    HW220580   4.899   4.883   0.707
 6561SOL     OW20581   3.653   5.246   0.475
 6561SOL    HW120582   3.737   5.215   0.430
 6561SOL    HW220583   3.574   5.220   0.418
 6562SOL     OW20584   6.018   2.452   0.918
 6562SOL    HW120585   6.030   2.354   0.899
 6562SOL    HW220586   6.033   2.468   1.015
 6563SOL     OW20587   5.234   6.787   4.884
 6563SOL    HW120588   5.205   6.879   4.909
 6563SOL    HW220589   5.240   6.779   4.785
 6564SOL     OW20590   0.120   4.015   2.570
 6564SOL    HW120591   0.067   3.989   2.652
 6564SOL    HW220592   0.183   3.941   2.547
 6565SOL     OW20593   5.930   6.936   2.340
 6565SOL    HW120594   5.855   6.979   2.290
 6565SOL    HW220595   5.902   6.919   2.435
 6566SOL     OW20596   3.893   6.061   2.420
 6566SOL    HW120597   3.809   6.087   2.467
 6566SOL    HW220598   3.913   6.126   2.347
 6567SOL     OW20599   4.376   0.883   1.314
 6567SOL    HW120600   4.282   0.902   1.342
 6567SOL    HW220601   4.386   0.785   1.298
 6568SOL     OW20602   3.461   0.889   1.612
 6568SOL    HW120603   3.532   0.889   1.542
 6568SOL    HW220604   3.444   0.796   1.643
 6569SOL     OW20605   1.091   3.449   5.569
 6569SOL    HW120606   1.045   3.533   5.596
 6569SOL    HW220607   1.164   3.471   5.504
 6570SOL     OW20608   3.940   6.932   1.966
 6570SOL    HW120609   3.844   6.906   1.975
 6570SOL    HW220610   3.948   7.008   1.901
 6571SOL     OW20611   2.548   4.962   3.624
 6571SOL    HW120612   2.573   4.871   3.590
 6571SOL    HW220613   2.484   5.004   3.560
 6572SOL     OW20614   0.351   5.729   4.131
 6572SOL    HW120615   0.251   5.730   4.122
 6572SOL    HW220616   0.388   5.817   4.102
 6573SOL     OW20617   2.277   1.128   3.000
 6573SOL    HW120618   2.373   1.123   2.971
 6573SOL    HW220619   2.268   1.199   3.069
 6574SOL     OW20620   2.127   5.828   2.133
 6574SOL    HW120621   2.145   5.901   2.067
 6574SOL    HW220622   2.200   5.825   2.201
 6575SOL     OW20623   0.089   0.257   2.609
 6575SOL    HW120624   0.040   0.344   2.606
 6575SOL    HW220625   0.181   0.272   2.645
 6576SOL     OW20626   3.562   5.519   0.491
 6576SOL    HW120627   3.530   5.534   0.584
 6576SOL    HW220628   3.612   5.432   0.487
 6577SOL     OW20629   2.291   1.926   4.260
 6577SOL    HW120630   2.194   1.918   4.284
 6577SOL    HW220631   2.331   2.004   4.309
 6578SOL     OW20632   1.697   5.297   1.584
 6578SOL    HW120633   1.756   5.268   1.508
 6578SOL    HW220634   1.685   5.221   1.648
 6579SOL     OW20635   0.187   1.279   3.759
 6579SOL    HW120636   0.096   1.320   3.761
 6579SOL    HW220637   0.230   1.288   3.848
 6580SOL     OW20638   0.739   0.048   6.851
 6580SOL    HW120639   0.820   0.099   6.878
 6580SOL    HW220640   0.696   0.007   6.931
 6581SOL     OW20641   1.758   1.795   6.870
 6581SOL    HW120642   1.846   1.792   6.823
 6581SOL    HW220643   1.704   1.715   6.845
 6582SOL     OW20644   6.185   0.866   2.930
 6582SOL    HW120645   6.241   0.803   2.983
 6582SOL    HW220646   6.098   0.822   2.907
 6583SOL     OW20647   4.244   6.523   6.656
 6583SOL    HW120648   4.158   6.502   6.608
 6583SOL    HW220649   4.302   6.579   6.596
 6584SOL     OW20650   3.396   2.432   0.846
 6584SOL    HW120651   3.313   2.465   0.803
 6584SOL    HW220652   3.457   2.509   0.867
 6585SOL     OW20653   6.197   6.859   0.802
 6585SOL    HW120654   6.122   6.801   0.771
 6585SOL    HW220655   6.283   6.826   0.763
 6586SOL     OW20656   6.139   2.442   5.709
 6586SOL    HW120657   6.228   2.475   5.742
 6586SOL    HW220658   6.115   2.357   5.757
 6587SOL     OW20659   1.479   4.068   5.756
 6587SOL    HW120660   1.476   3.983   5.702
 6587SOL    HW220661   1.562   4.119   5.734
 6588SOL     OW20662   0.471   3.080   0.314
 6588SOL    HW120663   0.571   3.080   0.308
 6588SOL    HW220664   0.444   3.120   0.402
 6589SOL     OW20665   6.692   0.951   1.506
 6589SOL    HW120666   6.683   0.855   1.532
 6589SOL    HW220667   6.601   0.991   1.493
 6590SOL     OW20668   0.863   0.717   4.892
 6590SOL    HW120669   0.891   0.626   4.922
 6590SOL    HW220670   0.930   0.753   4.828
 6591SOL     OW20671   5.066   5.162   4.525
 6591SOL    HW120672   5.030   5.082   4.574
 6591SOL    HW220673   4.999   5.191   4.456
 6592SOL     OW20674   4.943   6.711   2.909
 6592SOL    HW120675   5.002   6.787   2.883
 6592SOL    HW220676   4.870   6.701   2.841
 6593SOL     OW20677   2.652   2.349   2.476
 6593SOL    HW120678   2.606   2.409   2.410
 6593SOL    HW220679   2.614   2.366   2.567
 6594SOL     OW20680   3.963   1.498   6.165
 6594SOL    HW120681   4.003   1.577   6.119
 6594SOL    HW220682   3.948   1.425   6.099
 6595SOL     OW20683   2.000   2.397   4.926
 6595SOL    HW120684   2.044   2.347   5.000
 6595SOL    HW220685   1.903   2.371   4.922
 6596SOL     OW20686   5.269   5.453   2.563
 6596SOL    HW120687   5.199   5.506   2.515
 6596SOL    HW220688   5.288   5.495   2.651
 6597SOL     OW20689   1.066   5.270   2.549
 6597SOL    HW120690   1.144   5.260   2.610
 6597SOL    HW220691   0.982   5.249   2.599
 6598SOL     OW20692   1.954   4.630   4.369
 6598SOL    HW120693   1.939   4.728   4.367
 6598SOL    HW220694   1.973   4.596   4.277
 6599SOL     OW20695   5.865   6.446   6.246
 6599SOL    HW120696   5.775   6.472   6.281
 6599SOL    HW220697   5.869   6.464   6.148
 6600SOL     OW20698   4.730   6.870   5.387
 6600SOL    HW120699   4.650   6.827   5.428
 6600SOL    HW220700   4.702   6.933   5.315
 6601SOL     OW20701   1.282   3.078   2.715
 6601SOL    HW120702   1.266   3.136   2.635
 6601SOL    HW220703   1.378   3.084   2.742
 6602SOL     OW20704   1.981   0.229   1.401
 6602SOL    HW120705   2.007   0.152   1.343
 6602SOL    HW220706   1.974   0.312   1.346
 6603SOL     OW20707   0.339   2.698   3.493
 6603SOL    HW120708   0.402   2.763   3.451
 6603SOL    HW220709   0.251   2.701   3.445
 6604SOL     OW20710   2.286   6.759   1.763
 6604SOL    HW120711   2.205   6.803   1.801
 6604SOL    HW220712   2.368   6.791   1.811
 6605SOL     OW20713   6.257   5.470   1.719
 6605SOL    HW120714   6.296   5.452   1.629
 6605SOL    HW220715   6.158   5.464   1.715
 6606SOL     OW20716   1.684   3.360   3.859
 6606SOL    HW120717   1.675   3.450   3.816
 6606SOL    HW220718   1.750   3.305   3.807
 6607SOL     OW20719   5.733   4.129   3.715
 6607SOL    HW120720   5.822   4.103   3.752
 6607SOL    HW220721   5.728   4.103   3.619
 6608SOL     OW20722   6.855   6.958   6.517
 6608SOL    HW120723   6.870   6.938   6.614
 6608SOL    HW220724   6.903   0.019   6.493
 6609SOL     OW20725   4.706   2.175   5.628
 6609SOL    HW120726   4.773   2.129   5.687
 6609SOL    HW220727   4.753   2.248   5.577
 6610SOL     OW20728   2.879   5.637   1.231
 6610SOL    HW120729   2.963   5.667   1.278
 6610SOL    HW220730   2.867   5.539   1.246
 6611SOL     OW20731   5.297   2.040   3.882
 6611SOL    HW120732   5.284   1.985   3.799
 6611SOL    HW220733   5.227   2.016   3.949
 6612SOL     OW20734   5.690   2.073   6.487
 6612SOL    HW120735   5.785   2.068   6.517
 6612SOL    HW220736   5.670   2.166   6.457
 6613SOL     OW20737   5.127   0.340   6.614
 6613SOL    HW120738   5.076   0.409   6.563
 6613SOL    HW220739   5.074   0.255   6.619
 6614SOL     OW20740   4.571   5.742   1.987
 6614SOL    HW120741   4.530   5.797   2.059
 6614SOL    HW220742   4.503   5.680   1.949
 6615SOL     OW20743   2.994   5.718   0.457
 6615SOL    HW120744   2.985   5.621   0.431
 6615SOL    HW220745   2.970   5.729   0.553
 6616SOL     OW20746   4.738   0.494   6.410
 6616SOL    HW120747   4.754   0.487   6.508
 6616SOL    HW220748   4.659   0.437   6.385
 6617SOL     OW20749   3.912   0.721   3.532
 6617SOL    HW120750   3.911   0.678   3.441
 6617SOL    HW220751   3.976   0.672   3.591
 6618SOL     OW20752   0.582   1.837   3.556
 6618SOL    HW120753   0.522   1.817   3.633
 6618SOL    HW220754   0.647   1.762   3.543
 6619SOL     OW20755   4.639   6.251   4.352
 6619SOL    HW120756   4.739   6.256   4.345
 6619SOL    HW220757   4.598   6.325   4.299
 6620SOL     OW20758   0.553   3.538   3.707
 6620SOL    HW120759   0.455   3.547   3.723
 6620SOL    HW220760   0.569   3.474   3.632
 6621SOL     OW20761   4.112   3.329   5.180
 6621SOL    HW120762   4.043   3.278   5.129
 6621SOL    HW220763   4.181   3.265   5.214
 6622SOL     OW20764   6.518   5.682   0.921
 6622SOL    HW120765   6.518   5.614   0.995
 6622SOL    HW220766   6.477   5.767   0.954
 6623SOL     OW20767   3.581   4.733   5.635
 6623SOL    HW120768   3.507   4.684   5.680
 6623SOL    HW220769   3.625   4.673   5.568
 6624SOL     OW20770   0.810   2.537   4.583
 6624SOL    HW120771   0.882   2.590   4.537
 6624SOL    HW220772   0.786   2.458   4.527
 6625SOL     OW20773   5.943   3.030   5.134
 6625SOL    HW120774   5.957   2.970   5.212
 6625SOL    HW220775   5.859   3.003   5.086
 6626SOL     OW20776   2.930   6.870   4.567
 6626SOL    HW120777   2.980   6.810   4.505
 6626SOL    HW220778   2.874   6.934   4.514
 6627SOL     OW20779   1.217   5.860   4.584
 6627SOL    HW120780   1.243   5.797   4.657
 6627SOL    HW220781   1.297   5.881   4.528
 6628SOL     OW20782   4.825   5.506   3.886
 6628SOL    HW120783   4.887   5.533   3.959
 6628SOL    HW220784   4.877   5.463   3.813
 6629SOL     OW20785   5.361   5.982   0.015
 6629SOL    HW120786   5.335   6.011   0.107
 6629SOL    HW220787   5.288   6.005   6.974
 6630SOL     OW20788   2.262   1.573   1.648
 6630SOL    HW120789   2.323   1.497   1.628
 6630SOL    HW220790   2.203   1.590   1.569
 6631SOL     OW20791   1.629   4.840   6.090
 6631SOL    HW120792   1.603   4.835   5.993
 6631SOL    HW220793   1.624   4.935   6.121
 6632SOL     OW20794   1.170   0.204   0.445
 6632SOL    HW120795   1.215   0.142   0.509
 6632SOL    HW220796   1.172   0.297   0.482
 6633SOL     OW20797   3.092   5.539   6.357
 6633SOL    HW120798   3.031   5.569   6.430
 6633SOL    HW220799   3.076   5.443   6.337
 6634SOL     OW20800   4.995   1.780   5.427
 6634SOL    HW120801   4.964   1.695   5.469
 6634SOL    HW220802   5.069   1.762   5.363
 6635SOL     OW20803   5.404   4.391   2.424
 6635SOL    HW120804   5.344   4.344   2.488
 6635SOL    HW220805   5.349   4.444   2.360
 6636SOL     OW20806   3.332   0.040   2.131
 6636SOL    HW120807   3.239   0.031   2.097
 6636SOL    HW220808   3.372   0.125   2.098
 6637SOL     OW20809   1.516   0.895   1.009
 6637SOL    HW120810   1.434   0.853   1.047
 6637SOL    HW220811   1.498   0.923   0.914
 6638SOL     OW20812   3.168   4.031   3.725
 6638SOL    HW120813   3.156   3.999   3.819
 6638SOL    HW220814   3.222   4.115   3.725
 6639SOL     OW20815   4.517   2.742   0.956
 6639SOL    HW120816   4.433   2.688   0.952
 6639SOL    HW220817   4.541   2.759   1.051
 6640SOL     OW20818   0.789   2.745   5.162
 6640SOL    HW120819   0.797   2.735   5.063
 6640SOL    HW220820   0.879   2.763   5.201
 6641SOL     OW20821   3.701   1.928   0.914
 6641SOL    HW120822   3.690   1.991   0.991
 6641SOL    HW220823   3.781   1.955   0.861
 6642SOL     OW20824   1.677   5.344   0.413
 6642SOL    HW120825   1.696   5.406   0.490
 6642SOL    HW220826   1.731   5.372   0.334
 6643SOL     OW20827   5.163   6.471   0.503
 6643SOL    HW120828   5.096   6.544   0.518
 6643SOL    HW220829   5.125   6.384   0.535
 6644SOL     OW20830   1.657   6.254   2.752
 6644SOL    HW120831   1.596   6.278   2.676
 6644SOL    HW220832   1.717   6.332   2.771
 6645SOL     OW20833   6.223   2.945   0.301
 6645SOL    HW120834   6.285   2.993   0.239
 6645SOL    HW220835   6.129   2.957   0.270
 6646SOL     OW20836   4.102   0.561   6.778
 6646SOL    HW120837   4.151   0.597   6.699
 6646SOL    HW220838   4.005   0.553   6.757
 6647SOL     OW20839   4.141   4.938   1.137
 6647SOL    HW120840   4.190   4.986   1.064
 6647SOL    HW220841   4.078   5.002   1.182
 6648SOL     OW20842   3.009   6.450   4.481
 6648SOL    HW120843   3.029   6.394   4.561
 6648SOL    HW220844   2.910   6.456   4.468
 6649SOL     OW20845   5.823   2.615   6.734
 6649SOL    HW120846   5.788   2.524   6.756
 6649SOL    HW220847   5.921   2.610   6.718
 6650SOL     OW20848   3.405   0.996   5.110
 6650SOL    HW120849   3.424   0.918   5.169
 6650SOL    HW220850   3.481   1.061   5.115
 6651SOL     OW20851   0.769   1.488   6.993
 6651SOL    HW120852   0.772   1.426   0.048
 6651SOL    HW220853   0.750   1.435   6.910
 6652SOL     OW20854   1.174   4.857   0.122
 6652SOL    HW120855   1.137   4.913   0.195
 6652SOL    HW220856   1.171   4.760   0.148
 6653SOL     OW20857   5.248   2.869   0.345
 6653SOL    HW120858   5.306   2.920   0.282
 6653SOL    HW220859   5.301   2.845   0.427
 6654SOL     OW20860   0.381   4.618   3.403
 6654SOL    HW120861   0.431   4.685   3.349
 6654SOL    HW220862   0.283   4.629   3.388
 6655SOL     OW20863   6.683   5.465   1.731
 6655SOL    HW120864   6.645   5.557   1.743
 6655SOL    HW220865   6.775   5.461   1.770
 6656SOL     OW20866   3.834   1.218   2.417
 6656SOL    HW120867   3.920   1.270   2.422
 6656SOL    HW220868   3.776   1.256   2.345
 6657SOL     OW20869   5.563   2.531   4.616
 6657SOL    HW120870   5.482   2.574   4.578
 6657SOL    HW220871   5.568   2.436   4.584
 6658SOL     OW20872   5.902   6.471   4.962
 6658SOL    HW120873   5.954   6.506   5.040
 6658SOL    HW220874   5.897   6.541   4.891
 6659SOL     OW20875   0.852   5.011   2.270
 6659SOL    HW120876   0.941   4.969   2.255
 6659SOL    HW220877   0.782   4.961   2.218
 6660SOL     OW20878   0.755   5.540   2.631
 6660SOL    HW120879   0.717   5.619   2.584
 6660SOL    HW220880   0.743   5.458   2.574
 6661SOL     OW20881   3.162   6.462   4.075
 6661SOL    HW120882   3.147   6.390   4.143
 6661SOL    HW220883   3.260   6.472   4.057
 6662SOL     OW20884   2.745   0.183   1.852
 6662SOL    HW120885   2.744   0.262   1.791
 6662SOL    HW220886   2.725   0.100   1.800
 6663SOL     OW20887   1.663   5.121   6.121
 6663SOL    HW120888   1.743   5.106   6.063
 6663SOL    HW220889   1.625   5.212   6.102
 6664SOL     OW20890   2.532   0.843   1.514
 6664SOL    HW120891   2.613   0.899   1.497
 6664SOL    HW220892   2.471   0.892   1.577
 6665SOL     OW20893   2.739   0.476   6.032
 6665SOL    HW120894   2.722   0.380   6.012
 6665SOL    HW220895   2.831   0.487   6.071
 6666SOL     OW20896   6.255   5.550   4.696
 6666SOL    HW120897   6.301   5.543   4.785
 6666SOL    HW220898   6.277   5.469   4.641
 6667SOL     OW20899   6.433   6.467   5.720
 6667SOL    HW120900   6.358   6.523   5.757
 6667SOL    HW220901   6.457   6.396   5.786
 6668SOL     OW20902   6.821   6.486   1.424
 6668SOL    HW120903   6.732   6.494   1.380
 6668SOL    HW220904   6.890   6.532   1.369
 6669SOL     OW20905   1.766   1.471   1.876
 6669SOL    HW120906   1.828   1.400   1.908
 6669SOL    HW220907   1.695   1.488   1.944
 6670SOL     OW20908   2.992   1.740   6.700
 6670SOL    HW120909   3.016   1.644   6.688
 6670SOL    HW220910   2.948   1.753   6.788
 6671SOL     OW20911   5.362   6.597   0.397
 6671SOL    HW120912   5.335   6.625   0.305
 6671SOL    HW220913   5.283   6.556   0.443
 6672SOL     OW20914   1.315   2.463   0.507
 6672SOL    HW120915   1.279   2.396   0.442
 6672SOL    HW220916   1.265   2.550   0.497
 6673SOL     OW20917   5.225   3.275   4.348
 6673SOL    HW120918   5.157   3.225   4.295
 6673SOL    HW220919   5.196   3.370   4.359
 6674SOL     OW20920   0.465   2.924   6.806
 6674SOL    HW120921   0.460   3.011   6.855
 6674SOL    HW220922   0.544   2.925   6.744
 6675SOL     OW20923   4.701   2.581   0.030
 6675SOL    HW120924   4.658   2.662   7.014
 6675SOL    HW220925   4.746   2.528   6.982
 6676SOL     OW20926   1.216   4.007   3.655
 6676SOL    HW120927   1.284   3.980   3.587
 6676SOL    HW220928   1.247   3.979   3.746
 6677SOL     OW20929   0.321   0.919   0.055
 6677SOL    HW120930   0.364   0.861   7.009
 6677SOL    HW220931   0.363   0.899   0.144
 6678SOL     OW20932   1.693   4.547   0.794
 6678SOL    HW120933   1.676   4.499   0.880
 6678SOL    HW220934   1.644   4.635   0.795
 6679SOL     OW20935   2.482   0.828   3.563
 6679SOL    HW120936   2.544   0.760   3.603
 6679SOL    HW220937   2.454   0.799   3.472
 6680SOL     OW20938   5.463   6.652   0.649
 6680SOL    HW120939   5.524   6.731   0.658
 6680SOL    HW220940   5.430   6.645   0.555
 6681SOL     OW20941   4.677   5.249   1.325
 6681SOL    HW120942   4.668   5.303   1.241
 6681SOL    HW220943   4.634   5.160   1.311
 6682SOL     OW20944   2.983   5.402   6.855
 6682SOL    HW120945   3.037   5.323   6.884
 6682SOL    HW220946   3.040   5.463   6.800
 6683SOL     OW20947   5.816   3.633   6.745
 6683SOL    HW120948   5.905   3.629   6.698
 6683SOL    HW220949   5.788   3.728   6.754
 6684SOL     OW20950   3.175   6.997   1.348
 6684SOL    HW120951   3.180   6.928   1.276
 6684SOL    HW220952   3.266   0.012   1.365
 6685SOL     OW20953   3.913   3.420   6.550
 6685SOL    HW120954   3.886   3.516   6.542
 6685SOL    HW220955   3.896   3.389   6.644
 6686SOL     OW20956   6.080   5.719   4.047
 6686SOL    HW120957   6.130   5.799   4.013
 6686SOL    HW220958   6.070   5.652   3.973
 6687SOL     OW20959   6.759   2.539   2.075
 6687SOL    HW120960   6.721   2.452   2.106
 6687SOL    HW220961   6.779   2.535   1.977
 6688SOL     OW20962   3.804   4.995   1.132
 6688SOL    HW120963   3.827   5.037   1.220
 6688SOL    HW220964   3.824   5.059   1.058
 6689SOL     OW20965   3.441   4.775   5.931
 6689SOL    HW120966   3.369   4.756   5.864
 6689SOL    HW220967   3.513   4.705   5.923
 6690SOL     OW20968   0.832   0.244   5.921
 6690SOL    HW120969   0.809   0.148   5.904
 6690SOL    HW220970   0.839   0.261   6.019
 6691SOL     OW20971   1.683   1.541   2.601
 6691SOL    HW120972   1.651   1.552   2.695
 6691SOL    HW220973   1.645   1.614   2.544
 6692SOL     OW20974   4.185   4.658   1.726
 6692SOL    HW120975   4.117   4.600   1.681
 6692SOL    HW220976   4.253   4.601   1.771
 6693SOL     OW20977   4.652   1.444   5.081
 6693SOL    HW120978   4.740   1.397   5.081
 6693SOL    HW220979   4.607   1.432   4.993
 6694SOL     OW20980   3.933   6.127   1.378
 6694SOL    HW120981   3.836   6.104   1.384
 6694SOL    HW220982   3.969   6.099   1.289
 6695SOL     OW20983   2.895   2.236   0.494
 6695SOL    HW120984   2.937   2.174   0.428
 6695SOL    HW220985   2.913   2.330   0.467
 6696SOL     OW20986   3.812   3.970   3.933
 6696SOL    HW120987   3.844   3.965   4.028
 6696SOL    HW220988   3.885   3.939   3.872
 6697SOL     OW20989   4.967   2.110   2.367
 6697SOL    HW120990   5.054   2.144   2.332
 6697SOL    HW220991   4.979   2.080   2.462
 6698SOL     OW20992   3.700   4.177   1.779
 6698SOL    HW120993   3.672   4.152   1.872
 6698SOL    HW220994   3.633   4.239   1.739
 6699SOL     OW20995   1.641   5.371   5.990
 6699SOL    HW120996   1.601   5.295   5.940
 6699SOL    HW220997   1.571   5.417   6.043
 6700SOL     OW20998   5.720   0.401   0.622
 6700SOL    HW120999   5.655   0.338   0.665
 6700SOL    HW221000   5.727   0.382   0.525
 6701SOL     OW21001   6.026   6.795   1.694
 6701SOL    HW121002   6.067   6.836   1.776
 6701SOL    HW221003   5.956   6.857   1.658
 6702SOL     OW21004   2.299   2.137   0.933
 6702SOL    HW121005   2.382   2.179   0.969
 6702SOL    HW221006   2.220   2.168   0.985
 6703SOL     OW21007   1.485   1.736   5.870
 6703SOL    HW121008   1.550   1.666   5.839
 6703SOL    HW221009   1.504   1.822   5.824
 6704SOL     OW21010   3.811   1.664   4.592
 6704SOL    HW121011   3.798   1.760   4.616
 6704SOL    HW221012   3.747   1.607   4.644
 6705SOL     OW21013   6.411   3.729   1.286
 6705SOL    HW121014   6.436   3.822   1.313
 6705SOL    HW221015   6.360   3.731   1.200
 6706SOL     OW21016   0.798   6.314   1.055
 6706SOL    HW121017   0.896   6.319   1.077
 6706SOL    HW221018   0.759   6.232   1.097
 6707SOL     OW21019   6.270   0.463   2.597
 6707SOL    HW121020   6.370   0.465   2.597
 6707SOL    HW221021   6.235   0.518   2.521
 6708SOL     OW21022   6.760   4.537   1.340
 6708SOL    HW121023   6.734   4.634   1.336
 6708SOL    HW221024   6.859   4.529   1.339
 6709SOL     OW21025   1.389   4.646   2.236
 6709SOL    HW121026   1.399   4.617   2.331
 6709SOL    HW221027   1.361   4.741   2.233
 6710SOL     OW21028   4.014   1.174   1.843
 6710SOL    HW121029   4.026   1.104   1.771
 6710SOL    HW221030   3.930   1.226   1.825
 6711SOL     OW21031   4.660   6.191   6.984
 6711SOL    HW121032   4.594   6.187   6.909
 6711SOL    HW221033   4.638   6.120   0.027
 6712SOL     OW21034   5.984   3.965   0.408
 6712SOL    HW121035   5.916   3.919   0.466
 6712SOL    HW221036   6.018   3.900   0.339
 6713SOL     OW21037   1.704   0.580   4.159
 6713SOL    HW121038   1.664   0.638   4.230
 6713SOL    HW221039   1.702   0.485   4.189
 6714SOL     OW21040   5.697   1.285   0.596
 6714SOL    HW121041   5.758   1.309   0.521
 6714SOL    HW221042   5.724   1.334   0.678
 6715SOL     OW21043   1.313   1.176   1.154
 6715SOL    HW121044   1.314   1.198   1.252
 6715SOL    HW221045   1.317   1.077   1.141
 6716SOL     OW21046   6.750   5.473   2.561
 6716SOL    HW121047   6.669   5.515   2.520
 6716SOL    HW221048   6.790   5.536   2.629
 6717SOL     OW21049   3.102   2.667   7.004
 6717SOL    HW121050   3.202   2.663   6.998
 6717SOL    HW221051   3.069   2.749   6.957
 6718SOL     OW21052   3.448   1.172   1.450
 6718SOL    HW121053   3.452   1.098   1.517
 6718SOL    HW221054   3.352   1.193   1.428
 6719SOL     OW21055   1.923   0.396   6.957
 6719SOL    HW121056   1.919   0.299   6.982
 6719SOL    HW221057   1.953   0.449   0.012
 6720SOL     OW21058   2.613   1.257   5.791
 6720SOL    HW121059   2.551   1.226   5.719
 6720SOL    HW221060   2.680   1.320   5.751
 6721SOL     OW21061   0.097   0.894   0.304
 6721SOL    HW121062   0.050   0.806   0.297
 6721SOL    HW221063   0.195   0.879   0.317
 6722SOL     OW21064   6.566   2.993   0.095
 6722SOL    HW121065   6.651   2.940   0.084
 6722SOL    HW221066   6.488   2.931   0.091
 6723SOL     OW21067   1.579   1.748   6.339
 6723SOL    HW121068   1.594   1.668   6.397
 6723SOL    HW221069   1.624   1.734   6.250
 6724SOL     OW21070   2.286   3.039   6.123
 6724SOL    HW121071   2.234   2.955   6.138
 6724SOL    HW221072   2.264   3.076   6.033
 6725SOL     OW21073   5.979   3.129   3.025
 6725SOL    HW121074   5.968   3.106   3.122
 6725SOL    HW221075   6.022   3.052   2.978
 6726SOL     OW21076   0.083   1.337   5.422
 6726SOL    HW121077   0.068   1.238   5.420
 6726SOL    HW221078   0.006   1.380   5.468
 6727SOL     OW21079   1.479   5.012   5.570
 6727SOL    HW121080   1.579   5.009   5.573
 6727SOL    HW221081   1.448   5.022   5.476
 6728SOL     OW21082   4.133   1.923   3.302
 6728SOL    HW121083   4.110   2.019   3.314
 6728SOL    HW221084   4.095   1.869   3.378
 6729SOL     OW21085   5.541   2.372   1.163
 6729SOL    HW121086   5.455   2.353   1.116
 6729SOL    HW221087   5.616   2.379   1.097
 6730SOL     OW21088   1.443   1.281   0.930
 6730SOL    HW121089   1.389   1.275   1.014
 6730SOL    HW221090   1.438   1.194   0.881
 6731SOL     OW21091   2.250   6.371   1.123
 6731SOL    HW121092   2.229   6.374   1.221
 6731SOL    HW221093   2.225   6.459   1.082
 6732SOL     OW21094   5.767   4.182   4.409
 6732SOL    HW121095   5.849   4.137   4.373
 6732SOL    HW221096   5.775   4.281   4.394
 6733SOL     OW21097   3.396   6.058   0.052
 6733SOL    HW121098   3.410   5.978   7.018
 6733SOL    HW221099   3.465   6.061   0.124
 6734SOL     OW21100   5.096   1.836   5.008
 6734SOL    HW121101   5.090   1.805   5.102
 6734SOL    HW221102   5.030   1.785   4.952
 6735SOL     OW21103   6.086   3.261   4.193
 6735SOL    HW121104   6.148   3.311   4.253
 6735SOL    HW221105   6.118   3.167   4.182
 6736SOL     OW21106   3.233   4.451   1.172
 6736SOL    HW121107   3.202   4.362   1.140
 6736SOL    HW221108   3.163   4.520   1.154
 6737SOL     OW21109   0.474   2.801   1.207
 6737SOL    HW121110   0.541   2.727   1.214
 6737SOL    HW221111   0.521   2.889   1.215
 6738SOL     OW21112   1.321   5.654   3.458
 6738SOL    HW121113   1.387   5.625   3.527
 6738SOL    HW221114   1.232   5.667   3.500
 6739SOL     OW21115   6.934   6.859   3.725
 6739SOL    HW121116   6.991   6.808   3.661
 6739SOL    HW221117   6.863   6.799   3.762
 6740SOL     OW21118   6.359   0.236   4.076
 6740SOL    HW121119   6.415   0.264   4.154
 6740SOL    HW221120   6.418   0.202   4.003
 6741SOL     OW21121   4.870   2.072   5.816
 6741SOL    HW121122   4.876   2.077   5.916
 6741SOL    HW221123   4.951   2.028   5.780
 6742SOL     OW21124   5.513   5.004   3.982
 6742SOL    HW121125   5.482   5.080   4.038
 6742SOL    HW221126   5.435   4.964   3.933
 6743SOL     OW21127   3.527   4.402   6.519
 6743SOL    HW121128   3.520   4.344   6.439
 6743SOL    HW221129   3.441   4.398   6.571
 6744SOL     OW21130   6.455   5.709   6.170
 6744SOL    HW121131   6.554   5.706   6.180
 6744SOL    HW221132   6.431   5.730   6.075
 6745SOL     OW21133   0.130   6.293   4.226
 6745SOL    HW121134   0.220   6.254   4.248
 6745SOL    HW221135   0.061   6.254   4.286
 6746SOL     OW21136   1.552   1.609   2.306
 6746SOL    HW121137   1.573   1.687   2.365
 6746SOL    HW221138   1.453   1.602   2.295
 6747SOL     OW21139   0.195   6.937   6.152
 6747SOL    HW121140   0.181   6.999   6.075
 6747SOL    HW221141   0.140   6.854   6.139
 6748SOL     OW21142   3.119   1.686   4.069
 6748SOL    HW121143   3.192   1.631   4.030
 6748SOL    HW221144   3.090   1.647   4.156
 6749SOL     OW21145   3.409   4.016   0.677
 6749SOL    HW121146   3.399   4.053   0.769
 6749SOL    HW221147   3.505   4.022   0.649
 6750SOL     OW21148   2.763   1.484   4.349
 6750SOL    HW121149   2.734   1.477   4.253
 6750SOL    HW221150   2.751   1.577   4.381
 6751SOL     OW21151   4.647   0.586   3.462
 6751SOL    HW121152   4.595   0.559   3.544
 6751SOL    HW221153   4.587   0.582   3.383
 6752SOL     OW21154   1.451   6.707   2.739
 6752SOL    HW121155   1.388   6.638   2.776
 6752SOL    HW221156   1.414   6.798   2.758
 6753SOL     OW21157   3.839   2.250   5.809
 6753SOL    HW121158   3.787   2.314   5.866
 6753SOL    HW221159   3.872   2.299   5.728
 6754SOL     OW21160   6.113   0.477   0.999
 6754SOL    HW121161   6.110   0.397   0.938
 6754SOL    HW221162   6.020   0.510   1.014
 6755SOL     OW21163   3.061   5.144   1.402
 6755SOL    HW121164   3.029   5.053   1.378
 6755SOL    HW221165   3.022   5.172   1.489
 6756SOL     OW21166   2.772   1.464   5.645
 6756SOL    HW121167   2.862   1.428   5.621
 6756SOL    HW221168   2.765   1.559   5.614
 6757SOL     OW21169   3.284   1.421   1.380
 6757SOL    HW121170   3.265   1.506   1.331
 6757SOL    HW221171   3.361   1.435   1.442
 6758SOL     OW21172   4.997   3.155   1.149
 6758SOL    HW121173   4.936   3.194   1.218
 6758SOL    HW221174   5.069   3.102   1.193
 6759SOL     OW21175   6.599   2.939   2.997
 6759SOL    HW121176   6.515   2.980   2.960
 6759SOL    HW221177   6.678   2.976   2.948
 6760SOL     OW21178   5.966   3.314   2.488
 6760SOL    HW121179   5.924   3.388   2.436
 6760SOL    HW221180   6.016   3.352   2.566
 6761SOL     OW21181   5.051   2.568   4.600
 6761SOL    HW121182   4.978   2.612   4.651
 6761SOL    HW221183   5.054   2.603   4.507
 6762SOL     OW21184   0.581   4.624   3.940
 6762SOL    HW121185   0.648   4.647   4.010
 6762SOL    HW221186   0.492   4.662   3.964
 6763SOL     OW21187   5.141   5.681   4.961
 6763SOL    HW121188   5.200   5.705   4.884
 6763SOL    HW221189   5.177   5.721   5.045
 6764SOL     OW21190   1.499   5.768   2.218
 6764SOL    HW121191   1.468   5.680   2.184
 6764SOL    HW221192   1.524   5.759   2.315
 6765SOL     OW21193   6.374   4.357   3.743
 6765SOL    HW121194   6.340   4.451   3.736
 6765SOL    HW221195   6.469   4.354   3.713
 6766SOL     OW21196   4.553   6.488   0.006
 6766SOL    HW121197   4.535   6.425   6.954
 6766SOL    HW221198   4.589   6.437   0.084
 6767SOL     OW21199   3.035   0.780   0.447
 6767SOL    HW121200   3.059   0.690   0.484
 6767SOL    HW221201   3.090   0.799   0.366
 6768SOL     OW21202   2.150   0.886   5.632
 6768SOL    HW121203   2.143   0.984   5.649
 6768SOL    HW221204   2.188   0.841   5.713
 6769SOL     OW21205   3.177   2.307   0.025
 6769SOL    HW121206   3.275   2.314   0.047
 6769SOL    HW221207   3.165   2.307   6.950
 6770SOL     OW21208   6.737   0.611   1.936
 6770SOL    HW121209   6.760   0.700   1.897
 6770SOL    HW221210   6.695   0.623   2.026
 6771SOL     OW21211   4.695   2.411   2.992
 6771SOL    HW121212   4.781   2.444   2.953
 6771SOL    HW221213   4.686   2.445   3.086
 6772SOL     OW21214   3.189   1.134   2.364
 6772SOL    HW121215   3.103   1.129   2.414
 6772SOL    HW221216   3.260   1.086   2.415
 6773SOL     OW21217   6.669   4.609   1.814
 6773SOL    HW121218   6.594   4.667   1.847
 6773SOL    HW221219   6.756   4.653   1.833
 6774SOL     OW21220   0.363   2.774   6.219
 6774SOL    HW121221   0.275   2.822   6.226
 6774SOL    HW221222   0.426   2.811   6.288
 6775SOL     OW21223   2.635   3.308   1.130
 6775SOL    HW121224   2.632   3.399   1.172
 6775SOL    HW221225   2.661   3.317   1.034
 6776SOL     OW21226   4.342   4.665   0.083
 6776SOL    HW121227   4.373   4.692   0.174
 6776SOL    HW221228   4.421   4.654   0.022
 6777SOL     OW21229   3.843   4.141   6.408
 6777SOL    HW121230   3.782   4.151   6.487
 6777SOL    HW221231   3.878   4.231   6.380
 6778SOL     OW21232   0.422   4.281   2.022
 6778SOL    HW121233   0.389   4.188   2.002
 6778SOL    HW221234   0.515   4.291   1.988
 6779SOL     OW21235   6.612   4.088   6.182
 6779SOL    HW121236   6.517   4.091   6.153
 6779SOL    HW221237   6.619   4.110   6.279
 6780SOL     OW21238   0.937   2.013   2.661
 6780SOL    HW121239   0.890   1.955   2.727
 6780SOL    HW221240   0.903   2.107   2.669
 6781SOL     OW21241   5.604   6.868   4.844
 6781SOL    HW121242   5.550   6.809   4.904
 6781SOL    HW221243   5.697   6.876   4.880
 6782SOL     OW21244   0.223   0.529   2.897
 6782SOL    HW121245   0.197   0.455   2.958
 6782SOL    HW221246   0.201   0.617   2.940
 6783SOL     OW21247   0.175   0.111   6.310
 6783SOL    HW121248   0.204   0.028   6.264
 6783SOL    HW221249   0.077   0.125   6.293
 6784SOL     OW21250   3.490   4.105   0.332
 6784SOL    HW121251   3.424   4.101   0.408
 6784SOL    HW221252   3.533   4.195   0.331
 6785SOL     OW21253   5.373   4.616   2.615
 6785SOL    HW121254   5.421   4.625   2.703
 6785SOL    HW221255   5.440   4.613   2.541
 6786SOL     OW21256   1.104   1.676   6.489
 6786SOL    HW121257   1.058   1.713   6.570
 6786SOL    HW221258   1.078   1.579   6.478
 6787SOL     OW21259   1.523   3.627   0.472
 6787SOL    HW121260   1.483   3.689   0.540
 6787SOL    HW221261   1.451   3.587   0.417
 6788SOL     OW21262   2.658   3.994   1.676
 6788SOL    HW121263   2.757   3.980   1.671
 6788SOL    HW221264   2.612   3.905   1.668
 6789SOL     OW21265   0.365   6.885   2.491
 6789SOL    HW121266   0.407   6.796   2.509
 6789SOL    HW221267   0.352   6.934   2.577
 6790SOL     OW21268   1.223   4.220   0.773
 6790SOL    HW121269   1.223   4.128   0.732
 6790SOL    HW221270   1.143   4.270   0.740
 6791SOL     OW21271   3.713   2.578   0.749
 6791SOL    HW121272   3.634   2.639   0.740
 6791SOL    HW221273   3.720   2.547   0.844
 6792SOL     OW21274   6.516   5.879   5.839
 6792SOL    HW121275   6.556   5.907   5.926
 6792SOL    HW221276   6.427   5.835   5.856
 6793SOL     OW21277   0.818   2.402   0.533
 6793SOL    HW121278   0.851   2.482   0.483
 6793SOL    HW221279   0.757   2.350   0.474
 6794SOL     OW21280   5.137   1.193   4.964
 6794SOL    HW121281   5.168   1.201   4.869
 6794SOL    HW221282   5.202   1.138   5.016
 6795SOL     OW21283   2.625   6.214   0.842
 6795SOL    HW121284   2.572   6.285   0.797
 6795SOL    HW221285   2.580   6.188   0.928
 6796SOL     OW21286   5.942   0.730   2.907
 6796SOL    HW121287   5.885   0.765   2.833
 6796SOL    HW221288   5.885   0.714   2.988
 6797SOL     OW21289   4.819   3.189   1.546
 6797SOL    HW121290   4.744   3.237   1.501
 6797SOL    HW221291   4.787   3.102   1.582
 6798SOL     OW21292   5.762   6.069   2.948
 6798SOL    HW121293   5.801   6.161   2.934
 6798SOL    HW221294   5.832   6.010   2.988
 6799SOL     OW21295   6.245   5.708   6.991
 6799SOL    HW121296   6.236   5.670   0.059
 6799SOL    HW221297   6.156   5.708   6.946
 6800SOL     OW21298   2.657   4.627   0.692
 6800SOL    HW121299   2.607   4.633   0.778
 6800SOL    HW221300   2.723   4.552   0.697
 6801SOL     OW21301   1.708   1.256   2.535
 6801SOL    HW121302   1.730   1.353   2.548
 6801SOL    HW221303   1.613   1.248   2.503
 6802SOL     OW21304   2.881   5.758   0.725
 6802SOL    HW121305   2.812   5.825   0.696
 6802SOL    HW221306   2.903   5.773   0.821
 6803SOL     OW21307   4.452   2.273   6.445
 6803SOL    HW121308   4.391   2.314   6.513
 6803SOL    HW221309   4.526   2.336   6.424
 6804SOL     OW21310   2.349   5.071   4.001
 6804SOL    HW121311   2.389   5.155   4.037
 6804SOL    HW221312   2.250   5.081   3.993
 6805SOL     OW21313   5.924   5.980   4.484
 6805SOL    HW121314   5.994   5.984   4.412
 6805SOL    HW221315   5.860   5.906   4.464
 6806SOL     OW21316   5.756   1.334   3.707
 6806SOL    HW121317   5.706   1.255   3.741
 6806SOL    HW221318   5.759   1.331   3.607
 6807SOL     OW21319   2.317   3.229   0.634
 6807SOL    HW121320   2.400   3.223   0.579
 6807SOL    HW221321   2.320   3.313   0.689
 6808SOL     OW21322   0.541   2.834   5.134
 6808SOL    HW121323   0.636   2.809   5.147
 6808SOL    HW221324   0.484   2.784   5.199
 6809SOL     OW21325   1.814   3.715   0.494
 6809SOL    HW121326   1.748   3.654   0.451
 6809SOL    HW221327   1.774   3.806   0.505
 6810SOL     OW21328   1.543   0.478   1.952
 6810SOL    HW121329   1.568   0.574   1.965
 6810SOL    HW221330   1.621   0.430   1.911
 6811SOL     OW21331   4.545   4.037   0.005
 6811SOL    HW121332   4.639   4.063   7.002
 6811SOL    HW221333   4.528   3.942   7.003
 6812SOL     OW21334   3.676   3.006   3.311
 6812SOL    HW121335   3.652   3.092   3.355
 6812SOL    HW221336   3.709   2.941   3.380
 6813SOL     OW21337   4.493   1.833   2.074
 6813SOL    HW121338   4.419   1.900   2.082
 6813SOL    HW221339   4.522   1.827   1.978
 6814SOL     OW21340   3.068   3.077   0.527
 6814SOL    HW121341   2.996   3.007   0.528
 6814SOL    HW221342   3.094   3.100   0.620
 6815SOL     OW21343   2.873   0.317   0.935
 6815SOL    HW121344   2.857   0.399   0.990
 6815SOL    HW221345   2.831   0.329   0.845
 6816SOL     OW21346   0.121   5.683   6.929
 6816SOL    HW121347   0.185   5.748   6.971
 6816SOL    HW221348   0.028   5.717   6.939
 6817SOL     OW21349   6.525   1.845   5.481
 6817SOL    HW121350   6.523   1.776   5.408
 6817SOL    HW221351   6.604   1.905   5.468
 6818SOL     OW21352   2.578   5.853   1.999
 6818SOL    HW121353   2.519   5.932   2.015
 6818SOL    HW221354   2.534   5.771   2.036
 6819SOL     OW21355   4.456   1.344   4.131
 6819SOL    HW121356   4.420   1.423   4.081
 6819SOL    HW221357   4.483   1.373   4.223
 6820SOL     OW21358   1.362   4.994   2.986
 6820SOL    HW121359   1.305   4.963   2.909
 6820SOL    HW221360   1.437   4.930   2.999
 6821SOL     OW21361   3.043   1.719   5.559
 6821SOL    HW121362   3.090   1.713   5.471
 6821SOL    HW221363   3.066   1.806   5.604
 6822SOL     OW21364   5.750   1.949   5.860
 6822SOL    HW121365   5.811   1.890   5.807
 6822SOL    HW221366   5.722   2.027   5.804
 6823SOL     OW21367   4.095   3.207   3.750
 6823SOL    HW121368   4.032   3.180   3.822
 6823SOL    HW221369   4.073   3.156   3.666
 6824SOL     OW21370   0.584   2.826   6.460
 6824SOL    HW121371   0.539   2.748   6.503
 6824SOL    HW221372   0.659   2.794   6.402
 6825SOL     OW21373   5.628   6.538   2.471
 6825SOL    HW121374   5.625   6.547   2.372
 6825SOL    HW221375   5.535   6.546   2.508
 6826SOL     OW21376   2.075   4.077   2.943
 6826SOL    HW121377   2.000   4.101   2.880
 6826SOL    HW221378   2.162   4.108   2.905
 6827SOL     OW21379   4.878   5.970   0.643
 6827SOL    HW121380   4.784   5.985   0.676
 6827SOL    HW221381   4.881   5.988   0.545
 6828SOL     OW21382   2.149   1.665   1.387
 6828SOL    HW121383   2.064   1.637   1.342
 6828SOL    HW221384   2.224   1.664   1.321
 6829SOL     OW21385   4.694   6.687   4.287
 6829SOL    HW121386   4.738   6.662   4.373
 6829SOL    HW221387   4.764   6.713   4.220
 6830SOL     OW21388   5.933   1.128   3.437
 6830SOL    HW121389   5.844   1.172   3.450
 6830SOL    HW221390   5.938   1.092   3.344
 6831SOL     OW21391   0.874   6.942   6.112
 6831SOL    HW121392   0.937   6.961   6.037
 6831SOL    HW221393   0.918   6.883   6.179
 6832SOL     OW21394   2.791   4.371   1.430
 6832SOL    HW121395   2.804   4.439   1.502
 6832SOL    HW221396   2.711   4.396   1.375
 6833SOL     OW21397   4.290   5.128   6.921
 6833SOL    HW121398   4.296   5.031   6.897
 6833SOL    HW221399   4.245   5.138   7.010
 6834SOL     OW21400   4.709   6.954   1.450
 6834SOL    HW121401   4.640   6.989   1.387
 6834SOL    HW221402   4.691   6.989   1.542
 6835SOL     OW21403   4.407   6.809   5.097
 6835SOL    HW121404   4.418   6.738   5.027
 6835SOL    HW221405   4.317   6.851   5.087
 6836SOL     OW21406   3.167   5.889   0.556
 6836SOL    HW121407   3.141   5.813   0.497
 6836SOL    HW221408   3.085   5.938   0.586
 6837SOL     OW21409   1.508   2.782   2.101
 6837SOL    HW121410   1.532   2.850   2.170
 6837SOL    HW221411   1.452   2.710   2.144
 6838SOL     OW21412   1.596   0.194   0.968
 6838SOL    HW121413   1.625   0.098   0.964
 6838SOL    HW221414   1.648   0.247   0.902
 6839SOL     OW21415   5.300   1.090   0.271
 6839SOL    HW121416   5.275   0.996   0.248
 6839SOL    HW221417   5.269   1.112   0.363
 6840SOL     OW21418   2.288   1.881   5.195
 6840SOL    HW121419   2.207   1.937   5.179
 6840SOL    HW221420   2.304   1.821   5.117
 6841SOL     OW21421   5.188   3.384   6.266
 6841SOL    HW121422   5.148   3.403   6.356
 6841SOL    HW221423   5.150   3.448   6.199
 6842SOL     OW21424   2.783   4.606   1.166
 6842SOL    HW121425   2.747   4.698   1.153
 6842SOL    HW221426   2.710   4.548   1.204
 6843SOL     OW21427   5.717   6.924   0.036
 6843SOL    HW121428   5.678   6.922   6.968
 6843SOL    HW221429   5.816   6.933   0.031
 6844SOL     OW21430   5.794   1.183   4.482
 6844SOL    HW121431   5.788   1.275   4.444
 6844SOL    HW221432   5.854   1.183   4.562
 6845SOL     OW21433   6.164   2.869   2.954
 6845SOL    HW121434   6.242   2.906   2.904
 6845SOL    HW221435   6.185   2.866   3.052
 6846SOL     OW21436   3.268   4.308   6.621
 6846SOL    HW121437   3.190   4.369   6.629
 6846SOL    HW221438   3.268   4.243   6.697
 6847SOL     OW21439   6.902   3.429   4.968
 6847SOL    HW121440   6.805   3.417   4.950
 6847SOL    HW221441   6.929   3.371   5.045
 6848SOL     OW21442   5.498   4.150   4.287
 6848SOL    HW121443   5.597   4.161   4.280
 6848SOL    HW221444   5.474   4.054   4.274
 6849SOL     OW21445   3.594   4.536   5.885
 6849SOL    HW121446   3.670   4.529   5.820
 6849SOL    HW221447   3.558   4.444   5.902
 6850SOL     OW21448   4.427   2.370   2.905
 6850SOL    HW121449   4.389   2.342   2.993
 6850SOL    HW221450   4.518   2.409   2.919
 6851SOL     OW21451   1.550   2.906   2.583
 6851SOL    HW121452   1.596   2.829   2.627
 6851SOL    HW221453   1.523   2.973   2.652
 6852SOL     OW21454   2.655   5.423   1.472
 6852SOL    HW121455   2.655   5.492   1.400
 6852SOL    HW221456   2.692   5.337   1.436
 6853SOL     OW21457   5.139   3.357   5.979
 6853SOL    HW121458   5.125   3.314   5.890
 6853SOL    HW221459   5.107   3.296   6.051
 6854SOL     OW21460   5.581   6.726   5.794
 6854SOL    HW121461   5.659   6.767   5.841
 6854SOL    HW221462   5.525   6.798   5.754
 6855SOL     OW21463   4.695   5.726   3.789
 6855SOL    HW121464   4.760   5.651   3.802
 6855SOL    HW221465   4.698   5.757   3.694
 6856SOL     OW21466   0.454   2.492   5.817
 6856SOL    HW121467   0.462   2.527   5.910
 6856SOL    HW221468   0.488   2.398   5.813
 6857SOL     OW21469   1.076   3.663   6.492
 6857SOL    HW121470   1.031   3.598   6.553
 6857SOL    HW221471   1.143   3.614   6.435
 6858SOL     OW21472   3.519   4.400   1.682
 6858SOL    HW121473   3.435   4.424   1.633
 6858SOL    HW221474   3.550   4.477   1.737
 6859SOL     OW21475   1.036   1.339   1.873
 6859SOL    HW121476   1.125   1.325   1.917
 6859SOL    HW221477   1.040   1.420   1.816
 6860SOL     OW21478   6.879   4.697   2.265
 6860SOL    HW121479   6.912   4.602   2.264
 6860SOL    HW221480   6.806   4.707   2.197
 6861SOL     OW21481   4.771   3.098   6.295
 6861SOL    HW121482   4.834   3.041   6.349
 6861SOL    HW221483   4.771   3.191   6.332
 6862SOL     OW21484   0.902   5.387   6.000
 6862SOL    HW121485   0.888   5.371   6.098
 6862SOL    HW221486   0.995   5.420   5.984
 6863SOL     OW21487   0.114   5.827   5.153
 6863SOL    HW121488   0.034   5.863   5.201
 6863SOL    HW221489   0.085   5.755   5.089
 6864SOL     OW21490   1.892   4.450   6.014
 6864SOL    HW121491   1.792   4.461   6.009
 6864SOL    HW221492   1.926   4.423   5.924
 6865SOL     OW21493   2.215   0.655   5.458
 6865SOL    HW121494   2.311   0.638   5.480
 6865SOL    HW221495   2.183   0.735   5.509
 6866SOL     OW21496   6.012   4.122   2.179
 6866SOL    HW121497   5.987   4.215   2.207
 6866SOL    HW221498   6.073   4.082   2.247
 6867SOL     OW21499   2.137   4.194   1.434
 6867SOL    HW121500   2.120   4.292   1.424
 6867SOL    HW221501   2.193   4.178   1.516
 6868SOL     OW21502   2.279   6.017   5.185
 6868SOL    HW121503   2.322   5.927   5.189
 6868SOL    HW221504   2.296   6.058   5.095
 6869SOL     OW21505   4.054   0.085   5.749
 6869SOL    HW121506   4.127   0.060   5.814
 6869SOL    HW221507   4.011   0.170   5.779
 6870SOL     OW21508   1.066   3.571   0.382
 6870SOL    HW121509   1.041   3.542   0.474
 6870SOL    HW221510   0.997   3.538   0.317
 6871SOL     OW21511   0.280   3.816   2.466
 6871SOL    HW121512   0.255   3.739   2.407
 6871SOL    HW221513   0.354   3.789   2.527
 6872SOL     OW21514   1.234   2.318   2.136
 6872SOL    HW121515   1.266   2.304   2.042
 6872SOL    HW221516   1.149   2.267   2.150
 6873SOL     OW21517   1.100   3.845   4.044
 6873SOL    HW121518   1.026   3.777   4.045
 6873SOL    HW221519   1.065   3.934   4.071
 6874SOL     OW21520   6.145   5.670   3.517
 6874SOL    HW121521   6.059   5.627   3.545
 6874SOL    HW221522   6.126   5.745   3.455
 6875SOL     OW21523   2.098   2.583   1.851
 6875SOL    HW121524   2.190   2.593   1.812
 6875SOL    HW221525   2.105   2.569   1.950
 6876SOL     OW21526   3.188   0.195   3.702
 6876SOL    HW121527   3.190   0.261   3.626
 6876SOL    HW221528   3.156   0.242   3.785
 6877SOL     OW21529   2.998   4.659   1.453
 6877SOL    HW121530   3.009   4.675   1.355
 6877SOL    HW221531   2.923   4.594   1.468
 6878SOL     OW21532   2.401   1.620   3.898
 6878SOL    HW121533   2.464   1.543   3.891
 6878SOL    HW221534   2.384   1.642   3.994
 6879SOL     OW21535   1.791   2.571   6.874
 6879SOL    HW121536   1.805   2.514   6.955
 6879SOL    HW221537   1.806   2.516   6.791
 6880SOL     OW21538   1.284   6.066   6.400
 6880SOL    HW121539   1.371   6.056   6.448
 6880SOL    HW221540   1.219   5.998   6.434
 6881SOL     OW21541   1.701   3.931   1.362
 6881SOL    HW121542   1.797   3.931   1.336
 6881SOL    HW221543   1.645   3.956   1.283
 6882SOL     OW21544   2.998   1.350   0.200
 6882SOL    HW121545   2.978   1.420   0.131
 6882SOL    HW221546   2.955   1.264   0.173
 6883SOL     OW21547   5.241   0.269   5.869
 6883SOL    HW121548   5.182   0.258   5.788
 6883SOL    HW221549   5.217   0.354   5.916
 6884SOL     OW21550   1.995   4.396   3.009
 6884SOL    HW121551   1.951   4.486   3.010
 6884SOL    HW221552   1.935   4.331   2.963
 6885SOL     OW21553   4.852   4.943   4.186
 6885SOL    HW121554   4.886   5.020   4.239
 6885SOL    HW221555   4.777   4.898   4.236
 6886SOL     OW21556   6.202   1.294   4.998
 6886SOL    HW121557   6.250   1.250   4.922
 6886SOL    HW221558   6.269   1.333   5.061
 6887SOL     OW21559   4.650   5.625   0.357
 6887SOL    HW121560   4.692   5.625   0.448
 6887SOL    HW221561   4.593   5.706   0.346
 6888SOL     OW21562   5.162   4.242   6.205
 6888SOL    HW121563   5.098   4.310   6.241
 6888SOL    HW221564   5.247   4.244   6.259
 6889SOL     OW21565   1.526   2.645   5.844
 6889SOL    HW121566   1.503   2.725   5.790
 6889SOL    HW221567   1.607   2.600   5.806
 6890SOL     OW21568   3.793   5.905   2.822
 6890SOL    HW121569   3.697   5.879   2.813
 6890SOL    HW221570   3.852   5.828   2.799
 6891SOL     OW21571   2.564   2.698   1.372
 6891SOL    HW121572   2.541   2.602   1.391
 6891SOL    HW221573   2.589   2.744   1.458
 6892SOL     OW21574   3.313   1.462   3.974
 6892SOL    HW121575   3.336   1.375   3.930
 6892SOL    HW221576   3.373   1.476   4.053
 6893SOL     OW21577   6.201   3.651   6.827
 6893SOL    HW121578   6.251   3.700   6.755
 6893SOL    HW221579   6.265   3.598   6.881
 6894SOL     OW21580   5.449   4.071   1.220
 6894SOL    HW121581   5.358   4.114   1.222
 6894SOL    HW221582   5.438   3.973   1.199
 6895SOL     OW21583   1.484   5.858   0.880
 6895SOL    HW121584   1.559   5.809   0.834
 6895SOL    HW221585   1.484   5.954   0.851
 6896SOL     OW21586   3.464   1.718   3.907
 6896SOL    HW121587   3.522   1.637   3.906
 6896SOL    HW221588   3.375   1.696   3.865
 6897SOL     OW21589   4.875   4.144   5.008
 6897SOL    HW121590   4.908   4.049   5.015
 6897SOL    HW221591   4.937   4.204   5.059
 6898SOL     OW21592   3.010   1.103   1.498
 6898SOL    HW121593   3.069   1.152   1.562
 6898SOL    HW221594   2.921   1.149   1.493
 6899SOL     OW21595   5.125   5.993   3.152
 6899SOL    HW121596   5.094   6.050   3.228
 6899SOL    HW221597   5.179   6.048   3.088
 6900SOL     OW21598   6.399   5.083   6.352
 6900SOL    HW121599   6.332   5.137   6.301
 6900SOL    HW221600   6.399   4.989   6.319
 6901SOL     OW21601   4.651   5.274   6.708
 6901SOL    HW121602   4.588   5.280   6.785
 6901SOL    HW221603   4.625   5.342   6.639
 6902SOL     OW21604   6.639   5.603   5.519
 6902SOL    HW121605   6.712   5.605   5.451
 6902SOL    HW221606   6.593   5.691   5.521
 6903SOL     OW21607   2.926   4.946   5.396
 6903SOL    HW121608   2.946   5.039   5.426
 6903SOL    HW221609   2.828   4.928   5.407
 6904SOL     OW21610   0.318   6.264   5.248
 6904SOL    HW121611   0.233   6.275   5.197
 6904SOL    HW221612   0.379   6.202   5.199
 6905SOL     OW21613   5.553   5.494   0.020
 6905SOL    HW121614   5.597   5.439   6.972
 6905SOL    HW221615   5.558   5.590   7.019
 6906SOL     OW21616   3.460   1.879   3.667
 6906SOL    HW121617   3.364   1.862   3.646
 6906SOL    HW221618   3.478   1.853   3.762
 6907SOL     OW21619   6.271   2.076   1.582
 6907SOL    HW121620   6.332   2.006   1.546
 6907SOL    HW221621   6.201   2.098   1.513
 6908SOL     OW21622   2.638   4.426   6.920
 6908SOL    HW121623   2.614   4.376   6.836
 6908SOL    HW221624   2.566   4.412   6.988
 6909SOL     OW21625   4.861   4.878   2.018
 6909SOL    HW121626   4.907   4.957   2.060
 6909SOL    HW221627   4.840   4.811   2.089
 6910SOL     OW21628   1.764   2.831   3.184
 6910SOL    HW121629   1.783   2.822   3.086
 6910SOL    HW221630   1.810   2.912   3.219
 6911SOL     OW21631   3.795   0.103   5.170
 6911SOL    HW121632   3.778   0.083   5.267
 6911SOL    HW221633   3.844   0.189   5.162
 6912SOL     OW21634   2.493   3.254   6.231
 6912SOL    HW121635   2.562   3.234   6.161
 6912SOL    HW221636   2.406   3.212   6.205
 6913SOL     OW21637   5.335   6.101   5.156
 6913SOL    HW121638   5.424   6.140   5.133
 6913SOL    HW221639   5.274   6.105   5.077
 6914SOL     OW21640   5.966   3.840   2.134
 6914SOL    HW121641   5.924   3.822   2.224
 6914SOL    HW221642   5.999   3.934   2.132
 6915SOL     OW21643   0.896   2.776   1.892
 6915SOL    HW121644   0.924   2.820   1.977
 6915SOL    HW221645   0.974   2.732   1.849
 6916SOL     OW21646   5.339   1.207   5.739
 6916SOL    HW121647   5.341   1.264   5.657
 6916SOL    HW221648   5.245   1.179   5.758
 6917SOL     OW21649   5.016   5.739   1.888
 6917SOL    HW121650   5.021   5.838   1.875
 6917SOL    HW221651   5.108   5.702   1.901
 6918SOL     OW21652   0.500   2.928   2.960
 6918SOL    HW121653   0.447   3.001   2.918
 6918SOL    HW221654   0.566   2.892   2.895
 6919SOL     OW21655   6.354   6.611   3.249
 6919SOL    HW121656   6.291   6.562   3.189
 6919SOL    HW221657   6.435   6.554   3.266
 6920SOL     OW21658   5.008   6.853   5.729
 6920SOL    HW121659   4.910   6.837   5.734
 6920SOL    HW221660   5.045   6.806   5.649
 6921SOL     OW21661   4.017   0.319   4.362
 6921SOL    HW121662   4.095   0.273   4.405
 6921SOL    HW221663   3.954   0.251   4.326
 6922SOL     OW21664   1.939   6.156   4.630
 6922SOL    HW121665   2.009   6.145   4.560
 6922SOL    HW221666   1.858   6.103   4.604
 6923SOL     OW21667   6.159   6.295   2.369
 6923SOL    HW121668   6.094   6.253   2.307
 6923SOL    HW221669   6.147   6.394   2.369
 6924SOL     OW21670   2.876   5.717   1.687
 6924SOL    HW121671   2.865   5.618   1.680
 6924SOL    HW221672   2.801   5.756   1.741
 6925SOL     OW21673   5.000   5.979   6.411
 6925SOL    HW121674   5.082   5.950   6.363
 6925SOL    HW221675   4.932   6.012   6.344
 6926SOL     OW21676   1.979   1.750   0.057
 6926SOL    HW121677   1.939   1.678   0.113
 6926SOL    HW221678   1.965   1.839   0.101
 6927SOL     OW21679   3.802   1.050   0.253
 6927SOL    HW121680   3.736   1.123   0.267
 6927SOL    HW221681   3.851   1.032   0.338
 6928SOL     OW21682   5.138   5.693   1.099
 6928SOL    HW121683   5.187   5.617   1.140
 6928SOL    HW221684   5.200   5.745   1.040
 6929SOL     OW21685   5.663   5.342   1.371
 6929SOL    HW121686   5.586   5.293   1.329
 6929SOL    HW221687   5.690   5.418   1.312
 6930SOL     OW21688   0.845   1.362   0.189
 6930SOL    HW121689   0.927   1.354   0.245
 6930SOL    HW221690   0.798   1.274   0.185
 6931SOL     OW21691   1.930   1.855   0.780
 6931SOL    HW121692   1.875   1.829   0.860
 6931SOL    HW221693   2.026   1.859   0.805
 6932SOL     OW21694   4.625   5.137   0.877
 6932SOL    HW121695   4.546   5.144   0.939
 6932SOL    HW221696   4.595   5.098   0.790
 6933SOL     OW21697   3.936   6.708   6.350
 6933SOL    HW121698   3.855   6.666   6.309
 6933SOL    HW221699   4.009   6.710   6.282
 6934SOL     OW21700   4.711   3.394   6.430
 6934SOL    HW121701   4.754   3.426   6.346
 6934SOL    HW221702   4.612   3.408   6.425
 6935SOL     OW21703   4.556   5.435   2.806
 6935SOL    HW121704   4.531   5.406   2.898
 6935SOL    HW221705   4.474   5.465   2.757
 6936SOL     OW21706   0.155   2.138   4.246
 6936SOL    HW121707   0.056   2.155   4.240
 6936SOL    HW221708   0.193   2.130   4.154
 6937SOL     OW21709   5.748   6.227   0.719
 6937SOL    HW121710   5.840   6.247   0.684
 6937SOL    HW221711   5.700   6.313   0.735
 6938SOL     OW21712   0.399   1.396   4.851
 6938SOL    HW121713   0.352   1.308   4.860
 6938SOL    HW221714   0.337   1.470   4.877
 6939SOL     OW21715   6.144   5.217   3.510
 6939SOL    HW121716   6.242   5.203   3.498
 6939SOL    HW221717   6.096   5.195   3.425
 6940SOL     OW21718   4.973   6.686   0.541
 6940SOL    HW121719   4.902   6.681   0.612
 6940SOL    HW221720   5.027   6.770   0.554
 6941SOL     OW21721   3.005   3.866   2.214
 6941SOL    HW121722   2.975   3.803   2.286
 6941SOL    HW221723   3.092   3.833   2.176
 6942SOL     OW21724   6.108   6.528   1.843
 6942SOL    HW121725   6.195   6.499   1.803
 6942SOL    HW221726   6.081   6.616   1.804
 6943SOL     OW21727   4.209   4.828   0.321
 6943SOL    HW121728   4.135   4.876   0.274
 6943SOL    HW221729   4.171   4.775   0.397
 6944SOL     OW21730   1.101   5.050   6.532
 6944SOL    HW121731   1.079   4.957   6.564
 6944SOL    HW221732   1.122   5.048   6.435
 6945SOL     OW21733   6.663   2.332   0.619
 6945SOL    HW121734   6.717   2.271   0.676
 6945SOL    HW221735   6.675   2.426   0.650
 6946SOL     OW21736   3.952   6.038   1.808
 6946SOL    HW121737   3.940   6.081   1.897
 6946SOL    HW221738   3.915   5.946   1.810
 6947SOL     OW21739   4.191   5.415   6.142
 6947SOL    HW121740   4.280   5.456   6.163
 6947SOL    HW221741   4.196   5.367   6.055
 6948SOL     OW21742   7.004   6.611   1.268
 6948SOL    HW121743   0.055   6.617   1.334
 6948SOL    HW221744   0.018   6.608   1.175
 6949SOL     OW21745   2.631   2.445   3.138
 6949SOL    HW121746   2.608   2.534   3.100
 6949SOL    HW221747   2.632   2.450   3.238
 6950SOL     OW21748   1.460   0.098   3.994
 6950SOL    HW121749   1.385   0.161   4.014
 6950SOL    HW221750   1.548   0.142   4.015
 6951SOL     OW21751   6.446   5.481   6.496
 6951SOL    HW121752   6.486   5.416   6.432
 6951SOL    HW221753   6.449   5.444   6.589
 6952SOL     OW21754   2.576   4.716   3.465
 6952SOL    HW121755   2.568   4.729   3.366
 6952SOL    HW221756   2.672   4.713   3.491
 6953SOL     OW21757   5.168   6.940   0.549
 6953SOL    HW121758   5.258   6.960   0.587
 6953SOL    HW221759   5.172   6.943   0.449
 6954SOL     OW21760   7.015   3.639   1.115
 6954SOL    HW121761   0.035   3.589   1.189
 6954SOL    HW221762   6.926   3.598   1.094
 6955SOL     OW21763   5.280   0.245   2.337
 6955SOL    HW121764   5.238   0.329   2.303
 6955SOL    HW221765   5.300   0.254   2.434
 6956SOL     OW21766   6.206   5.616   2.679
 6956SOL    HW121767   6.305   5.610   2.681
 6956SOL    HW221768   6.167   5.558   2.750
 6957SOL     OW21769   5.112   5.542   6.925
 6957SOL    HW121770   5.040   5.493   6.876
 6957SOL    HW221771   5.071   5.597   6.998
 6958SOL     OW21772   3.400   3.609   4.032
 6958SOL    HW121773   3.359   3.678   4.092
 6958SOL    HW221774   3.329   3.549   3.996
 6959SOL     OW21775   1.596   3.857   2.667
 6959SOL    HW121776   1.664   3.891   2.732
 6959SOL    HW221777   1.562   3.933   2.612
 6960SOL     OW21778   1.801   4.534   1.218
 6960SOL    HW121779   1.797   4.519   1.317
 6960SOL    HW221780   1.859   4.613   1.198
 6961SOL     OW21781   4.815   1.051   4.504
 6961SOL    HW121782   4.771   0.996   4.432
 6961SOL    HW221783   4.914   1.044   4.495
 6962SOL     OW21784   3.552   6.533   0.522
 6962SOL    HW121785   3.475   6.533   0.459
 6962SOL    HW221786   3.520   6.508   0.614
 6963SOL     OW21787   5.315   5.643   6.763
 6963SOL    HW121788   5.394   5.693   6.799
 6963SOL    HW221789   5.259   5.610   6.838
 6964SOL     OW21790   3.005   0.242   5.669
 6964SOL    HW121791   3.032   0.238   5.766
 6964SOL    HW221792   2.910   0.273   5.663
 6965SOL     OW21793   1.253   1.959   6.540
 6965SOL    HW121794   1.342   1.959   6.495
 6965SOL    HW221795   1.200   2.038   6.509
 6966SOL     OW21796   1.548   0.925   2.182
 6966SOL    HW121797   1.586   0.833   2.186
 6966SOL    HW221798   1.495   0.936   2.098
 6967SOL     OW21799   3.875   1.134   5.735
 6967SOL    HW121800   3.786   1.093   5.713
 6967SOL    HW221801   3.873   1.232   5.714
 6968SOL     OW21802   2.980   0.453   2.840
 6968SOL    HW121803   2.884   0.460   2.868
 6968SOL    HW221804   2.984   0.440   2.741
 6969SOL     OW21805   3.065   2.147   1.050
 6969SOL    HW121806   3.095   2.057   1.081
 6969SOL    HW221807   3.010   2.190   1.121
 6970SOL     OW21808   3.515   5.060   6.001
 6970SOL    HW121809   3.608   5.064   6.038
 6970SOL    HW221810   3.495   4.967   5.970
 6971SOL     OW21811   5.455   4.622   1.345
 6971SOL    HW121812   5.384   4.675   1.298
 6971SOL    HW221813   5.415   4.573   1.422
 6972SOL     OW21814   5.278   3.621   2.830
 6972SOL    HW121815   5.245   3.688   2.896
 6972SOL    HW221816   5.280   3.530   2.873
 6973SOL     OW21817   1.214   2.450   3.025
 6973SOL    HW121818   1.132   2.488   3.068
 6973SOL    HW221819   1.227   2.491   2.935
 6974SOL     OW21820   3.063   3.936   2.505
 6974SOL    HW121821   2.977   3.896   2.475
 6974SOL    HW221822   3.073   3.923   2.604
 6975SOL     OW21823   2.664   5.472   4.639
 6975SOL    HW121824   2.649   5.462   4.737
 6975SOL    HW221825   2.725   5.550   4.622
 6976SOL     OW21826   5.263   4.194   5.535
 6976SOL    HW121827   5.212   4.163   5.615
 6976SOL    HW221828   5.242   4.135   5.457
 6977SOL     OW21829   4.236   4.310   1.608
 6977SOL    HW121830   4.230   4.210   1.614
 6977SOL    HW221831   4.143   4.348   1.606
 6978SOL     OW21832   5.312   2.804   1.161
 6978SOL    HW121833   5.250   2.725   1.154
 6978SOL    HW221834   5.406   2.772   1.166
 6979SOL     OW21835   1.454   3.347   1.336
 6979SOL    HW121836   1.492   3.432   1.373
 6979SOL    HW221837   1.409   3.366   1.248
 6980SOL     OW21838   1.424   0.828   3.468
 6980SOL    HW121839   1.505   0.867   3.424
 6980SOL    HW221840   1.342   0.860   3.421
 6981SOL     OW21841   3.540   3.419   6.638
 6981SOL    HW121842   3.595   3.450   6.715
 6981SOL    HW221843   3.552   3.482   6.561
 6982SOL     OW21844   0.857   0.992   3.457
 6982SOL    HW121845   0.823   1.086   3.468
 6982SOL    HW221846   0.912   0.967   3.536
 6983SOL     OW21847   4.517   1.437   5.338
 6983SOL    HW121848   4.535   1.433   5.239
 6983SOL    HW221849   4.587   1.385   5.387
 6984SOL     OW21850   1.667   2.028   2.618
 6984SOL    HW121851   1.598   2.101   2.613
 6984SOL    HW221852   1.758   2.069   2.615
 6985SOL     OW21853   6.412   4.450   0.340
 6985SOL    HW121854   6.416   4.374   0.275
 6985SOL    HW221855   6.504   4.473   0.370
 6986SOL     OW21856   3.615   6.469   6.517
 6986SOL    HW121857   3.682   6.395   6.514
 6986SOL    HW221858   3.590   6.496   6.424
 6987SOL     OW21859   0.063   1.686   5.413
 6987SOL    HW121860   0.097   1.730   5.496
 6987SOL    HW221861   0.135   1.630   5.373
 6988SOL     OW21862   2.377   0.469   5.932
 6988SOL    HW121863   2.314   0.507   6.000
 6988SOL    HW221864   2.409   0.380   5.963
 6989SOL     OW21865   6.509   4.464   2.151
 6989SOL    HW121866   6.608   4.459   2.165
 6989SOL    HW221867   6.484   4.410   2.070
 6990SOL     OW21868   3.884   3.041   1.839
 6990SOL    HW121869   3.952   2.990   1.786
 6990SOL    HW221870   3.907   3.138   1.839
 6991SOL     OW21871   5.110   4.693   3.545
 6991SOL    HW121872   5.077   4.650   3.629
 6991SOL    HW221873   5.176   4.633   3.499
 6992SOL     OW21874   0.127   6.382   0.612
 6992SOL    HW121875   0.045   6.352   0.563
 6992SOL    HW221876   0.115   6.476   0.644
 6993SOL     OW21877   6.196   0.440   1.527
 6993SOL    HW121878   6.145   0.430   1.441
 6993SOL    HW221879   6.153   0.385   1.598
 6994SOL     OW21880   1.235   0.248   3.764
 6994SOL    HW121881   1.324   0.293   3.762
 6994SOL    HW221882   1.234   0.180   3.838
 6995SOL     OW21883   0.780   3.910   0.420
 6995SOL    HW121884   0.720   3.968   0.475
 6995SOL    HW221885   0.805   3.959   0.337
 6996SOL     OW21886   1.166   0.455   7.006
 6996SOL    HW121887   1.180   0.553   6.997
 6996SOL    HW221888   1.067   0.435   7.006
 6997SOL     OW21889   0.145   4.706   5.339
 6997SOL    HW121890   0.220   4.700   5.273
 6997SOL    HW221891   0.180   4.684   5.430
 6998SOL     OW21892   0.533   1.490   1.563
 6998SOL    HW121893   0.566   1.401   1.531
 6998SOL    HW221894   0.594   1.526   1.633
 6999SOL     OW21895   0.155   2.371   6.566
 6999SOL    HW121896   0.110   2.367   6.477
 6999SOL    HW221897   0.174   2.467   6.589
 7000SOL     OW21898   6.081   0.245   2.573
 7000SOL    HW121899   6.075   0.178   2.647
 7000SOL    HW221900   6.118   0.331   2.609
 7001SOL     OW21901   0.950   1.681   4.737
 7001SOL    HW121902   0.895   1.757   4.700
 7001SOL    HW221903   0.944   1.603   4.674
 7002SOL     OW21904   1.135   5.455   3.780
 7002SOL    HW121905   1.164   5.549   3.761
 7002SOL    HW221906   1.170   5.394   3.708
 7003SOL     OW21907   5.983   4.547   1.304
 7003SOL    HW121908   5.890   4.542   1.267
 7003SOL    HW221909   6.007   4.460   1.347
 7004SOL     OW21910   1.561   5.589   0.533
 7004SOL    HW121911   1.473   5.613   0.573
 7004SOL    HW221912   1.550   5.570   0.436
 7005SOL     OW21913   0.696   6.892   6.638
 7005SOL    HW121914   0.729   6.961   6.702
 7005SOL    HW221915   0.727   6.914   6.545
 7006SOL     OW21916   6.541   6.458   3.350
 7006SOL    HW121917   6.515   6.362   3.345
 7006SOL    HW221918   6.572   6.479   3.443
 7007SOL     OW21919   4.315   0.513   5.674
 7007SOL    HW121920   4.365   0.575   5.613
 7007SOL    HW221921   4.378   0.475   5.742
 7008SOL     OW21922   6.796   4.453   3.795
 7008SOL    HW121923   6.861   4.376   3.798
 7008SOL    HW221924   6.754   4.458   3.705
 7009SOL     OW21925   4.365   6.743   2.135
 7009SOL    HW121926   4.418   6.785   2.061
 7009SOL    HW221927   4.274   6.719   2.102
 7010SOL     OW21928   5.685   4.080   2.782
 7010SOL    HW121929   5.709   4.033   2.697
 7010SOL    HW221930   5.768   4.104   2.832
 7011SOL     OW21931   4.017   6.945   0.821
 7011SOL    HW121932   4.110   6.942   0.782
 7011SOL    HW221933   4.002   0.009   0.865
 7012SOL     OW21934   1.423   3.024   0.874
 7012SOL    HW121935   1.390   3.071   0.956
 7012SOL    HW221936   1.393   2.929   0.875
 7013SOL     OW21937   2.339   1.106   6.623
 7013SOL    HW121938   2.332   1.009   6.646
 7013SOL    HW221939   2.247   1.146   6.620
 7014SOL     OW21940   5.862   3.558   1.261
 7014SOL    HW121941   5.878   3.462   1.285
 7014SOL    HW221942   5.900   3.617   1.333
 7015SOL     OW21943   5.857   4.629   2.431
 7015SOL    HW121944   5.805   4.549   2.460
 7015SOL    HW221945   5.946   4.599   2.395
 7016SOL     OW21946   3.323   5.096   1.434
 7016SOL    HW121947   3.378   5.139   1.363
 7016SOL    HW221948   3.226   5.110   1.414
 7017SOL     OW21949   3.788   5.051   3.336
 7017SOL    HW121950   3.742   4.992   3.402
 7017SOL    HW221951   3.866   5.002   3.297
 7018SOL     OW21952   5.439   3.420   4.226
 7018SOL    HW121953   5.384   3.377   4.297
 7018SOL    HW221954   5.380   3.457   4.155
 7019SOL     OW21955   4.725   5.142   2.398
 7019SOL    HW121956   4.758   5.183   2.483
 7019SOL    HW221957   4.788   5.071   2.368
 7020SOL     OW21958   0.531   3.685   6.648
 7020SOL    HW121959   0.618   3.689   6.696
 7020SOL    HW221960   0.544   3.641   6.559
 7021SOL     OW21961   0.948   2.858   4.632
 7021SOL    HW121962   0.884   2.841   4.557
 7021SOL    HW221963   1.042   2.854   4.598
 7022SOL     OW21964   4.355   0.436   0.205
 7022SOL    HW121965   4.381   0.529   0.230
 7022SOL    HW221966   4.299   0.437   0.122
 7023SOL     OW21967   0.408   2.210   1.790
 7023SOL    HW121968   0.435   2.306   1.784
 7023SOL    HW221969   0.406   2.170   1.698
 7024SOL     OW21970   3.756   2.906   3.843
 7024SOL    HW121971   3.755   2.814   3.882
 7024SOL    HW221972   3.835   2.956   3.878
 7025SOL     OW21973   3.374   0.336   7.014
 7025SOL    HW121974   3.441   0.401   6.980
 7025SOL    HW221975   3.393   0.316   0.087
 7026SOL     OW21976   3.341   1.663   1.590
 7026SOL    HW121977   3.353   1.643   1.688
 7026SOL    HW221978   3.425   1.704   1.554
 7027SOL     OW21979   2.409   5.946   3.409
 7027SOL    HW121980   2.385   6.043   3.420
 7027SOL    HW221981   2.331   5.897   3.368
 7028SOL     OW21982   2.384   0.396   3.405
 7028SOL    HW121983   2.452   0.469   3.400
 7028SOL    HW221984   2.293   0.436   3.419
 7029SOL     OW21985   2.875   3.691   5.757
 7029SOL    HW121986   2.823   3.643   5.828
 7029SOL    HW221987   2.932   3.627   5.707
 7030SOL     OW21988   0.763   2.265   4.719
 7030SOL    HW121989   0.727   2.237   4.630
 7030SOL    HW221990   0.713   2.217   4.791
 7031SOL     OW21991   4.399   6.266   0.397
 7031SOL    HW121992   4.498   6.260   0.382
 7031SOL    HW221993   4.376   6.358   0.427
 7032SOL     OW21994   4.339   0.685   4.447
 7032SOL    HW121995   4.280   0.751   4.494
 7032SOL    HW221996   4.432   0.692   4.483
 7033SOL     OW21997   1.673   2.856   4.387
 7033SOL    HW121998   1.770   2.880   4.389
 7033SOL    HW221999   1.633   2.883   4.299
 7034SOL     OW22000   6.401   2.517   3.536
 7034SOL    HW122001   6.316   2.501   3.487
 7034SOL    HW222002   6.427   2.613   3.528
 7035SOL     OW22003   1.851   7.014   1.905
 7035SOL    HW122004   1.895   7.008   1.994
 7035SOL    HW222005   1.918   0.022   1.837
 7036SOL     OW22006   0.340   1.935   2.334
 7036SOL    HW122007   0.366   1.846   2.369
 7036SOL    HW222008   0.395   2.006   2.378
 7037SOL     OW22009   0.262   0.540   5.476
 7037SOL    HW122010   0.176   0.590   5.472
 7037SOL    HW222011   0.295   0.539   5.570
 7038SOL     OW22012   3.102   4.420   5.680
 7038SOL    HW122013   3.040   4.456   5.611
 7038SOL    HW222014   3.050   4.368   5.748
 7039SOL     OW22015   0.817   5.156   3.842
 7039SOL    HW122016   0.743   5.094   3.865
 7039SOL    HW222017   0.888   5.106   3.793
 7040SOL     OW22018   4.661   2.328   5.005
 7040SOL    HW122019   4.752   2.287   5.009
 7040SOL    HW222020   4.660   2.400   4.935
 7041SOL     OW22021   1.275   1.323   3.607
 7041SOL    HW122022   1.240   1.317   3.513
 7041SOL    HW222023   1.340   1.248   3.623
 7042SOL     OW22024   4.561   6.203   4.883
 7042SOL    HW122025   4.531   6.172   4.974
 7042SOL    HW222026   4.599   6.125   4.833
 7043SOL     OW22027   2.453   4.409   4.030
 7043SOL    HW122028   2.406   4.353   3.962
 7043SOL    HW222029   2.511   4.476   3.983
 7044SOL     OW22030   4.776   6.988   4.752
 7044SOL    HW122031   4.737   6.979   4.843
 7044SOL    HW222032   4.702   7.007   4.686
 7045SOL     OW22033   6.125   5.267   2.628
 7045SOL    HW122034   6.054   5.305   2.568
 7045SOL    HW222035   6.140   5.330   2.705
 7046SOL     OW22036   3.318   2.002   4.423
 7046SOL    HW122037   3.249   2.072   4.441
 7046SOL    HW222038   3.393   2.010   4.489
 7047SOL     OW22039   0.593   0.931   1.402
 7047SOL    HW122040   0.528   0.916   1.327
 7047SOL    HW222041   0.612   0.844   1.448
 7048SOL     OW22042   5.954   6.289   4.735
 7048SOL    HW122043   5.979   6.341   4.816
 7048SOL    HW222044   5.987   6.195   4.743
 7049SOL     OW22045   3.977   1.580   2.504
 7049SOL    HW122046   4.005   1.662   2.454
 7049SOL    HW222047   4.038   1.505   2.482
 7050SOL     OW22048   3.571   4.926   1.015
 7050SOL    HW122049   3.658   4.950   1.059
 7050SOL    HW222050   3.519   4.866   1.076
 7051SOL     OW22051   0.161   0.142   1.451
 7051SOL    HW122052   0.109   0.170   1.371
 7051SOL    HW222053   0.107   0.078   1.505
 7052SOL     OW22054   5.315   6.644   3.189
 7052SOL    HW122055   5.378   6.621   3.263
 7052SOL    HW222056   5.221   6.640   3.224
 7053SOL     OW22057   1.515   3.275   4.049
 7053SOL    HW122058   1.577   3.299   3.974
 7053SOL    HW222059   1.538   3.330   4.129
 7054SOL     OW22060   0.332   0.444   0.990
 7054SOL    HW122061   0.261   0.418   0.925
 7054SOL    HW222062   0.397   0.369   1.000
 7055SOL     OW22063   2.067   0.555   6.785
 7055SOL    HW122064   2.006   0.523   6.858
 7055SOL    HW222065   2.065   0.490   6.709
 7056SOL     OW22066   6.829   5.915   0.990
 7056SOL    HW122067   6.800   5.874   0.903
 7056SOL    HW222068   6.919   5.956   0.979
 7057SOL     OW22069   3.174   5.243   4.212
 7057SOL    HW122070   3.119   5.270   4.132
 7057SOL    HW222071   3.113   5.222   4.289
 7058SOL     OW22072   5.225   1.924   6.641
 7058SOL    HW122073   5.209   1.996   6.708
 7058SOL    HW222074   5.323   1.903   6.636
 7059SOL     OW22075   1.959   1.593   4.639
 7059SOL    HW122076   1.926   1.626   4.551
 7059SOL    HW222077   1.882   1.581   4.702
 7060SOL     OW22078   3.233   6.698   2.647
 7060SOL    HW122079   3.183   6.734   2.725
 7060SOL    HW222080   3.173   6.694   2.567
 7061SOL     OW22081   1.246   1.887   2.401
 7061SOL    HW122082   1.297   1.889   2.487
 7061SOL    HW222083   1.282   1.957   2.339
 7062SOL     OW22084   4.450   2.168   4.343
 7062SOL    HW122085   4.445   2.258   4.300
 7062SOL    HW222086   4.359   2.142   4.375
 7063SOL     OW22087   0.475   6.663   2.559
 7063SOL    HW122088   0.502   6.582   2.507
 7063SOL    HW222089   0.501   6.651   2.655
 7064SOL     OW22090   5.094   1.614   5.933
 7064SOL    HW122091   5.172   1.677   5.933
 7064SOL    HW222092   5.028   1.643   5.863
 7065SOL     OW22093   3.384   4.438   5.321
 7065SOL    HW122094   3.323   4.360   5.336
 7065SOL    HW222095   3.471   4.405   5.283
 7066SOL     OW22096   5.023   0.666   6.753
 7066SOL    HW122097   4.933   0.706   6.733
 7066SOL    HW222098   5.030   0.646   6.850
 7067SOL     OW22099   1.591   3.580   0.052
 7067SOL    HW122100   1.548   3.505   0.103
 7067SOL    HW222101   1.564   3.667   0.092
 7068SOL     OW22102   5.841   4.471   4.290
 7068SOL    HW122103   5.915   4.537   4.301
 7068SOL    HW222104   5.866   4.403   4.221
 7069SOL     OW22105   6.211   1.373   5.823
 7069SOL    HW122106   6.172   1.420   5.902
 7069SOL    HW222107   6.164   1.286   5.808
 7070SOL     OW22108   0.462   6.372   4.931
 7070SOL    HW122109   0.365   6.379   4.906
 7070SOL    HW222110   0.479   6.283   4.972
 7071SOL     OW22111   5.466   6.359   6.537
 7071SOL    HW122112   5.420   6.384   6.622
 7071SOL    HW222113   5.434   6.269   6.506
 7072SOL     OW22114   1.333   4.532   6.879
 7072SOL    HW122115   1.323   4.464   6.806
 7072SOL    HW222116   1.270   4.607   6.863
 7073SOL     OW22117   4.033   0.376   3.207
 7073SOL    HW122118   4.082   0.295   3.238
 7073SOL    HW222119   4.089   0.427   3.142
 7074SOL     OW22120   6.496   3.492   3.554
 7074SOL    HW122121   6.493   3.592   3.563
 7074SOL    HW222122   6.483   3.466   3.458
 7075SOL     OW22123   3.006   4.884   5.139
 7075SOL    HW122124   2.986   4.788   5.120
 7075SOL    HW222125   2.992   4.902   5.237
 7076SOL     OW22126   5.969   2.966   1.636
 7076SOL    HW122127   6.026   2.946   1.716
 7076SOL    HW222128   6.010   2.925   1.555
 7077SOL     OW22129   2.877   5.134   2.565
 7077SOL    HW122130   2.963   5.179   2.542
 7077SOL    HW222131   2.854   5.150   2.660
 7078SOL     OW22132   5.686   6.918   0.686
 7078SOL    HW122133   5.745   6.904   0.766
 7078SOL    HW222134   5.736   6.892   0.603
 7079SOL     OW22135   1.164   6.811   3.553
 7079SOL    HW122136   1.207   6.727   3.587
 7079SOL    HW222137   1.233   6.870   3.511
 7080SOL     OW22138   4.330   1.782   4.663
 7080SOL    HW122139   4.358   1.690   4.633
 7080SOL    HW222140   4.238   1.777   4.701
 7081SOL     OW22141   1.462   0.741   0.084
 7081SOL    HW122142   1.526   0.721   0.159
 7081SOL    HW222143   1.491   0.692   0.002
 7082SOL     OW22144   6.653   3.626   1.689
 7082SOL    HW122145   6.587   3.700   1.685
 7082SOL    HW222146   6.730   3.652   1.747
 7083SOL     OW22147   0.014   2.255   2.293
 7083SOL    HW122148   7.022   2.246   2.194
 7083SOL    HW222149   0.083   2.325   2.309
 7084SOL     OW22150   0.391   5.428   6.089
 7084SOL    HW122151   0.404   5.509   6.032
 7084SOL    HW222152   0.298   5.427   6.125
 7085SOL     OW22153   0.085   2.827   2.315
 7085SOL    HW122154   0.170   2.778   2.293
 7085SOL    HW222155   0.009   2.785   2.264
 7086SOL     OW22156   5.979   0.480   0.093
 7086SOL    HW122157   5.906   0.515   0.034
 7086SOL    HW222158   6.060   0.538   0.083
 7087SOL     OW22159   5.121   3.251   2.728
 7087SOL    HW122160   5.025   3.256   2.758
 7087SOL    HW222161   5.146   3.337   2.684
 7088SOL     OW22162   6.010   1.484   4.950
 7088SOL    HW122163   5.929   1.449   4.903
 7088SOL    HW222164   6.076   1.410   4.964
 7089SOL     OW22165   3.988   5.771   2.407
 7089SOL    HW122166   3.905   5.826   2.408
 7089SOL    HW222167   4.022   5.762   2.501
 7090SOL     OW22168   3.510   1.352   1.018
 7090SOL    HW122169   3.556   1.439   1.032
 7090SOL    HW222170   3.445   1.360   0.942
 7091SOL     OW22171   0.810   0.134   0.202
 7091SOL    HW122172   0.753   0.175   0.272
 7091SOL    HW222173   0.906   0.160   0.216
 7092SOL     OW22174   4.055   2.130   6.663
 7092SOL    HW122175   4.028   2.179   6.580
 7092SOL    HW222176   4.100   2.194   6.726
 7093SOL     OW22177   3.788   3.893   1.169
 7093SOL    HW122178   3.745   3.939   1.247
 7093SOL    HW222179   3.786   3.953   1.090
 7094SOL     OW22180   1.806   6.671   5.849
 7094SOL    HW122181   1.763   6.581   5.861
 7094SOL    HW222182   1.906   6.661   5.858
 7095SOL     OW22183   3.315   4.841   5.160
 7095SOL    HW122184   3.297   4.864   5.064
 7095SOL    HW222185   3.244   4.779   5.193
 7096SOL     OW22186   6.679   0.715   1.206
 7096SOL    HW122187   6.749   0.760   1.262
 7096SOL    HW222188   6.686   0.747   1.112
 7097SOL     OW22189   5.282   0.118   1.879
 7097SOL    HW122190   5.349   0.114   1.804
 7097SOL    HW222191   5.330   0.103   1.966
 7098SOL     OW22192   1.850   0.027   4.505
 7098SOL    HW122193   1.757   0.014   4.471
 7098SOL    HW222194   1.866   6.989   4.582
 7099SOL     OW22195   3.585   2.103   4.210
 7099SOL    HW122196   3.525   2.026   4.233
 7099SOL    HW222197   3.540   2.161   4.142
 7100SOL     OW22198   0.674   3.626   0.553
 7100SOL    HW122199   0.681   3.724   0.533
 7100SOL    HW222200   0.731   3.604   0.632
 7101SOL     OW22201   2.358   6.147   5.426
 7101SOL    HW122202   2.321   6.104   5.343
 7101SOL    HW222203   2.336   6.244   5.425
 7102SOL     OW22204   5.014   1.169   1.264
 7102SOL    HW122205   5.054   1.225   1.191
 7102SOL    HW222206   4.917   1.192   1.275
 7103SOL     OW22207   4.996   5.136   2.061
 7103SOL    HW122208   5.013   5.142   2.160
 7103SOL    HW222209   4.943   5.216   2.032
 7104SOL     OW22210   5.407   3.031   3.187
 7104SOL    HW122211   5.477   3.066   3.249
 7104SOL    HW222212   5.387   3.099   3.117
 7105SOL     OW22213   3.164   4.021   4.041
 7105SOL    HW122214   3.239   4.087   4.045
 7105SOL    HW222215   3.083   4.058   4.086
 7106SOL     OW22216   3.470   2.942   1.396
 7106SOL    HW122217   3.449   2.913   1.489
 7106SOL    HW222218   3.433   2.875   1.331
 7107SOL     OW22219   4.365   0.043   6.942
 7107SOL    HW122220   4.356   0.104   7.020
 7107SOL    HW222221   4.278   7.021   6.925
 7108SOL     OW22222   2.583   6.271   3.026
 7108SOL    HW122223   2.561   6.359   3.068
 7108SOL    HW222224   2.663   6.232   3.071
 7109SOL     OW22225   1.421   0.534   6.578
 7109SOL    HW122226   1.426   0.526   6.478
 7109SOL    HW222227   1.505   0.577   6.612
 7110SOL     OW22228   3.108   6.704   4.412
 7110SOL    HW122229   3.183   6.701   4.345
 7110SOL    HW222230   3.075   6.611   4.429
 7111SOL     OW22231   1.288   0.924   4.142
 7111SOL    HW122232   1.274   0.865   4.063
 7111SOL    HW222233   1.237   1.010   4.129
 7112SOL     OW22234   2.043   4.274   4.608
 7112SOL    HW122235   1.989   4.276   4.692
 7112SOL    HW222236   2.098   4.190   4.605
 7113SOL     OW22237   2.723   4.684   5.258
 7113SOL    HW122238   2.793   4.662   5.190
 7113SOL    HW222239   2.732   4.622   5.336
 7114SOL     OW22240   4.686   5.420   1.093
 7114SOL    HW122241   4.741   5.363   1.032
 7114SOL    HW222242   4.732   5.508   1.107
 7115SOL     OW22243   5.889   4.277   6.697
 7115SOL    HW122244   5.913   4.192   6.742
 7115SOL    HW222245   5.968   4.311   6.646
 7116SOL     OW22246   6.700   4.029   3.961
 7116SOL    HW122247   6.671   3.934   3.976
 7116SOL    HW222248   6.694   4.079   4.048
 7117SOL     OW22249   6.228   6.920   3.550
 7117SOL    HW122250   6.211   6.914   3.648
 7117SOL    HW222251   6.272   6.836   3.518
 7118SOL     OW22252   4.132   4.567   5.451
 7118SOL    HW122253   4.196   4.534   5.521
 7118SOL    HW222254   4.090   4.488   5.406
 7119SOL     OW22255   5.175   0.788   5.034
 7119SOL    HW122256   5.189   0.694   5.065
 7119SOL    HW222257   5.082   0.798   5.000
 7120SOL     OW22258   5.101   1.416   1.170
 7120SOL    HW122259   5.192   1.401   1.132
 7120SOL    HW222260   5.106   1.425   1.269
 7121SOL     OW22261   1.046   6.293   3.595
 7121SOL    HW122262   1.030   6.243   3.681
 7121SOL    HW222263   1.064   6.228   3.522
 7122SOL     OW22264   2.726   6.922   5.501
 7122SOL    HW122265   2.825   6.913   5.514
 7122SOL    HW222266   2.708   6.959   5.410
 7123SOL     OW22267   6.030   4.907   4.994
 7123SOL    HW122268   6.040   4.939   4.900
 7123SOL    HW222269   6.027   4.986   5.055
 7124SOL     OW22270   1.088   2.626   1.763
 7124SOL    HW122271   1.105   2.543   1.709
 7124SOL    HW222272   1.163   2.691   1.748
 7125SOL     OW22273   0.712   0.444   1.837
 7125SOL    HW122274   0.732   0.347   1.823
 7125SOL    HW222275   0.745   0.496   1.758
 7126SOL     OW22276   4.163   6.274   1.346
 7126SOL    HW122277   4.180   6.337   1.421
 7126SOL    HW222278   4.065   6.272   1.326
 7127SOL     OW22279   3.583   5.945   5.114
 7127SOL    HW122280   3.549   5.985   5.199
 7127SOL    HW222281   3.509   5.938   5.048
 7128SOL     OW22282   3.367   5.015   6.243
 7128SOL    HW122283   3.346   4.921   6.218
 7128SOL    HW222284   3.442   5.049   6.186
 7129SOL     OW22285   0.473   1.654   1.377
 7129SOL    HW122286   0.558   1.647   1.324
 7129SOL    HW222287   0.477   1.590   1.454
 7130SOL     OW22288   2.756   7.022   4.438
 7130SOL    HW122289   2.768   0.072   4.372
 7130SOL    HW222290   2.699   6.950   4.397
 7131SOL     OW22291   3.673   0.704   2.694
 7131SOL    HW122292   3.673   0.694   2.595
 7131SOL    HW222293   3.604   0.644   2.734
 7132SOL     OW22294   5.366   3.785   6.750
 7132SOL    HW122295   5.317   3.855   6.697
 7132SOL    HW222296   5.309   3.704   6.759
 7133SOL     OW22297   3.466   5.711   3.584
 7133SOL    HW122298   3.508   5.622   3.570
 7133SOL    HW222299   3.368   5.700   3.599
 7134SOL     OW22300   6.002   5.627   1.789
 7134SOL    HW122301   5.925   5.638   1.853
 7134SOL    HW222302   6.061   5.708   1.795
 7135SOL     OW22303   2.053   3.386   2.104
 7135SOL    HW122304   1.977   3.448   2.120
 7135SOL    HW222305   2.126   3.434   2.055
 7136SOL     OW22306   3.067   1.801   1.852
 7136SOL    HW122307   2.968   1.786   1.849
 7136SOL    HW222308   3.096   1.849   1.769
 7137SOL     OW22309   2.991   1.943   1.479
 7137SOL    HW122310   3.027   1.915   1.390
 7137SOL    HW222311   3.066   1.957   1.543
 7138SOL     OW22312   1.954   1.494   0.957
 7138SOL    HW122313   1.928   1.590   0.950
 7138SOL    HW222314   1.886   1.444   1.010
 7139SOL     OW22315   5.396   5.570   2.141
 7139SOL    HW122316   5.305   5.573   2.098
 7139SOL    HW222317   5.402   5.641   2.211
 7140SOL     OW22318   6.335   3.679   0.751
 7140SOL    HW122319   6.335   3.625   0.667
 7140SOL    HW222320   6.353   3.775   0.728
 7141SOL     OW22321   4.193   6.706   1.135
 7141SOL    HW122322   4.192   6.660   1.046
 7141SOL    HW222323   4.240   6.795   1.126
 7142SOL     OW22324   3.283   0.750   4.097
 7142SOL    HW122325   3.328   0.708   4.176
 7142SOL    HW222326   3.189   0.773   4.121
 7143SOL     OW22327   2.492   4.864   6.467
 7143SOL    HW122328   2.460   4.864   6.372
 7143SOL    HW222329   2.416   4.890   6.527
 7144SOL     OW22330   6.971   1.128   4.239
 7144SOL    HW122331   0.022   1.191   4.262
 7144SOL    HW222332   6.898   1.179   4.194
 7145SOL     OW22333   4.722   1.812   0.459
 7145SOL    HW122334   4.791   1.855   0.400
 7145SOL    HW222335   4.693   1.726   0.418
 7146SOL     OW22336   2.104   1.251   5.019
 7146SOL    HW122337   2.072   1.345   5.014
 7146SOL    HW222338   2.137   1.221   4.930
 7147SOL     OW22339   5.505   4.718   2.838
 7147SOL    HW122340   5.546   4.647   2.895
 7147SOL    HW222341   5.426   4.757   2.886
 7148SOL     OW22342   6.401   6.046   1.957
 7148SOL    HW122343   6.496   6.061   1.982
 7148SOL    HW222344   6.361   5.976   2.015
 7149SOL     OW22345   0.004   4.422   4.268
 7149SOL    HW122346   0.078   4.428   4.334
 7149SOL    HW222347   6.964   4.350   4.295
 7150SOL     OW22348   4.066   3.457   0.052
 7150SOL    HW122349   4.066   3.357   0.046
 7150SOL    HW222350   3.976   3.492   0.027
 7151SOL     OW22351   3.854   0.179   1.164
 7151SOL    HW122352   3.938   0.229   1.183
 7151SOL    HW222353   3.776   0.241   1.171
 7152SOL     OW22354   0.139   0.807   6.538
 7152SOL    HW122355   0.055   0.754   6.542
 7152SOL    HW222356   0.162   0.827   6.443
 7153SOL     OW22357   4.553   6.192   1.414
 7153SOL    HW122358   4.623   6.175   1.483
 7153SOL    HW222359   4.530   6.289   1.413
 7154SOL     OW22360   4.103   1.310   2.422
 7154SOL    HW122361   4.148   1.290   2.336
 7154SOL    HW222362   4.169   1.305   2.497
 7155SOL     OW22363   3.342   1.937   2.422
 7155SOL    HW122364   3.312   2.023   2.380
 7155SOL    HW222365   3.329   1.862   2.358
 7156SOL     OW22366   5.598   3.587   1.199
 7156SOL    HW122367   5.689   3.605   1.236
 7156SOL    HW222368   5.566   3.498   1.232
 7157SOL     OW22369   6.176   4.049   6.358
 7157SOL    HW122370   6.211   3.991   6.285
 7157SOL    HW222371   6.076   4.043   6.361
 7158SOL     OW22372   5.293   6.627   4.032
 7158SOL    HW122373   5.279   6.528   4.032
 7158SOL    HW222374   5.207   6.672   4.055
 7159SOL     OW22375   7.010   5.122   4.297
 7159SOL    HW122376   6.958   5.207   4.285
 7159SOL    HW222377   0.026   5.121   4.389
 7160SOL     OW22378   5.197   6.874   2.847
 7160SOL    HW122379   5.281   6.828   2.877
 7160SOL    HW222380   5.209   6.911   2.756
 7161SOL     OW22381   4.067   3.177   3.375
 7161SOL    HW122382   4.042   3.113   3.447
 7161SOL    HW222383   4.032   3.144   3.287
 7162SOL     OW22384   0.223   5.652   2.228
 7162SOL    HW122385   0.135   5.665   2.272
 7162SOL    HW222386   0.215   5.668   2.130
 7163SOL     OW22387   1.238   1.659   2.234
 7163SOL    HW122388   1.295   1.683   2.155
 7163SOL    HW222389   1.228   1.739   2.293
 7164SOL     OW22390   1.395   1.293   6.165
 7164SOL    HW122391   1.492   1.293   6.139
 7164SOL    HW222392   1.355   1.383   6.144
 7165SOL     OW22393   5.806   0.109   0.178
 7165SOL    HW122394   5.752   0.027   0.161
 7165SOL    HW222395   5.799   0.171   0.100
 7166SOL     OW22396   4.940   6.529   6.199
 7166SOL    HW122397   4.919   6.613   6.150
 7166SOL    HW222398   4.964   6.551   6.293
 7167SOL     OW22399   6.138   1.781   4.736
 7167SOL    HW122400   6.057   1.764   4.793
 7167SOL    HW222401   6.217   1.797   4.794
 7168SOL     OW22402   2.318   1.085   2.361
 7168SOL    HW122403   2.396   1.023   2.364
 7168SOL    HW222404   2.238   1.037   2.324
 7169SOL     OW22405   1.843   4.069   5.733
 7169SOL    HW122406   1.807   4.162   5.729
 7169SOL    HW222407   1.931   4.065   5.686
 7170SOL     OW22408   4.282   0.591   1.858
 7170SOL    HW122409   4.328   0.674   1.827
 7170SOL    HW222410   4.220   0.613   1.934
 7171SOL     OW22411   5.581   4.834   0.795
 7171SOL    HW122412   5.628   4.919   0.772
 7171SOL    HW222413   5.637   4.781   0.860
 7172SOL     OW22414   1.641   1.279   4.384
 7172SOL    HW122415   1.726   1.286   4.331
 7172SOL    HW222416   1.565   1.261   4.322
 7173SOL     OW22417   5.437   5.702   6.529
 7173SOL    HW122418   5.494   5.783   6.549
 7173SOL    HW222419   5.394   5.670   6.614
 7174SOL     OW22420   6.085   4.528   0.970
 7174SOL    HW122421   6.093   4.520   1.069
 7174SOL    HW222422   6.043   4.444   0.933
 7175SOL     OW22423   5.976   4.036   5.254
 7175SOL    HW122424   5.884   4.045   5.215
 7175SOL    HW222425   6.042   4.081   5.193
 7176SOL     OW22426   0.287   1.540   4.163
 7176SOL    HW122427   0.275   1.632   4.126
 7176SOL    HW222428   0.282   1.543   4.263
 7177SOL     OW22429   2.197   5.215   5.370
 7177SOL    HW122430   2.173   5.159   5.449
 7177SOL    HW222431   2.115   5.233   5.316
 7178SOL     OW22432   0.622   0.511   5.198
 7178SOL    HW122433   0.655   0.460   5.278
 7178SOL    HW222434   0.608   0.607   5.224
 7179SOL     OW22435   2.955   5.629   6.578
 7179SOL    HW122436   2.899   5.710   6.594
 7179SOL    HW222437   3.040   5.636   6.629
 7180SOL     OW22438   1.202   4.886   1.383
 7180SOL    HW122439   1.225   4.798   1.343
 7180SOL    HW222440   1.283   4.944   1.388
 7181SOL     OW22441   2.140   1.720   5.807
 7181SOL    HW122442   2.212   1.652   5.822
 7181SOL    HW222443   2.175   1.811   5.827
 7182SOL     OW22444   0.970   3.248   3.935
 7182SOL    HW122445   0.992   3.158   3.972
 7182SOL    HW222446   0.920   3.237   3.849
 7183SOL     OW22447   1.561   6.458   1.555
 7183SOL    HW122448   1.602   6.444   1.464
 7183SOL    HW222449   1.585   6.382   1.615
 7184SOL     OW22450   6.703   0.231   3.467
 7184SOL    HW122451   6.748   0.297   3.527
 7184SOL    HW222452   6.730   0.138   3.494
 7185SOL     OW22453   4.893   0.818   5.037
 7185SOL    HW122454   4.803   0.833   5.079
 7185SOL    HW222455   4.887   0.837   4.939
 7186SOL     OW22456   0.024   0.269   0.163
 7186SOL    HW122457   0.077   0.207   0.221
 7186SOL    HW222458   6.991   0.216   0.101
 7187SOL     OW22459   3.412   3.000   5.079
 7187SOL    HW122460   3.479   3.055   5.131
 7187SOL    HW222461   3.439   2.998   4.983
 7188SOL     OW22462   4.249   5.095   0.189
 7188SOL    HW122463   4.246   4.996   0.201
 7188SOL    HW222464   4.282   5.138   0.273
 7189SOL     OW22465   6.405   2.408   5.274
 7189SOL    HW122466   6.406   2.331   5.210
 7189SOL    HW222467   6.456   2.384   5.357
 7190SOL     OW22468   6.075   5.560   1.306
 7190SOL    HW122469   6.104   5.465   1.315
 7190SOL    HW222470   6.047   5.595   1.395
 7191SOL     OW22471   0.703   4.045   3.462
 7191SOL    HW122472   0.712   3.999   3.550
 7191SOL    HW222473   0.743   3.988   3.390
 7192SOL     OW22474   1.777   5.240   6.820
 7192SOL    HW122475   1.709   5.169   6.836
 7192SOL    HW222476   1.857   5.200   6.774
 7193SOL     OW22477   2.877   2.241   2.637
 7193SOL    HW122478   2.817   2.175   2.591
 7193SOL    HW222479   2.889   2.321   2.579
 7194SOL     OW22480   2.810   2.810   6.772
 7194SOL    HW122481   2.716   2.793   6.800
 7194SOL    HW222482   2.868   2.823   6.853
 7195SOL     OW22483   0.288   3.644   6.741
 7195SOL    HW122484   0.256   3.718   6.800
 7195SOL    HW222485   0.385   3.657   6.720
 7196SOL     OW22486   3.253   4.025   2.347
 7196SOL    HW122487   3.171   4.001   2.399
 7196SOL    HW222488   3.231   4.098   2.282
 7197SOL     OW22489   1.491   3.709   5.501
 7197SOL    HW122490   1.521   3.723   5.596
 7197SOL    HW222491   1.490   3.612   5.480
 7198SOL     OW22492   6.531   1.042   0.461
 7198SOL    HW122493   6.630   1.055   0.460
 7198SOL    HW222494   6.489   1.109   0.522
 7199SOL     OW22495   1.006   1.030   2.519
 7199SOL    HW122496   0.944   0.951   2.515
 7199SOL    HW222497   0.995   1.086   2.437
 7200SOL     OW22498   2.149   2.363   0.230
 7200SOL    HW122499   2.221   2.367   0.299
 7200SOL    HW222500   2.137   2.453   0.189
 7201SOL     OW22501   6.050   5.891   4.245
 7201SOL    HW122502   6.058   5.807   4.191
 7201SOL    HW222503   5.990   5.955   4.198
 7202SOL     OW22504   5.101   6.559   5.763
 7202SOL    HW122505   5.117   6.622   5.840
 7202SOL    HW222506   5.019   6.506   5.780
 7203SOL     OW22507   0.380   1.461   1.986
 7203SOL    HW122508   0.446   1.500   2.051
 7203SOL    HW222509   0.293   1.446   2.031
 7204SOL     OW22510   0.002   1.699   1.008
 7204SOL    HW122511   6.966   1.627   0.972
 7204SOL    HW222512   0.096   1.665   1.011
 7205SOL     OW22513   2.007   2.365   5.336
 7205SOL    HW122514   2.102   2.334   5.336
 7205SOL    HW222515   1.997   2.441   5.272
 7206SOL     OW22516   1.633   2.158   1.025
 7206SOL    HW122517   1.598   2.174   0.933
 7206SOL    HW222518   1.730   2.180   1.028
 7207SOL     OW22519   2.179   2.395   3.913
 7207SOL    HW122520   2.265   2.354   3.882
 7207SOL    HW222521   2.133   2.332   3.976
 7208SOL     OW22522   3.866   0.778   4.453
 7208SOL    HW122523   3.909   0.865   4.475
 7208SOL    HW222524   3.933   0.719   4.406
 7209SOL     OW22525   2.121   2.447   2.529
 7209SOL    HW122526   2.219   2.454   2.508
 7209SOL    HW222527   2.072   2.417   2.447
 7210SOL     OW22528   2.500   1.624   2.848
 7210SOL    HW122529   2.538   1.695   2.908
 7210SOL    HW222530   2.524   1.643   2.753
 7211SOL     OW22531   3.313   5.921   4.974
 7211SOL    HW122532   3.233   5.862   4.981
 7211SOL    HW222533   3.288   6.015   4.998
 7212SOL     OW22534   5.838   5.074   6.002
 7212SOL    HW122535   5.812   5.148   6.064
 7212SOL    HW222536   5.910   5.106   5.940
 7213SOL     OW22537   3.960   0.490   0.354
 7213SOL    HW122538   4.028   0.419   0.335
 7213SOL    HW222539   3.958   0.509   0.452
 7214SOL     OW22540   0.697   0.929   6.117
 7214SOL    HW122541   0.732   0.890   6.032
 7214SOL    HW222542   0.660   0.856   6.174
 7215SOL     OW22543   0.277   2.826   3.087
 7215SOL    HW122544   0.266   2.881   3.169
 7215SOL    HW222545   0.364   2.848   3.043
 7216SOL     OW22546   3.253   6.398   2.968
 7216SOL    HW122547   3.297   6.436   3.049
 7216SOL    HW222548   3.163   6.441   2.956
 7217SOL     OW22549   1.350   4.215   3.919
 7217SOL    HW122550   1.432   4.269   3.899
 7217SOL    HW222551   1.372   4.118   3.911
 7218SOL     OW22552   6.740   3.358   4.324
 7218SOL    HW122553   6.784   3.282   4.276
 7218SOL    HW222554   6.736   3.338   4.422
 7219SOL     OW22555   3.099   6.838   1.558
 7219SOL    HW122556   3.099   6.917   1.496
 7219SOL    HW222557   3.187   6.832   1.605
 7220SOL     OW22558   6.772   3.927   4.745
 7220SOL    HW122559   6.845   3.977   4.791
 7220SOL    HW222560   6.686   3.941   4.793
 7221SOL     OW22561   3.025   6.219   4.675
 7221SOL    HW122562   3.050   6.129   4.638
 7221SOL    HW222563   3.087   6.243   4.749
 7222SOL     OW22564   6.309   6.391   3.589
 7222SOL    HW122565   6.389   6.334   3.572
 7222SOL    HW222566   6.237   6.370   3.523
 7223SOL     OW22567   2.509   1.979   0.196
 7223SOL    HW122568   2.558   1.910   0.142
 7223SOL    HW222569   2.446   2.029   0.136
 7224SOL     OW22570   4.672   2.332   3.723
 7224SOL    HW122571   4.607   2.263   3.753
 7224SOL    HW222572   4.694   2.318   3.626
 7225SOL     OW22573   1.792   6.849   0.771
 7225SOL    HW122574   1.726   6.888   0.836
 7225SOL    HW222575   1.878   6.830   0.819
 7226SOL     OW22576   5.917   1.030   0.517
 7226SOL    HW122577   5.951   1.120   0.491
 7226SOL    HW222578   5.964   0.960   0.464
 7227SOL     OW22579   2.716   0.482   2.283
 7227SOL    HW122580   2.630   0.530   2.263
 7227SOL    HW222581   2.758   0.453   2.197
 7228SOL     OW22582   0.568   2.108   2.455
 7228SOL    HW122583   0.548   2.115   2.553
 7228SOL    HW222584   0.661   2.140   2.437
 7229SOL     OW22585   6.702   0.022   4.599
 7229SOL    HW122586   6.775   0.012   4.666
 7229SOL    HW222587   6.733   0.082   4.525
 7230SOL     OW22588   2.863   5.076   3.887
 7230SOL    HW122589   2.832   5.097   3.980
 7230SOL    HW222590   2.898   4.983   3.883
 7231SOL     OW22591   3.899   1.158   0.009
 7231SOL    HW122592   3.881   1.126   0.102
 7231SOL    HW222593   3.823   1.215   7.001
 7232SOL     OW22594   5.343   7.009   2.638
 7232SOL    HW122595   5.310   0.004   2.546
 7232SOL    HW222596   5.395   6.923   2.639
 7233SOL     OW22597   5.969   1.989   6.133
 7233SOL    HW122598   6.009   1.933   6.060
 7233SOL    HW222599   5.884   2.029   6.101
 7234SOL     OW22600   4.827   3.965   3.469
 7234SOL    HW122601   4.797   3.870   3.470
 7234SOL    HW222602   4.922   3.971   3.497
 7235SOL     OW22603   6.204   5.795   1.831
 7235SOL    HW122604   6.263   5.800   1.911
 7235SOL    HW222605   6.259   5.768   1.751
 7236SOL     OW22606   2.042   2.746   3.050
 7236SOL    HW122607   2.136   2.736   3.018
 7236SOL    HW222608   2.025   2.682   3.126
 7237SOL     OW22609   5.475   0.122   6.857
 7237SOL    HW122610   5.533   0.203   6.849
 7237SOL    HW222611   5.533   0.040   6.857
 7238SOL     OW22612   4.890   2.460   6.873
 7238SOL    HW122613   4.957   2.532   6.857
 7238SOL    HW222614   4.934   2.384   6.922
 7239SOL     OW22615   0.528   3.403   2.078
 7239SOL    HW122616   0.459   3.441   2.015
 7239SOL    HW222617   0.512   3.305   2.090
 7240SOL     OW22618   6.757   1.535   5.941
 7240SOL    HW122619   6.675   1.545   5.885
 7240SOL    HW222620   6.766   1.614   6.002
 7241SOL     OW22621   2.173   0.744   0.775
 7241SOL    HW122622   2.133   0.797   0.850
 7241SOL    HW222623   2.201   0.654   0.809
 7242SOL     OW22624   0.371   5.914   5.120
 7242SOL    HW122625   0.444   5.848   5.140
 7242SOL    HW222626   0.282   5.873   5.140
 7243SOL     OW22627   0.101   3.403   6.293
 7243SOL    HW122628   0.005   3.428   6.278
 7243SOL    HW222629   0.156   3.431   6.215
 7244SOL     OW22630   0.398   6.417   0.153
 7244SOL    HW122631   0.490   6.450   0.129
 7244SOL    HW222632   0.374   6.451   0.244
 7245SOL     OW22633   1.475   2.282   6.744
 7245SOL    HW122634   1.567   2.252   6.769
 7245SOL    HW222635   1.409   2.209   6.766
 7246SOL     OW22636   2.974   0.778   4.508
 7246SOL    HW122637   2.950   0.689   4.469
 7246SOL    HW222638   3.031   0.829   4.444
 7247SOL     OW22639   3.226   2.420   5.565
 7247SOL    HW122640   3.265   2.338   5.522
 7247SOL    HW222641   3.173   2.471   5.497
 7248SOL     OW22642   2.959   0.682   4.080
 7248SOL    HW122643   2.902   0.692   3.998
 7248SOL    HW222644   3.034   0.619   4.061
 7249SOL     OW22645   4.319   4.628   2.137
 7249SOL    HW122646   4.390   4.682   2.092
 7249SOL    HW222647   4.243   4.612   2.073
 7250SOL     OW22648   5.129   4.759   6.293
 7250SOL    HW122649   5.170   4.786   6.206
 7250SOL    HW222650   5.201   4.749   6.362
 7251SOL     OW22651   0.880   6.465   6.122
 7251SOL    HW122652   0.870   6.372   6.158
 7251SOL    HW222653   0.822   6.475   6.041
 7252SOL     OW22654   3.063   4.033   2.018
 7252SOL    HW122655   3.024   3.971   2.087
 7252SOL    HW222656   2.998   4.107   2.001
 7253SOL     OW22657   1.697   6.760   6.121
 7253SOL    HW122658   1.650   6.747   6.033
 7253SOL    HW222659   1.644   6.716   6.194
 7254SOL     OW22660   5.703   4.696   3.818
 7254SOL    HW122661   5.751   4.760   3.758
 7254SOL    HW222662   5.766   4.623   3.847
 7255SOL     OW22663   4.894   3.380   7.019
 7255SOL    HW122664   4.941   3.414   0.077
 7255SOL    HW222665   4.859   3.289   0.013
 7256SOL     OW22666   3.684   6.599   5.463
 7256SOL    HW122667   3.730   6.538   5.399
 7256SOL    HW222668   3.602   6.554   5.498
 7257SOL     OW22669   6.880   1.743   5.020
 7257SOL    HW122670   6.932   1.781   4.943
 7257SOL    HW222671   6.918   1.778   5.105
 7258SOL     OW22672   5.422   2.361   1.679
 7258SOL    HW122673   5.475   2.285   1.642
 7258SOL    HW222674   5.482   2.426   1.725
 7259SOL     OW22675   1.255   3.730   2.808
 7259SOL    HW122676   1.329   3.707   2.746
 7259SOL    HW222677   1.236   3.828   2.804
 7260SOL     OW22678   4.958   2.434   0.899
 7260SOL    HW122679   4.971   2.474   0.989
 7260SOL    HW222680   4.980   2.336   0.903
 7261SOL     OW22681   0.301   3.932   0.930
 7261SOL    HW122682   0.238   3.882   0.870
 7261SOL    HW222683   0.286   4.030   0.919
 7262SOL     OW22684   5.577   1.310   6.502
 7262SOL    HW122685   5.672   1.291   6.475
 7262SOL    HW222686   5.522   1.327   6.421
 7263SOL     OW22687   0.210   6.950   0.201
 7263SOL    HW122688   0.163   7.015   0.259
 7263SOL    HW222689   0.308   6.969   0.202
 7264SOL     OW22690   5.683   0.880   1.089
 7264SOL    HW122691   5.678   0.970   1.046
 7264SOL    HW222692   5.777   0.847   1.088
 7265SOL     OW22693   5.670   5.515   4.555
 7265SOL    HW122694   5.731   5.480   4.485
 7265SOL    HW222695   5.698   5.480   4.645
 7266SOL     OW22696   6.963   0.472   3.503
 7266SOL    HW122697   6.872   0.510   3.521
 7266SOL    HW222698   7.015   0.468   3.589
 7267SOL     OW22699   6.340   6.421   4.823
 7267SOL    HW122700   6.409   6.355   4.792
 7267SOL    HW222701   6.260   6.415   4.765
 7268SOL     OW22702   0.054   5.267   4.557
 7268SOL    HW122703   0.043   5.332   4.481
 7268SOL    HW222704   0.142   5.282   4.601
 7269SOL     OW22705   2.178   6.254   5.847
 7269SOL    HW122706   2.110   6.199   5.895
 7269SOL    HW222707   2.138   6.291   5.763
 7270SOL     OW22708   6.965   2.190   4.003
 7270SOL    HW122709   0.028   2.225   3.967
 7270SOL    HW222710   6.890   2.249   3.973
 7271SOL     OW22711   1.662   5.343   3.734
 7271SOL    HW122712   1.747   5.353   3.786
 7271SOL    HW222713   1.671   5.268   3.669
 7272SOL     OW22714   6.649   6.038   2.071
 7272SOL    HW122715   6.629   5.943   2.094
 7272SOL    HW222716   6.691   6.083   2.150
 7273SOL     OW22717   5.113   3.464   6.554
 7273SOL    HW122718   5.135   3.532   6.624
 7273SOL    HW222719   5.114   3.373   6.595
 7274SOL     OW22720   0.340   4.073   6.972
 7274SOL    HW122721   0.378   4.030   6.890
 7274SOL    HW222722   0.401   4.057   0.026
 7275SOL     OW22723   0.236   6.177   2.985
 7275SOL    HW122724   0.231   6.247   3.056
 7275SOL    HW222725   0.182   6.098   3.013
 7276SOL     OW22726   5.309   6.893   3.770
 7276SOL    HW122727   5.384   6.849   3.820
 7276SOL    HW222728   5.346   6.959   3.705
 7277SOL     OW22729   5.064   0.126   5.665
 7277SOL    HW122730   4.984   0.084   5.622
 7277SOL    HW222731   5.141   0.124   5.601
 7278SOL     OW22732   3.216   3.890   1.446
 7278SOL    HW122733   3.215   3.964   1.514
 7278SOL    HW222734   3.153   3.913   1.372
 7279SOL     OW22735   4.128   6.372   0.285
 7279SOL    HW122736   4.206   6.312   0.300
 7279SOL    HW222737   4.115   6.431   0.365
 7280SOL     OW22738   5.864   6.987   4.689
 7280SOL    HW122739   5.957   6.954   4.708
 7280SOL    HW222740   5.818   6.923   4.627
 7281SOL     OW22741   2.976   1.564   0.037
 7281SOL    HW122742   3.010   1.629   0.106
 7281SOL    HW222743   2.912   1.611   7.000
 7282SOL     OW22744   6.222   4.883   2.649
 7282SOL    HW122745   6.289   4.954   2.669
 7282SOL    HW222746   6.135   4.925   2.625
 7283SOL     OW22747   3.140   1.230   3.538
 7283SOL    HW122748   3.121   1.215   3.440
 7283SOL    HW222749   3.058   1.207   3.591
 7284SOL     OW22750   0.353   3.414   5.550
 7284SOL    HW122751   0.320   3.415   5.645
 7284SOL    HW222752   0.367   3.507   5.518
 7285SOL     OW22753   5.293   3.755   2.497
 7285SOL    HW122754   5.293   3.690   2.421
 7285SOL    HW222755   5.353   3.832   2.474
 7286SOL     OW22756   2.852   1.782   0.981
 7286SOL    HW122757   2.798   1.700   0.998
 7286SOL    HW222758   2.933   1.759   0.926
 7287SOL     OW22759   0.341   2.161   6.528
 7287SOL    HW122760   0.425   2.181   6.579
 7287SOL    HW222761   0.272   2.231   6.549
 7288SOL     OW22762   3.620   0.631   6.422
 7288SOL    HW122763   3.547   0.696   6.443
 7288SOL    HW222764   3.709   0.674   6.437
 7289SOL     OW22765   6.691   1.643   3.147
 7289SOL    HW122766   6.685   1.617   3.050
 7289SOL    HW222767   6.785   1.632   3.178
 7290SOL     OW22768   2.712   6.141   5.184
 7290SOL    HW122769   2.747   6.069   5.243
 7290SOL    HW222770   2.745   6.230   5.217
 7291SOL     OW22771   1.727   7.017   1.488
 7291SOL    HW122772   1.733   0.092   1.503
 7291SOL    HW222773   1.800   6.971   1.537
 7292SOL     OW22774   2.490   0.802   4.598
 7292SOL    HW122775   2.542   0.884   4.571
 7292SOL    HW222776   2.496   0.790   4.697
 7293SOL     OW22777   1.581   1.398   5.197
 7293SOL    HW122778   1.666   1.360   5.234
 7293SOL    HW222779   1.596   1.427   5.102
 7294SOL     OW22780   2.828   5.495   0.527
 7294SOL    HW122781   2.846   5.518   0.623
 7294SOL    HW222782   2.739   5.532   0.499
 7295SOL     OW22783   1.044   2.848   0.775
 7295SOL    HW122784   1.116   2.782   0.756
 7295SOL    HW222785   1.019   2.896   0.691
 7296SOL     OW22786   2.814   4.999   1.118
 7296SOL    HW122787   2.883   4.951   1.171
 7296SOL    HW222788   2.745   4.935   1.086
 7297SOL     OW22789   3.533   5.869   1.162
 7297SOL    HW122790   3.536   5.961   1.201
 7297SOL    HW222791   3.574   5.871   1.070
 7298SOL     OW22792   4.809   4.332   5.810
 7298SOL    HW122793   4.778   4.427   5.809
 7298SOL    HW222794   4.898   4.326   5.855
 7299SOL     OW22795   0.169   1.727   0.180
 7299SOL    HW122796   0.124   1.638   0.186
 7299SOL    HW222797   0.247   1.729   0.243
 7300SOL     OW22798   6.116   5.700   2.246
 7300SOL    HW122799   6.030   5.667   2.208
 7300SOL    HW222800   6.098   5.757   2.325
 7301SOL     OW22801   6.235   0.752   4.557
 7301SOL    HW122802   6.253   0.838   4.604
 7301SOL    HW222803   6.136   0.743   4.542
 7302SOL     OW22804   0.753   1.191   6.173
 7302SOL    HW122805   0.709   1.230   6.092
 7302SOL    HW222806   0.754   1.091   6.164
 7303SOL     OW22807   5.019   0.531   6.447
 7303SOL    HW122808   4.919   0.540   6.453
 7303SOL    HW222809   5.056   0.607   6.395
 7304SOL     OW22810   3.788   4.170   0.230
 7304SOL    HW122811   3.768   4.240   0.298
 7304SOL    HW222812   3.734   4.087   0.250
 7305SOL     OW22813   4.635   1.885   0.727
 7305SOL    HW122814   4.664   1.861   0.634
 7305SOL    HW222815   4.567   1.959   0.723
 7306SOL     OW22816   5.202   3.018   1.298
 7306SOL    HW122817   5.228   2.933   1.251
 7306SOL    HW222818   5.231   3.014   1.393
 7307SOL     OW22819   3.085   0.430   1.624
 7307SOL    HW122820   3.156   0.363   1.602
 7307SOL    HW222821   3.085   0.448   1.722
 7308SOL     OW22822   6.787   3.977   5.594
 7308SOL    HW122823   6.803   4.056   5.653
 7308SOL    HW222824   6.727   3.912   5.640
 7309SOL     OW22825   5.281   5.921   0.497
 7309SOL    HW122826   5.327   5.844   0.541
 7309SOL    HW222827   5.190   5.892   0.468
 7310SOL     OW22828   2.175   3.859   1.564
 7310SOL    HW122829   2.199   3.763   1.580
 7310SOL    HW222830   2.190   3.912   1.647
 7311SOL     OW22831   3.569   2.023   2.153
 7311SOL    HW122832   3.599   2.106   2.106
 7311SOL    HW222833   3.472   2.032   2.178
 7312SOL     OW22834   0.206   3.188   6.023
 7312SOL    HW122835   0.220   3.271   6.077
 7312SOL    HW222836   0.247   3.200   5.932
 7313SOL     OW22837   4.186   1.995   6.288
 7313SOL    HW122838   4.203   1.932   6.364
 7313SOL    HW222839   4.258   2.065   6.286
 7314SOL     OW22840   6.437   3.345   5.595
 7314SOL    HW122841   6.503   3.309   5.661
 7314SOL    HW222842   6.419   3.441   5.616
 7315SOL     OW22843   6.755   0.056   2.813
 7315SOL    HW122844   6.755   6.980   2.818
 7315SOL    HW222845   6.747   0.084   2.717
 7316SOL     OW22846   3.310   3.497   6.384
 7316SOL    HW122847   3.218   3.484   6.423
 7316SOL    HW222848   3.314   3.453   6.295
 7317SOL     OW22849   4.884   1.075   2.398
 7317SOL    HW122850   4.814   1.138   2.365
 7317SOL    HW222851   4.841   1.004   2.454
 7318SOL     OW22852   0.935   1.850   0.569
 7318SOL    HW122853   0.839   1.878   0.562
 7318SOL    HW222854   0.958   1.789   0.494
 7319SOL     OW22855   5.877   3.767   6.104
 7319SOL    HW122856   5.798   3.705   6.103
 7319SOL    HW222857   5.870   3.831   6.028
 7320SOL     OW22858   6.338   3.311   1.661
 7320SOL    HW122859   6.289   3.354   1.737
 7320SOL    HW222860   6.357   3.380   1.591
 7321SOL     OW22861   3.166   6.423   5.201
 7321SOL    HW122862   3.130   6.504   5.155
 7321SOL    HW222863   3.094   6.382   5.257
 7322SOL     OW22864   0.150   2.669   2.680
 7322SOL    HW122865   0.227   2.717   2.639
 7322SOL    HW222866   0.183   2.605   2.749
 7323SOL     OW22867   2.062   2.286   1.515
 7323SOL    HW122868   2.055   2.370   1.460
 7323SOL    HW222869   2.153   2.282   1.557
 7324SOL     OW22870   5.313   6.393   2.562
 7324SOL    HW122871   5.401   6.347   2.569
 7324SOL    HW222872   5.254   6.366   2.638
 7325SOL     OW22873   3.910   6.823   6.717
 7325SOL    HW122874   3.827   6.828   6.773
 7325SOL    HW222875   3.925   6.911   6.672
 7326SOL     OW22876   2.447   6.556   5.545
 7326SOL    HW122877   2.521   6.551   5.613
 7326SOL    HW222878   2.369   6.603   5.586
 7327SOL     OW22879   6.780   2.954   5.208
 7327SOL    HW122880   6.788   3.007   5.124
 7327SOL    HW222881   6.684   2.932   5.224
 7328SOL     OW22882   3.472   0.566   6.109
 7328SOL    HW122883   3.388   0.512   6.103
 7328SOL    HW222884   3.541   0.514   6.160
 7329SOL     OW22885   4.390   3.882   1.668
 7329SOL    HW122886   4.482   3.904   1.701
 7329SOL    HW222887   4.392   3.871   1.569
 7330SOL     OW22888   3.036   1.990   0.031
 7330SOL    HW122889   2.965   2.059   0.018
 7330SOL    HW222890   3.068   1.958   6.966
 7331SOL     OW22891   5.452   6.941   1.707
 7331SOL    HW122892   5.446   6.923   1.608
 7331SOL    HW222893   5.443   6.854   1.757
 7332SOL     OW22894   2.357   6.068   0.242
 7332SOL    HW122895   2.282   6.002   0.241
 7332SOL    HW222896   2.378   6.094   0.336
 7333SOL     OW22897   6.994   3.336   3.879
 7333SOL    HW122898   0.052   3.339   3.821
 7333SOL    HW222899   6.916   3.301   3.826
 7334SOL     OW22900   3.863   6.373   0.200
 7334SOL    HW122901   3.962   6.387   0.204
 7334SOL    HW222902   3.843   6.278   0.179
 7335SOL     OW22903   1.992   2.903   2.623
 7335SOL    HW122904   1.999   2.803   2.625
 7335SOL    HW222905   1.996   2.935   2.528
 7336SOL     OW22906   1.647   5.929   3.003
 7336SOL    HW122907   1.679   5.839   2.974
 7336SOL    HW222908   1.586   5.967   2.933
 7337SOL     OW22909   0.583   2.774   2.184
 7337SOL    HW122910   0.573   2.786   2.085
 7337SOL    HW222911   0.663   2.825   2.216
 7338SOL     OW22912   6.337   2.619   1.214
 7338SOL    HW122913   6.351   2.674   1.296
 7338SOL    HW222914   6.404   2.545   1.211
 7339SOL     OW22915   5.026   6.064   3.631
 7339SOL    HW122916   4.930   6.072   3.656
 7339SOL    HW222917   5.074   6.148   3.655
 7340SOL     OW22918   1.334   0.739   0.398
 7340SOL    HW122919   1.345   0.704   0.492
 7340SOL    HW222920   1.303   0.665   0.339
 7341SOL     OW22921   6.898   2.755   6.757
 7341SOL    HW122922   6.953   2.676   6.729
 7341SOL    HW222923   6.803   2.741   6.731
 7342SOL     OW22924   6.462   1.140   1.606
 7342SOL    HW122925   6.410   1.149   1.692
 7342SOL    HW222926   6.406   1.174   1.530
 7343SOL     OW22927   4.355   2.788   7.002
 7343SOL    HW122928   4.439   2.811   6.953
 7343SOL    HW222929   4.330   2.864   0.039
 7344SOL     OW22930   1.021   6.687   6.135
 7344SOL    HW122931   0.979   6.597   6.125
 7344SOL    HW222932   1.028   6.731   6.046
 7345SOL     OW22933   3.704   3.617   5.646
 7345SOL    HW122934   3.672   3.712   5.649
 7345SOL    HW222935   3.686   3.579   5.555
 7346SOL     OW22936   4.085   6.015   2.599
 7346SOL    HW122937   4.162   6.058   2.553
 7346SOL    HW222938   4.000   6.037   2.551
 7347SOL     OW22939   0.416   1.691   0.530
 7347SOL    HW122940   0.441   1.651   0.442
 7347SOL    HW222941   0.349   1.632   0.576
 7348SOL     OW22942   1.238   3.594   3.912
 7348SOL    HW122943   1.236   3.495   3.923
 7348SOL    HW222944   1.284   3.635   3.991
 7349SOL     OW22945   4.328   0.103   1.893
 7349SOL    HW122946   4.240   0.091   1.939
 7349SOL    HW222947   4.402   0.099   1.960
 7350SOL     OW22948   2.629   1.704   5.530
 7350SOL    HW122949   2.590   1.620   5.569
 7350SOL    HW222950   2.555   1.767   5.506
 7351SOL     OW22951   5.593   5.282   3.398
 7351SOL    HW122952   5.635   5.304   3.310
 7351SOL    HW222953   5.498   5.314   3.399
 7352SOL     OW22954   1.294   1.834   2.898
 7352SOL    HW122955   1.315   1.747   2.854
 7352SOL    HW222956   1.215   1.822   2.958
 7353SOL     OW22957   0.338   0.084   6.755
 7353SOL    HW122958   0.247   0.126   6.752
 7353SOL    HW222959   0.329   7.010   6.735
 7354SOL     OW22960   1.615   0.949   4.476
 7354SOL    HW122961   1.540   1.014   4.489
 7354SOL    HW222962   1.677   0.954   4.554
 7355SOL     OW22963   0.210   2.046   6.839
 7355SOL    HW122964   0.252   2.129   6.877
 7355SOL    HW222965   0.164   1.995   6.912
 7356SOL     OW22966   3.861   4.019   6.126
 7356SOL    HW122967   3.803   4.053   6.200
 7356SOL    HW222968   3.955   4.010   6.159
 7357SOL     OW22969   3.360   6.167   2.183
 7357SOL    HW122970   3.425   6.188   2.111
 7357SOL    HW222971   3.272   6.141   2.142
 7358SOL     OW22972   6.291   3.333   2.352
 7358SOL    HW122973   6.321   3.338   2.448
 7358SOL    HW222974   6.313   3.243   2.315
 7359SOL     OW22975   4.258   2.599   5.927
 7359SOL    HW122976   4.215   2.689   5.925
 7359SOL    HW222977   4.315   2.587   5.846
 7360SOL     OW22978   2.397   3.559   5.695
 7360SOL    HW122979   2.316   3.611   5.667
 7360SOL    HW222980   2.435   3.512   5.615
 7361SOL     OW22981   5.533   0.965   2.844
 7361SOL    HW122982   5.492   1.008   2.764
 7361SOL    HW222983   5.486   0.997   2.927
 7362SOL     OW22984   2.958   5.764   5.913
 7362SOL    HW122985   2.935   5.694   5.846
 7362SOL    HW222986   2.939   5.730   6.005
 7363SOL     OW22987   4.545   0.979   1.571
 7363SOL    HW122988   4.619   1.037   1.535
 7363SOL    HW222989   4.522   0.910   1.503
 7364SOL     OW22990   4.443   0.360   1.923
 7364SOL    HW122991   4.406   0.272   1.893
 7364SOL    HW222992   4.388   0.435   1.884
 7365SOL     OW22993   0.214   6.123   2.297
 7365SOL    HW122994   0.129   6.159   2.337
 7365SOL    HW222995   0.291   6.177   2.329
 7366SOL     OW22996   2.186   6.612   5.243
 7366SOL    HW122997   2.103   6.645   5.198
 7366SOL    HW222998   2.225   6.686   5.298
 7367SOL     OW22999   3.861   2.401   0.449
 7367SOL    HW123000   3.893   2.425   0.357
 7367SOL    HW223001   3.940   2.387   0.509
 7368SOL     OW23002   3.673   2.934   2.927
 7368SOL    HW123003   3.613   2.907   3.002
 7368SOL    HW223004   3.636   2.900   2.841
 7369SOL     OW23005   3.414   2.808   1.151
 7369SOL    HW123006   3.327   2.836   1.110
 7369SOL    HW223007   3.402   2.721   1.198
 7370SOL     OW23008   2.761   2.112   5.585
 7370SOL    HW123009   2.855   2.144   5.584
 7370SOL    HW223010   2.741   2.068   5.672
 7371SOL     OW23011   3.122   6.826   3.838
 7371SOL    HW123012   3.063   6.853   3.763
 7371SOL    HW223013   3.076   6.757   3.894
 7372SOL     OW23014   4.292   6.648   4.644
 7372SOL    HW123015   4.269   6.584   4.717
 7372SOL    HW223016   4.383   6.685   4.658
 7373SOL     OW23017   5.936   1.744   4.902
 7373SOL    HW123018   5.892   1.779   4.985
 7373SOL    HW223019   5.940   1.645   4.906
 7374SOL     OW23020   1.624   2.028   4.659
 7374SOL    HW123021   1.572   1.943   4.665
 7374SOL    HW223022   1.564   2.101   4.627
 7375SOL     OW23023   2.258   2.859   1.958
 7375SOL    HW123024   2.169   2.833   1.994
 7375SOL    HW223025   2.247   2.920   1.880
 7376SOL     OW23026   1.260   3.130   1.324
 7376SOL    HW123027   1.322   3.208   1.335
 7376SOL    HW223028   1.211   3.114   1.409
 7377SOL     OW23029   3.898   5.207   0.875
 7377SOL    HW123030   3.907   5.229   0.778
 7377SOL    HW223031   3.989   5.188   0.913
 7378SOL     OW23032   1.269   6.874   4.644
 7378SOL    HW123033   1.198   6.810   4.675
 7378SOL    HW223034   1.275   6.870   4.545
 7379SOL     OW23035   2.654   0.163   2.096
 7379SOL    HW123036   2.606   0.075   2.103
 7379SOL    HW223037   2.696   0.170   2.005
 7380SOL     OW23038   6.589   4.144   3.716
 7380SOL    HW123039   6.538   4.058   3.707
 7380SOL    HW223040   6.648   4.140   3.796
 7381SOL     OW23041   4.056   2.660   0.852
 7381SOL    HW123042   4.037   2.728   0.780
 7381SOL    HW223043   3.996   2.678   0.930
 7382SOL     OW23044   6.788   1.957   5.936
 7382SOL    HW123045   6.818   2.047   5.903
 7382SOL    HW223046   6.707   1.928   5.886
 7383SOL     OW23047   2.009   6.044   1.687
 7383SOL    HW123048   1.978   5.963   1.637
 7383SOL    HW223049   1.975   6.126   1.641
 7384SOL     OW23050   6.502   6.969   1.338
 7384SOL    HW123051   6.433   7.016   1.283
 7384SOL    HW223052   6.463   6.943   1.426
 7385SOL     OW23053   2.837   5.240   2.811
 7385SOL    HW123054   2.881   5.230   2.900
 7385SOL    HW223055   2.811   5.336   2.797
 7386SOL     OW23056   6.338   2.956   6.398
 7386SOL    HW123057   6.396   3.004   6.332
 7386SOL    HW223058   6.283   3.022   6.448
 7387SOL     OW23059   6.592   5.587   5.862
 7387SOL    HW123060   6.690   5.607   5.857
 7387SOL    HW223061   6.540   5.668   5.835
 7388SOL     OW23062   1.209   5.067   2.755
 7388SOL    HW123063   1.114   5.050   2.780
 7388SOL    HW223064   1.235   5.009   2.677
 7389SOL     OW23065   6.850   3.599   0.229
 7389SOL    HW123066   6.762   3.591   0.182
 7389SOL    HW223067   6.884   3.508   0.251
 7390SOL     OW23068   2.538   2.068   2.133
 7390SOL    HW123069   2.527   2.010   2.052
 7390SOL    HW223070   2.625   2.048   2.177
 7391SOL     OW23071   4.127   3.537   2.858
 7391SOL    HW123072   4.131   3.474   2.780
 7391SOL    HW223073   4.140   3.485   2.942
 7392SOL     OW23074   3.409   6.355   0.086
 7392SOL    HW123075   3.399   6.257   0.068
 7392SOL    HW223076   3.409   6.405   7.024
 7393SOL     OW23077   6.776   4.519   3.330
 7393SOL    HW123078   6.774   4.470   3.417
 7393SOL    HW223079   6.774   4.618   3.347
 7394SOL     OW23080   1.957   3.097   6.432
 7394SOL    HW123081   1.971   3.002   6.406
 7394SOL    HW223082   2.043   3.147   6.422
 7395SOL     OW23083   2.215   3.324   1.506
 7395SOL    HW123084   2.284   3.277   1.561
 7395SOL    HW223085   2.137   3.262   1.490
 7396SOL     OW23086   2.447   6.250   1.641
 7396SOL    HW123087   2.452   6.342   1.680
 7396SOL    HW223088   2.470   6.182   1.711
 7397SOL     OW23089   4.963   3.396   4.509
 7397SOL    HW123090   4.923   3.485   4.489
 7397SOL    HW223091   4.971   3.385   4.608
 7398SOL     OW23092   1.215   4.716   3.193
 7398SOL    HW123093   1.165   4.630   3.198
 7398SOL    HW223094   1.227   4.753   3.286
 7399SOL     OW23095   6.877   2.816   4.430
 7399SOL    HW123096   6.929   2.879   4.487
 7399SOL    HW223097   6.850   2.862   4.346
 7400SOL     OW23098   5.037   2.090   5.525
 7400SOL    HW123099   4.998   1.998   5.515
 7400SOL    HW223100   5.061   2.126   5.435
 7401SOL     OW23101   1.807   2.788   3.602
 7401SOL    HW123102   1.876   2.789   3.530
 7401SOL    HW223103   1.769   2.696   3.610
 7402SOL     OW23104   2.689   5.110   5.691
 7402SOL    HW123105   2.607   5.133   5.638
 7402SOL    HW223106   2.700   5.011   5.694
 7403SOL     OW23107   1.832   3.093   2.824
 7403SOL    HW123108   1.910   3.092   2.762
 7403SOL    HW223109   1.821   3.002   2.865
 7404SOL     OW23110   3.318   4.100   1.596
 7404SOL    HW123111   3.280   4.078   1.686
 7404SOL    HW223112   3.415   4.076   1.594
 7405SOL     OW23113   2.958   5.271   5.153
 7405SOL    HW123114   2.987   5.181   5.185
 7405SOL    HW223115   2.994   5.287   5.061
 7406SOL     OW23116   0.882   1.816   5.191
 7406SOL    HW123117   0.916   1.762   5.115
 7406SOL    HW223118   0.958   1.845   5.249
 7407SOL     OW23119   1.103   6.135   6.781
 7407SOL    HW123120   1.077   6.046   6.743
 7407SOL    HW223121   1.195   6.130   6.819
 7408SOL     OW23122   3.225   4.248   5.472
 7408SOL    HW123123   3.182   4.286   5.554
 7408SOL    HW223124   3.305   4.194   5.498
 7409SOL     OW23125   5.166   4.369   6.860
 7409SOL    HW123126   5.248   4.312   6.865
 7409SOL    HW223127   5.093   4.318   6.814
 7410SOL     OW23128   0.299   0.452   0.469
 7410SOL    HW123129   0.345   0.532   0.507
 7410SOL    HW223130   0.314   0.449   0.370
 7411SOL     OW23131   1.646   1.539   5.799
 7411SOL    HW123132   1.735   1.567   5.835
 7411SOL    HW223133   1.652   1.526   5.700
 7412SOL     OW23134   4.315   6.753   0.270
 7412SOL    HW123135   4.388   6.804   0.224
 7412SOL    HW223136   4.264   6.700   0.202
 7413SOL     OW23137   4.604   4.301   3.119
 7413SOL    HW123138   4.628   4.394   3.145
 7413SOL    HW223139   4.564   4.301   3.027
 7414SOL     OW23140   2.134   2.410   4.332
 7414SOL    HW123141   2.187   2.379   4.411
 7414SOL    HW223142   2.036   2.394   4.349
 7415SOL     OW23143   3.127   6.239   6.584
 7415SOL    HW123144   3.102   6.151   6.624
 7415SOL    HW223145   3.122   6.311   6.654
 7416SOL     OW23146   1.260   1.209   2.646
 7416SOL    HW123147   1.190   1.240   2.711
 7416SOL    HW223148   1.220   1.141   2.584
 7417SOL     OW23149   1.484   2.231   2.921
 7417SOL    HW123150   1.564   2.171   2.920
 7417SOL    HW223151   1.454   2.248   2.828
 7418SOL     OW23152   1.968   4.793   0.084
 7418SOL    HW123153   1.986   4.723   0.154
 7418SOL    HW223154   1.975   4.752   7.017
 7419SOL     OW23155   6.097   3.730   3.977
 7419SOL    HW123156   6.030   3.722   3.903
 7419SOL    HW223157   6.166   3.658   3.968
 7420SOL     OW23158   6.773   6.185   1.870
 7420SOL    HW123159   6.724   6.128   1.936
 7420SOL    HW223160   6.871   6.176   1.884
 7421SOL     OW23161   4.421   3.833   1.402
 7421SOL    HW123162   4.389   3.909   1.346
 7421SOL    HW223163   4.350   3.762   1.405
 7422SOL     OW23164   6.100   3.523   2.287
 7422SOL    HW123165   6.022   3.505   2.227
 7422SOL    HW223166   6.163   3.446   2.285
 7423SOL     OW23167   5.538   1.824   5.273
 7423SOL    HW123168   5.574   1.914   5.248
 7423SOL    HW223169   5.498   1.829   5.365
 7424SOL     OW23170   6.402   1.338   5.187
 7424SOL    HW123171   6.419   1.244   5.155
 7424SOL    HW223172   6.489   1.384   5.202
 7425SOL     OW23173   5.248   6.983   0.286
 7425SOL    HW123174   5.342   6.970   0.256
 7425SOL    HW223175   5.187   6.979   0.207
 7426SOL     OW23176   3.370   2.541   5.790
 7426SOL    HW123177   3.430   2.501   5.721
 7426SOL    HW223178   3.286   2.487   5.798
 7427SOL     OW23179   3.621   1.686   3.461
 7427SOL    HW123180   3.536   1.670   3.510
 7427SOL    HW223181   3.697   1.690   3.527
 7428SOL     OW23182   4.055   6.434   5.664
 7428SOL    HW123183   4.047   6.344   5.622
 7428SOL    HW223184   3.968   6.460   5.705
 7429SOL     OW23185   1.446   6.679   3.535
 7429SOL    HW123186   1.418   6.584   3.550
 7429SOL    HW223187   1.445   6.699   3.437
 7430SOL     OW23188   6.776   4.340   1.850
 7430SOL    HW123189   6.865   4.342   1.895
 7430SOL    HW223190   6.741   4.434   1.842
 7431SOL     OW23191   2.353   2.750   4.307
 7431SOL    HW123192   2.316   2.683   4.243
 7431SOL    HW223193   2.426   2.708   4.361
 7432SOL     OW23194   2.164   0.511   3.691
 7432SOL    HW123195   2.178   0.608   3.709
 7432SOL    HW223196   2.190   0.458   3.771
 7433SOL     OW23197   2.746   6.928   6.820
 7433SOL    HW123198   2.815   6.922   6.892
 7433SOL    HW223199   2.661   6.885   6.852
 7434SOL     OW23200   4.821   6.090   6.236
 7434SOL    HW123201   4.738   6.111   6.288
 7434SOL    HW223202   4.848   6.171   6.183
 7435SOL     OW23203   4.716   6.019   1.913
 7435SOL    HW123204   4.636   6.042   1.858
 7435SOL    HW223205   4.715   5.921   1.934
 7436SOL     OW23206   4.645   4.574   6.090
 7436SOL    HW123207   4.655   4.489   6.036
 7436SOL    HW223208   4.619   4.649   6.029
 7437SOL     OW23209   2.873   5.433   1.658
 7437SOL    HW123210   2.791   5.412   1.605
 7437SOL    HW223211   2.927   5.350   1.670
 7438SOL     OW23212   1.751   0.881   0.692
 7438SOL    HW123213   1.655   0.875   0.664
 7438SOL    HW223214   1.764   0.960   0.751
 7439SOL     OW23215   1.752   5.151   5.386
 7439SOL    HW123216   1.807   5.234   5.382
 7439SOL    HW223217   1.805   5.075   5.347
 7440SOL     OW23218   5.767   3.067   4.045
 7440SOL    HW123219   5.708   3.147   4.054
 7440SOL    HW223220   5.732   2.993   4.103
 7441SOL     OW23221   5.767   6.439   3.194
 7441SOL    HW123222   5.753   6.536   3.216
 7441SOL    HW223223   5.864   6.418   3.201
 7442SOL     OW23224   6.079   0.900   6.231
 7442SOL    HW123225   6.153   0.843   6.196
 7442SOL    HW223226   6.075   0.893   6.331
 7443SOL     OW23227   6.952   5.400   1.844
 7443SOL    HW123228   7.014   5.473   1.815
 7443SOL    HW223229   6.943   5.401   1.943
 7444SOL     OW23230   6.759   0.897   6.062
 7444SOL    HW123231   6.693   0.824   6.075
 7444SOL    HW223232   6.711   0.982   6.041
 7445SOL     OW23233   3.845   6.971   1.480
 7445SOL    HW123234   3.911   6.993   1.552
 7445SOL    HW223235   3.776   0.020   1.475
 7446SOL     OW23236   4.978   2.896   0.290
 7446SOL    HW123237   4.910   2.921   0.358
 7446SOL    HW223238   5.066   2.880   0.335
 7447SOL     OW23239   6.793   4.481   0.120
 7447SOL    HW123240   6.732   4.454   0.045
 7447SOL    HW223241   6.786   4.580   0.134
 7448SOL     OW23242   5.462   6.195   6.164
 7448SOL    HW123243   5.522   6.267   6.130
 7448SOL    HW223244   5.512   6.109   6.169
 7449SOL     OW23245   0.571   5.334   0.015
 7449SOL    HW123246   0.490   5.325   0.072
 7449SOL    HW223247   0.548   5.315   6.943
 7450SOL     OW23248   5.424   2.081   5.682
 7450SOL    HW123249   5.516   2.116   5.669
 7450SOL    HW223250   5.358   2.156   5.676
 7451SOL     OW23251   5.684   5.757   2.565
 7451SOL    HW123252   5.594   5.723   2.593
 7451SOL    HW223253   5.695   5.852   2.594
 7452SOL     OW23254   6.341   6.256   4.421
 7452SOL    HW123255   6.324   6.186   4.491
 7452SOL    HW223256   6.260   6.264   4.363
 7453SOL     OW23257   5.085   5.603   6.312
 7453SOL    HW123258   5.006   5.631   6.257
 7453SOL    HW223259   5.101   5.670   6.384
 7454SOL     OW23260   3.263   1.467   0.527
 7454SOL    HW123261   3.336   1.520   0.482
 7454SOL    HW223262   3.208   1.527   0.584
 7455SOL     OW23263   6.018   3.055   2.529
 7455SOL    HW123264   5.955   2.998   2.582
 7455SOL    HW223265   5.991   3.151   2.538
 7456SOL     OW23266   2.508   2.200   5.223
 7456SOL    HW123267   2.575   2.139   5.181
 7456SOL    HW223268   2.535   2.295   5.209
 7457SOL     OW23269   2.414   7.004   4.106
 7457SOL    HW123270   2.497   0.010   4.059
 7457SOL    HW223271   2.349   6.969   4.039
 7458SOL     OW23272   1.288   0.176   5.079
 7458SOL    HW123273   1.189   0.174   5.084
 7458SOL    HW223274   1.321   0.096   5.030
 7459SOL     OW23275   6.354   1.252   2.317
 7459SOL    HW123276   6.403   1.232   2.402
 7459SOL    HW223277   6.270   1.302   2.338
 7460SOL     OW23278   1.410   6.789   7.018
 7460SOL    HW123279   1.420   6.792   0.094
 7460SOL    HW223280   1.410   6.882   6.981
 7461SOL     OW23281   6.807   6.203   5.281
 7461SOL    HW123282   6.716   6.198   5.321
 7461SOL    HW223283   6.820   6.126   5.219
 7462SOL     OW23284   0.987   5.642   1.036
 7462SOL    HW123285   0.949   5.564   0.986
 7462SOL    HW223286   1.038   5.700   0.973
 7463SOL     OW23287   3.465   4.694   0.818
 7463SOL    HW123288   3.522   4.754   0.761
 7463SOL    HW223289   3.395   4.651   0.762
 7464SOL     OW23290   0.382   5.904   4.745
 7464SOL    HW123291   0.476   5.931   4.726
 7464SOL    HW223292   0.381   5.816   4.793
 7465SOL     OW23293   2.687   5.318   0.265
 7465SOL    HW123294   2.618   5.245   0.270
 7465SOL    HW223295   2.774   5.283   0.299
 7466SOL     OW23296   0.350   0.539   5.745
 7466SOL    HW123297   0.435   0.524   5.795
 7466SOL    HW223298   0.290   0.598   5.799
 7467SOL     OW23299   0.383   2.503   6.087
 7467SOL    HW123300   0.410   2.444   6.163
 7467SOL    HW223301   0.382   2.598   6.118
 7468SOL     OW23302   5.524   3.003   4.540
 7468SOL    HW123303   5.564   2.988   4.630
 7468SOL    HW223304   5.458   3.078   4.545
 7469SOL     OW23305   6.485   2.226   7.011
 7469SOL    HW123306   6.458   2.310   6.964
 7469SOL    HW223307   6.530   2.250   0.074
 7470SOL     OW23308   5.811   4.056   3.429
 7470SOL    HW123309   5.895   4.111   3.426
 7470SOL    HW223310   5.832   3.962   3.403
 7471SOL     OW23311   5.108   5.684   5.995
 7471SOL    HW123312   5.084   5.767   6.045
 7471SOL    HW223313   5.123   5.610   6.060
 7472SOL     OW23314   6.773   0.618   5.575
 7472SOL    HW123315   6.754   0.644   5.670
 7472SOL    HW223316   6.813   0.695   5.527
 7473SOL     OW23317   4.690   6.918   3.898
 7473SOL    HW123318   4.598   6.957   3.908
 7473SOL    HW223319   4.723   6.887   3.987
 7474SOL     OW23320   5.959   2.306   0.064
 7474SOL    HW123321   5.926   2.389   0.020
 7474SOL    HW223322   5.881   2.248   0.089
 7475SOL     OW23323   4.507   2.185   2.253
 7475SOL    HW123324   4.456   2.109   2.215
 7475SOL    HW223325   4.574   2.151   2.320
 7476SOL     OW23326   2.169   2.322   2.777
 7476SOL    HW123327   2.166   2.404   2.720
 7476SOL    HW223328   2.257   2.318   2.824
 7477SOL     OW23329   0.634   3.297   4.598
 7477SOL    HW123330   0.659   3.248   4.681
 7477SOL    HW223331   0.570   3.370   4.620
 7478SOL     OW23332   5.706   2.929   5.048
 7478SOL    HW123333   5.657   2.902   5.131
 7478SOL    HW223334   5.648   2.911   4.969
 7479SOL     OW23335   5.458   3.138   7.018
 7479SOL    HW123336   5.374   3.142   0.049
 7479SOL    HW223337   5.447   3.071   6.945
 7480SOL     OW23338   2.293   5.514   2.851
 7480SOL    HW123339   2.301   5.546   2.946
 7480SOL    HW223340   2.223   5.442   2.846
 7481SOL     OW23341   6.074   4.336   6.515
 7481SOL    HW123342   6.085   4.418   6.460
 7481SOL    HW223343   6.025   4.266   6.463
 7482SOL     OW23344   4.098   2.152   2.993
 7482SOL    HW123345   4.166   2.143   2.920
 7482SOL    HW223346   4.137   2.205   3.069
 7483SOL     OW23347   4.874   1.904   4.412
 7483SOL    HW123348   4.822   1.964   4.352
 7483SOL    HW223349   4.971   1.931   4.411
 7484SOL     OW23350   1.971   5.321   4.750
 7484SOL    HW123351   2.021   5.348   4.667
 7484SOL    HW223352   1.875   5.347   4.742
 7485SOL     OW23353   2.633   0.100   3.998
 7485SOL    HW123354   2.581   0.173   3.954
 7485SOL    HW223355   2.731   0.114   3.980
 7486SOL     OW23356   0.633   6.106   0.289
 7486SOL    HW123357   0.642   6.080   0.385
 7486SOL    HW223358   0.542   6.144   0.274
 7487SOL     OW23359   4.550   0.889   3.267
 7487SOL    HW123360   4.482   0.962   3.277
 7487SOL    HW223361   4.506   0.801   3.284
 7488SOL     OW23362   1.264   6.305   4.083
 7488SOL    HW123363   1.293   6.251   4.161
 7488SOL    HW223364   1.191   6.368   4.111
 7489SOL     OW23365   6.055   3.804   7.004
 7489SOL    HW123366   5.965   3.761   7.007
 7489SOL    HW223367   6.109   3.765   6.929
 7490SOL     OW23368   1.428   2.196   2.655
 7490SOL    HW123369   1.367   2.119   2.674
 7490SOL    HW223370   1.421   2.221   2.559
 7491SOL     OW23371   4.570   2.983   0.822
 7491SOL    HW123372   4.592   2.994   0.725
 7491SOL    HW223373   4.559   2.885   0.842
 7492SOL     OW23374   1.635   0.959   4.116
 7492SOL    HW123375   1.733   0.976   4.129
 7492SOL    HW223376   1.609   0.877   4.167
 7493SOL     OW23377   6.590   3.679   5.381
 7493SOL    HW123378   6.496   3.646   5.392
 7493SOL    HW223379   6.648   3.604   5.347
 7494SOL     OW23380   5.550   0.727   3.638
 7494SOL    HW123381   5.451   0.732   3.620
 7494SOL    HW223382   5.565   0.687   3.728
 7495SOL     OW23383   2.212   3.130   4.667
 7495SOL    HW123384   2.248   3.045   4.629
 7495SOL    HW223385   2.213   3.125   4.767
 7496SOL     OW23386   6.272   3.528   3.917
 7496SOL    HW123387   6.285   3.521   3.818
 7496SOL    HW223388   6.300   3.443   3.961
 7497SOL     OW23389   1.379   6.281   1.352
 7497SOL    HW123390   1.421   6.253   1.265
 7497SOL    HW223391   1.397   6.378   1.368
 7498SOL     OW23392   2.894   0.706   3.620
 7498SOL    HW123393   2.971   0.764   3.650
 7498SOL    HW223394   2.837   0.683   3.699
 7499SOL     OW23395   4.371   1.905   3.797
 7499SOL    HW123396   4.399   1.994   3.833
 7499SOL    HW223397   4.422   1.885   3.713
 7500SOL     OW23398   3.711   6.663   3.696
 7500SOL    HW123399   3.619   6.624   3.698
 7500SOL    HW223400   3.705   6.762   3.709
 7501SOL     OW23401   5.957   2.922   3.895
 7501SOL    HW123402   5.896   2.921   3.816
 7501SOL    HW223403   5.913   2.972   3.970
 7502SOL     OW23404   3.937   0.694   4.094
 7502SOL    HW123405   3.989   0.649   4.167
 7502SOL    HW223406   3.904   0.625   4.030
 7503SOL     OW23407   1.772   5.939   0.665
 7503SOL    HW123408   1.799   6.033   0.685
 7503SOL    HW223409   1.778   5.923   0.566
 7504SOL     OW23410   0.580   6.367   2.223
 7504SOL    HW123411   0.594   6.272   2.194
 7504SOL    HW223412   0.483   6.383   2.237
 7505SOL     OW23413   0.393   1.864   5.535
 7505SOL    HW123414   0.489   1.856   5.506
 7505SOL    HW223415   0.388   1.898   5.628
 7506SOL     OW23416   3.282   2.072   3.176
 7506SOL    HW123417   3.279   1.979   3.211
 7506SOL    HW223418   3.241   2.075   3.085
 7507SOL     OW23419   6.622   3.728   4.880
 7507SOL    HW123420   6.648   3.686   4.793
 7507SOL    HW223421   6.705   3.758   4.929
 7508SOL     OW23422   1.895   5.711   0.278
 7508SOL    HW123423   1.876   5.613   0.285
 7508SOL    HW223424   1.853   5.747   0.195
 7509SOL     OW23425   5.000   4.335   0.158
 7509SOL    HW123426   5.038   4.261   0.103
 7509SOL    HW223427   5.071   4.371   0.218
 7510SOL     OW23428   4.147   3.373   3.968
 7510SOL    HW123429   4.145   3.310   3.890
 7510SOL    HW223430   4.110   3.461   3.940
 7511SOL     OW23431   3.190   5.499   2.855
 7511SOL    HW123432   3.177   5.595   2.880
 7511SOL    HW223433   3.121   5.472   2.788
 7512SOL     OW23434   2.801   0.695   6.384
 7512SOL    HW123435   2.859   0.622   6.348
 7512SOL    HW223436   2.815   0.702   6.483
 7513SOL     OW23437   1.969   2.396   3.606
 7513SOL    HW123438   1.896   2.461   3.585
 7513SOL    HW223439   2.006   2.416   3.696
 7514SOL     OW23440   1.805   4.310   3.811
 7514SOL    HW123441   1.830   4.400   3.777
 7514SOL    HW223442   1.846   4.240   3.753
 7515SOL     OW23443   6.434   4.295   5.284
 7515SOL    HW123444   6.510   4.242   5.321
 7515SOL    HW223445   6.414   4.372   5.344
 7516SOL     OW23446   1.421   5.487   6.198
 7516SOL    HW123447   1.360   5.554   6.155
 7516SOL    HW223448   1.367   5.417   6.244
 7517SOL     OW23449   1.253   2.714   6.857
 7517SOL    HW123450   1.322   2.642   6.846
 7517SOL    HW223451   1.171   2.690   6.805
 7518SOL     OW23452   4.922   2.947   3.849
 7518SOL    HW123453   4.876   3.027   3.810
 7518SOL    HW223454   4.895   2.937   3.944
 7519SOL     OW23455   4.928   0.441   4.768
 7519SOL    HW123456   5.021   0.446   4.731
 7519SOL    HW223457   4.902   0.345   4.781
 7520SOL     OW23458   1.672   1.454   2.121
 7520SOL    HW123459   1.687   1.377   2.183
 7520SOL    HW223460   1.640   1.533   2.173
 7521SOL     OW23461   5.185   1.805   4.663
 7521SOL    HW123462   5.251   1.853   4.721
 7521SOL    HW223463   5.121   1.753   4.720
 7522SOL     OW23464   1.116   6.516   4.142
 7522SOL    HW123465   1.040   6.506   4.206
 7522SOL    HW223466   1.143   6.612   4.136
 7523SOL     OW23467   5.260   0.506   5.999
 7523SOL    HW123468   5.236   0.515   6.096
 7523SOL    HW223469   5.358   0.526   5.987
 7524SOL     OW23470   6.800   2.590   4.518
 7524SOL    HW123471   6.834   2.672   4.473
 7524SOL    HW223472   6.777   2.521   4.450
 7525SOL     OW23473   4.248   6.591   0.020
 7525SOL    HW123474   4.182   6.517   0.028
 7525SOL    HW223475   4.340   6.552   0.014
 7526SOL     OW23476   2.080   3.340   1.756
 7526SOL    HW123477   2.135   3.382   1.828
 7526SOL    HW223478   2.126   3.352   1.668
 7527SOL     OW23479   3.663   6.238   4.028
 7527SOL    HW123480   3.614   6.319   3.994
 7527SOL    HW223481   3.598   6.165   4.047
 7528SOL     OW23482   5.532   1.930   0.056
 7528SOL    HW123483   5.449   1.967   0.097
 7528SOL    HW223484   5.508   1.853   7.020
 7529SOL     OW23485   5.888   1.596   3.412
 7529SOL    HW123486   5.944   1.668   3.371
 7529SOL    HW223487   5.805   1.637   3.451
 7530SOL     OW23488   0.086   1.472   2.514
 7530SOL    HW123489   0.059   1.406   2.584
 7530SOL    HW223490   0.067   1.434   2.423
 7531SOL     OW23491   4.864   2.496   3.199
 7531SOL    HW123492   4.918   2.569   3.157
 7531SOL    HW223493   4.925   2.421   3.226
 7532SOL     OW23494   4.645   6.054   6.447
 7532SOL    HW123495   4.721   6.022   6.504
 7532SOL    HW223496   4.615   5.979   6.388
 7533SOL     OW23497   4.390   2.873   1.700
 7533SOL    HW123498   4.443   2.793   1.672
 7533SOL    HW223499   4.444   2.928   1.764
 7534SOL     OW23500   5.152   6.596   4.594
 7534SOL    HW123501   5.214   6.672   4.610
 7534SOL    HW223502   5.060   6.620   4.625
 7535SOL     OW23503   1.462   6.236   4.859
 7535SOL    HW123504   1.553   6.271   4.837
 7535SOL    HW223505   1.394   6.282   4.803
 7536SOL     OW23506   5.264   6.096   3.793
 7536SOL    HW123507   5.300   6.035   3.722
 7536SOL    HW223508   5.210   6.043   3.858
 7537SOL     OW23509   1.890   5.369   2.176
 7537SOL    HW123510   1.947   5.427   2.118
 7537SOL    HW223511   1.946   5.295   2.214
 7538SOL     OW23512   1.171   3.001   1.561
 7538SOL    HW123513   1.207   2.931   1.623
 7538SOL    HW223514   1.072   3.008   1.574
 7539SOL     OW23515   1.150   5.243   3.599
 7539SOL    HW123516   1.244   5.240   3.632
 7539SOL    HW223517   1.130   5.160   3.546
 7540SOL     OW23518   4.864   5.949   4.328
 7540SOL    HW123519   4.939   5.917   4.269
 7540SOL    HW223520   4.835   5.875   4.388
 7541SOL     OW23521   0.968   4.087   6.348
 7541SOL    HW123522   0.920   4.026   6.285
 7541SOL    HW223523   0.982   4.041   6.435
 7542SOL     OW23524   6.277   5.896   5.470
 7542SOL    HW123525   6.213   5.897   5.547
 7542SOL    HW223526   6.248   5.827   5.404
 7543SOL     OW23527   2.728   0.442   5.105
 7543SOL    HW123528   2.732   0.363   5.044
 7543SOL    HW223529   2.735   0.526   5.052
 7544SOL     OW23530   0.091   2.322   4.436
 7544SOL    HW123531   0.108   2.273   4.350
 7544SOL    HW223532   0.024   2.271   4.490
 7545SOL     OW23533   0.251   5.598   6.380
 7545SOL    HW123534   0.201   5.623   6.463
 7545SOL    HW223535   0.223   5.657   6.304
 7546SOL     OW23536   4.211   2.432   1.659
 7546SOL    HW123537   4.275   2.409   1.733
 7546SOL    HW223538   4.119   2.438   1.696
 7547SOL     OW23539   4.558   0.576   1.625
 7547SOL    HW123540   4.618   0.609   1.552
 7547SOL    HW223541   4.570   0.633   1.707
 7548SOL     OW23542   4.612   2.063   0.063
 7548SOL    HW123543   4.567   2.060   0.152
 7548SOL    HW223544   4.658   1.976   0.046
 7549SOL     OW23545   3.890   2.562   6.174
 7549SOL    HW123546   3.970   2.502   6.183
 7549SOL    HW223547   3.916   2.656   6.195
 7550SOL     OW23548   1.957   4.054   3.689
 7550SOL    HW123549   2.040   4.006   3.660
 7550SOL    HW223550   1.962   4.072   3.787
 7551SOL     OW23551   5.125   2.494   5.648
 7551SOL    HW123552   5.219   2.494   5.613
 7551SOL    HW223553   5.115   2.567   5.716
 7552SOL     OW23554   1.653   6.092   4.596
 7552SOL    HW123555   1.614   6.174   4.555
 7552SOL    HW223556   1.585   6.050   4.658
 7553SOL     OW23557   5.608   6.039   5.903
 7553SOL    HW123558   5.544   5.975   5.861
 7553SOL    HW223559   5.598   6.129   5.860
 7554SOL     OW23560   5.585   1.026   0.538
 7554SOL    HW123561   5.644   1.100   0.571
 7554SOL    HW223562   5.616   0.995   0.449
 7555SOL     OW23563   2.871   6.500   6.278
 7555SOL    HW123564   2.813   6.500   6.359
 7555SOL    HW223565   2.965   6.478   6.304
 7556SOL     OW23566   1.345   1.125   0.432
 7556SOL    HW123567   1.440   1.148   0.451
 7556SOL    HW223568   1.331   1.118   0.333
 7557SOL     OW23569   4.836   0.310   0.457
 7557SOL    HW123570   4.792   0.239   0.404
 7557SOL    HW223571   4.795   0.399   0.435
 7558SOL     OW23572   1.804   2.579   3.943
 7558SOL    HW123573   1.738   2.520   3.895
 7558SOL    HW223574   1.757   2.661   3.976
 7559SOL     OW23575   3.680   2.190   5.223
 7559SOL    HW123576   3.742   2.170   5.147
 7559SOL    HW223577   3.630   2.107   5.248
 7560SOL     OW23578   6.212   6.977   6.553
 7560SOL    HW123579   6.215   6.879   6.534
 7560SOL    HW223580   6.291   7.022   6.510
 7561SOL     OW23581   5.102   2.696   5.853
 7561SOL    HW123582   5.042   2.707   5.931
 7561SOL    HW223583   5.157   2.779   5.841
 7562SOL     OW23584   1.033   5.061   5.099
 7562SOL    HW123585   1.121   5.090   5.060
 7562SOL    HW223586   1.014   4.967   5.071
 7563SOL     OW23587   3.191   6.267   2.694
 7563SOL    HW123588   3.234   6.325   2.763
 7563SOL    HW223589   3.253   6.191   2.672
 7564SOL     OW23590   4.595   0.626   4.964
 7564SOL    HW123591   4.531   0.700   4.944
 7564SOL    HW223592   4.593   0.559   4.890
 7565SOL     OW23593   5.659   3.853   5.878
 7565SOL    HW123594   5.738   3.902   5.842
 7565SOL    HW223595   5.609   3.912   5.941
 7566SOL     OW23596   5.510   5.007   2.485
 7566SOL    HW123597   5.571   4.994   2.563
 7566SOL    HW223598   5.424   4.959   2.501
 7567SOL     OW23599   0.847   1.519   4.554
 7567SOL    HW123600   0.764   1.497   4.605
 7567SOL    HW223601   0.897   1.434   4.535
 7568SOL     OW23602   5.963   5.781   2.586
 7568SOL    HW123603   6.034   5.717   2.617
 7568SOL    HW223604   5.875   5.733   2.581
 7569SOL     OW23605   3.886   4.764   6.647
 7569SOL    HW123606   3.832   4.700   6.592
 7569SOL    HW223607   3.944   4.712   6.710
 7570SOL     OW23608   0.198   2.981   3.324
 7570SOL    HW123609   0.262   3.058   3.334
 7570SOL    HW223610   0.140   2.975   3.404
 7571SOL     OW23611   5.349   3.223   3.008
 7571SOL    HW123612   5.408   3.296   3.041
 7571SOL    HW223613   5.363   3.210   2.910
 7572SOL     OW23614   4.734   6.410   2.947
 7572SOL    HW123615   4.775   6.339   2.890
 7572SOL    HW223616   4.740   6.498   2.900
 7573SOL     OW23617   5.871   0.247   5.891
 7573SOL    HW123618   5.924   0.162   5.895
 7573SOL    HW223619   5.860   0.275   5.796
 7574SOL     OW23620   6.075   0.952   3.904
 7574SOL    HW123621   6.025   0.904   3.976
 7574SOL    HW223622   6.014   0.973   3.829
 7575SOL     OW23623   6.036   6.447   0.884
 7575SOL    HW123624   6.124   6.477   0.920
 7575SOL    HW223625   5.977   6.419   0.959
 7576SOL     OW23626   4.993   2.720   1.086
 7576SOL    HW123627   4.896   2.733   1.107
 7576SOL    HW223628   5.027   2.800   1.037
 7577SOL     OW23629   0.097   0.111   0.356
 7577SOL    HW123630   0.011   0.073   0.389
 7577SOL    HW223631   0.135   0.173   0.425
 7578SOL     OW23632   0.818   5.215   2.623
 7578SOL    HW123633   0.788   5.244   2.713
 7578SOL    HW223634   0.804   5.116   2.613
 7579SOL     OW23635   6.729   2.101   1.594
 7579SOL    HW123636   6.716   2.026   1.529
 7579SOL    HW223637   6.686   2.077   1.681
 7580SOL     OW23638   1.953   4.366   3.276
 7580SOL    HW123639   1.998   4.368   3.187
 7580SOL    HW223640   1.889   4.443   3.283
 7581SOL     OW23641   0.696   1.397   1.081
 7581SOL    HW123642   0.673   1.475   1.140
 7581SOL    HW223643   0.743   1.430   0.999
 7582SOL     OW23644   4.384   1.572   3.985
 7582SOL    HW123645   4.331   1.558   3.901
 7582SOL    HW223646   4.359   1.659   4.026
 7583SOL     OW23647   5.102   3.643   3.578
 7583SOL    HW123648   5.026   3.646   3.514
 7583SOL    HW223649   5.168   3.716   3.555
 7584SOL     OW23650   1.137   0.239   2.653
 7584SOL    HW123651   1.042   0.267   2.640
 7584SOL    HW223652   1.142   0.171   2.727
 7585SOL     OW23653   0.982   1.846   6.679
 7585SOL    HW123654   1.077   1.877   6.686
 7585SOL    HW223655   0.932   1.873   6.761
 7586SOL     OW23656   1.330   0.855   2.438
 7586SOL    HW123657   1.325   0.935   2.378
 7586SOL    HW223658   1.426   0.829   2.450
 7587SOL     OW23659   3.405   0.890   0.504
 7587SOL    HW123660   3.375   0.974   0.458
 7587SOL    HW223661   3.474   0.844   0.448
 7588SOL     OW23662   1.440   2.698   4.453
 7588SOL    HW123663   1.428   2.688   4.354
 7588SOL    HW223664   1.533   2.728   4.473
 7589SOL     OW23665   0.578   1.197   2.837
 7589SOL    HW123666   0.485   1.197   2.875
 7589SOL    HW223667   0.573   1.174   2.739
 7590SOL     OW23668   6.930   1.216   7.018
 7590SOL    HW123669   6.984   1.288   0.037
 7590SOL    HW223670   6.958   1.127   0.029
 7591SOL     OW23671   4.692   2.637   6.701
 7591SOL    HW123672   4.617   2.641   6.635
 7591SOL    HW223673   4.731   2.545   6.703
 7592SOL     OW23674   6.121   4.646   4.896
 7592SOL    HW123675   6.209   4.621   4.937
 7592SOL    HW223676   6.069   4.702   4.960
 7593SOL     OW23677   6.518   2.202   5.846
 7593SOL    HW123678   6.518   2.109   5.811
 7593SOL    HW223679   6.508   2.200   5.946
 7594SOL     OW23680   0.274   4.684   1.014
 7594SOL    HW123681   0.234   4.624   0.945
 7594SOL    HW223682   0.374   4.685   1.003
 7595SOL     OW23683   6.610   2.954   5.961
 7595SOL    HW123684   6.675   3.006   5.905
 7595SOL    HW223685   6.605   2.860   5.928
 7596SOL     OW23686   3.075   0.151   5.183
 7596SOL    HW123687   3.022   0.069   5.160
 7596SOL    HW223688   3.158   0.125   5.232
 7597SOL     OW23689   2.208   6.438   2.696
 7597SOL    HW123690   2.307   6.444   2.710
 7597SOL    HW223691   2.167   6.389   2.773
 7598SOL     OW23692   6.021   0.531   2.725
 7598SOL    HW123693   6.114   0.547   2.691
 7598SOL    HW223694   5.989   0.612   2.775
 7599SOL     OW23695   4.147   3.274   0.907
 7599SOL    HW123696   4.163   3.372   0.899
 7599SOL    HW223697   4.073   3.258   0.973
 7600SOL     OW23698   1.534   0.933   3.880
 7600SOL    HW123699   1.570   0.955   3.970
 7600SOL    HW223700   1.440   0.900   3.888
 7601SOL     OW23701   3.618   5.457   1.982
 7601SOL    HW123702   3.645   5.546   2.018
 7601SOL    HW223703   3.610   5.392   2.058
 7602SOL     OW23704   0.558   2.591   0.181
 7602SOL    HW123705   0.477   2.650   0.185
 7602SOL    HW223706   0.620   2.625   0.111
 7603SOL     OW23707   2.447   0.235   6.026
 7603SOL    HW123708   2.443   0.140   5.995
 7603SOL    HW223709   2.433   0.238   6.125
 7604SOL     OW23710   1.441   2.307   5.034
 7604SOL    HW123711   1.509   2.324   4.963
 7604SOL    HW223712   1.376   2.238   5.003
 7605SOL     OW23713   1.391   0.400   6.871
 7605SOL    HW123714   1.384   0.426   6.775
 7605SOL    HW223715   1.304   0.419   6.918
 7606SOL     OW23716   5.879   1.696   4.579
 7606SOL    HW123717   5.878   1.667   4.674
 7606SOL    HW223718   5.884   1.796   4.574
 7607SOL     OW23719   3.107   6.740   0.259
 7607SOL    HW123720   3.114   6.658   0.201
 7607SOL    HW223721   3.067   6.815   0.206
 7608SOL     OW23722   5.559   2.425   6.165
 7608SOL    HW123723   5.577   2.360   6.239
 7608SOL    HW223724   5.573   2.518   6.197
 7609SOL     OW23725   0.277   3.244   3.852
 7609SOL    HW123726   0.333   3.283   3.926
 7609SOL    HW223727   0.213   3.178   3.891
 7610SOL     OW23728   3.300   5.389   6.697
 7610SOL    HW123729   3.357   5.432   6.628
 7610SOL    HW223730   3.317   5.290   6.697
 7611SOL     OW23731   4.719   3.283   1.100
 7611SOL    HW123732   4.742   3.365   1.047
 7611SOL    HW223733   4.730   3.302   1.197
 7612SOL     OW23734   3.643   2.086   2.996
 7612SOL    HW123735   3.737   2.069   3.025
 7612SOL    HW223736   3.580   2.047   3.063
 7613SOL     OW23737   1.367   2.056   2.240
 7613SOL    HW123738   1.464   2.055   2.217
 7613SOL    HW223739   1.314   2.036   2.157
 7614SOL     OW23740   4.962   3.273   0.684
 7614SOL    HW123741   4.986   3.177   0.668
 7614SOL    HW223742   5.022   3.312   0.753
 7615SOL     OW23743   5.747   4.032   5.523
 7615SOL    HW123744   5.662   4.083   5.516
 7615SOL    HW223745   5.739   3.946   5.472
 7616SOL     OW23746   5.853   0.131   3.282
 7616SOL    HW123747   5.948   0.103   3.294
 7616SOL    HW223748   5.837   0.217   3.330
 7617SOL     OW23749   4.984   4.887   3.085
 7617SOL    HW123750   4.902   4.939   3.109
 7617SOL    HW223751   4.980   4.797   3.127
 7618SOL     OW23752   2.064   2.611   0.159
 7618SOL    HW123753   2.127   2.638   0.086
 7618SOL    HW223754   2.034   2.693   0.209
 7619SOL     OW23755   0.117   2.607   4.556
 7619SOL    HW123756   0.104   2.510   4.535
 7619SOL    HW223757   0.034   2.644   4.596
 7620SOL     OW23758   3.703   4.340   0.410
 7620SOL    HW123759   3.719   4.307   0.503
 7620SOL    HW223760   3.625   4.403   0.411
 7621SOL     OW23761   0.144   5.760   0.818
 7621SOL    HW123762   0.238   5.790   0.836
 7621SOL    HW223763   0.097   5.746   0.905
 7622SOL     OW23764   4.161   4.398   0.334
 7622SOL    HW123765   4.177   4.443   0.422
 7622SOL    HW223766   4.156   4.467   0.262
 7623SOL     OW23767   4.153   4.790   1.491
 7623SOL    HW123768   4.093   4.740   1.428
 7623SOL    HW223769   4.162   4.738   1.576
 7624SOL     OW23770   0.234   2.410   2.349
 7624SOL    HW123771   0.314   2.366   2.308
 7624SOL    HW223772   0.248   2.509   2.350
 7625SOL     OW23773   5.405   1.513   0.320
 7625SOL    HW123774   5.481   1.578   0.319
 7625SOL    HW223775   5.441   1.420   0.313
 7626SOL     OW23776   6.259   0.871   5.993
 7626SOL    HW123777   6.291   0.778   5.975
 7626SOL    HW223778   6.190   0.896   5.925
 7627SOL     OW23779   3.430   1.926   0.022
 7627SOL    HW123780   3.341   1.897   7.010
 7627SOL    HW223781   3.503   1.891   6.987
 7628SOL     OW23782   3.729   2.924   0.961
 7628SOL    HW123783   3.723   2.961   1.053
 7628SOL    HW223784   3.656   2.963   0.904
 7629SOL     OW23785   5.955   3.452   3.621
 7629SOL    HW123786   5.943   3.518   3.696
 7629SOL    HW223787   5.985   3.365   3.659
 7630SOL     OW23788   1.445   0.030   5.406
 7630SOL    HW123789   1.402   0.105   5.355
 7630SOL    HW223790   1.472   0.062   5.496
 7631SOL     OW23791   1.953   6.725   5.171
 7631SOL    HW123792   1.890   6.680   5.108
 7631SOL    HW223793   1.943   6.824   5.163
 7632SOL     OW23794   4.226   5.355   1.258
 7632SOL    HW123795   4.290   5.430   1.275
 7632SOL    HW223796   4.245   5.281   1.323
 7633SOL     OW23797   5.811   6.934   1.540
 7633SOL    HW123798   5.748   6.862   1.568
 7633SOL    HW223799   5.868   6.901   1.465
 7634SOL     OW23800   1.509   1.720   0.999
 7634SOL    HW123801   1.511   1.703   0.901
 7634SOL    HW223802   1.478   1.813   1.016
 7635SOL     OW23803   2.737   5.038   4.520
 7635SOL    HW123804   2.687   5.124   4.531
 7635SOL    HW223805   2.679   4.971   4.474
 7636SOL     OW23806   0.572   4.575   4.451
 7636SOL    HW123807   0.659   4.586   4.403
 7636SOL    HW223808   0.497   4.596   4.389
 7637SOL     OW23809   0.416   6.070   4.055
 7637SOL    HW123810   0.396   6.101   3.962
 7637SOL    HW223811   0.476   5.990   4.051
 7638SOL     OW23812   0.813   5.519   2.041
 7638SOL    HW123813   0.812   5.432   2.091
 7638SOL    HW223814   0.888   5.576   2.075
 7639SOL     OW23815   0.022   0.936   7.008
 7639SOL    HW123816   0.108   0.909   0.028
 7639SOL    HW223817   6.970   0.887   0.027
 7640SOL     OW23818   3.414   1.590   6.903
 7640SOL    HW123819   3.507   1.599   6.938
 7640SOL    HW223820   3.406   1.639   6.816
 7641SOL     OW23821   6.828   3.696   2.823
 7641SOL    HW123822   6.883   3.760   2.877
 7641SOL    HW223823   6.887   3.649   2.757
 7642SOL     OW23824   5.805   1.060   2.916
 7642SOL    HW123825   5.836   1.009   2.996
 7642SOL    HW223826   5.711   1.032   2.894
 7643SOL     OW23827   5.165   2.082   2.858
 7643SOL    HW123828   5.257   2.044   2.851
 7643SOL    HW223829   5.169   2.169   2.908
 7644SOL     OW23830   4.874   3.245   2.270
 7644SOL    HW123831   4.775   3.259   2.268
 7644SOL    HW223832   4.900   3.184   2.195
 7645SOL     OW23833   3.253   3.917   5.713
 7645SOL    HW123834   3.176   3.915   5.650
 7645SOL    HW223835   3.227   3.875   5.800
 7646SOL     OW23836   1.414   2.704   2.832
 7646SOL    HW123837   1.330   2.682   2.783
 7646SOL    HW223838   1.397   2.781   2.894
 7647SOL     OW23839   0.244   2.803   4.435
 7647SOL    HW123840   0.198   2.887   4.467
 7647SOL    HW223841   0.193   2.723   4.468
 7648SOL     OW23842   1.941   2.104   3.161
 7648SOL    HW123843   1.965   2.007   3.151
 7648SOL    HW223844   1.927   2.125   3.258
 7649SOL     OW23845   0.196   1.224   4.948
 7649SOL    HW123846   0.119   1.256   4.893
 7649SOL    HW223847   0.175   1.134   4.988
 7650SOL     OW23848   4.093   0.901   1.305
 7650SOL    HW123849   4.074   0.829   1.239
 7650SOL    HW223850   4.077   0.867   1.398
 7651SOL     OW23851   2.569   5.065   4.756
 7651SOL    HW123852   2.542   5.137   4.693
 7651SOL    HW223853   2.615   4.992   4.705
 7652SOL     OW23854   6.182   2.134   4.748
 7652SOL    HW123855   6.178   2.230   4.775
 7652SOL    HW223856   6.092   2.092   4.762
 7653SOL     OW23857   1.048   1.415   6.752
 7653SOL    HW123858   0.958   1.458   6.744
 7653SOL    HW223859   1.086   1.402   6.660
 7654SOL     OW23860   5.879   2.929   4.761
 7654SOL    HW123861   5.827   2.844   4.770
 7654SOL    HW223862   5.845   2.981   4.682
 7655SOL     OW23863   3.360   0.535   3.439
 7655SOL    HW123864   3.285   0.600   3.432
 7655SOL    HW223865   3.440   0.569   3.390
 7656SOL     OW23866   6.136   3.849   6.165
 7656SOL    HW123867   6.044   3.816   6.183
 7656SOL    HW223868   6.168   3.813   6.077
 7657SOL     OW23869   1.470   3.996   4.687
 7657SOL    HW123870   1.405   3.931   4.727
 7657SOL    HW223871   1.552   4.000   4.744
 7658SOL     OW23872   2.800   1.003   0.467
 7658SOL    HW123873   2.886   1.014   0.516
 7658SOL    HW223874   2.747   1.088   0.470
 7659SOL     OW23875   4.533   4.084   5.672
 7659SOL    HW123876   4.491   4.060   5.585
 7659SOL    HW223877   4.483   4.040   5.747
 7660SOL     OW23878   6.627   5.311   5.057
 7660SOL    HW123879   6.595   5.243   5.123
 7660SOL    HW223880   6.657   5.265   4.973
 7661SOL     OW23881   4.626   1.844   6.331
 7661SOL    HW123882   4.667   1.927   6.370
 7661SOL    HW223883   4.670   1.823   6.244
 7662SOL     OW23884   1.220   2.006   2.682
 7662SOL    HW123885   1.261   1.958   2.759
 7662SOL    HW223886   1.120   2.004   2.690
 7663SOL     OW23887   5.771   5.805   5.714
 7663SOL    HW123888   5.720   5.890   5.700
 7663SOL    HW223889   5.755   5.771   5.807
 7664SOL     OW23890   4.154   0.977   2.952
 7664SOL    HW123891   4.210   0.952   2.873
 7664SOL    HW223892   4.144   1.077   2.956
 7665SOL     OW23893   5.396   2.642   3.568
 7665SOL    HW123894   5.390   2.552   3.527
 7665SOL    HW223895   5.333   2.648   3.645
 7666SOL     OW23896   6.279   5.885   3.957
 7666SOL    HW123897   6.365   5.839   3.981
 7666SOL    HW223898   6.297   5.982   3.940
 7667SOL     OW23899   4.782   6.723   2.275
 7667SOL    HW123900   4.688   6.695   2.294
 7667SOL    HW223901   4.827   6.747   2.361
 7668SOL     OW23902   2.391   4.978   1.283
 7668SOL    HW123903   2.376   5.050   1.215
 7668SOL    HW223904   2.410   5.020   1.372
 7669SOL     OW23905   3.616   6.954   5.973
 7669SOL    HW123906   3.687   7.021   5.952
 7669SOL    HW223907   3.570   6.926   5.889
 7670SOL     OW23908   0.802   6.916   0.403
 7670SOL    HW123909   0.743   6.987   0.364
 7670SOL    HW223910   0.804   6.837   0.342
 7671SOL     OW23911   5.542   6.594   2.213
 7671SOL    HW123912   5.616   6.647   2.172
 7671SOL    HW223913   5.461   6.651   2.221
 7672SOL     OW23914   6.452   4.633   2.964
 7672SOL    HW123915   6.376   4.603   2.906
 7672SOL    HW223916   6.481   4.558   3.023
 7673SOL     OW23917   1.345   5.449   2.959
 7673SOL    HW123918   1.332   5.415   3.053
 7673SOL    HW223919   1.339   5.549   2.959
 7674SOL     OW23920   4.166   0.862   4.568
 7674SOL    HW123921   4.159   0.796   4.642
 7674SOL    HW223922   4.151   0.954   4.604
 7675SOL     OW23923   3.441   6.643   3.648
 7675SOL    HW123924   3.423   6.667   3.553
 7675SOL    HW223925   3.382   6.566   3.675
 7676SOL     OW23926   3.199   3.068   5.958
 7676SOL    HW123927   3.160   3.026   6.040
 7676SOL    HW223928   3.221   3.163   5.977
 7677SOL     OW23929   6.785   5.054   1.372
 7677SOL    HW123930   6.825   4.984   1.313
 7677SOL    HW223931   6.697   5.022   1.408
 7678SOL     OW23932   1.396   2.321   5.545
 7678SOL    HW123933   1.307   2.303   5.504
 7678SOL    HW223934   1.420   2.247   5.608
 7679SOL     OW23935   2.177   5.076   5.609
 7679SOL    HW123936   2.105   5.075   5.678
 7679SOL    HW223937   2.206   4.982   5.591
 7680SOL     OW23938   1.428   0.334   5.433
 7680SOL    HW123939   1.458   0.426   5.408
 7680SOL    HW223940   1.329   0.334   5.443
 7681SOL     OW23941   3.125   2.548   6.400
 7681SOL    HW123942   3.210   2.578   6.358
 7681SOL    HW223943   3.092   2.618   6.463
 7682SOL     OW23944   3.101   1.591   2.804
 7682SOL    HW123945   3.156   1.650   2.745
 7682SOL    HW223946   3.052   1.647   2.871
 7683SOL     OW23947   0.138   1.005   4.679
 7683SOL    HW123948   0.072   0.987   4.606
 7683SOL    HW223949   0.174   0.918   4.713
 7684SOL     OW23950   3.974   2.097   1.715
 7684SOL    HW123951   3.981   2.068   1.619
 7684SOL    HW223952   3.946   2.019   1.771
 7685SOL     OW23953   3.914   1.014   6.796
 7685SOL    HW123954   3.934   1.060   6.882
 7685SOL    HW223955   3.861   0.930   6.814
 7686SOL     OW23956   4.672   0.283   4.802
 7686SOL    HW123957   4.652   0.214   4.733
 7686SOL    HW223958   4.605   0.358   4.795
 7687SOL     OW23959   4.971   5.550   4.764
 7687SOL    HW123960   5.030   5.495   4.705
 7687SOL    HW223961   5.023   5.579   4.844
 7688SOL     OW23962   0.339   5.215   5.913
 7688SOL    HW123963   0.351   5.295   5.972
 7688SOL    HW223964   0.388   5.137   5.954
 7689SOL     OW23965   4.863   0.592   1.814
 7689SOL    HW123966   4.801   0.625   1.885
 7689SOL    HW223967   4.936   0.538   1.856
 7690SOL     OW23968   5.427   4.597   0.459
 7690SOL    HW123969   5.408   4.693   0.441
 7690SOL    HW223970   5.383   4.569   0.544
 7691SOL     OW23971   4.420   4.852   2.461
 7691SOL    HW123972   4.330   4.808   2.467
 7691SOL    HW223973   4.488   4.794   2.505
 7692SOL     OW23974   0.741   6.535   1.362
 7692SOL    HW123975   0.832   6.567   1.339
 7692SOL    HW223976   0.692   6.606   1.412
 7693SOL     OW23977   3.144   0.792   0.880
 7693SOL    HW123978   3.232   0.812   0.837
 7693SOL    HW223979   3.126   0.859   0.952
 7694SOL     OW23980   5.705   2.756   4.418
 7694SOL    HW123981   5.688   2.658   4.406
 7694SOL    HW223982   5.630   2.797   4.470
 7695SOL     OW23983   6.312   6.886   2.817
 7695SOL    HW123984   6.248   6.833   2.762
 7695SOL    HW223985   6.305   6.858   2.913
 7696SOL     OW23986   0.364   1.936   6.344
 7696SOL    HW123987   0.359   2.023   6.392
 7696SOL    HW223988   0.281   1.883   6.360
 7697SOL     OW23989   3.648   6.926   2.965
 7697SOL    HW123990   3.624   6.895   3.057
 7697SOL    HW223991   3.654   0.002   2.964
 7698SOL     OW23992   6.091   2.652   6.637
 7698SOL    HW123993   6.171   2.711   6.628
 7698SOL    HW223994   6.020   2.682   6.572
 7699SOL     OW23995   2.593   5.535   0.080
 7699SOL    HW123996   2.629   5.515   7.012
 7699SOL    HW223997   2.609   5.457   0.140
 7700SOL     OW23998   4.651   5.667   2.946
 7700SOL    HW123999   4.666   5.654   3.044
 7700SOL    HW224000   4.657   5.579   2.899
 7701SOL     OW24001   0.225   2.156   6.080
 7701SOL    HW124002   0.192   2.120   6.168
 7701SOL    HW224003   0.323   2.140   6.072
 7702SOL     OW24004   4.596   0.082   5.731
 7702SOL    HW124005   4.623   0.123   5.818
 7702SOL    HW224006   4.497   0.066   5.730
 7703SOL     OW24007   6.350   0.515   4.901
 7703SOL    HW124008   6.401   0.485   4.820
 7703SOL    HW224009   6.389   0.601   4.934
 7704SOL     OW24010   6.727   1.539   4.081
 7704SOL    HW124011   6.672   1.596   4.020
 7704SOL    HW224012   6.719   1.573   4.174
 7705SOL     OW24013   2.729   5.029   0.513
 7705SOL    HW124014   2.822   5.052   0.541
 7705SOL    HW224015   2.731   4.947   0.455
 7706SOL     OW24016   3.477   2.952   3.125
 7706SOL    HW124017   3.389   2.962   3.171
 7706SOL    HW224018   3.550   2.977   3.189
 7707SOL     OW24019   6.674   5.726   0.074
 7707SOL    HW124020   6.589   5.777   0.060
 7707SOL    HW224021   6.653   5.632   0.101
 7708SOL     OW24022   1.857   0.381   4.317
 7708SOL    HW124023   1.854   0.398   4.415
 7708SOL    HW224024   1.936   0.427   4.277
 7709SOL     OW24025   6.660   4.946   1.107
 7709SOL    HW124026   6.675   5.044   1.120
 7709SOL    HW224027   6.667   4.923   1.010
 7710SOL     OW24028   1.564   2.558   0.727
 7710SOL    HW124029   1.551   2.600   0.817
 7710SOL    HW224030   1.502   2.601   0.661
 7711SOL     OW24031   6.475   5.120   5.482
 7711SOL    HW124032   6.490   5.168   5.395
 7711SOL    HW224033   6.518   5.030   5.478
 7712SOL     OW24034   6.617   4.441   6.270
 7712SOL    HW124035   6.584   4.379   6.340
 7712SOL    HW224036   6.589   4.535   6.292
 7713SOL     OW24037   1.741   4.383   1.021
 7713SOL    HW124038   1.769   4.444   1.094
 7713SOL    HW224039   1.741   4.289   1.054
 7714SOL     OW24040   6.510   0.358   4.365
 7714SOL    HW124041   6.511   0.439   4.308
 7714SOL    HW224042   6.585   0.297   4.338
 7715SOL     OW24043   2.029   2.838   6.394
 7715SOL    HW124044   2.103   2.772   6.394
 7715SOL    HW224045   1.948   2.797   6.352
 7716SOL     OW24046   0.794   5.326   6.838
 7716SOL    HW124047   0.718   5.286   6.787
 7716SOL    HW224048   0.832   5.257   6.900
 7717SOL     OW24049   1.102   2.311   5.931
 7717SOL    HW124050   1.095   2.248   6.008
 7717SOL    HW224051   1.184   2.368   5.942
 7718SOL     OW24052   0.953   3.445   2.598
 7718SOL    HW124053   0.924   3.529   2.645
 7718SOL    HW224054   0.875   3.405   2.551
 7719SOL     OW24055   1.565   4.306   4.951
 7719SOL    HW124056   1.536   4.244   5.024
 7719SOL    HW224057   1.657   4.280   4.921
 7720SOL     OW24058   6.347   2.047   6.266
 7720SOL    HW124059   6.352   1.948   6.274
 7720SOL    HW224060   6.255   2.073   6.234
 7721SOL     OW24061   1.168   0.622   2.439
 7721SOL    HW124062   1.083   0.619   2.490
 7721SOL    HW224063   1.232   0.685   2.483
 7722SOL     OW24064   2.105   4.947   4.179
 7722SOL    HW124065   2.069   4.949   4.272
 7722SOL    HW224066   2.060   5.018   4.124
 7723SOL     OW24067   4.924   2.879   6.686
 7723SOL    HW124068   4.860   2.814   6.728
 7723SOL    HW224069   4.993   2.906   6.752
 7724SOL     OW24070   3.271   4.115   1.226
 7724SOL    HW124071   3.210   4.063   1.166
 7724SOL    HW224072   3.260   4.083   1.320
 7725SOL     OW24073   5.824   2.617   2.666
 7725SOL    HW124074   5.864   2.592   2.578
 7725SOL    HW224075   5.795   2.534   2.714
 7726SOL     OW24076   0.892   3.092   6.333
 7726SOL    HW124077   0.856   3.000   6.347
 7726SOL    HW224078   0.903   3.110   6.235
 7727SOL     OW24079   4.877   2.330   1.914
 7727SOL    HW124080   4.809   2.277   1.863
 7727SOL    HW224081   4.944   2.369   1.852
 7728SOL     OW24082   2.233   3.005   5.268
 7728SOL    HW124083   2.319   2.999   5.216
 7728SOL    HW224084   2.173   2.929   5.242
 7729SOL     OW24085   6.282   1.623   2.265
 7729SOL    HW124086   6.235   1.605   2.179
 7729SOL    HW224087   6.336   1.707   2.257
 7730SOL     OW24088   5.675   4.769   5.710
 7730SOL    HW124089   5.630   4.856   5.686
 7730SOL    HW224090   5.617   4.693   5.681
 7731SOL     OW24091   5.994   0.179   0.535
 7731SOL    HW124092   5.905   0.224   0.531
 7731SOL    HW224093   6.067   0.247   0.531
 7732SOL     OW24094   4.512   0.329   6.923
 7732SOL    HW124095   4.419   0.351   6.952
 7732SOL    HW224096   4.511   0.300   6.827
 7733SOL     OW24097   6.780   5.644   2.813
 7733SOL    HW124098   6.710   5.713   2.794
 7733SOL    HW224099   6.847   5.680   2.877
 7734SOL     OW24100   2.438   4.675   5.431
 7734SOL    HW124101   2.382   4.597   5.401
 7734SOL    HW224102   2.512   4.642   5.490
 7735SOL     OW24103   6.450   6.274   0.352
 7735SOL    HW124104   6.489   6.191   0.311
 7735SOL    HW224105   6.365   6.298   0.305
 7736SOL     OW24106   2.582   3.034   0.650
 7736SOL    HW124107   2.642   3.051   0.728
 7736SOL    HW224108   2.503   2.981   0.681
 7737SOL     OW24109   3.998   5.511   1.229
 7737SOL    HW124110   3.933   5.492   1.302
 7737SOL    HW224111   4.078   5.451   1.239
 7738SOL     OW24112   2.633   6.183   6.594
 7738SOL    HW124113   2.639   6.083   6.583
 7738SOL    HW224114   2.539   6.207   6.619
 7739SOL     OW24115   1.541   2.534   1.930
 7739SOL    HW124116   1.508   2.602   1.996
 7739SOL    HW224117   1.567   2.580   1.845
 7740SOL     OW24118   1.762   0.817   3.024
 7740SOL    HW124119   1.821   0.738   3.012
 7740SOL    HW224120   1.797   0.874   3.098
 7741SOL     OW24121   2.003   4.754   5.746
 7741SOL    HW124122   2.059   4.742   5.663
 7741SOL    HW224123   1.981   4.851   5.757
 7742SOL     OW24124   4.336   1.797   4.104
 7742SOL    HW124125   4.335   1.886   4.059
 7742SOL    HW224126   4.255   1.788   4.161
 7743SOL     OW24127   5.502   1.358   6.238
 7743SOL    HW124128   5.441   1.292   6.194
 7743SOL    HW224129   5.453   1.442   6.258
 7744SOL     OW24130   0.757   5.659   5.311
 7744SOL    HW124131   0.769   5.593   5.385
 7744SOL    HW224132   0.846   5.689   5.278
 7745SOL     OW24133   2.120   6.239   0.048
 7745SOL    HW124134   2.193   6.284   0.100
 7745SOL    HW224135   2.125   6.140   0.063
 7746SOL     OW24136   1.002   6.106   0.844
 7746SOL    HW124137   1.049   6.117   0.931
 7746SOL    HW224138   1.059   6.144   0.771
 7747SOL     OW24139   6.720   6.227   0.626
 7747SOL    HW124140   6.767   6.285   0.693
 7747SOL    HW224141   6.653   6.169   0.674
 7748SOL     OW24142   3.827   2.871   5.395
 7748SOL    HW124143   3.762   2.877   5.319
 7748SOL    HW224144   3.881   2.787   5.385
 7749SOL     OW24145   3.803   3.593   3.468
 7749SOL    HW124146   3.871   3.614   3.398
 7749SOL    HW224147   3.810   3.659   3.542
 7750SOL     OW24148   5.474   5.023   6.204
 7750SOL    HW124149   5.503   5.040   6.110
 7750SOL    HW224150   5.437   5.106   6.244
 7751SOL     OW24151   0.164   1.647   3.554
 7751SOL    HW124152   0.237   1.711   3.578
 7751SOL    HW224153   0.111   1.624   3.635
 7752SOL     OW24154   5.468   5.255   5.104
 7752SOL    HW124155   5.517   5.169   5.086
 7752SOL    HW224156   5.516   5.331   5.060
 7753SOL     OW24157   2.563   0.406   4.818
 7753SOL    HW124158   2.628   0.332   4.837
 7753SOL    HW224159   2.470   0.369   4.815
 7754SOL     OW24160   5.875   0.575   1.035
 7754SOL    HW124161   5.829   0.581   0.947
 7754SOL    HW224162   5.890   0.666   1.072
 7755SOL     OW24163   0.101   6.275   5.686
 7755SOL    HW124164   0.104   6.370   5.656
 7755SOL    HW224165   0.189   6.249   5.726
 7756SOL     OW24166   2.458   5.582   2.350
 7756SOL    HW124167   2.546   5.630   2.351
 7756SOL    HW224168   2.459   5.508   2.417
 7757SOL     OW24169   4.714   6.018   5.394
 7757SOL    HW124170   4.784   6.004   5.464
 7757SOL    HW224171   4.655   6.094   5.420
 7758SOL     OW24172   1.793   2.726   6.277
 7758SOL    HW124173   1.849   2.661   6.226
 7758SOL    HW224174   1.705   2.737   6.233
 7759SOL     OW24175   1.716   0.543   4.783
 7759SOL    HW124176   1.777   0.466   4.798
 7759SOL    HW224177   1.702   0.592   4.869
 7760SOL     OW24178   5.697   2.794   2.090
 7760SOL    HW124179   5.714   2.758   2.182
 7760SOL    HW224180   5.781   2.832   2.053
 7761SOL     OW24181   3.053   6.799   6.011
 7761SOL    HW124182   3.069   6.738   6.089
 7761SOL    HW224183   2.998   6.877   6.040
 7762SOL     OW24184   4.103   0.869   6.463
 7762SOL    HW124185   4.187   0.856   6.516
 7762SOL    HW224186   4.087   0.966   6.449
 7763SOL     OW24187   1.430   1.953   0.707
 7763SOL    HW124188   1.459   2.048   0.710
 7763SOL    HW224189   1.330   1.948   0.706
 7764SOL     OW24190   3.864   3.348   2.531
 7764SOL    HW124191   3.815   3.294   2.599
 7764SOL    HW224192   3.850   3.446   2.550
 7765SOL     OW24193   6.601   3.313   4.029
 7765SOL    HW124194   6.587   3.389   4.093
 7765SOL    HW224195   6.515   3.289   3.985
 7766SOL     OW24196   5.735   1.718   6.965
 7766SOL    HW124197   5.635   1.710   6.970
 7766SOL    HW224198   5.772   1.635   6.924
 7767SOL     OW24199   3.927   6.337   3.421
 7767SOL    HW124200   3.916   6.323   3.323
 7767SOL    HW224201   3.898   6.254   3.470
 7768SOL     OW24202   3.296   4.921   2.811
 7768SOL    HW124203   3.328   4.904   2.904
 7768SOL    HW224204   3.198   4.899   2.804
 7769SOL     OW24205   4.470   1.849   1.788
 7769SOL    HW124206   4.536   1.890   1.724
 7769SOL    HW224207   4.390   1.908   1.797
 7770SOL     OW24208   2.691   4.773   1.787
 7770SOL    HW124209   2.729   4.730   1.869
 7770SOL    HW224210   2.738   4.859   1.769
 7771SOL     OW24211   2.635   2.189   4.528
 7771SOL    HW124212   2.551   2.139   4.510
 7771SOL    HW224213   2.690   2.194   4.444
 7772SOL     OW24214   5.405   1.136   3.408
 7772SOL    HW124215   5.490   1.108   3.454
 7772SOL    HW224216   5.328   1.085   3.447
 7773SOL     OW24217   3.749   4.553   6.521
 7773SOL    HW124218   3.820   4.483   6.510
 7773SOL    HW224219   3.659   4.513   6.505
 7774SOL     OW24220   5.588   1.428   5.743
 7774SOL    HW124221   5.633   1.411   5.656
 7774SOL    HW224222   5.634   1.375   5.815
 7775SOL     OW24223   3.228   6.468   3.705
 7775SOL    HW124224   3.241   6.415   3.789
 7775SOL    HW224225   3.131   6.480   3.688
 7776SOL     OW24226   3.238   3.359   5.969
 7776SOL    HW124227   3.292   3.342   5.887
 7776SOL    HW224228   3.297   3.351   6.050
 7777SOL     OW24229   2.367   1.562   5.814
 7777SOL    HW124230   2.418   1.525   5.893
 7777SOL    HW224231   2.390   1.509   5.732
 7778SOL     OW24232   5.763   0.314   0.372
 7778SOL    HW124233   5.786   0.237   0.313
 7778SOL    HW224234   5.700   0.375   0.324
 7779SOL     OW24235   3.332   2.750   0.455
 7779SOL    HW124236   3.358   2.690   0.379
 7779SOL    HW224237   3.245   2.720   0.493
 7780SOL     OW24238   1.398   6.138   4.346
 7780SOL    HW124239   1.385   6.161   4.442
 7780SOL    HW224240   1.391   6.039   4.334
 7781SOL     OW24241   1.757   3.965   5.976
 7781SOL    HW124242   1.771   3.985   5.879
 7781SOL    HW224243   1.760   3.866   5.991
 7782SOL     OW24244   1.982   4.053   6.110
 7782SOL    HW124245   2.030   3.978   6.157
 7782SOL    HW224246   1.901   4.017   6.064
 7783SOL     OW24247   2.682   6.675   6.118
 7783SOL    HW124248   2.751   6.609   6.147
 7783SOL    HW224249   2.693   6.759   6.171
 7784SOL     OW24250   1.097   3.489   0.032
 7784SOL    HW124251   1.178   3.537   0.067
 7784SOL    HW224252   1.095   3.397   0.070
 7785SOL     OW24253   2.296   6.700   4.093
 7785SOL    HW124254   2.380   6.666   4.051
 7785SOL    HW224255   2.272   6.789   4.052
 7786SOL     OW24256   3.182   4.638   5.285
 7786SOL    HW124257   3.238   4.559   5.311
 7786SOL    HW224258   3.087   4.609   5.277
 7787SOL     OW24259   2.444   2.656   5.196
 7787SOL    HW124260   2.380   2.664   5.121
 7787SOL    HW224261   2.482   2.746   5.217
 7788SOL     OW24262   1.461   1.758   1.760
 7788SOL    HW124263   1.521   1.825   1.805
 7788SOL    HW224264   1.382   1.805   1.722
 7789SOL     OW24265   2.415   7.006   1.267
 7789SOL    HW124266   2.409   6.918   1.220
 7789SOL    HW224267   2.437   0.054   1.202
 7790SOL     OW24268   6.525   4.008   3.145
 7790SOL    HW124269   6.522   4.072   3.221
 7790SOL    HW224270   6.483   3.921   3.173
 7791SOL     OW24271   2.715   5.890   4.500
 7791SOL    HW124272   2.754   5.976   4.532
 7791SOL    HW224273   2.762   5.814   4.544
 7792SOL     OW24274   1.722   5.146   6.393
 7792SOL    HW124275   1.704   5.135   6.296
 7792SOL    HW224276   1.703   5.240   6.420
 7793SOL     OW24277   2.004   1.460   5.260
 7793SOL    HW124278   2.103   1.465   5.276
 7793SOL    HW224279   1.977   1.529   5.193
 7794SOL     OW24280   4.923   4.942   4.598
 7794SOL    HW124281   4.841   4.947   4.541
 7794SOL    HW224282   4.915   4.865   4.661
 7795SOL     OW24283   2.061   4.047   5.490
 7795SOL    HW124284   1.964   4.055   5.470
 7795SOL    HW224285   2.104   3.983   5.426
 7796SOL     OW24286   3.504   4.057   3.561
 7796SOL    HW124287   3.478   4.121   3.489
 7796SOL    HW224288   3.604   4.046   3.560
 7797SOL     OW24289   6.986   5.450   3.539
 7797SOL    HW124290   6.997   5.532   3.483
 7797SOL    HW224291   0.012   5.462   3.625
 7798SOL     OW24292   2.697   5.122   0.056
 7798SOL    HW124293   2.757   5.135   0.135
 7798SOL    HW224294   2.705   5.200   7.018
 7799SOL     OW24295   6.538   5.716   1.747
 7799SOL    HW124296   6.467   5.706   1.818
 7799SOL    HW224297   6.494   5.731   1.659
 7800SOL     OW24298   0.426   4.232   1.621
 7800SOL    HW124299   0.340   4.253   1.574
 7800SOL    HW224300   0.465   4.316   1.657
 7801SOL     OW24301   2.221   1.693   1.057
 7801SOL    HW124302   2.166   1.610   1.051
 7801SOL    HW224303   2.318   1.670   1.052
 7802SOL     OW24304   5.950   2.689   1.400
 7802SOL    HW124305   5.883   2.721   1.332
 7802SOL    HW224306   6.032   2.747   1.396
 7803SOL     OW24307   4.429   3.537   5.702
 7803SOL    HW124308   4.377   3.526   5.617
 7803SOL    HW224309   4.451   3.448   5.740
 7804SOL     OW24310   6.197   1.262   4.010
 7804SOL    HW124311   6.117   1.278   3.953
 7804SOL    HW224312   6.169   1.247   4.105
 7805SOL     OW24313   5.419   2.389   0.811
 7805SOL    HW124314   5.391   2.481   0.782
 7805SOL    HW224315   5.379   2.369   0.900
 7806SOL     OW24316   5.600   3.150   6.102
 7806SOL    HW124317   5.616   3.242   6.066
 7806SOL    HW224318   5.501   3.135   6.112
 7807SOL     OW24319   6.897   4.928   6.527
 7807SOL    HW124320   6.807   4.963   6.551
 7807SOL    HW224321   6.914   4.943   6.429
 7808SOL     OW24322   0.570   2.666   4.621
 7808SOL    HW124323   0.651   2.607   4.621
 7808SOL    HW224324   0.597   2.759   4.594
 7809SOL     OW24325   2.142   5.635   5.101
 7809SOL    HW124326   2.146   5.563   5.032
 7809SOL    HW224327   2.216   5.622   5.167
 7810SOL     OW24328   3.173   0.770   5.514
 7810SOL    HW124329   3.083   0.789   5.553
 7810SOL    HW224330   3.163   0.742   5.419
 7811SOL     OW24331   6.329   4.493   4.391
 7811SOL    HW124332   6.300   4.401   4.419
 7811SOL    HW224333   6.390   4.531   4.461
 7812SOL     OW24334   1.522   1.818   3.971
 7812SOL    HW124335   1.510   1.758   4.051
 7812SOL    HW224336   1.604   1.874   3.983
 7813SOL     OW24337   4.872   2.486   6.371
 7813SOL    HW124338   4.964   2.505   6.337
 7813SOL    HW224339   4.829   2.416   6.313
 7814SOL     OW24340   0.074   2.252   3.150
 7814SOL    HW124341   0.025   2.257   3.237
 7814SOL    HW224342   0.160   2.302   3.157
 7815SOL     OW24343   5.235   1.276   6.718
 7815SOL    HW124344   5.193   1.359   6.754
 7815SOL    HW224345   5.191   1.196   6.759
 7816SOL     OW24346   1.220   3.112   5.795
 7816SOL    HW124347   1.190   3.041   5.859
 7816SOL    HW224348   1.320   3.119   5.797
 7817SOL     OW24349   6.391   3.588   4.500
 7817SOL    HW124350   6.337   3.523   4.447
 7817SOL    HW224351   6.443   3.647   4.438
 7818SOL     OW24352   5.504   0.378   1.716
 7818SOL    HW124353   5.475   0.472   1.726
 7818SOL    HW224354   5.569   0.371   1.639
 7819SOL     OW24355   0.134   3.251   1.488
 7819SOL    HW124356   0.165   3.195   1.410
 7819SOL    HW224357   0.118   3.192   1.567
 7820SOL     OW24358   1.665   2.356   4.845
 7820SOL    HW124359   1.597   2.428   4.829
 7820SOL    HW224360   1.688   2.312   4.759
 7821SOL     OW24361   4.299   5.893   1.306
 7821SOL    HW124362   4.326   5.981   1.267
 7821SOL    HW224363   4.200   5.891   1.319
 7822SOL     OW24364   0.023   0.114   5.152
 7822SOL    HW124365   6.998   0.120   5.239
 7822SOL    HW224366   0.064   0.023   5.144
 7823SOL     OW24367   2.144   4.034   4.626
 7823SOL    HW124368   2.238   4.008   4.606
 7823SOL    HW224369   2.119   4.000   4.717
 7824SOL     OW24370   6.684   2.534   5.052
 7824SOL    HW124371   6.652   2.448   5.011
 7824SOL    HW224372   6.607   2.583   5.092
 7825SOL     OW24373   2.625   3.092   7.023
 7825SOL    HW124374   2.699   3.043   0.045
 7825SOL    HW224375   2.663   3.155   6.955
 7826SOL     OW24376   0.112   1.467   0.307
 7826SOL    HW124377   0.119   1.367   0.303
 7826SOL    HW224378   0.136   1.499   0.398
 7827SOL     OW24379   0.545   5.910   2.659
 7827SOL    HW124380   0.520   5.816   2.636
 7827SOL    HW224381   0.526   5.970   2.581
 7828SOL     OW24382   6.762   4.212   6.868
 7828SOL    HW124383   6.829   4.223   6.794
 7828SOL    HW224384   6.711   4.127   6.854
 7829SOL     OW24385   3.524   3.196   1.459
 7829SOL    HW124386   3.532   3.214   1.557
 7829SOL    HW224387   3.507   3.099   1.445
 7830SOL     OW24388   3.878   5.536   5.353
 7830SOL    HW124389   3.878   5.447   5.307
 7830SOL    HW224390   3.865   5.608   5.285
 7831SOL     OW24391   1.832   1.090   1.294
 7831SOL    HW124392   1.846   1.077   1.196
 7831SOL    HW224393   1.755   1.033   1.325
 7832SOL     OW24394   5.093   0.585   4.462
 7832SOL    HW124395   5.035   0.599   4.382
 7832SOL    HW224396   5.085   0.665   4.523
 7833SOL     OW24397   1.280   0.288   4.055
 7833SOL    HW124398   1.245   0.316   4.144
 7833SOL    HW224399   1.268   0.363   3.990
 7834SOL     OW24400   6.664   1.838   3.912
 7834SOL    HW124401   6.760   1.864   3.918
 7834SOL    HW224402   6.656   1.746   3.873
 7835SOL     OW24403   4.096   1.883   5.268
 7835SOL    HW124404   4.072   1.975   5.299
 7835SOL    HW224405   4.018   1.822   5.283
 7836SOL     OW24406   4.077   4.001   5.213
 7836SOL    HW124407   4.160   3.999   5.158
 7836SOL    HW224408   4.030   3.913   5.205
 7837SOL     OW24409   5.458   6.324   0.357
 7837SOL    HW124410   5.487   6.267   0.434
 7837SOL    HW224411   5.410   6.405   0.392
 7838SOL     OW24412   5.026   4.709   1.253
 7838SOL    HW124413   5.049   4.756   1.338
 7838SOL    HW224414   5.064   4.760   1.176
 7839SOL     OW24415   5.865   4.202   4.911
 7839SOL    HW124416   5.841   4.234   5.003
 7839SOL    HW224417   5.882   4.281   4.852
 7840SOL     OW24418   0.636   4.092   3.771
 7840SOL    HW124419   0.722   4.040   3.778
 7840SOL    HW224420   0.657   4.189   3.767
 7841SOL     OW24421   4.719   2.101   6.504
 7841SOL    HW124422   4.811   2.063   6.515
 7841SOL    HW224423   4.702   2.169   6.575
 7842SOL     OW24424   2.385   2.131   2.358
 7842SOL    HW124425   2.446   2.093   2.288
 7842SOL    HW224426   2.345   2.216   2.324
 7843SOL     OW24427   6.673   0.184   4.243
 7843SOL    HW124428   6.648   0.228   4.157
 7843SOL    HW224429   6.656   0.085   4.236
 7844SOL     OW24430   3.632   0.464   2.348
 7844SOL    HW124431   3.711   0.405   2.331
 7844SOL    HW224432   3.664   0.554   2.377
 7845SOL     OW24433   5.288   1.960   1.500
 7845SOL    HW124434   5.220   1.887   1.496
 7845SOL    HW224435   5.261   2.027   1.569
 7846SOL     OW24436   1.679   2.497   0.326
 7846SOL    HW124437   1.634   2.430   0.386
 7846SOL    HW224438   1.638   2.587   0.339
 7847SOL     OW24439   6.198   1.612   3.366
 7847SOL    HW124440   6.195   1.514   3.388
 7847SOL    HW224441   6.147   1.628   3.282
 7848SOL     OW24442   3.046   4.666   1.193
 7848SOL    HW124443   2.956   4.637   1.161
 7848SOL    HW224444   3.057   4.764   1.176
 7849SOL     OW24445   5.743   3.335   5.139
 7849SOL    HW124446   5.837   3.356   5.110
 7849SOL    HW224447   5.745   3.272   5.216
 7850SOL     OW24448   6.687   1.506   3.409
 7850SOL    HW124449   6.780   1.470   3.403
 7850SOL    HW224450   6.653   1.526   3.317
 7851SOL     OW24451   0.849   3.174   1.863
 7851SOL    HW124452   0.820   3.269   1.853
 7851SOL    HW224453   0.920   3.168   1.933
 7852SOL     OW24454   3.076   0.964   0.641
 7852SOL    HW124455   3.001   0.945   0.705
 7852SOL    HW224456   3.099   0.880   0.592
 7853SOL     OW24457   4.484   3.184   1.688
 7853SOL    HW124458   4.531   3.124   1.752
 7853SOL    HW224459   4.418   3.240   1.737
 7854SOL     OW24460   4.555   2.244   5.857
 7854SOL    HW124461   4.629   2.203   5.804
 7854SOL    HW224462   4.473   2.188   5.849
 7855SOL     OW24463   5.215   6.531   4.339
 7855SOL    HW124464   5.301   6.484   4.318
 7855SOL    HW224465   5.209   6.546   4.438
 7856SOL     OW24466   1.765   4.595   5.053
 7856SOL    HW124467   1.848   4.598   4.996
 7856SOL    HW224468   1.694   4.652   5.012
 7857SOL     OW24469   5.022   4.186   0.452
 7857SOL    HW124470   4.968   4.194   0.369
 7857SOL    HW224471   5.076   4.268   0.465
 7858SOL     OW24472   0.293   5.668   4.841
 7858SOL    HW124473   0.375   5.611   4.847
 7858SOL    HW224474   0.225   5.634   4.905
 7859SOL     OW24475   5.001   3.057   6.499
 7859SOL    HW124476   4.975   2.985   6.563
 7859SOL    HW224477   5.058   3.125   6.545
 7860SOL     OW24478   3.702   1.201   4.374
 7860SOL    HW124479   3.688   1.174   4.469
 7860SOL    HW224480   3.613   1.203   4.327
 7861SOL     OW24481   2.404   5.648   2.089
 7861SOL    HW124482   2.344   5.577   2.051
 7861SOL    HW224483   2.428   5.624   2.183
 7862SOL     OW24484   2.862   5.461   2.256
 7862SOL    HW124485   2.889   5.381   2.310
 7862SOL    HW224486   2.772   5.444   2.215
 7863SOL     OW24487   6.990   4.247   3.431
 7863SOL    HW124488   0.048   4.195   3.406
 7863SOL    HW224489   7.016   4.325   3.487
 7864SOL     OW24490   2.097   6.322   6.810
 7864SOL    HW124491   2.179   6.345   6.757
 7864SOL    HW224492   2.120   6.315   6.907
 7865SOL     OW24493   5.965   6.227   3.641
 7865SOL    HW124494   6.054   6.197   3.677
 7865SOL    HW224495   5.901   6.239   3.717
 7866SOL     OW24496   2.115   0.399   5.357
 7866SOL    HW124497   2.156   0.488   5.378
 7866SOL    HW224498   2.065   0.365   5.436
 7867SOL     OW24499   5.513   6.730   3.866
 7867SOL    HW124500   5.469   6.668   3.930
 7867SOL    HW224501   5.568   6.797   3.916
 7868SOL     OW24502   3.933   5.940   0.816
 7868SOL    HW124503   3.912   6.022   0.763
 7868SOL    HW224504   3.956   5.865   0.754
 7869SOL     OW24505   5.193   4.977   5.464
 7869SOL    HW124506   5.191   4.961   5.365
 7869SOL    HW224507   5.101   4.999   5.497
 7870SOL     OW24508   4.796   0.354   5.346
 7870SOL    HW124509   4.787   0.365   5.445
 7870SOL    HW224510   4.770   0.261   5.321
 7871SOL     OW24511   5.117   1.003   2.217
 7871SOL    HW124512   5.133   1.060   2.136
 7871SOL    HW224513   5.068   1.057   2.286
 7872SOL     OW24514   1.882   4.918   2.809
 7872SOL    HW124515   1.789   4.922   2.845
 7872SOL    HW224516   1.890   4.842   2.744
 7873SOL     OW24517   6.587   1.205   1.053
 7873SOL    HW124518   6.600   1.146   1.133
 7873SOL    HW224519   6.555   1.295   1.083
 7874SOL     OW24520   5.480   2.747   0.881
 7874SOL    HW124521   5.540   2.762   0.960
 7874SOL    HW224522   5.419   2.670   0.899
 7875SOL     OW24523   3.866   3.638   6.841
 7875SOL    HW124524   3.949   3.692   6.857
 7875SOL    HW224525   3.834   3.652   6.748
 7876SOL     OW24526   1.325   0.429   2.534
 7876SOL    HW124527   1.290   0.499   2.471
 7876SOL    HW224528   1.248   0.373   2.566
 7877SOL     OW24529   5.796   1.385   2.602
 7877SOL    HW124530   5.853   1.433   2.669
 7877SOL    HW224531   5.789   1.288   2.628
 7878SOL     OW24532   4.847   3.728   3.719
 7878SOL    HW124533   4.828   3.667   3.642
 7878SOL    HW224534   4.849   3.675   3.804
 7879SOL     OW24535   3.081   5.172   3.615
 7879SOL    HW124536   3.121   5.115   3.544
 7879SOL    HW224537   2.991   5.205   3.585
 7880SOL     OW24538   2.448   3.825   1.091
 7880SOL    HW124539   2.422   3.832   1.187
 7880SOL    HW224540   2.378   3.871   1.035
 7881SOL     OW24541   5.243   4.218   4.371
 7881SOL    HW124542   5.253   4.247   4.467
 7881SOL    HW224543   5.332   4.187   4.336
 7882SOL     OW24544   2.983   3.974   1.315
 7882SOL    HW124545   2.991   4.070   1.287
 7882SOL    HW224546   2.889   3.943   1.299
 7883SOL     OW24547   1.050   0.645   5.166
 7883SOL    HW124548   0.993   0.596   5.232
 7883SOL    HW224549   1.104   0.579   5.115
 7884SOL     OW24550   0.353   3.505   4.011
 7884SOL    HW124551   0.312   3.526   3.922
 7884SOL    HW224552   0.403   3.586   4.043
 7885SOL     OW24553   6.273   5.631   1.130
 7885SOL    HW124554   6.233   5.605   1.218
 7885SOL    HW224555   6.212   5.603   1.056
 7886SOL     OW24556   4.485   5.596   0.629
 7886SOL    HW124557   4.513   5.687   0.661
 7886SOL    HW224558   4.555   5.530   0.653
 7887SOL     OW24559   4.036   1.649   6.749
 7887SOL    HW124560   4.009   1.554   6.769
 7887SOL    HW224561   4.071   1.654   6.655
 7888SOL     OW24562   5.135   0.180   4.103
 7888SOL    HW124563   5.074   0.246   4.060
 7888SOL    HW224564   5.124   0.091   4.060
 7889SOL     OW24565   0.791   6.338   2.031
 7889SOL    HW124566   0.783   6.389   1.946
 7889SOL    HW224567   0.714   6.360   2.091
 7890SOL     OW24568   2.111   3.926   2.286
 7890SOL    HW124569   2.026   3.952   2.333
 7890SOL    HW224570   2.105   3.830   2.257
 7891SOL     OW24571   2.901   4.747   2.358
 7891SOL    HW124572   2.928   4.655   2.331
 7891SOL    HW224573   2.978   4.792   2.404
 7892SOL     OW24574   1.965   2.848   5.494
 7892SOL    HW124575   1.871   2.813   5.504
 7892SOL    HW224576   1.986   2.907   5.572
 7893SOL     OW24577   5.836   6.709   1.190
 7893SOL    HW124578   5.740   6.699   1.218
 7893SOL    HW224579   5.891   6.737   1.269
 7894SOL     OW24580   2.203   6.402   2.282
 7894SOL    HW124581   2.140   6.418   2.358
 7894SOL    HW224582   2.193   6.308   2.250
 7895SOL     OW24583   6.487   0.842   5.103
 7895SOL    HW124584   6.396   0.873   5.129
 7895SOL    HW224585   6.555   0.884   5.164
 7896SOL     OW24586   4.839   3.647   5.637
 7896SOL    HW124587   4.816   3.744   5.647
 7896SOL    HW224588   4.831   3.620   5.541
 7897SOL     OW24589   2.336   4.166   6.611
 7897SOL    HW124590   2.244   4.174   6.572
 7897SOL    HW224591   2.399   4.130   6.542
 7898SOL     OW24592   4.952   2.288   3.785
 7898SOL    HW124593   4.958   2.190   3.807
 7898SOL    HW224594   4.858   2.319   3.800
 7899SOL     OW24595   6.395   2.367   2.111
 7899SOL    HW124596   6.375   2.440   2.046
 7899SOL    HW224597   6.310   2.333   2.151
 7900SOL     OW24598   1.154   5.312   1.652
 7900SOL    HW124599   1.118   5.382   1.714
 7900SOL    HW224600   1.214   5.354   1.584
 7901SOL     OW24601   5.779   6.915   5.982
 7901SOL    HW124602   5.736   6.988   5.928
 7901SOL    HW224603   5.739   6.913   6.073
 7902SOL     OW24604   4.375   4.758   1.278
 7902SOL    HW124605   4.311   4.804   1.339
 7902SOL    HW224606   4.405   4.672   1.320
 7903SOL     OW24607   6.518   1.944   0.319
 7903SOL    HW124608   6.467   1.903   0.394
 7903SOL    HW224609   6.455   1.996   0.261
 7904SOL     OW24610   0.030   0.672   2.463
 7904SOL    HW124611   6.996   0.730   2.406
 7904SOL    HW224612   0.107   0.638   2.408
 7905SOL     OW24613   4.039   1.683   1.165
 7905SOL    HW124614   4.005   1.613   1.103
 7905SOL    HW224615   3.997   1.771   1.144
 7906SOL     OW24616   6.324   5.775   6.704
 7906SOL    HW124617   6.224   5.773   6.704
 7906SOL    HW224618   6.358   5.707   6.769
 7907SOL     OW24619   6.425   2.382   3.878
 7907SOL    HW124620   6.400   2.292   3.914
 7907SOL    HW224621   6.497   2.372   3.810
 7908SOL     OW24622   0.761   1.170   3.041
 7908SOL    HW124623   0.708   1.171   3.126
 7908SOL    HW224624   0.700   1.181   2.963
 7909SOL     OW24625   4.783   4.129   4.738
 7909SOL    HW124626   4.685   4.139   4.720
 7909SOL    HW224627   4.799   4.134   4.837
 7910SOL     OW24628   4.311   2.963   6.132
 7910SOL    HW124629   4.366   3.001   6.057
 7910SOL    HW224630   4.251   3.035   6.169
 7911SOL     OW24631   0.070   5.056   0.264
 7911SOL    HW124632   0.048   5.137   0.319
 7911SOL    HW224633   0.132   4.997   0.316
 7912SOL     OW24634   6.047   5.341   6.490
 7912SOL    HW124635   6.079   5.408   6.423
 7912SOL    HW224636   5.959   5.304   6.460
 7913SOL     OW24637   0.084   4.933   6.702
 7913SOL    HW124638   0.001   4.953   6.651
 7913SOL    HW224639   0.152   4.892   6.641
 7914SOL     OW24640   6.271   5.052   1.302
 7914SOL    HW124641   6.319   4.980   1.353
 7914SOL    HW224642   6.181   5.018   1.274
 7915SOL     OW24643   4.870   1.793   3.061
 7915SOL    HW124644   4.824   1.821   2.977
 7915SOL    HW224645   4.900   1.698   3.054
 7916SOL     OW24646   5.482   3.212   5.419
 7916SOL    HW124647   5.465   3.310   5.409
 7916SOL    HW224648   5.455   3.183   5.511
 7917SOL     OW24649   4.053   3.723   4.394
 7917SOL    HW124650   4.112   3.664   4.337
 7917SOL    HW224651   4.001   3.785   4.335
 7918SOL     OW24652   6.116   1.430   1.480
 7918SOL    HW124653   6.078   1.521   1.495
 7918SOL    HW224654   6.113   1.378   1.565
 7919SOL     OW24655   5.969   4.145   2.625
 7919SOL    HW124656   6.025   4.216   2.581
 7919SOL    HW224657   5.940   4.177   2.715
 7920SOL     OW24658   0.400   4.862   1.727
 7920SOL    HW124659   0.380   4.901   1.637
 7920SOL    HW224660   0.327   4.885   1.791
 7921SOL     OW24661   2.968   6.710   1.323
 7921SOL    HW124662   2.920   6.662   1.397
 7921SOL    HW224663   3.039   6.768   1.362
 7922SOL     OW24664   6.864   5.429   0.043
 7922SOL    HW124665   6.816   5.344   0.019
 7922SOL    HW224666   6.797   5.496   0.077
 7923SOL     OW24667   1.809   1.206   2.941
 7923SOL    HW124668   1.763   1.293   2.925
 7923SOL    HW224669   1.908   1.219   2.939
 7924SOL     OW24670   2.952   6.461   3.687
 7924SOL    HW124671   2.954   6.379   3.743
 7924SOL    HW224672   2.894   6.530   3.731
 7925SOL     OW24673   6.315   1.733   6.020
 7925SOL    HW124674   6.399   1.748   6.070
 7925SOL    HW224675   6.245   1.697   6.082
 7926SOL     OW24676   3.378   0.820   3.341
 7926SOL    HW124677   3.298   0.876   3.321
 7926SOL    HW224678   3.438   0.817   3.261
 7927SOL     OW24679   4.356   5.314   5.085
 7927SOL    HW124680   4.288   5.315   5.159
 7927SOL    HW224681   4.405   5.401   5.084
 7928SOL     OW24682   2.039   4.825   3.178
 7928SOL    HW124683   2.011   4.810   3.273
 7928SOL    HW224684   2.016   4.745   3.123
 7929SOL     OW24685   3.994   3.592   4.603
 7929SOL    HW124686   3.913   3.535   4.587
 7929SOL    HW224687   4.019   3.639   4.519
 7930SOL     OW24688   4.444   5.033   3.309
 7930SOL    HW124689   4.460   5.070   3.400
 7930SOL    HW224690   4.488   4.944   3.300
 7931SOL     OW24691   2.233   2.580   6.690
 7931SOL    HW124692   2.139   2.614   6.690
 7931SOL    HW224693   2.295   2.656   6.671
 7932SOL     OW24694   2.541   0.464   6.903
 7932SOL    HW124695   2.464   0.527   6.892
 7932SOL    HW224696   2.537   0.423   6.994
 7933SOL     OW24697   0.154   6.454   6.974
 7933SOL    HW124698   0.219   6.424   0.020
 7933SOL    HW224699   0.199   6.456   6.884
 7934SOL     OW24700   2.499   3.764   0.102
 7934SOL    HW124701   2.408   3.801   0.120
 7934SOL    HW224702   2.549   3.826   0.041
 7935SOL     OW24703   5.028   5.825   0.812
 7935SOL    HW124704   5.025   5.731   0.778
 7935SOL    HW224705   4.973   5.884   0.752
 7936SOL     OW24706   3.935   6.247   3.159
 7936SOL    HW124707   3.873   6.204   3.093
 7936SOL    HW224708   4.002   6.303   3.110
 7937SOL     OW24709   5.847   6.610   5.497
 7937SOL    HW124710   5.801   6.566   5.574
 7937SOL    HW224711   5.940   6.636   5.524
 7938SOL     OW24712   3.847   5.165   4.856
 7938SOL    HW124713   3.917   5.218   4.902
 7938SOL    HW224714   3.771   5.225   4.828
 7939SOL     OW24715   1.331   1.253   5.510
 7939SOL    HW124716   1.381   1.286   5.590
 7939SOL    HW224717   1.293   1.163   5.529
 7940SOL     OW24718   2.040   5.423   1.318
 7940SOL    HW124719   2.006   5.338   1.357
 7940SOL    HW224720   2.096   5.472   1.386
 7941SOL     OW24721   0.355   0.951   0.692
 7941SOL    HW124722   0.450   0.976   0.708
 7941SOL    HW224723   0.329   0.878   0.755
 7942SOL     OW24724   0.251   6.522   1.991
 7942SOL    HW124725   0.157   6.489   1.999
 7942SOL    HW224726   0.256   6.617   2.019
 7943SOL     OW24727   5.535   2.063   1.243
 7943SOL    HW124728   5.604   2.125   1.281
 7943SOL    HW224729   5.470   2.116   1.187
 7944SOL     OW24730   6.952   3.392   1.589
 7944SOL    HW124731   6.992   3.457   1.652
 7944SOL    HW224732   0.001   3.343   1.540
 7945SOL     OW24733   4.951   7.014   2.639
 7945SOL    HW124734   4.959   0.072   2.697
 7945SOL    HW224735   4.966   0.015   2.543
 7946SOL     OW24736   1.363   2.407   5.955
 7946SOL    HW124737   1.399   2.338   6.018
 7946SOL    HW224738   1.438   2.460   5.917
 7947SOL     OW24739   3.648   2.783   6.527
 7947SOL    HW124740   3.634   2.802   6.430
 7947SOL    HW224741   3.726   2.722   6.538
 7948SOL     OW24742   0.203   6.906   0.649
 7948SOL    HW124743   0.292   6.907   0.602
 7948SOL    HW224744   0.162   6.997   0.644
 7949SOL     OW24745   5.161   4.815   4.238
 7949SOL    HW124746   5.201   4.735   4.194
 7949SOL    HW224747   5.062   4.803   4.247
 7950SOL     OW24748   4.027   5.009   3.163
 7950SOL    HW124749   4.096   4.994   3.233
 7950SOL    HW224750   4.033   5.104   3.130
 7951SOL     OW24751   2.821   3.663   0.863
 7951SOL    HW124752   2.856   3.681   0.955
 7951SOL    HW224753   2.822   3.565   0.845
 7952SOL     OW24754   6.771   2.815   6.381
 7952SOL    HW124755   6.801   2.890   6.322
 7952SOL    HW224756   6.789   2.727   6.336
 7953SOL     OW24757   2.249   2.891   2.751
 7953SOL    HW124758   2.154   2.904   2.725
 7953SOL    HW224759   2.262   2.917   2.846
 7954SOL     OW24760   4.388   5.211   4.837
 7954SOL    HW124761   4.366   5.221   4.934
 7954SOL    HW224762   4.412   5.300   4.799
 7955SOL     OW24763   6.917   6.703   6.999
 7955SOL    HW124764   6.913   6.760   0.057
 7955SOL    HW224765   6.999   6.646   7.002
 7956SOL     OW24766   0.076   5.824   3.667
 7956SOL    HW124767   0.109   5.890   3.734
 7956SOL    HW224768   0.149   5.804   3.602
 7957SOL     OW24769   1.223   1.971   0.186
 7957SOL    HW124770   1.262   2.049   0.139
 7957SOL    HW224771   1.182   2.001   0.273
 7958SOL     OW24772   3.728   5.950   4.259
 7958SOL    HW124773   3.772   5.874   4.211
 7958SOL    HW224774   3.655   5.987   4.202
 7959SOL     OW24775   5.613   4.464   0.294
 7959SOL    HW124776   5.682   4.450   0.365
 7959SOL    HW224777   5.536   4.516   0.332
 7960SOL     OW24778   3.063   1.493   1.006
 7960SOL    HW124779   3.093   1.500   1.102
 7960SOL    HW224780   3.138   1.459   0.950
 7961SOL     OW24781   1.259   6.442   6.074
 7961SOL    HW124782   1.161   6.458   6.060
 7961SOL    HW224783   1.278   6.440   6.173
 7962SOL     OW24784   2.091   0.903   0.996
 7962SOL    HW124785   1.995   0.922   1.018
 7962SOL    HW224786   2.128   0.976   0.940
 7963SOL     OW24787   0.310   0.983   5.369
 7963SOL    HW124788   0.336   0.889   5.348
 7963SOL    HW224789   0.354   1.045   5.304
 7964SOL     OW24790   5.388   4.706   3.793
 7964SOL    HW124791   5.479   4.734   3.824
 7964SOL    HW224792   5.372   4.740   3.700
 7965SOL     OW24793   4.416   2.240   0.347
 7965SOL    HW124794   4.476   2.291   0.286
 7965SOL    HW224795   4.342   2.299   0.380
 7966SOL     OW24796   1.071   4.381   4.862
 7966SOL    HW124797   1.091   4.464   4.810
 7966SOL    HW224798   1.150   4.319   4.860
 7967SOL     OW24799   3.083   5.667   3.102
 7967SOL    HW124800   3.082   5.653   3.201
 7967SOL    HW224801   3.004   5.623   3.061
 7968SOL     OW24802   2.757   2.267   3.754
 7968SOL    HW124803   2.779   2.357   3.715
 7968SOL    HW224804   2.663   2.267   3.789
 7969SOL     OW24805   4.204   0.168   2.730
 7969SOL    HW124806   4.287   0.120   2.760
 7969SOL    HW224807   4.175   0.232   2.801
 7970SOL     OW24808   6.781   3.353   2.882
 7970SOL    HW124809   6.777   3.435   2.825
 7970SOL    HW224810   6.749   3.375   2.974
 7971SOL     OW24811   2.575   0.633   1.963
 7971SOL    HW124812   2.510   0.705   1.986
 7971SOL    HW224813   2.666   0.657   1.996
 7972SOL     OW24814   6.902   4.312   1.236
 7972SOL    HW124815   6.948   4.309   1.325
 7972SOL    HW224816   6.811   4.270   1.244
 7973SOL     OW24817   5.137   3.482   3.807
 7973SOL    HW124818   5.136   3.541   3.727
 7973SOL    HW224819   5.193   3.401   3.788
 7974SOL     OW24820   5.394   0.252   4.143
 7974SOL    HW124821   5.424   0.316   4.072
 7974SOL    HW224822   5.296   0.235   4.133
 7975SOL     OW24823   4.097   0.592   4.321
 7975SOL    HW124824   4.072   0.496   4.338
 7975SOL    HW224825   4.184   0.612   4.365
 7976SOL     OW24826   0.484   6.910   5.379
 7976SOL    HW124827   0.421   6.987   5.369
 7976SOL    HW224828   0.536   6.900   5.294
 7977SOL     OW24829   5.216   5.858   2.806
 7977SOL    HW124830   5.211   5.915   2.888
 7977SOL    HW224831   5.124   5.848   2.766
 7978SOL     OW24832   4.464   3.452   6.346
 7978SOL    HW124833   4.380   3.491   6.383
 7978SOL    HW224834   4.500   3.511   6.274
 7979SOL     OW24835   3.257   0.691   4.792
 7979SOL    HW124836   3.166   0.732   4.782
 7979SOL    HW224837   3.247   0.593   4.810
 7980SOL     OW24838   3.599   6.024   0.267
 7980SOL    HW124839   3.595   6.085   0.347
 7980SOL    HW224840   3.578   5.931   0.296
 7981SOL     OW24841   0.802   4.961   2.533
 7981SOL    HW124842   0.785   4.865   2.514
 7981SOL    HW224843   0.843   5.005   2.453
 7982SOL     OW24844   6.576   2.556   0.273
 7982SOL    HW124845   6.535   2.617   0.341
 7982SOL    HW224846   6.528   2.469   0.271
 7983SOL     OW24847   5.265   1.853   2.636
 7983SOL    HW124848   5.223   1.791   2.702
 7983SOL    HW224849   5.346   1.895   2.677
 7984SOL     OW24850   1.043   2.074   1.863
 7984SOL    HW124851   1.134   2.044   1.891
 7984SOL    HW224852   1.020   2.160   1.909
 7985SOL     OW24853   0.958   0.497   2.265
 7985SOL    HW124854   0.954   0.410   2.315
 7985SOL    HW224855   1.036   0.551   2.298
 7986SOL     OW24856   4.232   1.055   6.777
 7986SOL    HW124857   4.255   1.140   6.826
 7986SOL    HW224858   4.199   0.987   6.842
 7987SOL     OW24859   0.361   3.071   5.559
 7987SOL    HW124860   0.334   2.985   5.602
 7987SOL    HW224861   0.373   3.057   5.461
 7988SOL     OW24862   2.853   2.308   4.683
 7988SOL    HW124863   2.799   2.288   4.601
 7988SOL    HW224864   2.792   2.325   4.759
 7989SOL     OW24865   3.711   2.524   5.300
 7989SOL    HW124866   3.632   2.582   5.317
 7989SOL    HW224867   3.693   2.432   5.334
 7990SOL     OW24868   1.117   2.832   4.213
 7990SOL    HW124869   1.203   2.827   4.163
 7990SOL    HW224870   1.121   2.909   4.278
 7991SOL     OW24871   0.284   2.829   5.911
 7991SOL    HW124872   0.305   2.803   6.005
 7991SOL    HW224873   0.185   2.821   5.895
 7992SOL     OW24874   1.288   6.687   1.125
 7992SOL    HW124875   1.370   6.665   1.179
 7992SOL    HW224876   1.298   6.649   1.033
 7993SOL     OW24877   1.986   5.865   6.960
 7993SOL    HW124878   1.971   5.768   6.978
 7993SOL    HW224879   1.925   5.920   7.017
 7994SOL     OW24880   4.609   0.829   3.954
 7994SOL    HW124881   4.672   0.752   3.957
 7994SOL    HW224882   4.616   0.882   4.039
 7995SOL     OW24883   4.060   5.669   4.012
 7995SOL    HW124884   4.148   5.652   3.967
 7995SOL    HW224885   4.030   5.586   4.058
 7996SOL     OW24886   3.391   6.694   4.303
 7996SOL    HW124887   3.446   6.690   4.220
 7996SOL    HW224888   3.432   6.634   4.372
 7997SOL     OW24889   6.249   1.707   1.232
 7997SOL    HW124890   6.333   1.738   1.278
 7997SOL    HW224891   6.229   1.769   1.156
 7998SOL     OW24892   4.968   4.770   0.327
 7998SOL    HW124893   4.911   4.727   0.257
 7998SOL    HW224894   5.038   4.706   0.357
 7999SOL     OW24895   1.018   0.070   5.520
 7999SOL    HW124896   1.026   0.024   5.432
 7999SOL    HW224897   0.962   0.014   5.582
 8000SOL     OW24898   5.957   0.479   6.206
 8000SOL    HW124899   5.999   0.519   6.288
 8000SOL    HW224900   5.981   0.534   6.126
 8001SOL     OW24901   1.994   6.488   1.631
 8001SOL    HW124902   1.930   6.421   1.669
 8001SOL    HW224903   2.081   6.443   1.610
 8002SOL     OW24904   0.164   3.524   4.973
 8002SOL    HW124905   0.135   3.440   5.019
 8002SOL    HW224906   0.223   3.577   5.034
 8003SOL     OW24907   2.963   5.198   3.042
 8003SOL    HW124908   2.916   5.209   3.130
 8003SOL    HW224909   3.028   5.122   3.049
 8004SOL     OW24910   2.387   4.390   3.200
 8004SOL    HW124911   2.334   4.424   3.122
 8004SOL    HW224912   2.481   4.423   3.194
 8005SOL     OW24913   2.660   1.162   2.248
 8005SOL    HW124914   2.576   1.205   2.214
 8005SOL    HW224915   2.709   1.227   2.306
 8006SOL     OW24916   2.619   5.787   0.132
 8006SOL    HW124917   2.608   5.692   0.101
 8006SOL    HW224918   2.713   5.801   0.163
 8007SOL     OW24919   0.971   6.875   3.808
 8007SOL    HW124920   1.041   6.803   3.799
 8007SOL    HW224921   1.014   6.958   3.844
 8008SOL     OW24922   5.457   6.027   6.721
 8008SOL    HW124923   5.403   6.101   6.680
 8008SOL    HW224924   5.496   6.058   6.808
 8009SOL     OW24925   6.862   0.240   3.052
 8009SOL    HW124926   6.869   0.339   3.056
 8009SOL    HW224927   6.900   0.207   2.966
 8010SOL     OW24928   2.625   2.046   6.823
 8010SOL    HW124929   2.637   2.120   6.757
 8010SOL    HW224930   2.528   2.027   6.835
 8011SOL     OW24931   2.606   2.129   0.751
 8011SOL    HW124932   2.621   2.053   0.687
 8011SOL    HW224933   2.572   2.208   0.701
 8012SOL     OW24934   1.471   6.567   1.286
 8012SOL    HW124935   1.453   6.607   1.375
 8012SOL    HW224936   1.566   6.534   1.283
 8013SOL     OW24937   6.068   4.629   4.308
 8013SOL    HW124938   6.094   4.619   4.404
 8013SOL    HW224939   6.141   4.677   4.259
 8014SOL     OW24940   1.733   5.969   6.770
 8014SOL    HW124941   1.768   5.917   6.692
 8014SOL    HW224942   1.792   6.048   6.786
 8015SOL     OW24943   2.915   2.792   0.816
 8015SOL    HW124944   2.919   2.705   0.865
 8015SOL    HW224945   3.005   2.815   0.781
 8016SOL     OW24946   4.623   0.328   0.676
 8016SOL    HW124947   4.604   0.318   0.578
 8016SOL    HW224948   4.666   0.416   0.693
 8017SOL     OW24949   0.409   4.053   5.566
 8017SOL    HW124950   0.358   3.989   5.623
 8017SOL    HW224951   0.436   4.008   5.481
 8018SOL     OW24952   4.919   1.537   5.518
 8018SOL    HW124953   4.909   1.577   5.609
 8018SOL    HW224954   4.918   1.437   5.526
 8019SOL     OW24955   1.655   4.965   0.807
 8019SOL    HW124956   1.604   5.024   0.870
 8019SOL    HW224957   1.727   5.019   0.763
 8020SOL     OW24958   5.689   5.904   6.568
 8020SOL    HW124959   5.613   5.943   6.621
 8020SOL    HW224960   5.705   5.960   6.486
 8021SOL     OW24961   0.724   1.515   1.769
 8021SOL    HW124962   0.821   1.514   1.742
 8021SOL    HW224963   0.701   1.427   1.810
 8022SOL     OW24964   4.420   0.272   2.961
 8022SOL    HW124965   4.510   0.308   2.986
 8022SOL    HW224966   4.431   0.196   2.898
 8023SOL     OW24967   6.622   6.261   3.079
 8023SOL    HW124968   6.584   6.169   3.070
 8023SOL    HW224969   6.651   6.277   3.173
 8024SOL     OW24970   3.879   5.632   6.433
 8024SOL    HW124971   3.876   5.553   6.373
 8024SOL    HW224972   3.890   5.602   6.528
 8025SOL     OW24973   3.516   6.211   6.261
 8025SOL    HW124974   3.470   6.190   6.347
 8025SOL    HW224975   3.593   6.272   6.278
 8026SOL     OW24976   0.806   3.701   6.739
 8026SOL    HW124977   0.852   3.643   6.672
 8026SOL    HW224978   0.826   3.667   6.831
 8027SOL     OW24979   4.761   1.805   5.026
 8027SOL    HW124980   4.723   1.778   4.938
 8027SOL    HW224981   4.772   1.725   5.085
 8028SOL     OW24982   4.478   5.440   6.138
 8028SOL    HW124983   4.565   5.429   6.187
 8028SOL    HW224984   4.486   5.399   6.047
 8029SOL     OW24985   4.804   3.861   6.493
 8029SOL    HW124986   4.879   3.833   6.434
 8029SOL    HW224987   4.748   3.781   6.516
 8030SOL     OW24988   5.453   4.903   5.624
 8030SOL    HW124989   5.400   4.952   5.556
 8030SOL    HW224990   5.452   4.805   5.604
 8031SOL     OW24991   4.877   4.911   2.314
 8031SOL    HW124992   4.879   4.812   2.301
 8031SOL    HW224993   4.970   4.948   2.304
 8032SOL     OW24994   6.339   3.728   4.894
 8032SOL    HW124995   6.429   3.771   4.902
 8032SOL    HW224996   6.346   3.645   4.839
 8033SOL     OW24997   5.408   2.455   6.909
 8033SOL    HW124998   5.313   2.433   6.886
 8033SOL    HW224999   5.409   2.508   6.995
 8034SOL     OW25000   5.774   6.822   5.302
 8034SOL    HW125001   5.792   6.746   5.364
 8034SOL    HW225002   5.676   6.841   5.300
 8035SOL     OW25003   5.817   6.153   5.550
 8035SOL    HW125004   5.740   6.089   5.551
 8035SOL    HW225005   5.884   6.124   5.482
 8036SOL     OW25006   2.294   3.596   1.635
 8036SOL    HW125007   2.343   3.539   1.568
 8036SOL    HW225008   2.311   3.561   1.727
 8037SOL     OW25009   2.334   3.035   0.969
 8037SOL    HW125010   2.382   3.013   1.054
 8037SOL    HW225011   2.346   3.132   0.948
 8038SOL     OW25012   6.473   1.796   3.229
 8038SOL    HW125013   6.546   1.728   3.216
 8038SOL    HW225014   6.478   1.863   3.155
 8039SOL     OW25015   2.061   6.736   2.945
 8039SOL    HW125016   1.990   6.795   2.983
 8039SOL    HW225017   2.089   6.770   2.856
 8040SOL     OW25018   0.402   5.740   1.215
 8040SOL    HW125019   0.372   5.826   1.174
 8040SOL    HW225020   0.390   5.666   1.149
 8041SOL     OW25021   3.504   1.019   1.188
 8041SOL    HW125022   3.522   1.084   1.263
 8041SOL    HW225023   3.589   0.972   1.165
 8042SOL     OW25024   3.807   2.918   2.061
 8042SOL    HW125025   3.836   2.971   1.981
 8042SOL    HW225026   3.887   2.887   2.111
 8043SOL     OW25027   2.608   0.816   0.722
 8043SOL    HW125028   2.567   0.733   0.759
 8043SOL    HW225029   2.538   0.868   0.672
 8044SOL     OW25030   3.153   2.990   1.524
 8044SOL    HW125031   3.142   3.084   1.492
 8044SOL    HW225032   3.239   2.981   1.575
 8045SOL     OW25033   5.989   1.494   2.758
 8045SOL    HW125034   5.947   1.580   2.729
 8045SOL    HW225035   6.089   1.502   2.750
 8046SOL     OW25036   5.422   4.623   5.612
 8046SOL    HW125037   5.381   4.560   5.546
 8046SOL    HW225038   5.408   4.587   5.705
 8047SOL     OW25039   3.143   5.676   4.636
 8047SOL    HW125040   3.226   5.677   4.693
 8047SOL    HW225041   3.167   5.646   4.543
 8048SOL     OW25042   5.950   0.610   5.569
 8048SOL    HW125043   6.033   0.555   5.564
 8048SOL    HW225044   5.880   0.562   5.622
 8049SOL     OW25045   0.491   0.212   0.989
 8049SOL    HW125046   0.429   0.149   1.038
 8049SOL    HW225047   0.576   0.165   0.969
 8050SOL     OW25048   1.580   3.165   1.088
 8050SOL    HW125049   1.631   3.249   1.067
 8050SOL    HW225050   1.489   3.190   1.121
 8051SOL     OW25051   4.702   0.377   2.808
 8051SOL    HW125052   4.637   0.443   2.771
 8051SOL    HW225053   4.697   0.378   2.908
 8052SOL     OW25054   3.205   1.701   2.323
 8052SOL    HW125055   3.149   1.687   2.241
 8052SOL    HW225056   3.146   1.700   2.404
 8053SOL     OW25057   3.855   3.750   3.057
 8053SOL    HW125058   3.799   3.689   3.000
 8053SOL    HW225059   3.900   3.818   2.999
 8054SOL     OW25060   4.529   6.745   4.713
 8054SOL    HW125061   4.626   6.763   4.696
 8054SOL    HW225062   4.518   6.705   4.804
 8055SOL     OW25063   0.565   7.006   6.084
 8055SOL    HW125064   0.662   0.005   6.085
 8055SOL    HW225065   0.511   0.066   6.094
 8056SOL     OW25066   4.570   1.722   3.032
 8056SOL    HW125067   4.554   1.780   3.111
 8056SOL    HW225068   4.483   1.700   2.988
 8057SOL     OW25069   2.919   0.324   2.581
 8057SOL    HW125070   2.828   0.311   2.542
 8057SOL    HW225071   2.987   0.331   2.508
 8058SOL     OW25072   2.908   6.995   2.666
 8058SOL    HW125073   2.988   6.952   2.623
 8058SOL    HW225074   2.924   0.070   2.674
 8059SOL     OW25075   3.952   2.211   4.555
 8059SOL    HW125076   3.942   2.310   4.548
 8059SOL    HW225077   4.050   2.188   4.558
 8060SOL     OW25078   0.153   1.280   4.368
 8060SOL    HW125079   0.196   1.280   4.458
 8060SOL    HW225080   0.067   1.332   4.372
 8061SOL     OW25081   6.736   5.401   2.959
 8061SOL    HW125082   6.806   5.333   2.941
 8061SOL    HW225083   6.764   5.489   2.921
 8062SOL     OW25084   1.374   4.225   4.554
 8062SOL    HW125085   1.349   4.200   4.460
 8062SOL    HW225086   1.416   4.146   4.599
 8063SOL     OW25087   2.637   3.935   6.953
 8063SOL    HW125088   2.734   3.922   6.973
 8063SOL    HW225089   2.624   3.942   6.854
 8064SOL     OW25090   0.468   4.231   0.252
 8064SOL    HW125091   0.544   4.282   0.213
 8064SOL    HW225092   0.388   4.291   0.258
 8065SOL     OW25093   4.338   6.935   4.682
 8065SOL    HW125094   4.246   6.903   4.660
 8065SOL    HW225095   4.397   6.856   4.700
 8066SOL     OW25096   1.740   1.235   6.980
 8066SOL    HW125097   1.787   1.252   6.893
 8066SOL    HW225098   1.799   1.260   0.032
 8067SOL     OW25099   4.121   2.979   1.741
 8067SOL    HW125100   4.129   3.004   1.645
 8067SOL    HW225101   4.205   2.935   1.772
 8068SOL     OW25102   7.021   4.889   4.902
 8068SOL    HW125103   0.086   4.907   4.945
 8068SOL    HW225104   6.999   4.964   4.839
 8069SOL     OW25105   2.070   6.289   1.321
 8069SOL    HW125106   2.136   6.214   1.332
 8069SOL    HW225107   2.091   6.361   1.387
 8070SOL     OW25108   3.244   6.033   1.973
 8070SOL    HW125109   3.230   5.935   1.984
 8070SOL    HW225110   3.312   6.049   1.902
 8071SOL     OW25111   4.266   6.532   5.135
 8071SOL    HW125112   4.177   6.553   5.177
 8071SOL    HW225113   4.321   6.480   5.200
 8072SOL     OW25114   4.792   1.327   0.551
 8072SOL    HW125115   4.773   1.255   0.618
 8072SOL    HW225116   4.729   1.318   0.474
 8073SOL     OW25117   4.757   6.855   5.833
 8073SOL    HW125118   4.718   6.943   5.804
 8073SOL    HW225119   4.812   6.869   5.915
 8074SOL     OW25120   3.011   3.389   0.819
 8074SOL    HW125121   3.082   3.415   0.885
 8074SOL    HW225122   3.000   3.461   0.751
 8075SOL     OW25123   6.627   1.197   1.944
 8075SOL    HW125124   6.663   1.282   1.984
 8075SOL    HW225125   6.697   1.155   1.887
 8076SOL     OW25126   5.422   2.423   5.212
 8076SOL    HW125127   5.367   2.369   5.149
 8076SOL    HW225128   5.519   2.400   5.202
 8077SOL     OW25129   1.151   6.975   1.474
 8077SOL    HW125130   1.162   6.960   1.376
 8077SOL    HW225131   1.241   6.973   1.518
 8078SOL     OW25132   6.942   1.974   0.648
 8078SOL    HW125133   0.003   1.925   0.668
 8078SOL    HW225134   6.881   1.916   0.594
 8079SOL     OW25135   6.659   2.130   3.175
 8079SOL    HW125136   6.687   2.064   3.105
 8079SOL    HW225137   6.628   2.214   3.131
 8080SOL     OW25138   2.494   3.700   0.601
 8080SOL    HW125139   2.435   3.646   0.540
 8080SOL    HW225140   2.472   3.679   0.696
 8081SOL     OW25141   5.562   0.811   5.331
 8081SOL    HW125142   5.485   0.867   5.302
 8081SOL    HW225143   5.543   0.772   5.421
 8082SOL     OW25144   6.219   2.444   3.368
 8082SOL    HW125145   6.214   2.347   3.345
 8082SOL    HW225146   6.153   2.496   3.313
 8083SOL     OW25147   4.864   3.096   2.552
 8083SOL    HW125148   4.927   3.036   2.502
 8083SOL    HW225149   4.875   3.190   2.520
 8084SOL     OW25150   6.361   6.155   1.658
 8084SOL    HW125151   6.352   6.136   1.756
 8084SOL    HW225152   6.458   6.158   1.634
 8085SOL     OW25153   5.409   0.086   1.085
 8085SOL    HW125154   5.348   0.058   1.159
 8085SOL    HW225155   5.408   0.185   1.077
 8086SOL     OW25156   4.256   0.220   4.476
 8086SOL    HW125157   4.260   0.278   4.557
 8086SOL    HW225158   4.342   0.227   4.425
 8087SOL     OW25159   2.753   2.333   0.886
 8087SOL    HW125160   2.754   2.411   0.822
 8087SOL    HW225161   2.714   2.253   0.841
 8088SOL     OW25162   5.992   1.105   2.301
 8088SOL    HW125163   6.009   1.064   2.211
 8088SOL    HW225164   5.901   1.077   2.334
 8089SOL     OW25165   4.931   3.235   0.355
 8089SOL    HW125166   4.832   3.229   0.369
 8089SOL    HW225167   4.961   3.161   0.295
 8090SOL     OW25168   5.318   1.548   6.488
 8090SOL    HW125169   5.261   1.557   6.570
 8090SOL    HW225170   5.414   1.564   6.513
 8091SOL     OW25171   3.331   4.582   6.816
 8091SOL    HW125172   3.430   4.601   6.815
 8091SOL    HW225173   3.302   4.552   6.726
 8092SOL     OW25174   1.485   1.528   4.927
 8092SOL    HW125175   1.424   1.595   4.884
 8092SOL    HW225176   1.436   1.482   5.001
 8093SOL     OW25177   5.443   5.453   1.807
 8093SOL    HW125178   5.380   5.376   1.808
 8093SOL    HW225179   5.537   5.420   1.807
 8094SOL     OW25180   1.234   4.378   6.662
 8094SOL    HW125181   1.141   4.378   6.626
 8094SOL    HW225182   1.299   4.360   6.588
 8095SOL     OW25183   5.873   3.418   4.219
 8095SOL    HW125184   5.945   3.349   4.212
 8095SOL    HW225185   5.818   3.418   4.136
 8096SOL     OW25186   2.968   5.676   2.465
 8096SOL    HW125187   2.948   5.594   2.412
 8096SOL    HW225188   3.066   5.695   2.460
 8097SOL     OW25189   5.144   0.188   3.118
 8097SOL    HW125190   5.214   0.124   3.086
 8097SOL    HW225191   5.180   0.281   3.113
 8098SOL     OW25192   2.351   5.810   3.999
 8098SOL    HW125193   2.388   5.825   4.091
 8098SOL    HW225194   2.259   5.847   3.993
 8099SOL     OW25195   5.523   0.165   4.514
 8099SOL    HW125196   5.452   0.101   4.545
 8099SOL    HW225197   5.487   0.258   4.519
 8100SOL     OW25198   6.853   6.798   0.221
 8100SOL    HW125199   6.799   6.715   0.237
 8100SOL    HW225200   6.820   6.871   0.280
 8101SOL     OW25201   1.582   0.174   4.797
 8101SOL    HW125202   1.619   0.084   4.820
 8101SOL    HW225203   1.655   0.243   4.806
 8102SOL     OW25204   0.734   4.849   5.945
 8102SOL    HW125205   0.686   4.766   5.974
 8102SOL    HW225206   0.667   4.919   5.923
 8103SOL     OW25207   3.609   1.404   2.090
 8103SOL    HW125208   3.515   1.392   2.058
 8103SOL    HW225209   3.646   1.490   2.053
 8104SOL     OW25210   3.355   6.686   5.687
 8104SOL    HW125211   3.414   6.611   5.657
 8104SOL    HW225212   3.305   6.722   5.608
 8105SOL     OW25213   2.989   2.234   3.908
 8105SOL    HW125214   2.910   2.239   3.847
 8105SOL    HW225215   3.073   2.243   3.854
 8106SOL     OW25216   1.199   4.236   3.148
 8106SOL    HW125217   1.104   4.258   3.170
 8106SOL    HW225218   1.223   4.149   3.191
 8107SOL     OW25219   1.882   6.364   5.755
 8107SOL    HW125220   1.963   6.399   5.708
 8107SOL    HW225221   1.818   6.329   5.687
 8108SOL     OW25222   0.201   3.702   4.622
 8108SOL    HW125223   0.123   3.649   4.587
 8108SOL    HW225224   0.175   3.749   4.706
 8109SOL     OW25225   2.046   4.325   5.485
 8109SOL    HW125226   2.055   4.225   5.478
 8109SOL    HW225227   2.013   4.361   5.398
 8110SOL     OW25228   2.235   0.054   0.799
 8110SOL    HW125229   2.142   0.083   0.775
 8110SOL    HW225230   2.265   0.103   0.880
 8111SOL     OW25231   2.775   6.141   4.705
 8111SOL    HW125232   2.863   6.168   4.666
 8111SOL    HW225233   2.784   6.053   4.751
 8112SOL     OW25234   3.155   0.401   5.496
 8112SOL    HW125235   3.087   0.452   5.443
 8112SOL    HW225236   3.108   0.348   5.567
 8113SOL     OW25237   3.457   2.344   0.082
 8113SOL    HW125238   3.533   2.289   0.049
 8113SOL    HW225239   3.451   2.336   0.182
 8114SOL     OW25240   2.061   3.065   2.394
 8114SOL    HW125241   2.133   3.000   2.369
 8114SOL    HW225242   2.015   3.097   2.310
 8115SOL     OW25243   3.051   1.566   1.559
 8115SOL    HW125244   2.985   1.592   1.489
 8115SOL    HW225245   3.142   1.598   1.533
 8116SOL     OW25246   6.238   6.826   5.552
 8116SOL    HW125247   6.171   6.822   5.478
 8116SOL    HW225248   6.237   6.917   5.593
 8117SOL     OW25249   1.336   1.831   4.286
 8117SOL    HW125250   1.374   1.791   4.202
 8117SOL    HW225251   1.263   1.772   4.321
 8118SOL     OW25252   1.164   4.298   5.465
 8118SOL    HW125253   1.248   4.351   5.476
 8118SOL    HW225254   1.100   4.321   5.539
 8119SOL     OW25255   0.321   5.269   3.884
 8119SOL    HW125256   0.413   5.279   3.923
 8119SOL    HW225257   0.257   5.242   3.957
 8120SOL     OW25258   4.192   4.683   0.561
 8120SOL    HW125259   4.260   4.638   0.618
 8120SOL    HW225260   4.102   4.643   0.578
 8121SOL     OW25261   0.023   0.175   2.872
 8121SOL    HW125262   0.094   0.222   2.924
 8121SOL    HW225263   0.043   0.184   2.774
 8122SOL     OW25264   0.524   6.156   1.765
 8122SOL    HW125265   0.479   6.070   1.743
 8122SOL    HW225266   0.466   6.232   1.738
 8123SOL     OW25267   0.779   6.645   6.345
 8123SOL    HW125268   0.828   6.589   6.412
 8123SOL    HW225269   0.783   6.600   6.255
 8124SOL     OW25270   1.480   5.591   1.125
 8124SOL    HW125271   1.438   5.682   1.126
 8124SOL    HW225272   1.488   5.558   1.219
 8125SOL     OW25273   6.204   4.565   2.841
 8125SOL    HW125274   6.136   4.638   2.849
 8125SOL    HW225275   6.239   4.563   2.747
 8126SOL     OW25276   6.008   4.435   3.151
 8126SOL    HW125277   5.957   4.453   3.067
 8126SOL    HW225278   6.102   4.409   3.129
 8127SOL     OW25279   2.390   5.157   0.422
 8127SOL    HW125280   2.388   5.128   0.326
 8127SOL    HW225281   2.374   5.256   0.427
 8128SOL     OW25282   3.367   2.721   6.245
 8128SOL    HW125283   3.401   2.680   6.160
 8128SOL    HW225284   3.285   2.775   6.225
 8129SOL     OW25285   5.549   0.646   6.412
 8129SOL    HW125286   5.614   0.646   6.337
 8129SOL    HW225287   5.598   0.649   6.499
 8130SOL     OW25288   1.047   5.334   6.640
 8130SOL    HW125289   1.025   5.254   6.585
 8130SOL    HW225290   0.975   5.402   6.630
 8131SOL     OW25291   3.488   0.487   0.493
 8131SOL    HW125292   3.581   0.473   0.528
 8131SOL    HW225293   3.431   0.525   0.566
 8132SOL     OW25294   6.018   5.330   4.494
 8132SOL    HW125295   5.967   5.389   4.432
 8132SOL    HW225296   5.968   5.245   4.508
 8133SOL     OW25297   2.831   5.126   3.362
 8133SOL    HW125298   2.806   5.131   3.459
 8133SOL    HW225299   2.865   5.216   3.332
 8134SOL     OW25300   2.294   2.513   4.136
 8134SOL    HW125301   2.253   2.511   4.044
 8134SOL    HW225302   2.229   2.477   4.202
 8135SOL     OW25303   3.499   5.259   2.399
 8135SOL    HW125304   3.526   5.166   2.421
 8135SOL    HW225305   3.443   5.259   2.316
 8136SOL     OW25306   3.911   5.555   2.264
 8136SOL    HW125307   3.967   5.621   2.314
 8136SOL    HW225308   3.862   5.496   2.329
 8137SOL     OW25309   1.902   3.795   5.196
 8137SOL    HW125310   1.981   3.760   5.146
 8137SOL    HW225311   1.846   3.852   5.136
 8138SOL     OW25312   5.660   1.523   2.028
 8138SOL    HW125313   5.741   1.569   1.992
 8138SOL    HW225314   5.675   1.500   2.124
 8139SOL     OW25315   1.101   2.888   3.208
 8139SOL    HW125316   1.027   2.826   3.234
 8139SOL    HW225317   1.082   2.979   3.243
 8140SOL     OW25318   4.738   0.327   0.078
 8140SOL    HW125319   4.760   0.414   0.121
 8140SOL    HW225320   4.645   0.329   0.042
 8141SOL     OW25321   4.955   1.011   6.014
 8141SOL    HW125322   4.926   0.927   6.060
 8141SOL    HW225323   5.037   1.047   6.059
 8142SOL     OW25324   2.093   5.929   0.308
 8142SOL    HW125325   2.085   5.829   0.308
 8142SOL    HW225326   2.015   5.968   0.260
 8143SOL     OW25327   5.117   4.139   0.744
 8143SOL    HW125328   5.070   4.156   0.658
 8143SOL    HW225329   5.055   4.160   0.821
 8144SOL     OW25330   0.644   5.486   6.207
 8144SOL    HW125331   0.602   5.413   6.153
 8144SOL    HW225332   0.582   5.514   6.279
 8145SOL     OW25333   5.787   5.603   0.476
 8145SOL    HW125334   5.838   5.590   0.560
 8145SOL    HW225335   5.845   5.582   0.397
 8146SOL     OW25336   5.843   0.093   4.061
 8146SOL    HW125337   5.924   0.084   4.118
 8146SOL    HW225338   5.762   0.104   4.118
 8147SOL     OW25339   1.061   0.604   6.057
 8147SOL    HW125340   1.148   0.626   6.012
 8147SOL    HW225341   1.076   0.598   6.156
 8148SOL     OW25342   4.045   4.353   6.572
 8148SOL    HW125343   4.102   4.274   6.548
 8148SOL    HW225344   3.994   4.333   6.655
 8149SOL     OW25345   1.115   0.095   4.734
 8149SOL    HW125346   1.183   0.033   4.695
 8149SOL    HW225347   1.149   0.189   4.731
 8150SOL     OW25348   0.950   3.130   1.217
 8150SOL    HW125349   1.045   3.126   1.186
 8150SOL    HW225350   0.889   3.103   1.143
 8151SOL     OW25351   6.104   4.673   3.738
 8151SOL    HW125352   6.103   4.742   3.810
 8151SOL    HW225353   6.040   4.699   3.666
 8152SOL     OW25354   4.463   1.862   3.553
 8152SOL    HW125355   4.487   1.776   3.508
 8152SOL    HW225356   4.547   1.911   3.577
 8153SOL     OW25357   0.836   1.063   3.855
 8153SOL    HW125358   0.790   1.075   3.767
 8153SOL    HW225359   0.769   1.037   3.924
 8154SOL     OW25360   2.731   1.710   3.537
 8154SOL    HW125361   2.633   1.731   3.541
 8154SOL    HW225362   2.782   1.794   3.519
 8155SOL     OW25363   1.484   4.296   2.120
 8155SOL    HW125364   1.389   4.328   2.113
 8155SOL    HW225365   1.499   4.257   2.211
 8156SOL     OW25366   6.137   5.303   1.325
 8156SOL    HW125367   6.059   5.285   1.385
 8156SOL    HW225368   6.193   5.220   1.318
 8157SOL     OW25369   6.203   2.717   6.340
 8157SOL    HW125370   6.215   2.700   6.242
 8157SOL    HW225371   6.245   2.805   6.364
 8158SOL     OW25372   5.950   4.592   6.064
 8158SOL    HW125373   6.036   4.554   6.030
 8158SOL    HW225374   5.922   4.669   6.006
 8159SOL     OW25375   3.702   6.112   5.899
 8159SOL    HW125376   3.692   6.204   5.862
 8159SOL    HW225377   3.736   6.117   5.993
 8160SOL     OW25378   5.470   1.720   2.915
 8160SOL    HW125379   5.544   1.743   2.978
 8160SOL    HW225380   5.423   1.803   2.886
 8161SOL     OW25381   5.664   3.324   0.547
 8161SOL    HW125382   5.646   3.418   0.574
 8161SOL    HW225383   5.705   3.323   0.456
 8162SOL     OW25384   0.322   4.908   6.546
 8162SOL    HW125385   0.404   4.892   6.603
 8162SOL    HW225386   0.349   4.952   6.461
 8163SOL     OW25387   4.444   4.592   5.418
 8163SOL    HW125388   4.516   4.539   5.372
 8163SOL    HW225389   4.396   4.533   5.483
 8164SOL     OW25390   5.525   0.715   0.000
 8164SOL    HW125391   5.508   0.730   6.926
 8164SOL    HW225392   5.468   0.778   0.053
 8165SOL     OW25393   6.447   2.447   6.185
 8165SOL    HW125394   6.460   2.451   6.284
 8165SOL    HW225395   6.401   2.530   6.154
 8166SOL     OW25396   1.382   2.102   4.294
 8166SOL    HW125397   1.352   2.007   4.302
 8166SOL    HW225398   1.384   2.129   4.198
 8167SOL     OW25399   6.465   1.253   3.919
 8167SOL    HW125400   6.367   1.271   3.906
 8167SOL    HW225401   6.496   1.294   4.005
 8168SOL     OW25402   2.059   0.488   1.314
 8168SOL    HW125403   2.147   0.441   1.300
 8168SOL    HW225404   2.075   0.586   1.323
 8169SOL     OW25405   5.168   2.272   0.615
 8169SOL    HW125406   5.205   2.192   0.662
 8169SOL    HW225407   5.078   2.251   0.578
 8170SOL     OW25408   6.485   4.038   2.269
 8170SOL    HW125409   6.562   3.998   2.318
 8170SOL    HW225410   6.471   3.990   2.182
 8171SOL     OW25411   1.530   1.412   6.977
 8171SOL    HW125412   1.592   1.334   6.965
 8171SOL    HW225413   1.449   1.382   0.004
 8172SOL     OW25414   0.771   2.238   1.698
 8172SOL    HW125415   0.784   2.241   1.797
 8172SOL    HW225416   0.724   2.321   1.668
 8173SOL     OW25417   5.512   1.924   2.109
 8173SOL    HW125418   5.472   1.926   2.200
 8173SOL    HW225419   5.593   1.983   2.107
 8174SOL     OW25420   1.449   5.971   2.805
 8174SOL    HW125421   1.526   5.979   2.742
 8174SOL    HW225422   1.373   6.027   2.772
 8175SOL     OW25423   1.129   2.396   4.203
 8175SOL    HW125424   1.057   2.330   4.182
 8175SOL    HW225425   1.137   2.405   4.302
 8176SOL     OW25426   1.769   4.552   1.499
 8176SOL    HW125427   1.787   4.478   1.564
 8176SOL    HW225428   1.671   4.567   1.492
 8177SOL     OW25429   3.475   1.258   2.822
 8177SOL    HW125430   3.475   1.269   2.723
 8177SOL    HW225431   3.397   1.202   2.849
 8178SOL     OW25432   2.527   6.737   0.690
 8178SOL    HW125433   2.577   6.696   0.767
 8178SOL    HW225434   2.591   6.783   0.629
 8179SOL     OW25435   5.152   0.888   4.066
 8179SOL    HW125436   5.170   0.801   4.021
 8179SOL    HW225437   5.202   0.893   4.153
 8180SOL     OW25438   5.621   6.470   6.775
 8180SOL    HW125439   5.601   6.446   6.680
 8180SOL    HW225440   5.546   6.442   6.834
 8181SOL     OW25441   0.973   0.782   1.094
 8181SOL    HW125442   1.003   0.775   1.189
 8181SOL    HW225443   0.950   0.691   1.059
 8182SOL     OW25444   3.239   3.664   4.755
 8182SOL    HW125445   3.160   3.603   4.759
 8182SOL    HW225446   3.321   3.615   4.784
 8183SOL     OW25447   6.515   0.741   4.839
 8183SOL    HW125448   6.598   0.686   4.847
 8183SOL    HW225449   6.511   0.807   4.913
 8184SOL     OW25450   0.819   6.660   6.695
 8184SOL    HW125451   0.811   6.750   6.654
 8184SOL    HW225452   0.865   6.668   6.784
 8185SOL     OW25453   0.998   0.406   0.273
 8185SOL    HW125454   0.967   0.404   0.368
 8185SOL    HW225455   0.924   0.441   0.215
 8186SOL     OW25456   1.598   5.473   6.714
 8186SOL    HW125457   1.531   5.439   6.780
 8186SOL    HW225458   1.689   5.439   6.738
 8187SOL     OW25459   1.816   1.781   5.213
 8187SOL    HW125460   1.867   1.732   5.284
 8187SOL    HW225461   1.875   1.795   5.133
 8188SOL     OW25462   4.114   2.083   4.035
 8188SOL    HW125463   4.059   2.085   3.951
 8188SOL    HW225464   4.091   2.001   4.088
 8189SOL     OW25465   4.666   4.618   3.533
 8189SOL    HW125466   4.723   4.628   3.615
 8189SOL    HW225467   4.575   4.585   3.559
 8190SOL     OW25468   5.333   3.704   3.179
 8190SOL    HW125469   5.273   3.725   3.102
 8190SOL    HW225470   5.424   3.680   3.146
 8191SOL     OW25471   4.326   4.901   1.802
 8191SOL    HW125472   4.265   4.828   1.771
 8191SOL    HW225473   4.386   4.867   1.875
 8192SOL     OW25474   1.724   4.965   3.330
 8192SOL    HW125475   1.761   4.982   3.239
 8192SOL    HW225476   1.630   5.001   3.335
 8193SOL     OW25477   6.974   5.098   4.757
 8193SOL    HW125478   7.019   5.149   4.683
 8193SOL    HW225479   6.906   5.156   4.802
 8194SOL     OW25480   4.317   6.975   1.198
 8194SOL    HW125481   4.317   6.915   1.279
 8194SOL    HW225482   4.224   7.010   1.183
 8195SOL     OW25483   5.930   6.674   3.569
 8195SOL    HW125484   5.850   6.733   3.556
 8195SOL    HW225485   5.979   6.702   3.651
 8196SOL     OW25486   4.864   1.134   0.169
 8196SOL    HW125487   4.898   1.042   0.190
 8196SOL    HW225488   4.909   1.201   0.228
 8197SOL     OW25489   4.599   1.566   1.491
 8197SOL    HW125490   4.555   1.642   1.444
 8197SOL    HW225491   4.638   1.599   1.577
 8198SOL     OW25492   2.725   0.363   1.647
 8198SOL    HW125493   2.807   0.372   1.591
 8198SOL    HW225494   2.688   0.454   1.666
 8199SOL     OW25495   4.951   2.674   6.068
 8199SOL    HW125496   4.894   2.756   6.064
 8199SOL    HW225497   4.894   2.593   6.060
 8200SOL     OW25498   5.499   4.274   1.548
 8200SOL    HW125499   5.413   4.226   1.563
 8200SOL    HW225500   5.484   4.373   1.556
 8201SOL     OW25501   0.623   0.772   5.272
 8201SOL    HW125502   0.533   0.750   5.309
 8201SOL    HW225503   0.629   0.870   5.255
 8202SOL     OW25504   0.020   6.405   2.092
 8202SOL    HW125505   6.948   6.413   2.118
 8202SOL    HW225506   0.036   6.319   2.045
 8203SOL     OW25507   1.645   2.781   6.865
 8203SOL    HW125508   1.602   2.793   6.954
 8203SOL    HW225509   1.713   2.707   6.871
 8204SOL     OW25510   4.587   3.425   0.776
 8204SOL    HW125511   4.547   3.334   0.774
 8204SOL    HW225512   4.647   3.434   0.856
 8205SOL     OW25513   0.679   2.864   0.339
 8205SOL    HW125514   0.739   2.943   0.326
 8205SOL    HW225515   0.636   2.840   0.252
 8206SOL     OW25516   4.213   1.198   0.125
 8206SOL    HW125517   4.267   1.114   0.122
 8206SOL    HW225518   4.178   1.218   0.034
 8207SOL     OW25519   3.668   2.956   4.237
 8207SOL    HW125520   3.657   2.975   4.335
 8207SOL    HW225521   3.652   3.040   4.185
 8208SOL     OW25522   0.840   1.085   7.000
 8208SOL    HW125523   0.932   1.111   6.970
 8208SOL    HW225524   0.804   1.014   6.940
 8209SOL     OW25525   0.343   0.724   5.264
 8209SOL    HW125526   0.321   0.647   5.323
 8209SOL    HW225527   0.348   0.694   5.169
 8210SOL     OW25528   1.929   2.945   6.847
 8210SOL    HW125529   1.928   3.035   6.802
 8210SOL    HW225530   1.847   2.894   6.821
 8211SOL     OW25531   3.543   4.118   1.220
 8211SOL    HW125532   3.602   4.191   1.185
 8211SOL    HW225533   3.447   4.142   1.204
 8212SOL     OW25534   1.482   2.263   3.209
 8212SOL    HW125535   1.446   2.194   3.146
 8212SOL    HW225536   1.422   2.343   3.208
 8213SOL     OW25537   0.402   5.193   2.141
 8213SOL    HW125538   0.312   5.151   2.148
 8213SOL    HW225539   0.443   5.200   2.232
 8214SOL     OW25540   5.622   4.754   3.442
 8214SOL    HW125541   5.616   4.763   3.343
 8214SOL    HW225542   5.546   4.802   3.485
 8215SOL     OW25543   3.453   5.294   4.872
 8215SOL    HW125544   3.431   5.206   4.829
 8215SOL    HW225545   3.378   5.320   4.933
 8216SOL     OW25546   5.255   5.414   4.239
 8216SOL    HW125547   5.335   5.440   4.186
 8216SOL    HW225548   5.251   5.315   4.248
 8217SOL     OW25549   2.029   4.966   0.804
 8217SOL    HW125550   1.973   5.019   0.867
 8217SOL    HW225551   1.989   4.968   0.712
 8218SOL     OW25552   0.589   2.131   6.930
 8218SOL    HW125553   0.558   2.224   6.954
 8218SOL    HW225554   0.515   2.082   6.885
 8219SOL     OW25555   4.663   2.303   0.954
 8219SOL    HW125556   4.624   2.346   0.873
 8219SOL    HW225557   4.760   2.282   0.937
 8220SOL     OW25558   3.930   3.311   2.942
 8220SOL    HW125559   3.940   3.213   2.923
 8220SOL    HW225560   3.833   3.333   2.953
 8221SOL     OW25561   4.735   6.032   4.092
 8221SOL    HW125562   4.789   5.997   4.168
 8221SOL    HW225563   4.690   6.118   4.119
 8222SOL     OW25564   5.309   1.589   2.219
 8222SOL    HW125565   5.245   1.634   2.281
 8222SOL    HW225566   5.340   1.654   2.150
 8223SOL     OW25567   0.403   4.591   5.775
 8223SOL    HW125568   0.430   4.511   5.828
 8223SOL    HW225569   0.484   4.642   5.747
 8224SOL     OW25570   1.214   2.636   3.248
 8224SOL    HW125571   1.308   2.604   3.235
 8224SOL    HW225572   1.206   2.731   3.218
 8225SOL     OW25573   4.588   0.956   0.219
 8225SOL    HW125574   4.606   1.054   0.223
 8225SOL    HW225575   4.658   0.907   0.271
 8226SOL     OW25576   5.251   0.357   1.754
 8226SOL    HW125577   5.350   0.343   1.754
 8226SOL    HW225578   5.206   0.273   1.782
 8227SOL     OW25579   0.331   2.480   4.046
 8227SOL    HW125580   0.350   2.382   4.046
 8227SOL    HW225581   0.349   2.517   4.137
 8228SOL     OW25582   0.187   2.788   5.595
 8228SOL    HW125583   0.088   2.784   5.607
 8228SOL    HW225584   0.231   2.800   5.684
 8229SOL     OW25585   3.217   5.336   0.333
 8229SOL    HW125586   3.133   5.314   0.382
 8229SOL    HW225587   3.242   5.431   0.352
 8230SOL     OW25588   5.421   6.770   5.439
 8230SOL    HW125589   5.387   6.820   5.519
 8230SOL    HW225590   5.402   6.673   5.450
 8231SOL     OW25591   4.481   5.895   1.551
 8231SOL    HW125592   4.431   5.809   1.560
 8231SOL    HW225593   4.435   5.954   1.485
 8232SOL     OW25594   4.424   1.281   0.596
 8232SOL    HW125595   4.371   1.362   0.573
 8232SOL    HW225596   4.370   1.221   0.655
 8233SOL     OW25597   0.728   5.637   6.492
 8233SOL    HW125598   0.820   5.609   6.467
 8233SOL    HW225599   0.713   5.621   6.590
 8234SOL     OW25600   2.626   2.846   0.264
 8234SOL    HW125601   2.556   2.832   0.194
 8234SOL    HW225602   2.716   2.857   0.220
 8235SOL     OW25603   2.067   2.920   0.568
 8235SOL    HW125604   2.008   2.897   0.645
 8235SOL    HW225605   2.163   2.919   0.598
 8236SOL     OW25606   6.960   3.971   6.703
 8236SOL    HW125607   6.948   4.064   6.668
 8236SOL    HW225608   0.032   3.957   6.729
 8237SOL     OW25609   5.065   6.330   4.648
 8237SOL    HW125610   5.074   6.428   4.628
 8237SOL    HW225611   5.059   6.317   4.747
 8238SOL     OW25612   1.709   4.089   0.229
 8238SOL    HW125613   1.798   4.060   0.264
 8238SOL    HW225614   1.687   4.180   0.264
 8239SOL     OW25615   6.047   2.205   5.802
 8239SOL    HW125616   6.027   2.165   5.891
 8239SOL    HW225617   6.022   2.140   5.730
 8240SOL     OW25618   3.855   3.574   2.679
 8240SOL    HW125619   3.928   3.640   2.662
 8240SOL    HW225620   3.850   3.554   2.776
 8241SOL     OW25621   3.084   6.741   0.560
 8241SOL    HW125622   3.104   6.742   0.462
 8241SOL    HW225623   3.164   6.774   0.610
 8242SOL     OW25624   1.242   4.526   5.943
 8242SOL    HW125625   1.165   4.463   5.956
 8242SOL    HW225626   1.227   4.579   5.860
 8243SOL     OW25627   0.622   3.347   6.689
 8243SOL    HW125628   0.535   3.389   6.713
 8243SOL    HW225629   0.606   3.257   6.649
 8244SOL     OW25630   0.809   6.700   3.567
 8244SOL    HW125631   0.874   6.648   3.622
 8244SOL    HW225632   0.846   6.791   3.547
 8245SOL     OW25633   4.017   1.494   2.763
 8245SOL    HW125634   3.928   1.455   2.786
 8245SOL    HW225635   4.011   1.541   2.675
 8246SOL     OW25636   6.716   4.449   5.817
 8246SOL    HW125637   6.681   4.532   5.859
 8246SOL    HW225638   6.641   4.395   5.779
 8247SOL     OW25639   0.776   1.604   1.306
 8247SOL    HW125640   0.864   1.576   1.268
 8247SOL    HW225641   0.782   1.698   1.340
 8248SOL     OW25642   6.351   4.640   3.663
 8248SOL    HW125643   6.391   4.731   3.670
 8248SOL    HW225644   6.255   4.643   3.692
 8249SOL     OW25645   1.765   4.058   4.774
 8249SOL    HW125646   1.784   3.986   4.707
 8249SOL    HW225647   1.835   4.129   4.767
 8250SOL     OW25648   3.537   4.107   2.753
 8250SOL    HW125649   3.501   4.039   2.688
 8250SOL    HW225650   3.469   4.179   2.767
 8251SOL     OW25651   5.881   2.239   4.781
 8251SOL    HW125652   5.911   2.213   4.689
 8251SOL    HW225653   5.782   2.228   4.788
 8252SOL     OW25654   3.117   3.549   6.941
 8252SOL    HW125655   3.041   3.551   6.875
 8252SOL    HW225656   3.084   3.580   0.006
 8253SOL     OW25657   3.635   3.208   5.070
 8253SOL    HW125658   3.551   3.249   5.033
 8253SOL    HW225659   3.629   3.208   5.170
 8254SOL     OW25660   4.261   4.838   4.600
 8254SOL    HW125661   4.304   4.812   4.687
 8254SOL    HW225662   4.295   4.780   4.527
 8255SOL     OW25663   3.518   6.265   4.612
 8255SOL    HW125664   3.480   6.347   4.569
 8255SOL    HW225665   3.618   6.274   4.619
 8256SOL     OW25666   6.121   0.071   3.236
 8256SOL    HW125667   6.089   7.005   3.206
 8256SOL    HW225668   6.205   0.095   3.188
 8257SOL     OW25669   6.534   4.392   3.121
 8257SOL    HW125670   6.629   4.403   3.092
 8257SOL    HW225671   6.529   4.320   3.190
 8258SOL     OW25672   4.934   1.682   0.855
 8258SOL    HW125673   4.910   1.608   0.918
 8258SOL    HW225674   4.915   1.654   0.761
 8259SOL     OW25675   3.984   1.573   3.844
 8259SOL    HW125676   4.030   1.637   3.783
 8259SOL    HW225677   3.991   1.607   3.938
 8260SOL     OW25678   2.762   0.459   1.140
 8260SOL    HW125679   2.799   0.415   1.222
 8260SOL    HW225680   2.762   0.559   1.152
 8261SOL     OW25681   5.513   1.241   1.588
 8261SOL    HW125682   5.606   1.205   1.580
 8261SOL    HW225683   5.511   1.314   1.656
 8262SOL     OW25684   0.661   2.143   0.961
 8262SOL    HW125685   0.681   2.237   0.935
 8262SOL    HW225686   0.714   2.081   0.903
 8263SOL     OW25687   0.320   2.445   0.455
 8263SOL    HW125688   0.314   2.536   0.496
 8263SOL    HW225689   0.260   2.441   0.374
 8264SOL     OW25690   1.549   5.761   2.502
 8264SOL    HW125691   1.561   5.846   2.554
 8264SOL    HW225692   1.639   5.718   2.488
 8265SOL     OW25693   1.352   6.842   1.772
 8265SOL    HW125694   1.329   6.746   1.761
 8265SOL    HW225695   1.444   6.850   1.811
 8266SOL     OW25696   2.233   0.136   2.876
 8266SOL    HW125697   2.326   0.113   2.848
 8266SOL    HW225698   2.226   0.132   2.976
 8267SOL     OW25699   2.282   3.588   1.351
 8267SOL    HW125700   2.256   3.568   1.257
 8267SOL    HW225701   2.263   3.509   1.409
 8268SOL     OW25702   2.106   6.476   6.272
 8268SOL    HW125703   2.035   6.546   6.279
 8268SOL    HW225704   2.164   6.495   6.192
 8269SOL     OW25705   5.714   1.299   1.183
 8269SOL    HW125706   5.741   1.388   1.221
 8269SOL    HW225707   5.643   1.259   1.239
 8270SOL     OW25708   2.517   0.015   4.590
 8270SOL    HW125709   2.604   7.002   4.623
 8270SOL    HW225710   2.533   0.103   4.546
 8271SOL     OW25711   6.962   0.456   2.269
 8271SOL    HW125712   0.018   0.396   2.280
 8271SOL    HW225713   6.979   0.519   2.194
 8272SOL     OW25714   4.875   0.876   1.323
 8272SOL    HW125715   4.853   0.795   1.377
 8272SOL    HW225716   4.974   0.891   1.322
 8273SOL     OW25717   1.475   6.134   1.121
 8273SOL    HW125718   1.480   6.137   1.021
 8273SOL    HW225719   1.563   6.103   1.158
 8274SOL     OW25720   4.489   4.764   3.257
 8274SOL    HW125721   4.397   4.738   3.229
 8274SOL    HW225722   4.547   4.683   3.260
 8275SOL     OW25723   4.543   1.565   6.223
 8275SOL    HW125724   4.600   1.530   6.298
 8275SOL    HW225725   4.551   1.664   6.218
 8276SOL     OW25726   1.138   2.183   3.734
 8276SOL    HW125727   1.233   2.193   3.706
 8276SOL    HW225728   1.081   2.175   3.652
 8277SOL     OW25729   0.409   0.724   6.902
 8277SOL    HW125730   0.458   0.638   6.919
 8277SOL    HW225731   0.399   0.736   6.803
 8278SOL     OW25732   2.585   2.275   6.614
 8278SOL    HW125733   2.623   2.340   6.680
 8278SOL    HW225734   2.645   2.271   6.534
 8279SOL     OW25735   0.920   0.172   4.549
 8279SOL    HW125736   0.979   0.141   4.624
 8279SOL    HW225737   0.946   0.124   4.465
 8280SOL     OW25738   2.589   3.086   0.394
 8280SOL    HW125739   2.600   3.074   0.493
 8280SOL    HW225740   2.566   2.998   0.352
 8281SOL     OW25741   1.271   5.471   1.439
 8281SOL    HW125742   1.185   5.516   1.415
 8281SOL    HW225743   1.348   5.527   1.409
 8282SOL     OW25744   5.589   3.486   6.635
 8282SOL    HW125745   5.678   3.527   6.656
 8282SOL    HW225746   5.553   3.525   6.550
 8283SOL     OW25747   1.105   4.623   6.760
 8283SOL    HW125748   1.165   4.667   6.693
 8283SOL    HW225749   1.133   4.528   6.773
 8284SOL     OW25750   0.654   3.664   1.738
 8284SOL    HW125751   0.666   3.714   1.652
 8284SOL    HW225752   0.576   3.701   1.788
 8285SOL     OW25753   3.993   3.437   5.404
 8285SOL    HW125754   3.956   3.366   5.463
 8285SOL    HW225755   4.044   3.394   5.329
 8286SOL     OW25756   5.448   3.309   6.759
 8286SOL    HW125757   5.506   3.276   6.833
 8286SOL    HW225758   5.498   3.377   6.705
 8287SOL     OW25759   1.687   5.364   4.666
 8287SOL    HW125760   1.610   5.310   4.631
 8287SOL    HW225761   1.693   5.450   4.615
 8288SOL     OW25762   2.998   2.028   2.395
 8288SOL    HW125763   2.961   2.118   2.421
 8288SOL    HW225764   3.090   2.040   2.358
 8289SOL     OW25765   0.392   0.003   1.527
 8289SOL    HW125766   0.443   0.030   1.608
 8289SOL    HW225767   0.322   0.071   1.507
 8290SOL     OW25768   6.357   1.252   6.908
 8290SOL    HW125769   6.283   1.185   6.904
 8290SOL    HW225770   6.409   1.240   6.992
 8291SOL     OW25771   4.981   6.898   6.863
 8291SOL    HW125772   5.075   6.900   6.830
 8291SOL    HW225773   4.931   6.825   6.815
 8292SOL     OW25774   2.293   6.617   0.126
 8292SOL    HW125775   2.304   6.522   0.157
 8292SOL    HW225776   2.366   6.640   0.062
 8293SOL     OW25777   3.487   0.216   0.213
 8293SOL    HW125778   3.527   0.270   0.287
 8293SOL    HW225779   3.463   0.125   0.246
 8294SOL     OW25780   5.887   4.277   5.402
 8294SOL    HW125781   5.947   4.355   5.421
 8294SOL    HW225782   5.942   4.194   5.393
 8295SOL     OW25783   5.222   5.213   1.880
 8295SOL    HW125784   5.153   5.154   1.921
 8295SOL    HW225785   5.313   5.177   1.900
 8296SOL     OW25786   1.891   6.656   6.291
 8296SOL    HW125787   1.869   6.709   6.209
 8296SOL    HW225788   1.811   6.603   6.318
 8297SOL     OW25789   6.497   2.816   2.619
 8297SOL    HW125790   6.424   2.849   2.559
 8297SOL    HW225791   6.498   2.716   2.619
 8298SOL     OW25792   5.877   1.934   1.455
 8298SOL    HW125793   5.777   1.931   1.466
 8298SOL    HW225794   5.920   1.922   1.544
 8299SOL     OW25795   0.066   2.752   1.936
 8299SOL    HW125796   6.995   2.746   1.967
 8299SOL    HW225797   0.106   2.839   1.964
 8300SOL     OW25798   1.071   5.662   5.836
 8300SOL    HW125799   0.996   5.638   5.776
 8300SOL    HW225800   1.151   5.689   5.781
 8301SOL     OW25801   3.780   1.506   1.334
 8301SOL    HW125802   3.871   1.500   1.375
 8301SOL    HW225803   3.711   1.495   1.406
 8302SOL     OW25804   6.111   5.738   5.257
 8302SOL    HW125805   6.020   5.761   5.290
 8302SOL    HW225806   6.136   5.801   5.183
 8303SOL     OW25807   6.858   0.332   3.899
 8303SOL    HW125808   6.831   0.237   3.914
 8303SOL    HW225809   6.913   0.364   3.976
 8304SOL     OW25810   1.341   3.581   6.811
 8304SOL    HW125811   1.267   3.622   6.865
 8304SOL    HW225812   1.402   3.654   6.778
 8305SOL     OW25813   3.642   5.003   4.568
 8305SOL    HW125814   3.633   4.957   4.480
 8305SOL    HW225815   3.731   4.985   4.607
 8306SOL     OW25816   0.454   2.894   4.858
 8306SOL    HW125817   0.440   2.805   4.814
 8306SOL    HW225818   0.497   2.881   4.947
 8307SOL     OW25819   4.493   5.205   1.792
 8307SOL    HW125820   4.557   5.133   1.821
 8307SOL    HW225821   4.542   5.272   1.736
 8308SOL     OW25822   4.717   5.918   1.353
 8308SOL    HW125823   4.641   5.966   1.395
 8308SOL    HW225824   4.746   5.842   1.411
 8309SOL     OW25825   6.071   5.614   3.777
 8309SOL    HW125826   6.031   5.536   3.728
 8309SOL    HW225827   6.145   5.652   3.723
 8310SOL     OW25828   1.296   4.437   1.049
 8310SOL    HW125829   1.317   4.359   0.990
 8310SOL    HW225830   1.279   4.518   0.992
 8311SOL     OW25831   0.411   1.183   5.224
 8311SOL    HW125832   0.419   1.191   5.125
 8311SOL    HW225833   0.423   1.273   5.266
 8312SOL     OW25834   4.525   6.095   1.742
 8312SOL    HW125835   4.430   6.123   1.758
 8312SOL    HW225836   4.529   6.028   1.668
 8313SOL     OW25837   3.807   0.885   2.209
 8313SOL    HW125838   3.780   0.979   2.188
 8313SOL    HW225839   3.906   0.877   2.203
 8314SOL     OW25840   5.064   6.483   0.859
 8314SOL    HW125841   5.120   6.552   0.813
 8314SOL    HW225842   4.995   6.528   0.915
 8315SOL     OW25843   4.008   3.281   0.666
 8315SOL    HW125844   4.086   3.285   0.728
 8315SOL    HW225845   3.936   3.224   0.706
 8316SOL     OW25846   0.478   2.982   1.543
 8316SOL    HW125847   0.385   2.952   1.521
 8316SOL    HW225848   0.533   2.903   1.569
 8317SOL     OW25849   1.902   3.135   2.188
 8317SOL    HW125850   1.823   3.108   2.133
 8317SOL    HW225851   1.956   3.203   2.137
 8318SOL     OW25852   4.692   1.721   4.482
 8318SOL    HW125853   4.764   1.776   4.439
 8318SOL    HW225854   4.603   1.761   4.463
 8319SOL     OW25855   2.689   2.209   5.911
 8319SOL    HW125856   2.677   2.274   5.986
 8319SOL    HW225857   2.775   2.229   5.864
 8320SOL     OW25858   3.509   4.967   1.579
 8320SOL    HW125859   3.444   5.005   1.513
 8320SOL    HW225860   3.470   4.884   1.620
 8321SOL     OW25861   6.900   1.187   6.725
 8321SOL    HW125862   6.943   1.155   6.809
 8321SOL    HW225863   6.881   1.285   6.732
 8322SOL     OW25864   0.467   0.049   0.286
 8322SOL    HW125865   0.516   0.114   0.344
 8322SOL    HW225866   0.422   7.004   0.344
 8323SOL     OW25867   0.210   6.771   2.800
 8323SOL    HW125868   0.129   6.815   2.839
 8323SOL    HW225869   0.288   6.833   2.808
 8324SOL     OW25870   6.601   0.244   2.308
 8324SOL    HW125871   6.503   0.226   2.315
 8324SOL    HW225872   6.620   0.337   2.341
 8325SOL     OW25873   3.354   3.271   4.409
 8325SOL    HW125874   3.371   3.365   4.438
 8325SOL    HW225875   3.372   3.262   4.311
 8326SOL     OW25876   4.480   3.254   5.395
 8326SOL    HW125877   4.464   3.348   5.367
 8326SOL    HW225878   4.398   3.199   5.379
 8327SOL     OW25879   5.357   2.120   6.205
 8327SOL    HW125880   5.356   2.186   6.280
 8327SOL    HW225881   5.451   2.092   6.185
 8328SOL     OW25882   2.366   4.211   6.232
 8328SOL    HW125883   2.414   4.297   6.248
 8328SOL    HW225884   2.303   4.222   6.155
 8329SOL     OW25885   0.502   3.791   5.934
 8329SOL    HW125886   0.593   3.793   5.892
 8329SOL    HW225887   0.488   3.874   5.987
 8330SOL     OW25888   1.782   0.166   0.061
 8330SOL    HW125889   1.746   0.205   0.145
 8330SOL    HW225890   1.706   0.139   0.002
 8331SOL     OW25891   2.764   0.360   0.663
 8331SOL    HW125892   2.672   0.327   0.686
 8331SOL    HW225893   2.764   0.459   0.658
 8332SOL     OW25894   5.091   4.554   2.657
 8332SOL    HW125895   5.185   4.540   2.626
 8332SOL    HW225896   5.090   4.623   2.729
 8333SOL     OW25897   0.340   5.955   0.013
 8333SOL    HW125898   0.353   5.972   6.938
 8333SOL    HW225899   0.310   6.040   0.057
 8334SOL     OW25900   5.656   1.710   3.565
 8334SOL    HW125901   5.583   1.727   3.499
 8334SOL    HW225902   5.624   1.647   3.635
 8335SOL     OW25903   6.371   5.480   5.515
 8335SOL    HW125904   6.467   5.505   5.510
 8335SOL    HW225905   6.349   5.416   5.442
 8336SOL     OW25906   0.278   0.925   1.578
 8336SOL    HW125907   0.291   0.856   1.506
 8336SOL    HW225908   0.196   0.979   1.558
 8337SOL     OW25909   1.254   6.884   3.307
 8337SOL    HW125910   1.317   6.835   3.248
 8337SOL    HW225911   1.176   6.825   3.330
 8338SOL     OW25912   1.890   4.623   2.058
 8338SOL    HW125913   1.953   4.656   2.128
 8338SOL    HW225914   1.808   4.585   2.101
 8339SOL     OW25915   5.961   1.248   1.317
 8339SOL    HW125916   6.004   1.323   1.368
 8339SOL    HW225917   5.883   1.284   1.266
 8340SOL     OW25918   5.003   4.178   0.971
 8340SOL    HW125919   5.039   4.261   1.015
 8340SOL    HW225920   4.907   4.166   0.997
 8341SOL     OW25921   2.548   6.434   0.355
 8341SOL    HW125922   2.637   6.470   0.327
 8341SOL    HW225923   2.556   6.387   0.442
 8342SOL     OW25924   3.298   0.183   1.701
 8342SOL    HW125925   3.309   0.225   1.610
 8342SOL    HW225926   3.329   0.247   1.771
 8343SOL     OW25927   1.220   5.073   6.245
 8343SOL    HW125928   1.253   5.079   6.150
 8343SOL    HW225929   1.298   5.058   6.306
 8344SOL     OW25930   4.879   6.626   5.376
 8344SOL    HW125931   4.874   6.586   5.467
 8344SOL    HW225932   4.823   6.709   5.372
 8345SOL     OW25933   5.333   2.141   3.245
 8345SOL    HW125934   5.237   2.156   3.265
 8345SOL    HW225935   5.351   2.157   3.148
 8346SOL     OW25936   2.960   4.874   0.150
 8346SOL    HW125937   3.014   4.886   0.066
 8346SOL    HW225938   2.876   4.825   0.128
 8347SOL     OW25939   3.235   6.803   5.169
 8347SOL    HW125940   3.266   6.873   5.105
 8347SOL    HW225941   3.313   6.767   5.220
 8348SOL     OW25942   1.428   6.987   1.557
 8348SOL    HW125943   1.525   6.977   1.537
 8348SOL    HW225944   1.393   6.903   1.598
 8349SOL     OW25945   5.862   4.917   1.542
 8349SOL    HW125946   5.783   4.855   1.538
 8349SOL    HW225947   5.834   5.004   1.583
 8350SOL     OW25948   4.411   0.809   4.893
 8350SOL    HW125949   4.454   0.859   4.818
 8350SOL    HW225950   4.325   0.854   4.918
 8351SOL     OW25951   4.185   5.041   4.890
 8351SOL    HW125952   4.214   4.946   4.898
 8351SOL    HW225953   4.252   5.091   4.835
 8352SOL     OW25954   6.656   0.173   2.069
 8352SOL    HW125955   6.738   0.225   2.044
 8352SOL    HW225956   6.641   0.179   2.167
 8353SOL     OW25957   5.651   4.010   1.991
 8353SOL    HW125958   5.747   4.000   1.967
 8353SOL    HW225959   5.598   3.935   1.951
 8354SOL     OW25960   3.530   0.701   6.782
 8354SOL    HW125961   3.606   0.764   6.799
 8354SOL    HW225962   3.466   0.704   6.859
 8355SOL     OW25963   3.078   0.595   6.611
 8355SOL    HW125964   2.987   0.635   6.599
 8355SOL    HW225965   3.114   0.621   6.700
 8356SOL     OW25966   1.390   6.727   0.658
 8356SOL    HW125967   1.445   6.697   0.580
 8356SOL    HW225968   1.294   6.736   0.631
 8357SOL     OW25969   3.841   6.405   6.151
 8357SOL    HW125970   3.826   6.313   6.114
 8357SOL    HW225971   3.753   6.446   6.174
 8358SOL     OW25972   1.968   2.951   4.986
 8358SOL    HW125973   1.871   2.956   5.007
 8358SOL    HW225974   2.019   2.935   5.071
 8359SOL     OW25975   3.432   6.308   4.249
 8359SOL    HW125976   3.394   6.237   4.308
 8359SOL    HW225977   3.521   6.337   4.284
 8360SOL     OW25978   3.456   6.589   2.761
 8360SOL    HW125979   3.434   6.565   2.856
 8360SOL    HW225980   3.375   6.580   2.704
 8361SOL     OW25981   1.463   1.267   1.840
 8361SOL    HW125982   1.532   1.328   1.800
 8361SOL    HW225983   1.385   1.322   1.871
 8362SOL     OW25984   2.397   2.164   0.029
 8362SOL    HW125985   2.453   2.243   0.053
 8362SOL    HW225986   2.308   2.171   0.074
 8363SOL     OW25987   1.146   2.639   0.377
 8363SOL    HW125988   1.167   2.659   0.281
 8363SOL    HW225989   1.047   2.635   0.389
 8364SOL     OW25990   0.008   3.716   3.449
 8364SOL    HW125991   0.042   3.630   3.487
 8364SOL    HW225992   0.082   3.784   3.450
 8365SOL     OW25993   1.545   4.132   1.669
 8365SOL    HW125994   1.521   4.044   1.628
 8365SOL    HW225995   1.549   4.201   1.597
 8366SOL     OW25996   4.201   5.818   2.260
 8366SOL    HW125997   4.111   5.796   2.298
 8366SOL    HW225998   4.261   5.738   2.268
 8367SOL     OW25999   3.887   6.139   4.377
 8367SOL    HW126000   3.841   6.074   4.316
 8367SOL    HW226001   3.928   6.090   4.453
 8368SOL     OW26002   3.475   6.404   6.041
 8368SOL    HW126003   3.486   6.317   6.089
 8368SOL    HW226004   3.456   6.387   5.945
 8369SOL     OW26005   1.734   1.069   6.499
 8369SOL    HW126006   1.734   1.046   6.597
 8369SOL    HW226007   1.784   1.154   6.485
 8370SOL     OW26008   3.243   2.071   5.999
 8370SOL    HW126009   3.287   2.038   5.915
 8370SOL    HW226010   3.202   2.160   5.981
 8371SOL     OW26011   1.802   4.137   1.133
 8371SOL    HW126012   1.744   4.073   1.082
 8371SOL    HW226013   1.886   4.089   1.162
 8372SOL     OW26014   1.033   6.220   2.522
 8372SOL    HW126015   0.961   6.159   2.487
 8372SOL    HW226016   0.992   6.295   2.574
 8373SOL     OW26017   0.750   0.224   4.942
 8373SOL    HW126018   0.710   0.171   4.867
 8373SOL    HW226019   0.682   0.235   5.015
 8374SOL     OW26020   6.823   0.467   6.607
 8374SOL    HW126021   6.798   0.562   6.586
 8374SOL    HW226022   6.923   0.460   6.612
 8375SOL     OW26023   3.374   6.026   5.813
 8375SOL    HW126024   3.417   6.015   5.903
 8375SOL    HW226025   3.311   5.950   5.797
 8376SOL     OW26026   2.359   0.302   4.547
 8376SOL    HW126027   2.446   0.340   4.514
 8376SOL    HW226028   2.339   0.217   4.499
 8377SOL     OW26029   5.786   5.714   2.229
 8377SOL    HW126030   5.800   5.805   2.268
 8377SOL    HW226031   5.776   5.721   2.130
 8378SOL     OW26032   4.519   4.620   2.951
 8378SOL    HW126033   4.552   4.556   2.882
 8378SOL    HW226034   4.419   4.619   2.953
 8379SOL     OW26035   6.662   2.966   0.935
 8379SOL    HW126036   6.668   3.033   0.860
 8379SOL    HW226037   6.595   2.997   1.002
 8380SOL     OW26038   6.366   0.875   2.243
 8380SOL    HW126039   6.391   0.906   2.152
 8380SOL    HW226040   6.448   0.872   2.301
 8381SOL     OW26041   0.838   4.648   4.848
 8381SOL    HW126042   0.825   4.549   4.845
 8381SOL    HW226043   0.786   4.691   4.774
 8382SOL     OW26044   1.274   1.374   2.037
 8382SOL    HW126045   1.255   1.462   2.080
 8382SOL    HW226046   1.309   1.310   2.105
 8383SOL     OW26047   2.559   2.088   6.305
 8383SOL    HW126048   2.559   2.019   6.377
 8383SOL    HW226049   2.625   2.160   6.328
 8384SOL     OW26050   0.425   6.874   0.477
 8384SOL    HW126051   0.495   6.803   0.482
 8384SOL    HW226052   0.447   6.948   0.541
 8385SOL     OW26053   6.075   2.748   1.815
 8385SOL    HW126054   6.057   2.650   1.814
 8385SOL    HW226055   6.173   2.764   1.809
 8386SOL     OW26056   0.997   4.216   2.795
 8386SOL    HW126057   0.949   4.244   2.712
 8386SOL    HW226058   0.941   4.237   2.875
 8387SOL     OW26059   1.026   1.519   1.181
 8387SOL    HW126060   1.017   1.447   1.112
 8387SOL    HW226061   1.112   1.568   1.167
 8388SOL     OW26062   1.867   6.159   1.470
 8388SOL    HW126063   1.794   6.099   1.439
 8388SOL    HW226064   1.909   6.204   1.391
 8389SOL     OW26065   5.109   3.536   2.026
 8389SOL    HW126066   5.119   3.635   2.041
 8389SOL    HW226067   5.110   3.489   2.115
 8390SOL     OW26068   3.666   1.348   6.240
 8390SOL    HW126069   3.734   1.389   6.180
 8390SOL    HW226070   3.617   1.420   6.290
 8391SOL     OW26071   5.718   6.303   1.021
 8391SOL    HW126072   5.783   6.326   1.093
 8391SOL    HW226073   5.766   6.259   0.945
 8392SOL     OW26074   6.210   3.811   3.726
 8392SOL    HW126075   6.157   3.787   3.807
 8392SOL    HW226076   6.268   3.889   3.745
 8393SOL     OW26077   5.603   0.328   2.499
 8393SOL    HW126078   5.577   0.391   2.425
 8393SOL    HW226079   5.669   0.374   2.559
 8394SOL     OW26080   5.870   3.360   1.753
 8394SOL    HW126081   5.930   3.335   1.677
 8394SOL    HW226082   5.865   3.284   1.818
 8395SOL     OW26083   2.688   6.834   5.866
 8395SOL    HW126084   2.748   6.796   5.796
 8395SOL    HW226085   2.696   6.780   5.950
 8396SOL     OW26086   4.186   4.698   3.492
 8396SOL    HW126087   4.193   4.789   3.451
 8396SOL    HW226088   4.214   4.629   3.425
 8397SOL     OW26089   0.792   1.264   3.490
 8397SOL    HW126090   0.878   1.315   3.493
 8397SOL    HW226091   0.739   1.283   3.573
 8398SOL     OW26092   5.095   1.659   6.650
 8398SOL    HW126093   5.124   1.754   6.650
 8398SOL    HW226094   5.021   1.647   6.583
 8399SOL     OW26095   6.435   6.177   6.881
 8399SOL    HW126096   6.495   6.193   6.802
 8399SOL    HW226097   6.462   6.237   6.956
 8400SOL     OW26098   1.662   2.332   4.224
 8400SOL    HW126099   1.572   2.376   4.226
 8400SOL    HW226100   1.733   2.401   4.210
 8401SOL     OW26101   2.280   1.114   5.315
 8401SOL    HW126102   2.205   1.055   5.347
 8401SOL    HW226103   2.331   1.066   5.244
 8402SOL     OW26104   5.149   1.130   6.162
 8402SOL    HW126105   5.132   1.159   6.256
 8402SOL    HW226106   5.204   1.199   6.116
 8403SOL     OW26107   0.490   3.992   4.438
 8403SOL    HW126108   0.406   3.959   4.394
 8403SOL    HW226109   0.494   3.957   4.532
 8404SOL     OW26110   2.968   1.154   5.772
 8404SOL    HW126111   2.878   1.136   5.730
 8404SOL    HW226112   2.986   1.085   5.842
 8405SOL     OW26113   4.241   1.707   6.235
 8405SOL    HW126114   4.311   1.641   6.206
 8405SOL    HW226115   4.272   1.800   6.216
 8406SOL     OW26116   4.768   0.553   0.723
 8406SOL    HW126117   4.810   0.513   0.804
 8406SOL    HW226118   4.777   0.652   0.726
 8407SOL     OW26119   4.867   5.875   3.915
 8407SOL    HW126120   4.820   5.946   3.967
 8407SOL    HW226121   4.800   5.817   3.869
 8408SOL     OW26122   5.044   5.812   0.409
 8408SOL    HW126123   5.074   5.755   0.333
 8408SOL    HW226124   4.994   5.892   0.374
 8409SOL     OW26125   4.521   2.512   1.790
 8409SOL    HW126126   4.535   2.417   1.762
 8409SOL    HW226127   4.477   2.514   1.880
 8410SOL     OW26128   6.109   1.804   1.587
 8410SOL    HW126129   6.083   1.871   1.656
 8410SOL    HW226130   6.183   1.840   1.530
 8411SOL     OW26131   0.186   6.200   1.234
 8411SOL    HW126132   0.220   6.189   1.328
 8411SOL    HW226133   0.235   6.274   1.189
 8412SOL     OW26134   3.939   2.720   1.082
 8412SOL    HW126135   3.846   2.754   1.096
 8412SOL    HW226136   4.005   2.790   1.111
 8413SOL     OW26137   3.995   6.047   6.316
 8413SOL    HW126138   3.924   5.977   6.318
 8413SOL    HW226139   4.084   6.004   6.331
 8414SOL     OW26140   1.957   1.550   2.575
 8414SOL    HW126141   2.016   1.565   2.655
 8414SOL    HW226142   1.862   1.564   2.601
 8415SOL     OW26143   2.803   6.663   3.869
 8415SOL    HW126144   2.768   6.757   3.863
 8415SOL    HW226145   2.883   6.662   3.929
 8416SOL     OW26146   6.324   1.625   5.009
 8416SOL    HW126147   6.348   1.552   4.945
 8416SOL    HW226148   6.298   1.707   4.958
 8417SOL     OW26149   2.051   3.062   5.645
 8417SOL    HW126150   2.026   3.087   5.552
 8417SOL    HW226151   2.150   3.072   5.656
 8418SOL     OW26152   0.725   5.723   2.402
 8418SOL    HW126153   0.811   5.766   2.374
 8418SOL    HW226154   0.649   5.770   2.358
 8419SOL     OW26155   6.051   1.374   3.335
 8419SOL    HW126156   6.048   1.277   3.357
 8419SOL    HW226157   5.966   1.418   3.364
 8420SOL     OW26158   3.411   6.765   2.137
 8420SOL    HW126159   3.318   6.800   2.123
 8420SOL    HW226160   3.474   6.842   2.145
 8421SOL     OW26161   2.851   6.242   6.749
 8421SOL    HW126162   2.765   6.210   6.709
 8421SOL    HW226163   2.858   6.341   6.735
 8422SOL     OW26164   4.468   2.451   2.199
 8422SOL    HW126165   4.485   2.354   2.214
 8422SOL    HW226166   4.383   2.463   2.148
 8423SOL     OW26167   4.368   4.446   5.880
 8423SOL    HW126168   4.301   4.432   5.953
 8423SOL    HW226169   4.455   4.405   5.906
 8424SOL     OW26170   1.978   1.330   3.669
 8424SOL    HW126171   2.038   1.354   3.593
 8424SOL    HW226172   1.983   1.231   3.686
 8425SOL     OW26173   3.392   3.837   4.440
 8425SOL    HW126174   3.346   3.837   4.351
 8425SOL    HW226175   3.374   3.923   4.487
 8426SOL     OW26176   3.727   3.169   2.673
 8426SOL    HW126177   3.656   3.140   2.609
 8426SOL    HW226178   3.686   3.185   2.763
 8427SOL     OW26179   3.064   3.671   3.289
 8427SOL    HW126180   3.055   3.770   3.282
 8427SOL    HW226181   3.149   3.642   3.247
 8428SOL     OW26182   0.292   0.454   1.306
 8428SOL    HW126183   0.295   0.403   1.392
 8428SOL    HW226184   0.296   0.390   1.229
 8429SOL     OW26185   2.104   5.666   5.795
 8429SOL    HW126186   2.178   5.705   5.740
 8429SOL    HW226187   2.143   5.624   5.877
 8430SOL     OW26188   3.890   4.873   4.053
 8430SOL    HW126189   3.937   4.823   4.126
 8430SOL    HW226190   3.952   4.884   3.976
 8431SOL     OW26191   3.175   3.916   6.644
 8431SOL    HW126192   3.092   3.973   6.639
 8431SOL    HW226193   3.200   3.885   6.553
 8432SOL     OW26194   6.688   5.340   5.971
 8432SOL    HW126195   6.641   5.255   5.993
 8432SOL    HW226196   6.623   5.405   5.933
 8433SOL     OW26197   4.282   2.606   1.010
 8433SOL    HW126198   4.264   2.660   1.092
 8433SOL    HW226199   4.207   2.618   0.945
 8434SOL     OW26200   2.282   5.472   5.287
 8434SOL    HW126201   2.235   5.388   5.313
 8434SOL    HW226202   2.377   5.450   5.263
 8435SOL     OW26203   5.180   0.444   3.116
 8435SOL    HW126204   5.139   0.514   3.174
 8435SOL    HW226205   5.273   0.470   3.092
 8436SOL     OW26206   2.696   6.005   3.916
 8436SOL    HW126207   2.657   5.919   3.884
 8436SOL    HW226208   2.792   6.010   3.889
 8437SOL     OW26209   1.831   2.835   2.224
 8437SOL    HW126210   1.884   2.862   2.143
 8437SOL    HW226211   1.892   2.791   2.290
 8438SOL     OW26212   2.081   3.805   2.959
 8438SOL    HW126213   2.094   3.899   2.991
 8438SOL    HW226214   2.091   3.742   3.036
 8439SOL     OW26215   6.476   5.545   3.752
 8439SOL    HW126216   6.507   5.453   3.775
 8439SOL    HW226217   6.442   5.546   3.658
 8440SOL     OW26218   2.531   1.888   3.812
 8440SOL    HW126219   2.517   1.837   3.727
 8440SOL    HW226220   2.507   1.829   3.890
 8441SOL     OW26221   5.267   5.368   4.862
 8441SOL    HW126222   5.291   5.456   4.821
 8441SOL    HW226223   5.310   5.360   4.952
 8442SOL     OW26224   3.604   0.443   5.463
 8442SOL    HW126225   3.662   0.489   5.396
 8442SOL    HW226226   3.638   0.461   5.556
 8443SOL     OW26227   2.107   5.158   3.951
 8443SOL    HW126228   2.049   5.236   3.926
 8443SOL    HW226229   2.108   5.091   3.877
 8444SOL     OW26230   3.748   6.525   3.467
 8444SOL    HW126231   3.819   6.456   3.463
 8444SOL    HW226232   3.757   6.578   3.551
 8445SOL     OW26233   2.303   0.622   6.947
 8445SOL    HW126234   2.230   0.608   6.880
 8445SOL    HW226235   2.277   0.582   0.011
 8446SOL     OW26236   0.493   6.125   5.003
 8446SOL    HW126237   0.447   6.048   5.046
 8446SOL    HW226238   0.587   6.099   4.979
 8447SOL     OW26239   3.633   1.387   2.357
 8447SOL    HW126240   3.605   1.386   2.261
 8447SOL    HW226241   3.658   1.481   2.383
 8448SOL     OW26242   5.132   5.890   3.911
 8448SOL    HW126243   5.033   5.885   3.905
 8448SOL    HW226244   5.172   5.800   3.894
 8449SOL     OW26245   1.186   3.264   3.678
 8449SOL    HW126246   1.120   3.293   3.748
 8449SOL    HW226247   1.243   3.191   3.716
 8450SOL     OW26248   0.357   0.798   0.295
 8450SOL    HW126249   0.430   0.838   0.351
 8450SOL    HW226250   0.366   0.699   0.294
 8451SOL     OW26251   3.401   0.835   0.792
 8451SOL    HW126252   3.484   0.885   0.815
 8451SOL    HW226253   3.389   0.832   0.693
 8452SOL     OW26254   5.002   2.226   4.265
 8452SOL    HW126255   5.077   2.290   4.250
 8452SOL    HW226256   5.023   2.166   4.342
 8453SOL     OW26257   0.529   5.267   6.778
 8453SOL    HW126258   0.443   5.314   6.757
 8453SOL    HW226259   0.549   5.202   6.705
 8454SOL     OW26260   0.369   4.607   0.312
 8454SOL    HW126261   0.332   4.676   0.250
 8454SOL    HW226262   0.332   4.621   0.404
 8455SOL     OW26263   0.283   0.788   2.653
 8455SOL    HW126264   0.334   0.828   2.729
 8455SOL    HW226265   0.192   0.761   2.684
 8456SOL     OW26266   4.915   0.507   3.604
 8456SOL    HW126267   5.014   0.505   3.616
 8456SOL    HW226268   4.887   0.598   3.572
 8457SOL     OW26269   6.524   6.618   4.787
 8457SOL    HW126270   6.524   6.679   4.708
 8457SOL    HW226271   6.436   6.572   4.794
 8458SOL     OW26272   0.629   0.448   0.412
 8458SOL    HW126273   0.703   0.470   0.476
 8458SOL    HW226274   0.545   0.493   0.442
 8459SOL     OW26275   1.811   5.743   3.271
 8459SOL    HW126276   1.759   5.820   3.309
 8459SOL    HW226277   1.749   5.669   3.247
 8460SOL     OW26278   4.438   3.966   5.313
 8460SOL    HW126279   4.437   4.064   5.297
 8460SOL    HW226280   4.531   3.931   5.300
 8461SOL     OW26281   0.096   2.448   5.167
 8461SOL    HW126282   0.136   2.396   5.242
 8461SOL    HW226283   0.170   2.483   5.109
 8462SOL     OW26284   3.139   1.619   1.267
 8462SOL    HW126285   3.040   1.632   1.277
 8462SOL    HW226286   3.182   1.707   1.248
 8463SOL     OW26287   6.180   0.141   2.115
 8463SOL    HW126288   6.189   0.090   2.201
 8463SOL    HW226289   6.267   0.137   2.065
 8464SOL     OW26290   5.861   3.633   4.502
 8464SOL    HW126291   5.911   3.709   4.462
 8464SOL    HW226292   5.894   3.616   4.595
 8465SOL     OW26293   1.585   1.689   0.292
 8465SOL    HW126294   1.573   1.713   0.389
 8465SOL    HW226295   1.520   1.742   0.237
 8466SOL     OW26296   1.220   5.699   3.752
 8466SOL    HW126297   1.246   5.764   3.824
 8466SOL    HW226298   1.185   5.750   3.673
 8467SOL     OW26299   2.492   5.929   1.227
 8467SOL    HW126300   2.405   5.962   1.190
 8467SOL    HW226301   2.545   6.007   1.261
 8468SOL     OW26302   3.718   2.206   0.043
 8468SOL    HW126303   3.753   2.155   0.121
 8468SOL    HW226304   3.765   2.175   6.984
 8469SOL     OW26305   3.205   3.211   0.119
 8469SOL    HW126306   3.150   3.280   0.166
 8469SOL    HW226307   3.196   3.124   0.167
 8470SOL     OW26308   2.090   2.683   0.956
 8470SOL    HW126309   2.113   2.757   1.020
 8470SOL    HW226310   2.020   2.715   0.892
 8471SOL     OW26311   2.496   0.778   4.161
 8471SOL    HW126312   2.476   0.747   4.254
 8471SOL    HW226313   2.474   0.705   4.096
 8472SOL     OW26314   0.481   6.883   4.373
 8472SOL    HW126315   0.515   6.806   4.427
 8472SOL    HW226316   0.547   6.905   4.301
 8473SOL     OW26317   0.020   5.754   0.357
 8473SOL    HW126318   7.007   5.790   0.443
 8473SOL    HW226319   0.005   5.821   0.284
 8474SOL     OW26320   3.249   3.048   1.897
 8474SOL    HW126321   3.174   2.991   1.863
 8474SOL    HW226322   3.288   3.005   1.978
 8475SOL     OW26323   5.915   1.912   2.260
 8475SOL    HW126324   6.006   1.887   2.226
 8475SOL    HW226325   5.908   1.888   2.357
 8476SOL     OW26326   5.967   6.696   2.207
 8476SOL    HW126327   5.968   6.777   2.266
 8476SOL    HW226328   6.034   6.629   2.241
 8477SOL     OW26329   2.868   6.860   1.107
 8477SOL    HW126330   2.866   6.794   1.031
 8477SOL    HW226331   2.888   6.811   1.192
 8478SOL     OW26332   1.920   0.802   5.526
 8478SOL    HW126333   1.996   0.829   5.585
 8478SOL    HW226334   1.884   0.714   5.557
 8479SOL     OW26335   6.019   0.974   0.119
 8479SOL    HW126336   6.033   0.910   0.194
 8479SOL    HW226337   5.988   1.062   0.155
 8480SOL     OW26338   3.067   0.550   0.989
 8480SOL    HW126339   3.071   0.643   0.954
 8480SOL    HW226340   3.054   0.551   1.088
 8481SOL     OW26341   4.538   1.501   4.772
 8481SOL    HW126342   4.570   1.409   4.748
 8481SOL    HW226343   4.446   1.515   4.737
 8482SOL     OW26344   1.904   0.102   2.295
 8482SOL    HW126345   1.816   0.136   2.264
 8482SOL    HW226346   1.944   0.042   2.226
 8483SOL     OW26347   3.263   5.739   2.385
 8483SOL    HW126348   3.312   5.821   2.353
 8483SOL    HW226349   3.329   5.674   2.423
 8484SOL     OW26350   0.119   4.744   3.304
 8484SOL    HW126351   0.055   4.688   3.252
 8484SOL    HW226352   0.150   4.820   3.247
 8485SOL     OW26353   1.986   3.650   0.705
 8485SOL    HW126354   1.918   3.627   0.636
 8485SOL    HW226355   1.942   3.695   0.782
 8486SOL     OW26356   5.416   1.080   2.591
 8486SOL    HW126357   5.415   0.981   2.579
 8486SOL    HW226358   5.323   1.113   2.608
 8487SOL     OW26359   5.269   0.023   0.857
 8487SOL    HW126360   5.336   7.010   0.792
 8487SOL    HW226361   5.317   0.061   0.936
 8488SOL     OW26362   5.252   4.924   4.587
 8488SOL    HW126363   5.285   4.950   4.496
 8488SOL    HW226364   5.257   5.003   4.648
 8489SOL     OW26365   5.706   5.160   1.556
 8489SOL    HW126366   5.609   5.138   1.567
 8489SOL    HW226367   5.718   5.221   1.477
 8490SOL     OW26368   4.453   5.438   3.298
 8490SOL    HW126369   4.381   5.396   3.352
 8490SOL    HW226370   4.522   5.478   3.360
 8491SOL     OW26371   2.170   0.479   2.127
 8491SOL    HW126372   2.140   0.471   2.222
 8491SOL    HW226373   2.252   0.423   2.113
 8492SOL     OW26374   5.169   3.394   5.504
 8492SOL    HW126375   5.254   3.446   5.492
 8492SOL    HW226376   5.156   3.332   5.427
 8493SOL     OW26377   3.624   1.567   0.243
 8493SOL    HW126378   3.714   1.600   0.272
 8493SOL    HW226379   3.554   1.633   0.271
 8494SOL     OW26380   2.479   5.837   6.790
 8494SOL    HW126381   2.399   5.872   6.839
 8494SOL    HW226382   2.557   5.834   6.852
 8495SOL     OW26383   6.439   3.251   0.339
 8495SOL    HW126384   6.474   3.236   0.246
 8495SOL    HW226385   6.499   3.314   0.388
 8496SOL     OW26386   0.343   1.807   3.738
 8496SOL    HW126387   0.377   1.742   3.806
 8496SOL    HW226388   0.321   1.894   3.784
 8497SOL     OW26389   5.106   5.892   4.512
 8497SOL    HW126390   5.114   5.851   4.421
 8497SOL    HW226391   5.062   5.827   4.574
 8498SOL     OW26392   0.355   0.300   1.559
 8498SOL    HW126393   0.366   0.295   1.658
 8498SOL    HW226394   0.268   0.257   1.533
 8499SOL     OW26395   2.989   4.919   6.423
 8499SOL    HW126396   2.911   4.893   6.481
 8499SOL    HW226397   2.985   5.017   6.403
 8500SOL     OW26398   2.710   0.043   5.736
 8500SOL    HW126399   2.716   0.009   5.642
 8500SOL    HW226400   2.718   6.990   5.800
 8501SOL     OW26401   1.655   3.161   6.832
 8501SOL    HW126402   1.606   3.096   6.774
 8501SOL    HW226403   1.613   3.251   6.825
 8502SOL     OW26404   0.800   5.592   1.787
 8502SOL    HW126405   0.817   5.574   1.883
 8502SOL    HW226406   0.738   5.523   1.750
 8503SOL     OW26407   1.450   5.066   3.410
 8503SOL    HW126408   1.459   5.132   3.484
 8503SOL    HW226409   1.481   5.108   3.324
 8504SOL     OW26410   1.789   6.292   3.722
 8504SOL    HW126411   1.759   6.197   3.712
 8504SOL    HW226412   1.886   6.294   3.742
 8505SOL     OW26413   5.509   4.202   3.353
 8505SOL    HW126414   5.436   4.224   3.288
 8505SOL    HW226415   5.470   4.189   3.444
 8506SOL     OW26416   0.886   6.179   0.469
 8506SOL    HW126417   0.846   6.242   0.537
 8506SOL    HW226418   0.908   6.230   0.386
 8507SOL     OW26419   2.435   1.149   5.626
 8507SOL    HW126420   2.373   1.116   5.697
 8507SOL    HW226421   2.384   1.205   5.561
 8508SOL     OW26422   6.433   2.659   5.132
 8508SOL    HW126423   6.371   2.658   5.053
 8508SOL    HW226424   6.424   2.573   5.182
 8509SOL     OW26425   6.273   1.056   4.455
 8509SOL    HW126426   6.280   0.978   4.393
 8509SOL    HW226427   6.240   1.136   4.404
 8510SOL     OW26428   6.352   5.841   3.352
 8510SOL    HW126429   6.273   5.888   3.391
 8510SOL    HW226430   6.430   5.903   3.348
 8511SOL     OW26431   5.872   4.231   1.154
 8511SOL    HW126432   5.941   4.227   1.225
 8511SOL    HW226433   5.915   4.254   1.066
 8512SOL     OW26434   4.298   2.122   0.103
 8512SOL    HW126435   4.225   2.184   0.075
 8512SOL    HW226436   4.350   2.164   0.178
 8513SOL     OW26437   4.702   3.795   0.383
 8513SOL    HW126438   4.767   3.720   0.367
 8513SOL    HW226439   4.727   3.843   0.466
 8514SOL     OW26440   2.716   2.016   3.657
 8514SOL    HW126441   2.727   2.113   3.679
 8514SOL    HW226442   2.659   1.972   3.728
 8515SOL     OW26443   0.320   1.425   6.684
 8515SOL    HW126444   0.396   1.404   6.745
 8515SOL    HW226445   0.287   1.340   6.643
 8516SOL     OW26446   6.228   2.606   2.535
 8516SOL    HW126447   6.210   2.632   2.630
 8516SOL    HW226448   6.323   2.574   2.527
 8517SOL     OW26449   1.778   3.088   6.195
 8517SOL    HW126450   1.846   3.109   6.266
 8517SOL    HW226451   1.697   3.049   6.238
 8518SOL     OW26452   4.823   3.775   6.169
 8518SOL    HW126453   4.741   3.788   6.224
 8518SOL    HW226454   4.896   3.740   6.228
 8519SOL     OW26455   0.959   4.793   0.564
 8519SOL    HW126456   0.861   4.790   0.584
 8519SOL    HW226457   0.999   4.875   0.604
 8520SOL     OW26458   3.430   3.581   5.059
 8520SOL    HW126459   3.419   3.505   5.124
 8520SOL    HW226460   3.367   3.655   5.084
 8521SOL     OW26461   2.118   6.428   5.616
 8521SOL    HW126462   2.172   6.431   5.532
 8521SOL    HW226463   2.142   6.506   5.674
 8522SOL     OW26464   1.350   0.566   1.091
 8522SOL    HW126465   1.276   0.559   1.158
 8522SOL    HW226466   1.424   0.505   1.117
 8523SOL     OW26467   2.640   0.050   6.581
 8523SOL    HW126468   2.682   7.013   6.648
 8523SOL    HW226469   2.682   0.141   6.588
 8524SOL     OW26470   1.010   4.799   5.034
 8524SOL    HW126471   0.954   4.749   5.100
 8524SOL    HW226472   0.966   4.796   4.944
 8525SOL     OW26473   5.708   4.741   1.007
 8525SOL    HW126474   5.689   4.672   1.077
 8525SOL    HW226475   5.806   4.760   1.006
 8526SOL     OW26476   3.238   6.612   0.877
 8526SOL    HW126477   3.216   6.709   0.864
 8526SOL    HW226478   3.177   6.573   0.946
 8527SOL     OW26479   3.011   0.345   6.750
 8527SOL    HW126480   3.052   0.428   6.712
 8527SOL    HW226481   3.058   0.320   6.834
 8528SOL     OW26482   4.868   1.568   1.233
 8528SOL    HW126483   4.953   1.531   1.193
 8528SOL    HW226484   4.832   1.639   1.174
 8529SOL     OW26485   1.107   6.411   0.137
 8529SOL    HW126486   1.185   6.446   0.085
 8529SOL    HW226487   1.033   6.387   0.075
 8530SOL     OW26488   2.896   3.748   4.080
 8530SOL    HW126489   2.942   3.796   4.155
 8530SOL    HW226490   2.946   3.764   3.994
 8531SOL     OW26491   6.942   5.211   3.406
 8531SOL    HW126492   6.974   5.219   3.312
 8531SOL    HW226493   6.952   5.298   3.453
 8532SOL     OW26494   3.564   6.667   4.068
 8532SOL    HW126495   3.642   6.721   4.097
 8532SOL    HW226496   3.508   6.720   4.004
 8533SOL     OW26497   0.849   5.988   0.148
 8533SOL    HW126498   0.777   6.013   0.211
 8533SOL    HW226499   0.809   5.961   0.060
 8534SOL     OW26500   4.666   2.773   3.587
 8534SOL    HW126501   4.764   2.751   3.592
 8534SOL    HW226502   4.654   2.858   3.537
 8535SOL     OW26503   6.159   1.081   4.701
 8535SOL    HW126504   6.195   0.998   4.744
 8535SOL    HW226505   6.190   1.084   4.606
 8536SOL     OW26506   1.082   2.470   4.989
 8536SOL    HW126507   1.095   2.371   4.991
 8536SOL    HW226508   0.984   2.491   4.985
 8537SOL     OW26509   6.428   1.405   3.462
 8537SOL    HW126510   6.516   1.452   3.464
 8537SOL    HW226511   6.420   1.353   3.377
 8538SOL     OW26512   1.728   1.533   0.118
 8538SOL    HW126513   1.666   1.495   0.050
 8538SOL    HW226514   1.678   1.595   0.178
 8539SOL     OW26515   6.490   2.131   2.443
 8539SOL    HW126516   6.523   2.136   2.348
 8539SOL    HW226517   6.565   2.153   2.505
 8540SOL     OW26518   4.966   0.121   6.621
 8540SOL    HW126519   4.871   0.150   6.615
 8540SOL    HW226520   4.986   0.094   6.715
 8541SOL     OW26521   2.805   1.778   4.092
 8541SOL    HW126522   2.904   1.777   4.104
 8541SOL    HW226523   2.767   1.862   4.131
 8542SOL     OW26524   3.134   5.104   6.122
 8542SOL    HW126525   3.178   5.139   6.039
 8542SOL    HW226526   3.200   5.052   6.175
 8543SOL     OW26527   1.669   2.003   0.440
 8543SOL    HW126528   1.635   1.919   0.482
 8543SOL    HW226529   1.741   2.042   0.497
 8544SOL     OW26530   5.342   2.867   4.310
 8544SOL    HW126531   5.417   2.923   4.345
 8544SOL    HW226532   5.259   2.921   4.305
 8545SOL     OW26533   5.012   6.249   6.513
 8545SOL    HW126534   5.064   6.303   6.446
 8545SOL    HW226535   5.020   6.152   6.490
 8546SOL     OW26536   6.201   1.900   3.217
 8546SOL    HW126537   6.189   1.846   3.135
 8546SOL    HW226538   6.288   1.876   3.261
 8547SOL     OW26539   1.415   5.767   6.018
 8547SOL    HW126540   1.328   5.721   6.036
 8547SOL    HW226541   1.435   5.831   6.092
 8548SOL     OW26542   5.984   2.104   5.369
 8548SOL    HW126543   5.924   2.039   5.322
 8548SOL    HW226544   5.965   2.197   5.337
 8549SOL     OW26545   6.997   4.263   4.057
 8549SOL    HW126546   0.031   4.189   4.091
 8549SOL    HW226547   7.017   4.347   4.106
 8550SOL     OW26548   2.084   4.624   0.256
 8550SOL    HW126549   2.012   4.613   0.325
 8550SOL    HW226550   2.136   4.539   0.249
 8551SOL     OW26551   3.305   4.497   6.274
 8551SOL    HW126552   3.253   4.474   6.357
 8551SOL    HW226553   3.328   4.413   6.225
 8552SOL     OW26554   3.067   5.585   3.378
 8552SOL    HW126555   3.004   5.633   3.439
 8552SOL    HW226556   3.159   5.622   3.388
 8553SOL     OW26557   5.312   6.083   0.278
 8553SOL    HW126558   5.273   6.044   0.361
 8553SOL    HW226559   5.356   6.170   0.300
 8554SOL     OW26560   0.241   4.378   0.579
 8554SOL    HW126561   0.226   4.279   0.585
 8554SOL    HW226562   0.241   4.406   0.483
 8555SOL     OW26563   1.389   0.517   2.808
 8555SOL    HW126564   1.363   0.463   2.728
 8555SOL    HW226565   1.340   0.604   2.807
 8556SOL     OW26566   0.734   0.491   2.962
 8556SOL    HW126567   0.788   0.517   2.882
 8556SOL    HW226568   0.795   0.468   3.038
 8557SOL     OW26569   6.401   0.090   1.967
 8557SOL    HW126570   6.421   0.004   2.013
 8557SOL    HW226571   6.483   0.146   1.964
 8558SOL     OW26572   1.989   5.674   2.733
 8558SOL    HW126573   2.035   5.752   2.691
 8558SOL    HW226574   1.984   5.599   2.667
 8559SOL     OW26575   0.588   0.754   2.048
 8559SOL    HW126576   0.675   0.760   2.096
 8559SOL    HW226577   0.585   0.823   1.975
 8560SOL     OW26578   6.842   0.866   0.582
 8560SOL    HW126579   6.761   0.869   0.641
 8560SOL    HW226580   6.871   0.771   0.571
 8561SOL     OW26581   4.439   5.917   2.169
 8561SOL    HW126582   4.354   5.879   2.203
 8561SOL    HW226583   4.425   6.012   2.140
 8562SOL     OW26584   4.707   6.361   4.624
 8562SOL    HW126585   4.752   6.272   4.629
 8562SOL    HW226586   4.621   6.353   4.574
 8563SOL     OW26587   3.023   3.172   6.822
 8563SOL    HW126588   3.015   3.166   6.723
 8563SOL    HW226589   3.097   3.235   6.846
 8564SOL     OW26590   1.547   0.650   3.187
 8564SOL    HW126591   1.463   0.614   3.227
 8564SOL    HW226592   1.532   0.745   3.159
 8565SOL     OW26593   4.132   0.096   1.437
 8565SOL    HW126594   4.155   0.175   1.493
 8565SOL    HW226595   4.141   0.119   1.340
 8566SOL     OW26596   1.461   1.977   3.096
 8566SOL    HW126597   1.542   1.933   3.135
 8566SOL    HW226598   1.407   1.910   3.046
 8567SOL     OW26599   6.070   1.098   1.566
 8567SOL    HW126600   6.095   1.004   1.591
 8567SOL    HW226601   6.089   1.113   1.469
 8568SOL     OW26602   4.965   1.480   7.011
 8568SOL    HW126603   4.886   1.425   0.013
 8568SOL    HW226604   5.022   1.496   0.069
 8569SOL     OW26605   4.876   1.145   5.279
 8569SOL    HW126606   4.868   1.056   5.234
 8569SOL    HW226607   4.866   1.218   5.211
 8570SOL     OW26608   1.506   4.641   6.285
 8570SOL    HW126609   1.568   4.587   6.228
 8570SOL    HW226610   1.522   4.738   6.268
 8571SOL     OW26611   0.037   4.976   5.339
 8571SOL    HW126612   0.064   4.884   5.368
 8571SOL    HW226613   7.008   4.970   5.255
 8572SOL     OW26614   2.068   5.414   5.601
 8572SOL    HW126615   2.106   5.359   5.675
 8572SOL    HW226616   2.141   5.471   5.561
 8573SOL     OW26617   4.167   6.080   6.886
 8573SOL    HW126618   4.125   6.115   6.803
 8573SOL    HW226619   4.184   6.155   6.949
 8574SOL     OW26620   1.007   4.832   6.315
 8574SOL    HW126621   1.039   4.752   6.366
 8574SOL    HW226622   1.075   4.856   6.245
 8575SOL     OW26623   3.046   2.688   6.607
 8575SOL    HW126624   2.947   2.695   6.622
 8575SOL    HW226625   3.087   2.631   6.678
 8576SOL     OW26626   0.476   0.045   1.793
 8576SOL    HW126627   0.462   0.142   1.809
 8576SOL    HW226628   0.410   7.015   1.846
 8577SOL     OW26629   6.321   5.302   4.005
 8577SOL    HW126630   6.329   5.333   3.910
 8577SOL    HW226631   6.344   5.205   4.010
 8578SOL     OW26632   4.582   0.069   4.608
 8578SOL    HW126633   4.569   0.146   4.546
 8578SOL    HW226634   4.499   0.013   4.611
 8579SOL     OW26635   1.056   5.088   3.396
 8579SOL    HW126636   1.120   5.095   3.319
 8579SOL    HW226637   0.975   5.038   3.367
 8580SOL     OW26638   1.978   6.722   1.839
 8580SOL    HW126639   1.944   6.817   1.840
 8580SOL    HW226640   1.951   6.678   1.753
 8581SOL     OW26641   3.328   1.817   1.242
 8581SOL    HW126642   3.409   1.808   1.300
 8581SOL    HW226643   3.340   1.896   1.181
 8582SOL     OW26644   4.827   4.648   2.202
 8582SOL    HW126645   4.830   4.589   2.283
 8582SOL    HW226646   4.757   4.614   2.139
 8583SOL     OW26647   6.073   0.551   6.440
 8583SOL    HW126648   6.165   0.516   6.458
 8583SOL    HW226649   6.073   0.650   6.448
 8584SOL     OW26650   6.951   4.344   0.645
 8584SOL    HW126651   6.967   4.258   0.596
 8584SOL    HW226652   6.911   4.324   0.734
 8585SOL     OW26653   0.461   0.634   0.592
 8585SOL    HW126654   0.530   0.577   0.636
 8585SOL    HW226655   0.396   0.666   0.661
 8586SOL     OW26656   3.265   5.780   2.930
 8586SOL    HW126657   3.203   5.752   3.004
 8586SOL    HW226658   3.240   5.872   2.900
 8587SOL     OW26659   0.491   1.642   3.001
 8587SOL    HW126660   0.573   1.586   3.007
 8587SOL    HW226661   0.500   1.722   3.060
 8588SOL     OW26662   3.235   2.012   0.627
 8588SOL    HW126663   3.316   2.064   0.654
 8588SOL    HW226664   3.154   2.054   0.669
 8589SOL     OW26665   3.834   1.277   5.088
 8589SOL    HW126666   3.907   1.324   5.138
 8589SOL    HW226667   3.856   1.180   5.080
 8590SOL     OW26668   6.766   5.608   4.934
 8590SOL    HW126669   6.765   5.508   4.930
 8590SOL    HW226670   6.715   5.639   5.014
 8591SOL     OW26671   0.797   4.584   6.490
 8591SOL    HW126672   0.892   4.581   6.459
 8591SOL    HW226673   0.784   4.519   6.564
 8592SOL     OW26674   0.149   4.395   0.307
 8592SOL    HW126675   0.062   4.350   0.287
 8592SOL    HW226676   0.163   4.470   0.242
 8593SOL     OW26677   1.222   6.796   2.128
 8593SOL    HW126678   1.268   6.876   2.168
 8593SOL    HW226679   1.204   6.729   2.200
 8594SOL     OW26680   3.281   3.792   4.182
 8594SOL    HW126681   3.264   3.874   4.128
 8594SOL    HW226682   3.199   3.768   4.233
 8595SOL     OW26683   2.176   2.127   2.570
 8595SOL    HW126684   2.187   2.210   2.625
 8595SOL    HW226685   2.255   2.115   2.511
 8596SOL     OW26686   5.695   5.374   1.882
 8596SOL    HW126687   5.776   5.401   1.934
 8596SOL    HW226688   5.700   5.276   1.862
 8597SOL     OW26689   3.384   2.014   1.062
 8597SOL    HW126690   3.337   2.102   1.062
 8597SOL    HW226691   3.381   1.974   0.971
 8598SOL     OW26692   6.737   5.226   0.992
 8598SOL    HW126693   6.757   5.319   1.023
 8598SOL    HW226694   6.638   5.217   0.977
 8599SOL     OW26695   1.193   2.671   3.846
 8599SOL    HW126696   1.151   2.742   3.789
 8599SOL    HW226697   1.121   2.622   3.896
 8600SOL     OW26698   6.433   4.688   6.524
 8600SOL    HW126699   6.434   4.767   6.585
 8600SOL    HW226700   6.476   4.712   6.437
 8601SOL     OW26701   0.032   1.400   4.782
 8601SOL    HW126702   6.978   1.451   4.743
 8601SOL    HW226703   0.076   1.457   4.851
 8602SOL     OW26704   2.750   6.353   2.801
 8602SOL    HW126705   2.742   6.451   2.822
 8602SOL    HW226706   2.718   6.300   2.880
 8603SOL     OW26707   3.453   3.899   0.153
 8603SOL    HW126708   3.457   3.990   0.194
 8603SOL    HW226709   3.447   3.907   0.053
 8604SOL     OW26710   6.243   3.000   3.797
 8604SOL    HW126711   6.253   3.013   3.896
 8604SOL    HW226712   6.179   2.924   3.780
 8605SOL     OW26713   3.784   5.441   3.965
 8605SOL    HW126714   3.825   5.367   3.912
 8605SOL    HW226715   3.745   5.509   3.903
 8606SOL     OW26716   2.626   4.057   6.010
 8606SOL    HW126717   2.663   4.150   6.011
 8606SOL    HW226718   2.548   4.053   5.948
 8607SOL     OW26719   3.320   5.883   1.486
 8607SOL    HW126720   3.260   5.815   1.529
 8607SOL    HW226721   3.413   5.872   1.521
 8608SOL     OW26722   4.295   4.572   2.651
 8608SOL    HW126723   4.392   4.567   2.627
 8608SOL    HW226724   4.243   4.607   2.573
 8609SOL     OW26725   3.663   0.635   4.566
 8609SOL    HW126726   3.730   0.698   4.527
 8609SOL    HW226727   3.678   0.543   4.529
 8610SOL     OW26728   1.007   0.337   3.355
 8610SOL    HW126729   1.005   0.291   3.444
 8610SOL    HW226730   1.090   0.312   3.306
 8611SOL     OW26731   1.042   2.267   4.651
 8611SOL    HW126732   0.983   2.223   4.719
 8611SOL    HW226733   0.990   2.337   4.602
 8612SOL     OW26734   2.901   3.536   6.790
 8612SOL    HW126735   2.812   3.576   6.769
 8612SOL    HW226736   2.920   3.462   6.725
 8613SOL     OW26737   2.150   1.334   1.097
 8613SOL    HW126738   2.242   1.359   1.067
 8613SOL    HW226739   2.083   1.392   1.051
 8614SOL     OW26740   0.712   3.879   3.007
 8614SOL    HW126741   0.808   3.861   2.986
 8614SOL    HW226742   0.672   3.933   2.934
 8615SOL     OW26743   4.712   2.091   5.328
 8615SOL    HW126744   4.660   2.176   5.326
 8615SOL    HW226745   4.809   2.111   5.321
 8616SOL     OW26746   0.718   5.020   0.400
 8616SOL    HW126747   0.643   5.059   0.347
 8616SOL    HW226748   0.744   4.931   0.360
 8617SOL     OW26749   6.691   1.743   0.823
 8617SOL    HW126750   6.683   1.770   0.727
 8617SOL    HW226751   6.674   1.823   0.881
 8618SOL     OW26752   4.651   6.973   2.441
 8618SOL    HW126753   4.604   6.906   2.384
 8618SOL    HW226754   4.646   0.039   2.398
 8619SOL     OW26755   4.246   5.387   0.067
 8619SOL    HW126756   4.274   5.316   0.132
 8619SOL    HW226757   4.151   5.371   0.040
 8620SOL     OW26758   6.118   6.738   2.674
 8620SOL    HW126759   6.131   6.639   2.669
 8620SOL    HW226760   6.049   6.766   2.607
 8621SOL     OW26761   6.643   1.092   3.762
 8621SOL    HW126762   6.585   1.146   3.823
 8621SOL    HW226763   6.586   1.045   3.695
 8622SOL     OW26764   4.512   4.369   0.107
 8622SOL    HW126765   4.504   4.452   0.052
 8622SOL    HW226766   4.429   4.314   0.096
 8623SOL     OW26767   0.766   4.702   3.132
 8623SOL    HW126768   0.786   4.673   3.038
 8623SOL    HW226769   0.667   4.711   3.143
 8624SOL     OW26770   1.507   4.417   3.459
 8624SOL    HW126771   1.483   4.443   3.365
 8624SOL    HW226772   1.441   4.350   3.493
 8625SOL     OW26773   4.520   0.711   4.191
 8625SOL    HW126774   4.462   0.714   4.272
 8625SOL    HW226775   4.464   0.719   4.109
 8626SOL     OW26776   3.645   3.231   4.093
 8626SOL    HW126777   3.704   3.255   4.170
 8626SOL    HW226778   3.554   3.270   4.107
 8627SOL     OW26779   1.191   1.152   1.423
 8627SOL    HW126780   1.143   1.065   1.436
 8627SOL    HW226781   1.274   1.152   1.480
 8628SOL     OW26782   6.700   0.337   0.400
 8628SOL    HW126783   6.686   0.338   0.499
 8628SOL    HW226784   6.785   0.385   0.378
 8629SOL     OW26785   0.975   4.927   4.249
 8629SOL    HW126786   0.988   4.974   4.336
 8629SOL    HW226787   0.998   4.990   4.174
 8630SOL     OW26788   6.009   4.013   4.389
 8630SOL    HW126789   6.014   3.961   4.303
 8630SOL    HW226790   5.958   3.961   4.457
 8631SOL     OW26791   3.731   5.846   5.877
 8631SOL    HW126792   3.813   5.849   5.935
 8631SOL    HW226793   3.696   5.938   5.864
 8632SOL     OW26794   3.543   0.011   3.881
 8632SOL    HW126795   3.489   6.951   3.883
 8632SOL    HW226796   3.488   0.087   3.914
 8633SOL     OW26797   5.502   1.160   3.758
 8633SOL    HW126798   5.453   1.073   3.752
 8633SOL    HW226799   5.469   1.210   3.839
 8634SOL     OW26800   6.521   3.970   1.334
 8634SOL    HW126801   6.540   4.020   1.419
 8634SOL    HW226802   6.473   4.031   1.271
 8635SOL     OW26803   5.795   3.631   5.565
 8635SOL    HW126804   5.716   3.627   5.627
 8635SOL    HW226805   5.770   3.683   5.483
 8636SOL     OW26806   5.739   5.341   6.890
 8636SOL    HW126807   5.798   5.304   6.962
 8636SOL    HW226808   5.796   5.375   6.815
 8637SOL     OW26809   1.585   0.960   0.307
 8637SOL    HW126810   1.498   0.960   0.357
 8637SOL    HW226811   1.613   0.866   0.288
 8638SOL     OW26812   2.036   3.769   0.340
 8638SOL    HW126813   2.091   3.834   0.392
 8638SOL    HW226814   1.966   3.729   0.399
 8639SOL     OW26815   5.119   2.412   2.085
 8639SOL    HW126816   5.194   2.351   2.061
 8639SOL    HW226817   5.032   2.366   2.069
 8640SOL     OW26818   4.220   4.122   0.450
 8640SOL    HW126819   4.319   4.124   0.470
 8640SOL    HW226820   4.194   4.205   0.402
 8641SOL     OW26821   6.908   4.049   3.217
 8641SOL    HW126822   6.862   4.001   3.291
 8641SOL    HW226823   6.944   4.137   3.251
 8642SOL     OW26824   4.844   0.386   2.386
 8642SOL    HW126825   4.810   0.469   2.341
 8642SOL    HW226826   4.839   0.309   2.322
 8643SOL     OW26827   4.972   0.237   0.180
 8643SOL    HW126828   4.985   0.303   0.253
 8643SOL    HW226829   4.883   0.252   0.136
 8644SOL     OW26830   5.590   2.112   5.239
 8644SOL    HW126831   5.603   2.179   5.311
 8644SOL    HW226832   5.643   2.138   5.159
 8645SOL     OW26833   6.132   4.767   1.221
 8645SOL    HW126834   6.082   4.853   1.234
 8645SOL    HW226835   6.067   4.691   1.220
 8646SOL     OW26836   4.710   1.146   0.765
 8646SOL    HW126837   4.648   1.105   0.699
 8646SOL    HW226838   4.697   1.104   0.855
 8647SOL     OW26839   3.734   4.953   0.202
 8647SOL    HW126840   3.786   4.888   0.147
 8647SOL    HW226841   3.788   5.037   0.214
 8648SOL     OW26842   5.844   0.909   4.419
 8648SOL    HW126843   5.879   0.987   4.366
 8648SOL    HW226844   5.793   0.943   4.498
 8649SOL     OW26845   6.183   4.540   5.748
 8649SOL    HW126846   6.201   4.471   5.678
 8649SOL    HW226847   6.121   4.609   5.712
 8650SOL     OW26848   1.909   4.836   3.976
 8650SOL    HW126849   1.932   4.845   3.879
 8650SOL    HW226850   1.991   4.810   4.027
 8651SOL     OW26851   3.898   0.974   0.497
 8651SOL    HW126852   3.816   0.956   0.551
 8651SOL    HW226853   3.975   0.920   0.532
 8652SOL     OW26854   1.694   4.020   3.505
 8652SOL    HW126855   1.708   4.047   3.410
 8652SOL    HW226856   1.775   4.044   3.558
 8653SOL     OW26857   0.100   2.077   6.292
 8653SOL    HW126858   0.094   2.030   6.380
 8653SOL    HW226859   0.015   2.065   6.241
 8654SOL     OW26860   0.156   6.377   2.647
 8654SOL    HW126861   0.144   6.414   2.739
 8654SOL    HW226862   0.086   6.416   2.586
 8655SOL     OW26863   5.873   0.185   3.793
 8655SOL    HW126864   5.904   0.106   3.741
 8655SOL    HW226865   5.867   0.161   3.890
 8656SOL     OW26866   6.182   1.205   1.164
 8656SOL    HW126867   6.171   1.153   1.080
 8656SOL    HW226868   6.098   1.199   1.218
 8657SOL     OW26869   4.156   5.081   6.156
 8657SOL    HW126870   4.198   5.154   6.211
 8657SOL    HW226871   4.188   5.088   6.062
 8658SOL     OW26872   4.956   4.944   0.004
 8658SOL    HW126873   4.913   4.864   6.986
 8658SOL    HW226874   5.005   4.917   0.087
 8659SOL     OW26875   4.443   0.646   3.270
 8659SOL    HW126876   4.409   0.643   3.176
 8659SOL    HW226877   4.366   0.648   3.334
 8660SOL     OW26878   5.826   4.023   0.142
 8660SOL    HW126879   5.821   3.926   0.118
 8660SOL    HW226880   5.747   4.048   0.197
 8661SOL     OW26881   5.919   3.893   1.847
 8661SOL    HW126882   5.958   3.885   1.939
 8661SOL    HW226883   5.901   3.801   1.810
 8662SOL     OW26884   5.535   6.251   1.573
 8662SOL    HW126885   5.632   6.273   1.567
 8662SOL    HW226886   5.483   6.334   1.590
 8663SOL     OW26887   2.611   5.628   0.484
 8663SOL    HW126888   2.556   5.638   0.567
 8663SOL    HW226889   2.634   5.719   0.448
 8664SOL     OW26890   4.499   5.303   6.942
 8664SOL    HW126891   4.460   5.394   6.949
 8664SOL    HW226892   4.426   5.235   6.950
 8665SOL     OW26893   4.935   5.712   5.678
 8665SOL    HW126894   4.887   5.675   5.757
 8665SOL    HW226895   4.895   5.800   5.653
 8666SOL     OW26896   4.987   1.639   4.791
 8666SOL    HW126897   4.992   1.570   4.863
 8666SOL    HW226898   4.952   1.597   4.707
 8667SOL     OW26899   5.010   1.553   3.078
 8667SOL    HW126900   4.941   1.487   3.047
 8667SOL    HW226901   5.038   1.531   3.171
 8668SOL     OW26902   5.416   2.298   3.653
 8668SOL    HW126903   5.475   2.354   3.594
 8668SOL    HW226904   5.455   2.206   3.661
 8669SOL     OW26905   3.678   0.379   6.273
 8669SOL    HW126906   3.684   0.451   6.341
 8669SOL    HW226907   3.621   0.304   6.308
 8670SOL     OW26908   3.669   5.517   5.073
 8670SOL    HW126909   3.725   5.548   4.997
 8670SOL    HW226910   3.714   5.440   5.119
 8671SOL     OW26911   5.527   0.317   3.918
 8671SOL    HW126912   5.508   0.330   3.821
 8671SOL    HW226913   5.612   0.266   3.930
 8672SOL     OW26914   2.296   5.603   4.615
 8672SOL    HW126915   2.376   5.557   4.654
 8672SOL    HW226916   2.243   5.646   4.688
 8673SOL     OW26917   0.209   1.183   0.028
 8673SOL    HW126918   0.255   1.096   0.009
 8673SOL    HW226919   0.148   1.206   6.976
 8674SOL     OW26920   7.023   6.237   2.402
 8674SOL    HW126921   0.049   6.184   2.469
 8674SOL    HW226922   7.013   6.331   2.433
 8675SOL     OW26923   3.490   2.113   4.617
 8675SOL    HW126924   3.512   2.209   4.630
 8675SOL    HW226925   3.429   2.082   4.690
 8676SOL     OW26926   3.162   0.703   2.752
 8676SOL    HW126927   3.224   0.771   2.791
 8676SOL    HW226928   3.067   0.729   2.773
 8677SOL     OW26929   2.186   5.500   6.058
 8677SOL    HW126930   2.161   5.531   6.149
 8677SOL    HW226931   2.109   5.451   6.017
 8678SOL     OW26932   0.399   0.259   0.086
 8678SOL    HW126933   0.440   0.187   0.143
 8678SOL    HW226934   0.398   0.228   7.015
 8679SOL     OW26935   5.991   1.959   4.558
 8679SOL    HW126936   6.051   1.895   4.605
 8679SOL    HW226937   6.028   1.976   4.466
 8680SOL     OW26938   1.242   3.965   1.451
 8680SOL    HW126939   1.232   4.062   1.472
 8680SOL    HW226940   1.324   3.929   1.495
 8681SOL     OW26941   4.906   4.555   6.728
 8681SOL    HW126942   4.841   4.490   6.686
 8681SOL    HW226943   4.964   4.506   6.793
 8682SOL     OW26944   3.605   6.351   3.037
 8682SOL    HW126945   3.600   6.367   3.135
 8682SOL    HW226946   3.681   6.405   2.999
 8683SOL     OW26947   1.370   2.542   2.217
 8683SOL    HW126948   1.365   2.546   2.316
 8683SOL    HW226949   1.321   2.461   2.184
 8684SOL     OW26950   0.740   2.857   4.420
 8684SOL    HW126951   0.757   2.772   4.371
 8684SOL    HW226952   0.649   2.892   4.395
 8685SOL     OW26953   1.594   2.042   5.840
 8685SOL    HW126954   1.550   2.040   5.751
 8685SOL    HW226955   1.530   2.078   5.909
 8686SOL     OW26956   6.513   2.103   2.131
 8686SOL    HW126957   6.568   2.079   2.051
 8686SOL    HW226958   6.478   2.196   2.121
 8687SOL     OW26959   3.695   6.250   2.723
 8687SOL    HW126960   3.645   6.224   2.805
 8687SOL    HW226961   3.791   6.266   2.747
 8688SOL     OW26962   2.814   6.504   0.389
 8688SOL    HW126963   2.869   6.454   0.321
 8688SOL    HW226964   2.860   6.501   0.477
 8689SOL     OW26965   3.750   6.158   0.090
 8689SOL    HW126966   3.793   6.105   0.017
 8689SOL    HW226967   3.686   6.100   0.140
 8690SOL     OW26968   1.900   2.482   4.171
 8690SOL    HW126969   1.954   2.402   4.149
 8690SOL    HW226970   1.859   2.519   4.087
 8691SOL     OW26971   4.232   2.399   6.575
 8691SOL    HW126972   4.180   2.330   6.525
 8691SOL    HW226973   4.190   2.489   6.562
 8692SOL     OW26974   3.517   2.051   2.770
 8692SOL    HW126975   3.541   2.094   2.856
 8692SOL    HW226976   3.600   2.021   2.723
 8693SOL     OW26977   5.245   1.935   1.143
 8693SOL    HW126978   5.302   1.888   1.211
 8693SOL    HW226979   5.208   2.019   1.183
 8694SOL     OW26980   4.658   0.210   6.242
 8694SOL    HW126981   4.614   0.121   6.249
 8694SOL    HW226982   4.757   0.198   6.233
 8695SOL     OW26983   4.590   2.824   5.939
 8695SOL    HW126984   4.639   2.762   6.000
 8695SOL    HW226985   4.630   2.915   5.945
 8696SOL     OW26986   3.118   5.531   0.931
 8696SOL    HW126987   3.156   5.447   0.970
 8696SOL    HW226988   3.129   5.606   0.997
 8697SOL     OW26989   6.510   3.579   0.197
 8697SOL    HW126990   6.437   3.645   0.212
 8697SOL    HW226991   6.548   3.551   0.285
 8698SOL     OW26992   5.268   5.669   3.775
 8698SOL    HW126993   5.360   5.707   3.766
 8698SOL    HW226994   5.269   5.573   3.745
 8699SOL     OW26995   0.795   2.111   5.394
 8699SOL    HW126996   0.829   2.023   5.427
 8699SOL    HW226997   0.871   2.163   5.354
 8700SOL     OW26998   2.057   0.800   5.075
 8700SOL    HW126999   1.994   0.733   5.113
 8700SOL    HW227000   2.039   0.811   4.977
 8701SOL     OW27001   1.024   0.914   6.069
 8701SOL    HW127002   1.055   0.831   6.023
 8701SOL    HW227003   0.960   0.891   6.141
 8702SOL     OW27004   5.371   4.716   0.021
 8702SOL    HW127005   5.311   4.636   0.031
 8702SOL    HW227006   5.460   4.686   7.010
 8703SOL     OW27007   3.139   5.725   1.612
 8703SOL    HW127008   3.041   5.710   1.616
 8703SOL    HW227009   3.175   5.735   1.705
 8704SOL     OW27010   6.208   3.652   2.512
 8704SOL    HW127011   6.158   3.612   2.435
 8704SOL    HW227012   6.175   3.745   2.528
 8705SOL     OW27013   5.274   0.643   6.321
 8705SOL    HW127014   5.263   0.731   6.276
 8705SOL    HW227015   5.363   0.638   6.364
 8706SOL     OW27016   5.051   2.256   6.030
 8706SOL    HW127017   5.113   2.221   6.101
 8706SOL    HW227018   5.083   2.226   5.940
 8707SOL     OW27019   4.445   2.827   0.548
 8707SOL    HW127020   4.531   2.862   0.512
 8707SOL    HW227021   4.442   2.728   0.537
 8708SOL     OW27022   3.764   0.851   1.929
 8708SOL    HW127023   3.723   0.824   2.016
 8708SOL    HW227024   3.698   0.905   1.876
 8709SOL     OW27025   6.668   4.882   0.047
 8709SOL    HW127026   6.583   4.866   0.098
 8709SOL    HW227027   6.665   4.830   6.985
 8710SOL     OW27028   1.810   2.844   2.924
 8710SOL    HW127029   1.898   2.805   2.952
 8710SOL    HW227030   1.778   2.797   2.842
 8711SOL     OW27031   6.976   6.483   2.521
 8711SOL    HW127032   6.885   6.472   2.562
 8711SOL    HW227033   6.990   6.580   2.499
 8712SOL     OW27034   3.957   2.151   3.752
 8712SOL    HW127035   3.929   2.068   3.703
 8712SOL    HW227036   3.896   2.166   3.830
 8713SOL     OW27037   6.738   4.310   3.525
 8713SOL    HW127038   6.713   4.237   3.588
 8713SOL    HW227039   6.830   4.294   3.490
 8714SOL     OW27040   0.987   0.971   5.789
 8714SOL    HW127041   1.007   0.981   5.887
 8714SOL    HW227042   0.898   0.928   5.778
 8715SOL     OW27043   5.966   0.795   1.151
 8715SOL    HW127044   5.992   0.725   1.218
 8715SOL    HW227045   6.036   0.866   1.148
 8716SOL     OW27046   1.086   1.823   1.032
 8716SOL    HW127047   1.072   1.825   1.131
 8716SOL    HW227048   1.160   1.886   1.008
 8717SOL     OW27049   4.184   3.557   2.456
 8717SOL    HW127050   4.129   3.510   2.526
 8717SOL    HW227051   4.186   3.655   2.476
 8718SOL     OW27052   0.199   2.108   5.064
 8718SOL    HW127053   0.217   2.194   5.113
 8718SOL    HW227054   0.239   2.032   5.116
 8719SOL     OW27055   1.793   0.552   5.548
 8719SOL    HW127056   1.747   0.618   5.490
 8719SOL    HW227057   1.771   0.459   5.517
 8720SOL     OW27058   6.883   5.222   5.435
 8720SOL    HW127059   6.879   5.293   5.505
 8720SOL    HW227060   6.961   5.163   5.453
 8721SOL     OW27061   5.858   2.054   4.158
 8721SOL    HW127062   5.863   2.149   4.129
 8721SOL    HW227063   5.944   2.008   4.134
 8722SOL     OW27064   3.802   0.764   0.812
 8722SOL    HW127065   3.737   0.831   0.776
 8722SOL    HW227066   3.852   0.723   0.735
 8723SOL     OW27067   5.943   6.062   0.993
 8723SOL    HW127068   5.927   6.050   1.091
 8723SOL    HW227069   5.865   6.024   0.942
 8724SOL     OW27070   6.048   6.876   4.957
 8724SOL    HW127071   6.111   6.823   4.901
 8724SOL    HW227072   6.098   6.949   5.003
 8725SOL     OW27073   1.720   0.947   6.767
 8725SOL    HW127074   1.795   0.972   6.828
 8725SOL    HW227075   1.633   0.981   6.805
 8726SOL     OW27076   6.261   0.091   1.513
 8726SOL    HW127077   6.209   0.135   1.585
 8726SOL    HW227078   6.335   0.151   1.483
 8727SOL     OW27079   6.494   6.660   1.970
 8727SOL    HW127080   6.510   6.689   1.876
 8727SOL    HW227081   6.564   6.699   2.030
 8728SOL     OW27082   4.124   0.279   5.047
 8728SOL    HW127083   4.039   0.304   5.001
 8728SOL    HW227084   4.174   0.213   4.991
 8729SOL     OW27085   5.233   5.435   3.269
 8729SOL    HW127086   5.297   5.442   3.193
 8729SOL    HW227087   5.181   5.521   3.276
 8730SOL     OW27088   0.022   5.472   2.936
 8730SOL    HW127089   7.019   5.569   2.934
 8730SOL    HW227090   0.121   5.465   2.944
 8731SOL     OW27091   2.470   1.771   3.561
 8731SOL    HW127092   2.444   1.773   3.464
 8731SOL    HW227093   2.403   1.719   3.613
 8732SOL     OW27094   5.518   4.304   1.933
 8732SOL    HW127095   5.590   4.240   1.904
 8732SOL    HW227096   5.541   4.342   2.022
 8733SOL     OW27097   1.113   5.821   2.983
 8733SOL    HW127098   1.037   5.805   2.920
 8733SOL    HW227099   1.193   5.770   2.951
 8734SOL     OW27100   1.035   4.805   2.155
 8734SOL    HW127101   0.982   4.803   2.071
 8734SOL    HW227102   1.053   4.712   2.186
 8735SOL     OW27103   0.547   1.825   7.006
 8735SOL    HW127104   0.525   1.834   6.908
 8735SOL    HW227105   0.593   1.908   0.013
 8736SOL     OW27106   0.613   6.414   0.358
 8736SOL    HW127107   0.620   6.511   0.336
 8736SOL    HW227108   0.676   6.361   0.302
 8737SOL     OW27109   4.209   6.988   6.334
 8737SOL    HW127110   4.272   6.929   6.284
 8737SOL    HW227111   4.185   6.945   6.421
 8738SOL     OW27112   1.131   4.020   4.905
 8738SOL    HW127113   1.193   4.059   4.974
 8738SOL    HW227114   1.141   4.070   4.819
 8739SOL     OW27115   6.425   4.925   6.708
 8739SOL    HW127116   6.403   4.904   6.803
 8739SOL    HW227117   6.364   4.998   6.675
 8740SOL     OW27118   4.053   0.823   6.155
 8740SOL    HW127119   4.068   0.761   6.078
 8740SOL    HW227120   4.140   0.860   6.187
 8741SOL     OW27121   2.014   2.023   1.401
 8741SOL    HW127122   2.035   1.962   1.477
 8741SOL    HW227123   2.005   2.117   1.435
 8742SOL     OW27124   4.886   5.979   1.707
 8742SOL    HW127125   4.843   6.006   1.793
 8742SOL    HW227126   4.881   6.054   1.642
 8743SOL     OW27127   2.253   6.114   2.271
 8743SOL    HW127128   2.319   6.121   2.346
 8743SOL    HW227129   2.169   6.070   2.304
 8744SOL     OW27130   4.082   2.321   5.927
 8744SOL    HW127131   3.986   2.310   5.902
 8744SOL    HW227132   4.119   2.403   5.882
 8745SOL     OW27133   5.938   2.044   5.612
 8745SOL    HW127134   5.957   2.094   5.527
 8745SOL    HW227135   5.908   1.951   5.591
 8746SOL     OW27136   4.285   4.104   5.518
 8746SOL    HW127137   4.297   4.032   5.451
 8746SOL    HW227138   4.202   4.156   5.497
 8747SOL     OW27139   0.536   2.349   3.678
 8747SOL    HW127140   0.462   2.411   3.706
 8747SOL    HW227141   0.617   2.403   3.655
 8748SOL     OW27142   0.552   0.436   6.563
 8748SOL    HW127143   0.557   0.339   6.588
 8748SOL    HW227144   0.565   0.446   6.465
 8749SOL     OW27145   2.952   0.516   4.434
 8749SOL    HW127146   2.994   0.470   4.513
 8749SOL    HW227147   2.983   0.473   4.350
 8750SOL     OW27148   2.546   2.886   5.386
 8750SOL    HW127149   2.466   2.869   5.443
 8750SOL    HW227150   2.520   2.948   5.311
 8751SOL     OW27151   6.873   0.317   1.977
 8751SOL    HW127152   6.850   0.414   1.992
 8751SOL    HW227153   6.904   0.305   1.883
 8752SOL     OW27154   3.334   4.282   0.110
 8752SOL    HW127155   3.329   4.185   0.131
 8752SOL    HW227156   3.428   4.315   0.123
 8753SOL     OW27157   4.910   1.233   4.771
 8753SOL    HW127158   4.979   1.222   4.699
 8753SOL    HW227159   4.906   1.329   4.800
 8754SOL     OW27160   0.463   1.966   5.802
 8754SOL    HW127161   0.559   1.990   5.812
 8754SOL    HW227162   0.427   1.935   5.890
 8755SOL     OW27163   2.899   1.601   6.402
 8755SOL    HW127164   2.861   1.652   6.325
 8755SOL    HW227165   2.833   1.601   6.477
 8756SOL     OW27166   2.325   2.809   3.265
 8756SOL    HW127167   2.348   2.880   3.332
 8756SOL    HW227168   2.337   2.719   3.306
 8757SOL     OW27169   5.834   6.420   5.941
 8757SOL    HW127170   5.862   6.516   5.953
 8757SOL    HW227171   5.897   6.375   5.879
 8758SOL     OW27172   5.301   6.166   1.986
 8758SOL    HW127173   5.347   6.153   1.898
 8758SOL    HW227174   5.203   6.147   1.975
 8759SOL     OW27175   4.633   1.462   6.470
 8759SOL    HW127176   4.547   1.431   6.511
 8759SOL    HW227177   4.665   1.543   6.519
 8760SOL     OW27178   1.879   1.672   4.386
 8760SOL    HW127179   1.858   1.770   4.397
 8760SOL    HW227180   1.942   1.661   4.309
 8761SOL     OW27181   5.204   0.720   1.084
 8761SOL    HW127182   5.170   0.740   0.992
 8761SOL    HW227183   5.163   0.784   1.149
 8762SOL     OW27184   1.131   3.284   2.919
 8762SOL    HW127185   1.141   3.227   2.837
 8762SOL    HW227186   1.219   3.324   2.943
 8763SOL     OW27187   6.438   6.074   4.874
 8763SOL    HW127188   6.383   6.131   4.935
 8763SOL    HW227189   6.463   6.126   4.793
 8764SOL     OW27190   5.399   1.826   3.654
 8764SOL    HW127191   5.443   1.763   3.718
 8764SOL    HW227192   5.464   1.896   3.625
 8765SOL     OW27193   5.863   6.633   4.737
 8765SOL    HW127194   5.777   6.641   4.686
 8765SOL    HW227195   5.925   6.707   4.711
 8766SOL     OW27196   3.520   4.904   3.782
 8766SOL    HW127197   3.569   4.922   3.868
 8766SOL    HW227198   3.423   4.892   3.800
 8767SOL     OW27199   4.460   0.381   2.586
 8767SOL    HW127200   4.459   0.314   2.661
 8767SOL    HW227201   4.456   0.473   2.624
 8768SOL     OW27202   1.606   3.051   0.101
 8768SOL    HW127203   1.528   2.988   0.094
 8768SOL    HW227204   1.612   3.105   0.017
 8769SOL     OW27205   0.486   0.253   5.061
 8769SOL    HW127206   0.398   0.256   5.015
 8769SOL    HW227207   0.498   0.335   5.116
 8770SOL     OW27208   4.822   4.174   1.984
 8770SOL    HW127209   4.732   4.174   1.940
 8770SOL    HW227210   4.812   4.203   2.080
 8771SOL     OW27211   1.727   1.695   6.120
 8771SOL    HW127212   1.744   1.750   6.039
 8771SOL    HW227213   1.815   1.666   6.159
 8772SOL     OW27214   6.074   0.798   6.782
 8772SOL    HW127215   5.998   0.809   6.845
 8772SOL    HW227216   6.114   0.707   6.792
 8773SOL     OW27217   4.158   2.238   3.602
 8773SOL    HW127218   4.085   2.203   3.660
 8773SOL    HW227219   4.210   2.306   3.653
 8774SOL     OW27220   1.050   1.334   0.372
 8774SOL    HW127221   1.002   1.347   0.458
 8774SOL    HW227222   1.109   1.413   0.354
 8775SOL     OW27223   5.894   6.927   3.735
 8775SOL    HW127224   5.807   6.883   3.712
 8775SOL    HW227225   5.926   6.979   3.656
 8776SOL     OW27226   3.893   3.040   4.835
 8776SOL    HW127227   3.834   2.962   4.855
 8776SOL    HW227228   3.838   3.117   4.803
 8777SOL     OW27229   0.084   4.986   1.418
 8777SOL    HW127230   0.101   4.987   1.319
 8777SOL    HW227231   7.016   5.023   1.437
 8778SOL     OW27232   0.156   1.839   3.337
 8778SOL    HW127233   0.219   1.914   3.358
 8778SOL    HW227234   0.156   1.774   3.413
 8779SOL     OW27235   1.669   4.739   2.330
 8779SOL    HW127236   1.646   4.666   2.266
 8779SOL    HW227237   1.724   4.809   2.284
 8780SOL     OW27238   1.519   5.912   3.548
 8780SOL    HW127239   1.422   5.933   3.563
 8780SOL    HW227240   1.533   5.887   3.452
 8781SOL     OW27241   6.856   0.948   3.058
 8781SOL    HW127242   6.885   0.857   3.029
 8781SOL    HW227243   6.780   0.940   3.122
 8782SOL     OW27244   5.788   1.226   1.846
 8782SOL    HW127245   5.708   1.225   1.906
 8782SOL    HW227246   5.824   1.319   1.839
 8783SOL     OW27247   6.286   4.069   3.755
 8783SOL    HW127248   6.234   4.099   3.675
 8783SOL    HW227249   6.348   4.142   3.784
 8784SOL     OW27250   5.349   4.923   5.204
 8784SOL    HW127251   5.323   4.994   5.138
 8784SOL    HW227252   5.420   4.959   5.265
 8785SOL     OW27253   5.205   4.090   0.139
 8785SOL    HW127254   5.252   4.079   0.227
 8785SOL    HW227255   5.108   4.065   0.149
 8786SOL     OW27256   1.784   6.293   0.217
 8786SOL    HW127257   1.866   6.335   0.254
 8786SOL    HW227258   1.729   6.255   0.291
 8787SOL     OW27259   1.275   3.255   2.285
 8787SOL    HW127260   1.247   3.347   2.313
 8787SOL    HW227261   1.262   3.245   2.186
 8788SOL     OW27262   6.677   2.133   5.532
 8788SOL    HW127263   6.681   2.132   5.432
 8788SOL    HW227264   6.762   2.173   5.568
 8789SOL     OW27265   6.286   0.343   6.531
 8789SOL    HW127266   6.292   0.290   6.616
 8789SOL    HW227267   6.300   0.283   6.453
 8790SOL     OW27268   6.949   1.438   6.805
 8790SOL    HW127269   7.012   1.507   6.769
 8790SOL    HW227270   6.951   1.440   6.905
 8791SOL     OW27271   5.129   6.721   6.000
 8791SOL    HW127272   5.177   6.806   5.978
 8791SOL    HW227273   5.044   6.743   6.047
 8792SOL     OW27274   3.998   6.974   3.362
 8792SOL    HW127275   4.012   6.964   3.460
 8792SOL    HW227276   3.955   6.892   3.325
 8793SOL     OW27277   2.250   5.802   4.376
 8793SOL    HW127278   2.256   5.738   4.453
 8793SOL    HW227279   2.341   5.816   4.337
 8794SOL     OW27280   3.182   6.831   3.082
 8794SOL    HW127281   3.109   6.858   3.145
 8794SOL    HW227282   3.143   6.816   2.991
 8795SOL     OW27283   1.699   6.527   5.228
 8795SOL    HW127284   1.756   6.535   5.146
 8795SOL    HW227285   1.667   6.433   5.238
 8796SOL     OW27286   4.663   1.835   5.509
 8796SOL    HW127287   4.718   1.904   5.462
 8796SOL    HW227288   4.699   1.822   5.602
 8797SOL     OW27289   1.849   6.299   6.352
 8797SOL    HW127290   1.804   6.246   6.280
 8797SOL    HW227291   1.918   6.358   6.310
 8798SOL     OW27292   5.515   4.139   5.446
 8798SOL    HW127293   5.427   4.170   5.481
 8798SOL    HW227294   5.523   4.165   5.350
 8799SOL     OW27295   2.336   4.195   3.568
 8799SOL    HW127296   2.428   4.234   3.562
 8799SOL    HW227297   2.273   4.251   3.515
 8800SOL     OW27298   4.826   3.954   5.653
 8800SOL    HW127299   4.845   3.999   5.566
 8800SOL    HW227300   4.731   3.970   5.680
 8801SOL     OW27301   2.360   1.349   4.149
 8801SOL    HW127302   2.422   1.296   4.207
 8801SOL    HW227303   2.340   1.437   4.192
 8802SOL     OW27304   1.030   6.692   1.249
 8802SOL    HW127305   1.129   6.692   1.240
 8802SOL    HW227306   0.989   6.704   1.158
 8803SOL     OW27307   1.926   5.315   0.031
 8803SOL    HW127308   1.871   5.287   6.976
 8803SOL    HW227309   2.022   5.325   0.003
 8804SOL     OW27310   4.158   0.935   1.637
 8804SOL    HW127311   4.062   0.911   1.651
 8804SOL    HW227312   4.165   1.028   1.601
 8805SOL     OW27313   1.621   0.656   3.613
 8805SOL    HW127314   1.614   0.675   3.710
 8805SOL    HW227315   1.544   0.697   3.564
 8806SOL     OW27316   1.883   5.405   0.691
 8806SOL    HW127317   1.889   5.305   0.702
 8806SOL    HW227318   1.804   5.440   0.742
 8807SOL     OW27319   6.022   5.393   5.982
 8807SOL    HW127320   5.926   5.371   5.998
 8807SOL    HW227321   6.046   5.477   6.030
 8808SOL     OW27322   5.724   1.491   0.866
 8808SOL    HW127323   5.650   1.515   0.928
 8808SOL    HW227324   5.716   1.544   0.781
 8809SOL     OW27325   5.458   3.353   1.594
 8809SOL    HW127326   5.380   3.415   1.581
 8809SOL    HW227327   5.425   3.264   1.626
 8810SOL     OW27328   5.728   1.446   4.404
 8810SOL    HW127329   5.788   1.516   4.365
 8810SOL    HW227330   5.657   1.489   4.459
 8811SOL     OW27331   2.390   1.679   4.177
 8811SOL    HW127332   2.377   1.776   4.201
 8811SOL    HW227333   2.349   1.622   4.248
 8812SOL     OW27334   0.780   1.092   0.254
 8812SOL    HW127335   0.802   1.071   0.159
 8812SOL    HW227336   0.856   1.063   0.312
 8813SOL     OW27337   0.867   5.443   1.437
 8813SOL    HW127338   0.925   5.509   1.390
 8813SOL    HW227339   0.921   5.395   1.507
 8814SOL     OW27340   0.218   0.417   6.910
 8814SOL    HW127341   0.184   0.326   6.888
 8814SOL    HW227342   0.178   0.448   6.996
 8815SOL     OW27343   0.108   5.573   1.760
 8815SOL    HW127344   0.052   5.615   1.690
 8815SOL    HW227345   0.133   5.642   1.829
 8816SOL     OW27346   0.950   6.612   1.002
 8816SOL    HW127347   1.011   6.539   1.035
 8816SOL    HW227348   0.862   6.606   1.049
 8817SOL     OW27349   0.992   6.397   5.566
 8817SOL    HW127350   0.999   6.460   5.488
 8817SOL    HW227351   1.056   6.321   5.553
 8818SOL     OW27352   0.233   3.889   3.440
 8818SOL    HW127353   0.250   3.873   3.538
 8818SOL    HW227354   0.238   3.987   3.421
 8819SOL     OW27355   4.202   6.013   4.323
 8819SOL    HW127356   4.175   6.064   4.242
 8819SOL    HW227357   4.174   6.064   4.405
 8820SOL     OW27358   1.986   2.850   4.517
 8820SOL    HW127359   1.954   2.818   4.427
 8820SOL    HW227360   2.081   2.824   4.530
 8821SOL     OW27361   1.847   0.112   6.517
 8821SOL    HW127362   1.887   0.024   6.491
 8821SOL    HW227363   1.881   0.184   6.457
 8822SOL     OW27364   0.552   0.889   2.843
 8822SOL    HW127365   0.573   0.849   2.754
 8822SOL    HW227366   0.635   0.931   2.881
 8823SOL     OW27367   2.213   0.235   1.069
 8823SOL    HW127368   2.228   0.330   1.044
 8823SOL    HW227369   2.290   0.201   1.124
 8824SOL     OW27370   2.441   3.986   0.828
 8824SOL    HW127371   2.526   3.945   0.795
 8824SOL    HW227372   2.430   4.077   0.788
 8825SOL     OW27373   1.678   1.177   2.249
 8825SOL    HW127374   1.657   1.082   2.227
 8825SOL    HW227375   1.773   1.197   2.224
 8826SOL     OW27376   6.147   1.856   0.229
 8826SOL    HW127377   6.062   1.875   0.181
 8826SOL    HW227378   6.178   1.939   0.275
 8827SOL     OW27379   2.929   0.854   3.360
 8827SOL    HW127380   2.853   0.861   3.425
 8827SOL    HW227381   2.894   0.834   3.269
 8828SOL     OW27382   3.733   5.564   3.680
 8828SOL    HW127383   3.781   5.629   3.621
 8828SOL    HW227384   3.723   5.477   3.632
 8829SOL     OW27385   0.376   3.572   0.051
 8829SOL    HW127386   0.299   3.510   0.035
 8829SOL    HW227387   0.448   3.524   0.101
 8830SOL     OW27388   6.665   1.054   6.913
 8830SOL    HW127389   6.686   1.025   6.819
 8830SOL    HW227390   6.626   1.146   6.911
 8831SOL     OW27391   5.607   0.989   3.527
 8831SOL    HW127392   5.601   0.894   3.557
 8831SOL    HW227393   5.622   1.048   3.606
 8832SOL     OW27394   0.245   6.947   1.876
 8832SOL    HW127395   0.177   6.971   1.806
 8832SOL    HW227396   0.271   6.851   1.865
 8833SOL     OW27397   1.494   5.582   5.047
 8833SOL    HW127398   1.515   5.634   5.130
 8833SOL    HW227399   1.576   5.533   5.017
 8834SOL     OW27400   5.567   3.334   4.689
 8834SOL    HW127401   5.490   3.287   4.647
 8834SOL    HW227402   5.632   3.361   4.618
 8835SOL     OW27403   6.490   0.034   5.570
 8835SOL    HW127404   6.401   0.057   5.607
 8835SOL    HW227405   6.510   0.092   5.491
 8836SOL     OW27406   4.412   0.588   0.575
 8836SOL    HW127407   4.405   0.657   0.647
 8836SOL    HW227408   4.388   0.629   0.487
 8837SOL     OW27409   1.141   0.673   1.971
 8837SOL    HW127410   1.093   0.598   1.926
 8837SOL    HW227411   1.205   0.635   2.038
 8838SOL     OW27412   2.470   5.213   3.749
 8838SOL    HW127413   2.544   5.149   3.729
 8838SOL    HW227414   2.396   5.164   3.797
 8839SOL     OW27415   6.184   6.088   3.062
 8839SOL    HW127416   6.240   6.094   3.144
 8839SOL    HW227417   6.108   6.024   3.078
 8840SOL     OW27418   5.733   2.070   2.126
 8840SOL    HW127419   5.757   2.150   2.070
 8840SOL    HW227420   5.817   2.023   2.155
 8841SOL     OW27421   1.353   1.130   4.883
 8841SOL    HW127422   1.385   1.124   4.788
 8841SOL    HW227423   1.413   1.075   4.941
 8842SOL     OW27424   3.100   3.319   1.187
 8842SOL    HW127425   3.168   3.336   1.259
 8842SOL    HW227426   3.026   3.386   1.194
 8843SOL     OW27427   1.047   3.185   5.266
 8843SOL    HW127428   1.003   3.131   5.339
 8843SOL    HW227429   0.981   3.199   5.192
 8844SOL     OW27430   5.702   1.208   6.195
 8844SOL    HW127431   5.639   1.285   6.200
 8844SOL    HW227432   5.770   1.215   6.268
 8845SOL     OW27433   4.329   4.182   6.915
 8845SOL    HW127434   4.412   4.146   6.959
 8845SOL    HW227435   4.261   4.109   6.908
 8846SOL     OW27436   2.124   5.142   3.473
 8846SOL    HW127437   2.172   5.206   3.533
 8846SOL    HW227438   2.046   5.189   3.431
 8847SOL     OW27439   2.628   0.558   2.573
 8847SOL    HW127440   2.676   0.533   2.488
 8847SOL    HW227441   2.684   0.623   2.624
 8848SOL     OW27442   2.428   1.143   1.362
 8848SOL    HW127443   2.397   1.199   1.439
 8848SOL    HW227444   2.420   1.195   1.277
 8849SOL     OW27445   1.868   5.818   2.218
 8849SOL    HW127446   1.959   5.813   2.178
 8849SOL    HW227447   1.801   5.837   2.146
 8850SOL     OW27448   2.599   1.770   6.775
 8850SOL    HW127449   2.618   1.867   6.787
 8850SOL    HW227450   2.514   1.746   6.821
 8851SOL     OW27451   1.602   4.803   2.575
 8851SOL    HW127452   1.601   4.897   2.608
 8851SOL    HW227453   1.617   4.802   2.476
 8852SOL     OW27454   1.123   1.913   5.361
 8852SOL    HW127455   1.184   1.924   5.282
 8852SOL    HW227456   1.115   2.000   5.409
 8853SOL     OW27457   2.859   0.732   1.445
 8853SOL    HW127458   2.855   0.804   1.376
 8853SOL    HW227459   2.771   0.684   1.448
 8854SOL     OW27460   1.730   2.635   5.060
 8854SOL    HW127461   1.711   2.727   5.096
 8854SOL    HW227462   1.752   2.642   4.963
 8855SOL     OW27463   6.345   5.473   1.434
 8855SOL    HW127464   6.383   5.544   1.374
 8855SOL    HW227465   6.299   5.404   1.379
 8856SOL     OW27466   6.289   5.721   5.912
 8856SOL    HW127467   6.221   5.746   5.981
 8856SOL    HW227468   6.248   5.656   5.847
 8857SOL     OW27469   6.405   1.498   5.522
 8857SOL    HW127470   6.417   1.587   5.477
 8857SOL    HW227471   6.309   1.470   5.516
 8858SOL     OW27472   0.252   4.799   5.796
 8858SOL    HW127473   0.154   4.780   5.799
 8858SOL    HW227474   0.303   4.714   5.785
 8859SOL     OW27475   0.846   0.697   3.708
 8859SOL    HW127476   0.790   0.696   3.791
 8859SOL    HW227477   0.786   0.695   3.628
 8860SOL     OW27478   0.002   2.711   1.185
 8860SOL    HW127479   0.089   2.667   1.208
 8860SOL    HW227480   7.019   2.720   1.086
 8861SOL     OW27481   3.941   1.274   0.958
 8861SOL    HW127482   3.857   1.265   1.013
 8861SOL    HW227483   3.962   1.371   0.945
 8862SOL     OW27484   4.640   5.986   4.708
 8862SOL    HW127485   4.721   6.028   4.665
 8862SOL    HW227486   4.558   6.013   4.657
 8863SOL     OW27487   2.194   4.442   3.695
 8863SOL    HW127488   2.246   4.459   3.611
 8863SOL    HW227489   2.243   4.377   3.752
 8864SOL     OW27490   5.842   3.169   6.358
 8864SOL    HW127491   5.875   3.117   6.436
 8864SOL    HW227492   5.832   3.265   6.383
 8865SOL     OW27493   3.231   1.644   6.144
 8865SOL    HW127494   3.259   1.550   6.163
 8865SOL    HW227495   3.140   1.644   6.103
 8866SOL     OW27496   5.817   6.185   2.549
 8866SOL    HW127497   5.871   6.125   2.609
 8866SOL    HW227498   5.860   6.275   2.546
 8867SOL     OW27499   6.150   3.471   2.721
 8867SOL    HW127500   6.191   3.525   2.647
 8867SOL    HW227501   6.069   3.518   2.756
 8868SOL     OW27502   0.087   3.297   2.901
 8868SOL    HW127503   0.119   3.384   2.864
 8868SOL    HW227504   0.009   3.313   2.962
 8869SOL     OW27505   3.682   5.368   4.759
 8869SOL    HW127506   3.597   5.347   4.807
 8869SOL    HW227507   3.667   5.359   4.660
 8870SOL     OW27508   1.637   6.872   1.814
 8870SOL    HW127509   1.669   6.831   1.728
 8870SOL    HW227510   1.705   6.937   1.848
 8871SOL     OW27511   1.911   0.583   2.954
 8871SOL    HW127512   1.961   0.519   3.012
 8871SOL    HW227513   1.955   0.588   2.864
 8872SOL     OW27514   0.593   4.251   6.175
 8872SOL    HW127515   0.688   4.253   6.144
 8872SOL    HW227516   0.588   4.283   6.269
 8873SOL     OW27517   1.707   0.264   2.148
 8873SOL    HW127518   1.706   0.306   2.057
 8873SOL    HW227519   1.634   0.304   2.204
 8874SOL     OW27520   1.797   5.135   0.654
 8874SOL    HW127521   1.826   5.132   0.559
 8874SOL    HW227522   1.701   5.163   0.659
 8875SOL     OW27523   0.012   3.175   3.570
 8875SOL    HW127524   6.961   3.154   3.507
 8875SOL    HW227525   0.024   3.100   3.634
 8876SOL     OW27526   3.272   0.393   6.062
 8876SOL    HW127527   3.319   0.331   6.000
 8876SOL    HW227528   3.229   0.341   6.136
 8877SOL     OW27529   1.033   3.735   1.628
 8877SOL    HW127530   1.039   3.636   1.636
 8877SOL    HW227531   1.098   3.778   1.692
 8878SOL     OW27532   3.982   4.537   0.692
 8878SOL    HW127533   3.946   4.457   0.738
 8878SOL    HW227534   3.907   4.592   0.656
 8879SOL     OW27535   6.628   4.864   2.859
 8879SOL    HW127536   6.691   4.852   2.936
 8879SOL    HW227537   6.568   4.785   2.852
 8880SOL     OW27538   4.504   6.536   3.871
 8880SOL    HW127539   4.576   6.589   3.826
 8880SOL    HW227540   4.416   6.559   3.831
 8881SOL     OW27541   4.276   5.651   3.814
 8881SOL    HW127542   4.324   5.577   3.766
 8881SOL    HW227543   4.344   5.712   3.857
 8882SOL     OW27544   4.160   0.898   0.542
 8882SOL    HW127545   4.180   0.980   0.488
 8882SOL    HW227546   4.220   0.894   0.622
 8883SOL     OW27547   0.075   6.695   6.215
 8883SOL    HW127548   0.140   6.667   6.286
 8883SOL    HW227549   7.006   6.698   6.253
 8884SOL     OW27550   5.897   3.905   4.613
 8884SOL    HW127551   5.817   3.934   4.665
 8884SOL    HW227552   5.966   3.869   4.676
 8885SOL     OW27553   5.580   5.322   0.261
 8885SOL    HW127554   5.614   5.395   0.202
 8885SOL    HW227555   5.638   5.315   0.342
 8886SOL     OW27556   3.635   5.147   6.980
 8886SOL    HW127557   3.543   5.113   7.003
 8886SOL    HW227558   3.679   5.084   6.916
 8887SOL     OW27559   4.547   0.388   0.417
 8887SOL    HW127560   4.486   0.373   0.339
 8887SOL    HW227561   4.524   0.475   0.461
 8888SOL     OW27562   2.258   1.622   3.670
 8888SOL    HW127563   2.246   1.547   3.604
 8888SOL    HW227564   2.258   1.585   3.763
 8889SOL     OW27565   6.802   6.646   5.974
 8889SOL    HW127566   6.754   6.711   6.033
 8889SOL    HW227567   6.758   6.556   5.982
 8890SOL     OW27568   0.093   6.705   0.299
 8890SOL    HW127569   0.163   6.774   0.281
 8890SOL    HW227570   0.003   6.741   0.271
 8891SOL     OW27571   5.536   4.446   6.640
 8891SOL    HW127572   5.529   4.348   6.660
 8891SOL    HW227573   5.626   4.479   6.666
 8892SOL     OW27574   3.230   4.912   3.772
 8892SOL    HW127575   3.201   4.885   3.681
 8892SOL    HW227576   3.256   5.009   3.772
 8893SOL     OW27577   1.455   5.249   4.548
 8893SOL    HW127578   1.386   5.232   4.618
 8893SOL    HW227579   1.429   5.205   4.463
 8894SOL     OW27580   4.458   2.538   0.523
 8894SOL    HW127581   4.518   2.474   0.571
 8894SOL    HW227582   4.368   2.497   0.511
 8895SOL     OW27583   0.907   3.615   0.843
 8895SOL    HW127584   0.885   3.706   0.807
 8895SOL    HW227585   0.918   3.620   0.942
 8896SOL     OW27586   0.523   2.264   4.308
 8896SOL    HW127587   0.530   2.165   4.317
 8896SOL    HW227588   0.614   2.303   4.299
 8897SOL     OW27589   1.481   3.861   3.592
 8897SOL    HW127590   1.449   3.846   3.498
 8897SOL    HW227591   1.559   3.923   3.590
 8898SOL     OW27592   4.862   3.331   2.789
 8898SOL    HW127593   4.844   3.232   2.794
 8898SOL    HW227594   4.859   3.360   2.693
 8899SOL     OW27595   0.048   4.574   6.426
 8899SOL    HW127596   0.020   4.551   6.520
 8899SOL    HW227597   0.030   4.496   6.366
 8900SOL     OW27598   5.937   1.850   3.302
 8900SOL    HW127599   6.035   1.863   3.316
 8900SOL    HW227600   5.887   1.921   3.351
 8901SOL     OW27601   0.483   2.261   3.394
 8901SOL    HW127602   0.542   2.180   3.395
 8901SOL    HW227603   0.500   2.316   3.476
 8902SOL     OW27604   1.681   4.337   0.317
 8902SOL    HW127605   1.651   4.426   0.282
 8902SOL    HW227606   1.698   4.343   0.415
 8903SOL     OW27607   1.698   1.577   4.785
 8903SOL    HW127608   1.637   1.614   4.714
 8903SOL    HW227609   1.644   1.524   4.850
 8904SOL     OW27610   0.475   1.324   2.357
 8904SOL    HW127611   0.519   1.409   2.385
 8904SOL    HW227612   0.501   1.303   2.263
 8905SOL     OW27613   1.758   3.421   2.268
 8905SOL    HW127614   1.825   3.389   2.335
 8905SOL    HW227615   1.792   3.504   2.223
 8906SOL     OW27616   0.442   0.060   0.675
 8906SOL    HW127617   0.536   0.094   0.681
 8906SOL    HW227618   0.412   0.029   0.766
 8907SOL     OW27619   3.384   2.599   5.314
 8907SOL    HW127620   3.350   2.517   5.268
 8907SOL    HW227621   3.314   2.671   5.307
 8908SOL     OW27622   1.519   5.190   0.602
 8908SOL    HW127623   1.439   5.236   0.643
 8908SOL    HW227624   1.563   5.251   0.537
 8909SOL     OW27625   2.511   1.462   6.472
 8909SOL    HW127626   2.579   1.524   6.512
 8909SOL    HW227627   2.422   1.507   6.469
 8910SOL     OW27628   0.810   2.461   4.906
 8910SOL    HW127629   0.786   2.398   4.832
 8910SOL    HW227630   0.851   2.543   4.867
 8911SOL     OW27631   5.241   1.635   4.170
 8911SOL    HW127632   5.143   1.652   4.167
 8911SOL    HW227633   5.272   1.601   4.081
 8912SOL     OW27634   3.795   3.815   5.238
 8912SOL    HW127635   3.807   3.865   5.152
 8912SOL    HW227636   3.752   3.727   5.220
 8913SOL     OW27637   5.338   5.035   0.262
 8913SOL    HW127638   5.341   5.009   0.166
 8913SOL    HW227639   5.351   5.134   0.270
 8914SOL     OW27640   5.209   6.508   4.968
 8914SOL    HW127641   5.288   6.493   5.027
 8914SOL    HW227642   5.220   6.594   4.918
 8915SOL     OW27643   0.949   1.277   3.980
 8915SOL    HW127644   0.874   1.293   4.045
 8915SOL    HW227645   0.924   1.203   3.918
 8916SOL     OW27646   5.884   1.501   6.363
 8916SOL    HW127647   5.863   1.403   6.364
 8916SOL    HW227648   5.966   1.519   6.418
 8917SOL     OW27649   6.379   1.805   0.515
 8917SOL    HW127650   6.289   1.779   0.480
 8917SOL    HW227651   6.385   1.783   0.612
 8918SOL     OW27652   1.739   5.494   1.416
 8918SOL    HW127653   1.651   5.539   1.399
 8918SOL    HW227654   1.723   5.402   1.450
 8919SOL     OW27655   5.426   4.234   6.395
 8919SOL    HW127656   5.519   4.257   6.425
 8919SOL    HW227657   5.371   4.206   6.474
 8920SOL     OW27658   6.947   1.185   6.447
 8920SOL    HW127659   6.905   1.189   6.538
 8920SOL    HW227660   6.915   1.103   6.400
 8921SOL     OW27661   1.204   3.090   1.080
 8921SOL    HW127662   1.196   2.993   1.057
 8921SOL    HW227663   1.232   3.100   1.175
 8922SOL     OW27664   3.544   6.415   3.317
 8922SOL    HW127665   3.627   6.441   3.366
 8922SOL    HW227666   3.503   6.497   3.275
 8923SOL     OW27667   1.464   1.991   5.591
 8923SOL    HW127668   1.381   1.940   5.610
 8923SOL    HW227669   1.494   1.973   5.498
 8924SOL     OW27670   5.387   5.524   4.495
 8924SOL    HW127671   5.348   5.560   4.410
 8924SOL    HW227672   5.486   5.513   4.484
 8925SOL     OW27673   1.073   0.956   2.758
 8925SOL    HW127674   1.068   0.962   2.658
 8925SOL    HW227675   1.142   1.020   2.792
 8926SOL     OW27676   5.933   3.447   5.849
 8926SOL    HW127677   5.841   3.411   5.863
 8926SOL    HW227678   5.928   3.532   5.795
 8927SOL     OW27679   6.648   2.554   5.616
 8927SOL    HW127680   6.565   2.514   5.577
 8927SOL    HW227681   6.721   2.552   5.548
 8928SOL     OW27682   2.734   0.294   5.617
 8928SOL    HW127683   2.691   0.307   5.527
 8928SOL    HW227684   2.706   0.206   5.655
 8929SOL     OW27685   6.226   2.592   4.929
 8929SOL    HW127686   6.175   2.678   4.923
 8929SOL    HW227687   6.164   2.519   4.959
 8930SOL     OW27688   0.973   3.841   2.980
 8930SOL    HW127689   1.040   3.888   2.924
 8930SOL    HW227690   0.991   3.742   2.978
 8931SOL     OW27691   3.586   3.119   1.866
 8931SOL    HW127692   3.588   3.025   1.831
 8931SOL    HW227693   3.524   3.124   1.944
 8932SOL     OW27694   0.529   1.870   3.195
 8932SOL    HW127695   0.496   1.903   3.283
 8932SOL    HW227696   0.538   1.947   3.132
 8933SOL     OW27697   3.543   2.464   6.725
 8933SOL    HW127698   3.587   2.528   6.788
 8933SOL    HW227699   3.556   2.495   6.631
 8934SOL     OW27700   3.581   5.722   3.899
 8934SOL    HW127701   3.600   5.689   3.806
 8934SOL    HW227702   3.524   5.655   3.946
 8935SOL     OW27703   6.925   5.522   0.789
 8935SOL    HW127704   6.985   5.569   0.854
 8935SOL    HW227705   6.847   5.580   0.768
 8936SOL     OW27706   1.622   3.380   0.570
 8936SOL    HW127707   1.665   3.320   0.503
 8936SOL    HW227708   1.584   3.460   0.524
 8937SOL     OW27709   0.410   6.630   5.026
 8937SOL    HW127710   0.339   6.681   4.977
 8937SOL    HW227711   0.427   6.543   4.978
 8938SOL     OW27712   6.858   5.314   1.330
 8938SOL    HW127713   6.820   5.222   1.340
 8938SOL    HW227714   6.942   5.323   1.383
 8939SOL     OW27715   5.118   2.120   4.750
 8939SOL    HW127716   5.024   2.101   4.778
 8939SOL    HW227717   5.179   2.048   4.782
 8940SOL     OW27718   6.965   0.692   4.205
 8940SOL    HW127719   6.908   0.644   4.138
 8940SOL    HW227720   0.005   0.752   4.157
 8941SOL     OW27721   5.707   2.212   5.694
 8941SOL    HW127722   5.752   2.277   5.756
 8941SOL    HW227723   5.776   2.152   5.654
 8942SOL     OW27724   6.888   2.951   5.479
 8942SOL    HW127725   6.854   2.950   5.385
 8942SOL    HW227726   6.970   3.008   5.484
 8943SOL     OW27727   5.342   4.127   0.378
 8943SOL    HW127728   5.336   4.094   0.473
 8943SOL    HW227729   5.288   4.211   0.369
 8944SOL     OW27730   5.162   5.492   5.760
 8944SOL    HW127731   5.075   5.445   5.745
 8944SOL    HW227732   5.146   5.576   5.812
 8945SOL     OW27733   2.197   0.507   4.592
 8945SOL    HW127734   2.248   0.421   4.584
 8945SOL    HW227735   2.100   0.491   4.574
 8946SOL     OW27736   3.375   2.075   5.080
 8946SOL    HW127737   3.335   2.166   5.088
 8946SOL    HW227738   3.371   2.029   5.169
 8947SOL     OW27739   2.054   3.416   5.609
 8947SOL    HW127740   1.957   3.422   5.583
 8947SOL    HW227741   2.108   3.392   5.529
 8948SOL     OW27742   5.598   5.085   3.612
 8948SOL    HW127743   5.693   5.065   3.637
 8948SOL    HW227744   5.596   5.163   3.550
 8949SOL     OW27745   1.739   0.181   6.758
 8949SOL    HW127746   1.727   0.280   6.754
 8949SOL    HW227747   1.781   0.149   6.673
 8950SOL     OW27748   4.528   2.991   5.519
 8950SOL    HW127749   4.521   3.073   5.463
 8950SOL    HW227750   4.568   2.916   5.465
 8951SOL     OW27751   1.624   2.477   5.451
 8951SOL    HW127752   1.634   2.448   5.356
 8951SOL    HW227753   1.541   2.438   5.490
 8952SOL     OW27754   1.046   1.207   2.322
 8952SOL    HW127755   1.060   1.227   2.225
 8952SOL    HW227756   1.083   1.281   2.377
 8953SOL     OW27757   1.254   3.721   0.081
 8953SOL    HW127758   1.300   3.777   0.012
 8953SOL    HW227759   1.263   3.765   0.171
 8954SOL     OW27760   6.955   5.998   5.427
 8954SOL    HW127761   6.921   6.056   5.354
 8954SOL    HW227762   0.021   6.031   5.458
 8955SOL     OW27763   6.733   4.118   3.028
 8955SOL    HW127764   6.645   4.081   3.056
 8955SOL    HW227765   6.798   4.109   3.103
 8956SOL     OW27766   0.200   1.191   6.532
 8956SOL    HW127767   0.103   1.203   6.511
 8956SOL    HW227768   0.209   1.134   6.614
 8957SOL     OW27769   3.212   4.785   1.929
 8957SOL    HW127770   3.213   4.728   2.012
 8957SOL    HW227771   3.123   4.778   1.885
 8958SOL     OW27772   0.649   6.916   4.144
 8958SOL    HW127773   0.569   6.899   4.086
 8958SOL    HW227774   0.726   6.863   4.111
 8959SOL     OW27775   1.277   4.950   0.866
 8959SOL    HW127776   1.191   4.974   0.911
 8959SOL    HW227777   1.353   4.986   0.919
 8960SOL     OW27778   4.181   5.323   2.834
 8960SOL    HW127779   4.204   5.353   2.927
 8960SOL    HW227780   4.236   5.375   2.768
 8961SOL     OW27781   1.511   1.704   4.630
 8961SOL    HW127782   1.417   1.712   4.663
 8961SOL    HW227783   1.511   1.684   4.532
 8962SOL     OW27784   5.787   6.831   2.559
 8962SOL    HW127785   5.766   6.905   2.623
 8962SOL    HW227786   5.711   6.766   2.556
 8963SOL     OW27787   4.852   6.576   3.999
 8963SOL    HW127788   4.932   6.624   4.036
 8963SOL    HW227789   4.792   6.549   4.074
 8964SOL     OW27790   5.554   4.672   2.366
 8964SOL    HW127791   5.652   4.676   2.385
 8964SOL    HW227792   5.530   4.742   2.299
 8965SOL     OW27793   1.597   5.113   1.289
 8965SOL    HW127794   1.628   5.194   1.239
 8965SOL    HW227795   1.670   5.044   1.290
 8966SOL     OW27796   1.736   3.021   5.920
 8966SOL    HW127797   1.815   3.079   5.898
 8966SOL    HW227798   1.737   3.001   6.018
 8967SOL     OW27799   3.656   6.730   1.731
 8967SOL    HW127800   3.737   6.685   1.693
 8967SOL    HW227801   3.609   6.781   1.659
 8968SOL     OW27802   4.734   5.280   2.690
 8968SOL    HW127803   4.659   5.331   2.733
 8968SOL    HW227804   4.815   5.286   2.748
 8969SOL     OW27805   5.912   0.915   3.629
 8969SOL    HW127806   6.002   0.873   3.614
 8969SOL    HW227807   5.906   1.001   3.580
 8970SOL     OW27808   3.133   2.802   1.075
 8970SOL    HW127809   3.074   2.741   1.127
 8970SOL    HW227810   3.097   2.896   1.081
 8971SOL     OW27811   3.633   6.135   2.474
 8971SOL    HW127812   3.538   6.126   2.447
 8971SOL    HW227813   3.639   6.195   2.555
 8972SOL     OW27814   5.000   6.112   0.123
 8972SOL    HW127815   5.057   6.085   0.045
 8972SOL    HW227816   5.032   6.200   0.158
 8973SOL     OW27817   0.901   4.131   1.918
 8973SOL    HW127818   0.985   4.183   1.907
 8973SOL    HW227819   0.868   4.101   1.829
 8974SOL     OW27820   1.046   4.556   6.400
 8974SOL    HW127821   1.116   4.577   6.331
 8974SOL    HW227822   1.066   4.468   6.442
 8975SOL     OW27823   2.698   0.927   0.033
 8975SOL    HW127824   2.626   0.887   7.001
 8975SOL    HW227825   2.682   0.906   0.129
 8976SOL     OW27826   1.117   5.524   4.926
 8976SOL    HW127827   1.021   5.515   4.951
 8976SOL    HW227828   1.174   5.482   4.997
 8977SOL     OW27829   6.491   1.392   6.220
 8977SOL    HW127830   6.553   1.372   6.295
 8977SOL    HW227831   6.402   1.420   6.257
 8978SOL     OW27832   5.977   6.089   6.955
 8978SOL    HW127833   5.907   6.019   6.937
 8978SOL    HW227834   5.946   6.148   0.005
 8979SOL     OW27835   1.720   3.696   4.815
 8979SOL    HW127836   1.716   3.735   4.907
 8979SOL    HW227837   1.784   3.748   4.759
 8980SOL     OW27838   2.943   3.580   5.394
 8980SOL    HW127839   3.022   3.578   5.455
 8980SOL    HW227840   2.880   3.653   5.423
 8981SOL     OW27841   4.102   1.630   4.990
 8981SOL    HW127842   4.074   1.587   4.904
 8981SOL    HW227843   4.094   1.729   4.981
 8982SOL     OW27844   2.146   3.515   0.368
 8982SOL    HW127845   2.136   3.607   0.329
 8982SOL    HW227846   2.059   3.467   0.362
 8983SOL     OW27847   3.141   6.370   6.841
 8983SOL    HW127848   3.126   6.300   6.910
 8983SOL    HW227849   3.066   6.437   6.844
 8984SOL     OW27850   1.751   6.711   2.787
 8984SOL    HW127851   1.654   6.722   2.766
 8984SOL    HW227852   1.805   6.714   2.702
 8985SOL     OW27853   3.446   2.336   0.379
 8985SOL    HW127854   3.532   2.344   0.429
 8985SOL    HW227855   3.370   2.341   0.444
 8986SOL     OW27856   3.442   4.920   3.024
 8986SOL    HW127857   3.416   5.017   3.021
 8986SOL    HW227858   3.536   4.910   2.992
 8987SOL     OW27859   4.322   6.455   3.334
 8987SOL    HW127860   4.382   6.510   3.276
 8987SOL    HW227861   4.233   6.444   3.288
 8988SOL     OW27862   0.429   5.654   3.837
 8988SOL    HW127863   0.427   5.745   3.795
 8988SOL    HW227864   0.407   5.662   3.934
 8989SOL     OW27865   4.308   3.030   6.742
 8989SOL    HW127866   4.253   3.069   6.667
 8989SOL    HW227867   4.292   2.931   6.745
 8990SOL     OW27868   0.305   4.637   3.989
 8990SOL    HW127869   0.333   4.542   3.975
 8990SOL    HW227870   0.221   4.654   3.938
 8991SOL     OW27871   1.435   3.222   4.679
 8991SOL    HW127872   1.488   3.307   4.686
 8991SOL    HW227873   1.498   3.145   4.669
 8992SOL     OW27874   4.894   1.389   0.904
 8992SOL    HW127875   4.844   1.347   0.828
 8992SOL    HW227876   4.992   1.376   0.890
 8993SOL     OW27877   3.831   3.194   0.058
 8993SOL    HW127878   3.833   3.239   0.147
 8993SOL    HW227879   3.738   3.194   0.022
 8994SOL     OW27880   1.656   4.655   4.659
 8994SOL    HW127881   1.755   4.663   4.670
 8994SOL    HW227882   1.635   4.572   4.608
 8995SOL     OW27883   6.684   1.814   0.549
 8995SOL    HW127884   6.719   1.867   0.472
 8995SOL    HW227885   6.593   1.778   0.526
 8996SOL     OW27886   5.522   3.997   6.041
 8996SOL    HW127887   5.425   3.978   6.055
 8996SOL    HW227888   5.535   4.094   6.022
 8997SOL     OW27889   4.660   0.750   6.359
 8997SOL    HW127890   4.679   0.759   6.262
 8997SOL    HW227891   4.671   0.655   6.388
 8998SOL     OW27892   6.068   3.334   4.554
 8998SOL    HW127893   5.983   3.330   4.501
 8998SOL    HW227894   6.145   3.338   4.491
 8999SOL     OW27895   5.002   6.602   6.438
 8999SOL    HW127896   5.090   6.556   6.448
 8999SOL    HW227897   4.943   6.577   6.516
 9000SOL     OW27898   1.714   3.075   1.996
 9000SOL    HW127899   1.634   3.133   1.988
 9000SOL    HW227900   1.690   2.981   1.971
 9001SOL     OW27901   0.496   5.676   1.693
 9001SOL    HW127902   0.500   5.622   1.609
 9001SOL    HW227903   0.491   5.615   1.772
 9002SOL     OW27904   1.716   4.425   5.439
 9002SOL    HW127905   1.749   4.494   5.503
 9002SOL    HW227906   1.781   4.416   5.363
 9003SOL     OW27907   5.068   3.512   1.326
 9003SOL    HW127908   5.099   3.422   1.357
 9003SOL    HW227909   5.032   3.563   1.404
 9004SOL     OW27910   4.388   5.155   1.052
 9004SOL    HW127911   4.356   5.223   1.118
 9004SOL    HW227912   4.431   5.079   1.100
 9005SOL     OW27913   6.184   1.607   5.701
 9005SOL    HW127914   6.110   1.599   5.634
 9005SOL    HW227915   6.199   1.519   5.745
 9006SOL     OW27916   3.045   6.521   1.043
 9006SOL    HW127917   3.093   6.436   1.061
 9006SOL    HW227918   3.001   6.553   1.127
 9007SOL     OW27919   2.572   1.671   2.205
 9007SOL    HW127920   2.572   1.688   2.107
 9007SOL    HW227921   2.661   1.696   2.244
 9008SOL     OW27922   6.880   5.090   2.983
 9008SOL    HW127923   6.862   5.006   3.034
 9008SOL    HW227924   6.856   5.077   2.887
 9009SOL     OW27925   2.912   5.338   1.203
 9009SOL    HW127926   2.842   5.291   1.256
 9009SOL    HW227927   3.002   5.301   1.226
 9010SOL     OW27928   2.254   6.146   4.197
 9010SOL    HW127929   2.217   6.218   4.137
 9010SOL    HW227930   2.351   6.164   4.214
 9011SOL     OW27931   4.101   0.706   1.524
 9011SOL    HW127932   4.175   0.646   1.495
 9011SOL    HW227933   4.139   0.786   1.570
 9012SOL     OW27934   2.432   5.422   0.476
 9012SOL    HW127935   2.467   5.436   0.569
 9012SOL    HW227936   2.483   5.478   0.412
 9013SOL     OW27937   0.843   0.646   5.432
 9013SOL    HW127938   0.784   0.681   5.359
 9013SOL    HW227939   0.905   0.718   5.463
 9014SOL     OW27940   6.379   2.622   0.888
 9014SOL    HW127941   6.439   2.683   0.837
 9014SOL    HW227942   6.296   2.672   0.916
 9015SOL     OW27943   4.810   2.130   1.725
 9015SOL    HW127944   4.718   2.111   1.692
 9015SOL    HW227945   4.876   2.109   1.652
 9016SOL     OW27946   5.683   5.468   6.586
 9016SOL    HW127947   5.699   5.554   6.634
 9016SOL    HW227948   5.608   5.418   6.630
 9017SOL     OW27949   4.384   1.136   3.989
 9017SOL    HW127950   4.431   1.064   4.041
 9017SOL    HW227951   4.389   1.222   4.040
 9018SOL     OW27952   3.012   3.934   6.057
 9018SOL    HW127953   2.994   3.940   5.959
 9018SOL    HW227954   2.937   3.979   6.107
 9019SOL     OW27955   0.678   4.448   2.828
 9019SOL    HW127956   0.722   4.472   2.741
 9019SOL    HW227957   0.613   4.373   2.813
 9020SOL     OW27958   6.956   4.546   1.107
 9020SOL    HW127959   6.967   4.471   1.172
 9020SOL    HW227960   6.960   4.634   1.155
 9021SOL     OW27961   6.862   0.787   3.326
 9021SOL    HW127962   6.769   0.769   3.359
 9021SOL    HW227963   6.873   0.885   3.309
 9022SOL     OW27964   3.690   1.333   6.980
 9022SOL    HW127965   3.698   1.429   6.953
 9022SOL    HW227966   3.595   1.310   6.998
 9023SOL     OW27967   4.318   3.612   1.713
 9023SOL    HW127968   4.254   3.610   1.790
 9023SOL    HW227969   4.351   3.705   1.699
 9024SOL     OW27970   1.412   4.413   5.421
 9024SOL    HW127971   1.507   4.442   5.427
 9024SOL    HW227972   1.368   4.456   5.342
 9025SOL     OW27973   6.735   5.731   0.780
 9025SOL    HW127974   6.705   5.781   0.699
 9025SOL    HW227975   6.655   5.705   0.834
 9026SOL     OW27976   3.184   2.323   0.506
 9026SOL    HW127977   3.125   2.325   0.587
 9026SOL    HW227978   3.144   2.264   0.436
 9027SOL     OW27979   0.687   3.312   3.245
 9027SOL    HW127980   0.765   3.317   3.183
 9027SOL    HW227981   0.604   3.339   3.196
 9028SOL     OW27982   3.904   3.190   5.056
 9028SOL    HW127983   3.921   3.132   4.977
 9028SOL    HW227984   3.805   3.204   5.067
 9029SOL     OW27985   4.198   0.072   4.887
 9029SOL    HW127986   4.273   0.054   4.823
 9029SOL    HW227987   4.125   0.005   4.873
 9030SOL     OW27988   2.009   2.211   4.075
 9030SOL    HW127989   2.028   2.155   4.156
 9030SOL    HW227990   1.954   2.159   4.011
 9031SOL     OW27991   4.141   7.003   4.394
 9031SOL    HW127992   4.114   6.951   4.475
 9031SOL    HW227993   4.183   0.066   4.423
 9032SOL     OW27994   4.604   3.899   1.089
 9032SOL    HW127995   4.637   3.813   1.129
 9032SOL    HW227996   4.578   3.962   1.163
 9033SOL     OW27997   0.429   4.821   2.532
 9033SOL    HW127998   0.371   4.902   2.526
 9033SOL    HW227999   0.376   4.740   2.507
 9034SOL     OW28000   3.395   6.068   4.424
 9034SOL    HW128001   3.441   5.980   4.416
 9034SOL    HW228002   3.435   6.120   4.499
 9035SOL     OW28003   2.249   5.933   6.934
 9035SOL    HW128004   2.152   5.908   6.939
 9035SOL    HW228005   2.297   5.897   7.014
 9036SOL     OW28006   1.804   4.016   5.432
 9036SOL    HW128007   1.717   4.060   5.457
 9036SOL    HW228008   1.796   3.918   5.447
 9037SOL     OW28009   1.228   3.093   3.887
 9037SOL    HW128010   1.175   3.034   3.948
 9037SOL    HW228011   1.247   3.180   3.931
 9038SOL     OW28012   4.580   2.805   6.866
 9038SOL    HW128013   4.596   2.899   6.837
 9038SOL    HW228014   4.627   2.742   6.804
 9039SOL     OW28015   3.420   4.891   6.815
 9039SOL    HW128016   3.509   4.889   6.770
 9039SOL    HW228017   3.376   4.801   6.807
 9040SOL     OW28018   2.653   2.339   2.082
 9040SOL    HW128019   2.752   2.334   2.094
 9040SOL    HW228020   2.614   2.248   2.098
 9041SOL     OW28021   1.267   2.543   1.068
 9041SOL    HW128022   1.250   2.445   1.064
 9041SOL    HW228023   1.293   2.568   1.162
 9042SOL     OW28024   3.510   0.126   4.714
 9042SOL    HW128025   3.565   0.119   4.797
 9042SOL    HW228026   3.558   0.184   4.648
 9043SOL     OW28027   2.494   1.723   6.054
 9043SOL    HW128028   2.469   1.639   6.101
 9043SOL    HW228029   2.575   1.762   6.096
 9044SOL     OW28030   0.455   1.352   6.925
 9044SOL    HW128031   0.436   1.344   7.023
 9044SOL    HW228032   0.447   1.262   6.882
 9045SOL     OW28033   3.754   0.368   3.122
 9045SOL    HW128034   3.847   0.359   3.158
 9045SOL    HW228035   3.712   0.451   3.158
 9046SOL     OW28036   4.039   3.762   2.680
 9046SOL    HW128037   4.043   3.861   2.673
 9046SOL    HW228038   4.081   3.733   2.766
 9047SOL     OW28039   0.914   4.038   5.078
 9047SOL    HW128040   0.992   4.021   5.018
 9047SOL    HW228041   0.941   4.100   5.152
 9048SOL     OW28042   6.099   2.389   6.434
 9048SOL    HW128043   6.150   2.474   6.448
 9048SOL    HW228044   6.156   2.324   6.383
 9049SOL     OW28045   3.992   6.237   5.455
 9049SOL    HW128046   4.072   6.219   5.396
 9049SOL    HW228047   3.953   6.149   5.484
 9050SOL     OW28048   0.304   3.182   1.286
 9050SOL    HW128049   0.356   3.102   1.256
 9050SOL    HW228050   0.368   3.256   1.309
 9051SOL     OW28051   2.455   0.123   1.816
 9051SOL    HW128052   2.485   0.146   1.724
 9051SOL    HW228053   2.392   0.193   1.849
 9052SOL     OW28054   1.997   3.541   3.900
 9052SOL    HW128055   2.092   3.529   3.927
 9052SOL    HW228056   1.943   3.568   3.980
 9053SOL     OW28057   2.106   1.333   0.766
 9053SOL    HW128058   2.042   1.282   0.709
 9053SOL    HW228059   2.056   1.384   0.836
 9054SOL     OW28060   2.153   6.098   4.465
 9054SOL    HW128061   2.166   6.000   4.476
 9054SOL    HW228062   2.196   6.129   4.380
 9055SOL     OW28063   6.294   3.503   4.726
 9055SOL    HW128064   6.212   3.450   4.703
 9055SOL    HW228065   6.323   3.555   4.646
 9056SOL     OW28066   6.659   1.745   2.382
 9056SOL    HW128067   6.724   1.676   2.349
 9056SOL    HW228068   6.581   1.699   2.424
 9057SOL     OW28069   4.604   2.204   4.597
 9057SOL    HW128070   4.556   2.177   4.513
 9057SOL    HW228071   4.559   2.163   4.676
 9058SOL     OW28072   1.198   0.431   0.575
 9058SOL    HW128073   1.266   0.458   0.642
 9058SOL    HW228074   1.153   0.512   0.537
 9059SOL     OW28075   1.471   2.569   3.114
 9059SOL    HW128076   1.478   2.634   3.038
 9059SOL    HW228077   1.405   2.498   3.092
 9060SOL     OW28078   5.948   2.867   4.483
 9060SOL    HW128079   5.875   2.804   4.456
 9060SOL    HW228080   5.908   2.945   4.532
 9061SOL     OW28081   3.427   5.553   2.497
 9061SOL    HW128082   3.455   5.558   2.593
 9061SOL    HW228083   3.466   5.471   2.455
 9062SOL     OW28084   1.285   5.751   1.874
 9062SOL    HW128085   1.209   5.781   1.816
 9062SOL    HW228086   1.253   5.742   1.968
 9063SOL     OW28087   2.217   0.782   3.700
 9063SOL    HW128088   2.171   0.857   3.748
 9063SOL    HW228089   2.298   0.817   3.652
 9064SOL     OW28090   6.719   3.706   6.250
 9064SOL    HW128091   6.632   3.660   6.233
 9064SOL    HW228092   6.753   3.745   6.165
 9065SOL     OW28093   3.909   7.021   0.122
 9065SOL    HW128094   3.923   6.931   0.165
 9065SOL    HW228095   3.812   0.008   0.098
 9066SOL     OW28096   5.320   0.422   0.606
 9066SOL    HW128097   5.335   0.351   0.536
 9066SOL    HW228098   5.224   0.424   0.631
 9067SOL     OW28099   1.815   0.314   3.407
 9067SOL    HW128100   1.911   0.308   3.381
 9067SOL    HW228101   1.780   0.406   3.387
 9068SOL     OW28102   0.811   6.655   4.555
 9068SOL    HW128103   0.803   6.563   4.595
 9068SOL    HW228104   0.726   6.705   4.569
 9069SOL     OW28105   1.191   3.397   6.667
 9069SOL    HW128106   1.219   3.473   6.726
 9069SOL    HW228107   1.270   3.339   6.647
 9070SOL     OW28108   2.116   3.937   4.876
 9070SOL    HW128109   2.118   3.838   4.889
 9070SOL    HW228110   2.192   3.979   4.924
 9071SOL     OW28111   6.437   5.947   0.941
 9071SOL    HW128112   6.351   5.997   0.937
 9071SOL    HW228113   6.508   6.006   0.980
 9072SOL     OW28114   6.739   3.641   0.754
 9072SOL    HW128115   6.807   3.615   0.685
 9072SOL    HW228116   6.648   3.640   0.712
 9073SOL     OW28117   1.765   0.307   1.876
 9073SOL    HW128118   1.804   0.330   1.787
 9073SOL    HW228119   1.789   0.213   1.901
 9074SOL     OW28120   1.586   0.585   2.558
 9074SOL    HW128121   1.519   0.518   2.526
 9074SOL    HW228122   1.547   0.638   2.633
 9075SOL     OW28123   6.440   0.445   2.166
 9075SOL    HW128124   6.368   0.508   2.137
 9075SOL    HW228125   6.399   0.371   2.220
 9076SOL     OW28126   0.608   1.024   6.392
 9076SOL    HW128127   0.684   1.053   6.334
 9076SOL    HW228128   0.529   1.085   6.377
 9077SOL     OW28129   4.507   6.704   2.346
 9077SOL    HW128130   4.464   6.627   2.392
 9077SOL    HW228131   4.460   6.723   2.260
 9078SOL     OW28132   4.160   3.514   4.996
 9078SOL    HW128133   4.148   3.437   5.060
 9078SOL    HW228134   4.245   3.562   5.018
 9079SOL     OW28135   3.492   0.350   4.379
 9079SOL    HW128136   3.475   0.444   4.350
 9079SOL    HW228137   3.405   0.307   4.406
 9080SOL     OW28138   5.162   2.147   6.794
 9080SOL    HW128139   5.156   2.196   6.881
 9080SOL    HW228140   5.126   2.204   6.721
 9081SOL     OW28141   5.286   6.339   3.050
 9081SOL    HW128142   5.223   6.408   3.015
 9081SOL    HW228143   5.297   6.350   3.149
 9082SOL     OW28144   2.285   0.307   3.962
 9082SOL    HW128145   2.220   0.237   3.934
 9082SOL    HW228146   2.254   0.349   4.047
 9083SOL     OW28147   4.851   4.644   5.518
 9083SOL    HW128148   4.896   4.562   5.483
 9083SOL    HW228149   4.835   4.708   5.443
 9084SOL     OW28150   3.181   3.580   3.021
 9084SOL    HW128151   3.261   3.632   2.992
 9084SOL    HW228152   3.174   3.497   2.966
 9085SOL     OW28153   2.232   1.119   0.845
 9085SOL    HW128154   2.307   1.124   0.779
 9085SOL    HW228155   2.162   1.186   0.820
 9086SOL     OW28156   0.814   3.871   0.762
 9086SOL    HW128157   0.857   3.926   0.833
 9086SOL    HW228158   0.758   3.930   0.703
 9087SOL     OW28159   4.839   3.080   2.823
 9087SOL    HW128160   4.845   3.065   2.725
 9087SOL    HW228161   4.777   3.013   2.864
 9088SOL     OW28162   6.370   0.370   0.067
 9088SOL    HW128163   6.302   0.443   0.069
 9088SOL    HW228164   6.324   0.281   0.057
 9089SOL     OW28165   4.947   6.280   6.081
 9089SOL    HW128166   4.933   6.365   6.131
 9089SOL    HW228167   5.044   6.257   6.081
 9090SOL     OW28168   6.088   0.502   4.949
 9090SOL    HW128169   6.085   0.551   5.036
 9090SOL    HW228170   6.183   0.480   4.927
 9091SOL     OW28171   2.981   4.123   6.603
 9091SOL    HW128172   2.985   4.186   6.681
 9091SOL    HW228173   2.897   4.137   6.552
 9092SOL     OW28174   6.883   1.850   6.916
 9092SOL    HW128175   6.918   1.773   6.969
 9092SOL    HW228176   6.892   1.935   6.969
 9093SOL     OW28177   1.249   6.445   5.411
 9093SOL    HW128178   1.230   6.365   5.354
 9093SOL    HW228179   1.176   6.512   5.399
 9094SOL     OW28180   0.537   3.316   2.410
 9094SOL    HW128181   0.629   3.313   2.370
 9094SOL    HW228182   0.480   3.244   2.370
 9095SOL     OW28183   4.564   5.001   5.372
 9095SOL    HW128184   4.581   4.948   5.455
 9095SOL    HW228185   4.651   5.021   5.327
 9096SOL     OW28186   6.494   5.406   3.279
 9096SOL    HW128187   6.462   5.434   3.370
 9096SOL    HW228188   6.594   5.413   3.276
 9097SOL     OW28189   0.735   2.388   6.448
 9097SOL    HW128190   0.825   2.432   6.443
 9097SOL    HW228191   0.685   2.406   6.363
 9098SOL     OW28192   2.196   2.287   5.081
 9098SOL    HW128193   2.227   2.192   5.079
 9098SOL    HW228194   2.203   2.322   5.174
 9099SOL     OW28195   1.931   3.231   5.825
 9099SOL    HW128196   1.994   3.309   5.827
 9099SOL    HW228197   1.957   3.169   5.751
 9100SOL     OW28198   1.403   3.977   2.385
 9100SOL    HW128199   1.366   3.887   2.410
 9100SOL    HW228200   1.356   4.010   2.303
 9101SOL     OW28201   2.889   1.375   2.278
 9101SOL    HW128202   2.809   1.434   2.288
 9101SOL    HW228203   2.972   1.429   2.288
 9102SOL     OW28204   4.748   6.596   2.751
 9102SOL    HW128205   4.775   6.541   2.671
 9102SOL    HW228206   4.693   6.673   2.720
 9103SOL     OW28207   6.349   1.989   6.996
 9103SOL    HW128208   6.427   2.052   6.990
 9103SOL    HW228209   6.264   2.042   7.000
 9104SOL     OW28210   0.596   0.828   0.413
 9104SOL    HW128211   0.659   0.894   0.453
 9104SOL    HW228212   0.588   0.748   0.472
 9105SOL     OW28213   1.931   7.005   5.987
 9105SOL    HW128214   1.968   0.074   5.983
 9105SOL    HW228215   1.848   7.004   6.042
 9106SOL     OW28216   0.568   4.514   6.916
 9106SOL    HW128217   0.478   4.491   6.953
 9106SOL    HW228218   0.581   4.613   6.920
 9107SOL     OW28219   2.671   0.917   6.258
 9107SOL    HW128220   2.720   0.831   6.272
 9107SOL    HW228221   2.718   0.990   6.307
 9108SOL     OW28222   5.141   5.487   5.244
 9108SOL    HW128223   5.072   5.504   5.314
 9108SOL    HW228224   5.183   5.397   5.259
 9109SOL     OW28225   5.446   2.773   1.939
 9109SOL    HW128226   5.495   2.857   1.912
 9109SOL    HW228227   5.477   2.745   2.030
 9110SOL     OW28228   1.606   5.567   5.459
 9110SOL    HW128229   1.607   5.660   5.421
 9110SOL    HW228230   1.688   5.553   5.515
 9111SOL     OW28231   4.720   2.899   5.291
 9111SOL    HW128232   4.766   2.881   5.204
 9111SOL    HW228233   4.675   2.815   5.322
 9112SOL     OW28234   2.248   4.979   3.101
 9112SOL    HW128235   2.205   5.013   3.018
 9112SOL    HW228236   2.177   4.946   3.164
 9113SOL     OW28237   5.114   1.969   3.107
 9113SOL    HW128238   5.124   2.023   3.023
 9113SOL    HW228239   5.021   1.933   3.112
 9114SOL     OW28240   1.595   6.066   5.065
 9114SOL    HW128241   1.547   6.109   4.988
 9114SOL    HW228242   1.673   6.014   5.030
 9115SOL     OW28243   5.893   4.696   3.551
 9115SOL    HW128244   5.803   4.706   3.507
 9115SOL    HW228245   5.955   4.648   3.489
 9116SOL     OW28246   0.993   6.673   3.218
 9116SOL    HW128247   0.996   6.574   3.230
 9116SOL    HW228248   0.905   6.708   3.250
 9117SOL     OW28249   4.332   0.726   6.888
 9117SOL    HW128250   4.242   0.770   6.889
 9117SOL    HW228251   4.321   0.627   6.893
 9118SOL     OW28252   5.851   4.205   0.436
 9118SOL    HW128253   5.765   4.174   0.395
 9118SOL    HW228254   5.918   4.131   0.434
 9119SOL     OW28255   3.614   6.711   1.239
 9119SOL    HW128256   3.586   6.630   1.188
 9119SOL    HW228257   3.676   6.766   1.183
 9120SOL     OW28258   5.922   2.870   5.945
 9120SOL    HW128259   5.992   2.844   5.878
 9120SOL    HW228260   5.893   2.964   5.929
 9121SOL     OW28261   3.523   0.172   5.483
 9121SOL    HW128262   3.519   0.155   5.582
 9121SOL    HW228263   3.550   0.267   5.467
 9122SOL     OW28264   2.462   4.489   1.715
 9122SOL    HW128265   2.529   4.415   1.720
 9122SOL    HW228266   2.495   4.559   1.652
 9123SOL     OW28267   0.940   0.811   3.250
 9123SOL    HW128268   0.900   0.872   3.318
 9123SOL    HW228269   0.918   0.716   3.273
 9124SOL     OW28270   3.259   5.239   1.708
 9124SOL    HW128271   3.306   5.207   1.790
 9124SOL    HW228272   3.306   5.204   1.626
 9125SOL     OW28273   3.585   6.845   0.515
 9125SOL    HW128274   3.547   6.756   0.541
 9125SOL    HW228275   3.674   6.857   0.559
 9126SOL     OW28276   4.119   5.188   0.451
 9126SOL    HW128277   4.202   5.224   0.408
 9126SOL    HW228278   4.144   5.114   0.513
 9127SOL     OW28279   6.870   3.276   5.211
 9127SOL    HW128280   6.871   3.178   5.228
 9127SOL    HW228281   6.786   3.315   5.248
 9128SOL     OW28282   6.033   2.837   4.960
 9128SOL    HW128283   6.025   2.910   5.027
 9128SOL    HW228284   5.980   2.860   4.878
 9129SOL     OW28285   2.377   1.627   0.237
 9129SOL    HW128286   2.355   1.710   0.288
 9129SOL    HW228287   2.439   1.649   0.162
 9130SOL     OW28288   2.764   4.053   5.425
 9130SOL    HW128289   2.698   4.012   5.363
 9130SOL    HW228290   2.781   4.148   5.399
 9131SOL     OW28291   6.014   2.603   0.698
 9131SOL    HW128292   6.036   2.698   0.722
 9131SOL    HW228293   6.013   2.548   0.781
 9132SOL     OW28294   1.044   3.891   3.471
 9132SOL    HW128295   0.961   3.865   3.519
 9132SOL    HW228296   1.108   3.934   3.535
 9133SOL     OW28297   4.595   0.885   0.887
 9133SOL    HW128298   4.628   0.817   0.952
 9133SOL    HW228299   4.504   0.916   0.915
 9134SOL     OW28300   4.449   5.432   0.969
 9134SOL    HW128301   4.443   5.530   0.953
 9134SOL    HW228302   4.531   5.412   1.022
 9135SOL     OW28303   0.979   6.217   2.174
 9135SOL    HW128304   0.920   6.158   2.228
 9135SOL    HW228305   0.924   6.268   2.108
 9136SOL     OW28306   6.044   4.546   6.358
 9136SOL    HW128307   6.043   4.562   6.259
 9136SOL    HW228308   6.054   4.633   6.406
 9137SOL     OW28309   4.376   6.204   0.052
 9137SOL    HW128310   4.398   6.276   7.010
 9137SOL    HW228311   4.457   6.148   0.069
 9138SOL     OW28312   3.117   3.116   0.794
 9138SOL    HW128313   3.108   3.082   0.887
 9138SOL    HW228314   3.074   3.206   0.787
 9139SOL     OW28315   6.899   0.506   1.011
 9139SOL    HW128316   6.827   0.460   0.958
 9139SOL    HW228317   6.872   0.510   1.107
 9140SOL     OW28318   0.422   4.443   2.505
 9140SOL    HW128319   0.349   4.510   2.490
 9140SOL    HW228320   0.406   4.364   2.446
 9141SOL     OW28321   6.711   5.572   6.163
 9141SOL    HW128322   6.668   5.482   6.169
 9141SOL    HW228323   6.792   5.567   6.104
 9142SOL     OW28324   1.147   3.992   2.806
 9142SOL    HW128325   1.075   4.059   2.787
 9142SOL    HW228326   1.229   4.040   2.839
 9143SOL     OW28327   0.478   3.335   3.025
 9143SOL    HW128328   0.415   3.273   3.071
 9143SOL    HW228329   0.426   3.412   2.986
 9144SOL     OW28330   3.086   4.769   5.513
 9144SOL    HW128331   3.010   4.823   5.476
 9144SOL    HW228332   3.145   4.740   5.438
 9145SOL     OW28333   1.216   6.822   6.267
 9145SOL    HW128334   1.230   6.789   6.360
 9145SOL    HW228335   1.147   6.766   6.221
 9146SOL     OW28336   5.732   3.423   3.458
 9146SOL    HW128337   5.690   3.504   3.416
 9146SOL    HW228338   5.812   3.452   3.511
 9147SOL     OW28339   4.973   0.696   4.238
 9147SOL    HW128340   4.931   0.664   4.153
 9147SOL    HW228341   4.914   0.765   4.280
 9148SOL     OW28342   6.295   6.829   1.492
 9148SOL    HW128343   6.279   6.921   1.528
 9148SOL    HW228344   6.263   6.761   1.558
 9149SOL     OW28345   6.632   4.218   0.979
 9149SOL    HW128346   6.548   4.265   0.953
 9149SOL    HW228347   6.648   4.228   1.077
 9150SOL     OW28348   2.820   3.295   6.972
 9150SOL    HW128349   2.793   3.372   6.914
 9150SOL    HW228350   2.905   3.255   6.937
 9151SOL     OW28351   1.606   3.575   3.615
 9151SOL    HW128352   1.549   3.632   3.674
 9151SOL    HW228353   1.679   3.631   3.576
 9152SOL     OW28354   1.965   4.230   4.214
 9152SOL    HW128355   1.980   4.319   4.172
 9152SOL    HW228356   1.914   4.241   4.299
 9153SOL     OW28357   0.017   3.144   6.564
 9153SOL    HW128358   0.102   3.184   6.531
 9153SOL    HW228359   6.994   3.209   6.624
 9154SOL     OW28360   6.035   4.810   3.091
 9154SOL    HW128361   6.028   4.785   3.188
 9154SOL    HW228362   6.122   4.856   3.075
 9155SOL     OW28363   0.291   5.825   3.009
 9155SOL    HW128364   0.360   5.897   3.010
 9155SOL    HW228365   0.316   5.754   3.074
 9156SOL     OW28366   6.680   3.958   6.770
 9156SOL    HW128367   6.764   3.958   6.715
 9156SOL    HW228368   6.679   3.878   6.829
 9157SOL     OW28369   2.913   5.015   5.945
 9157SOL    HW128370   2.960   4.944   5.893
 9157SOL    HW228371   2.978   5.061   6.006
 9158SOL     OW28372   0.153   3.409   4.203
 9158SOL    HW128373   0.155   3.313   4.230
 9158SOL    HW228374   0.232   3.429   4.144
 9159SOL     OW28375   3.536   0.848   3.082
 9159SOL    HW128376   3.609   0.801   3.132
 9159SOL    HW228377   3.567   0.938   3.054
 9160SOL     OW28378   0.279   4.586   6.727
 9160SOL    HW128379   0.201   4.615   6.783
 9160SOL    HW228380   0.345   4.660   6.721
 9161SOL     OW28381   6.125   4.038   1.443
 9161SOL    HW128382   6.217   4.028   1.405
 9161SOL    HW228383   6.060   3.985   1.389
 9162SOL     OW28384   4.719   1.928   2.238
 9162SOL    HW128385   4.638   1.888   2.196
 9162SOL    HW228386   4.700   1.946   2.335
 9163SOL     OW28387   1.566   2.587   3.386
 9163SOL    HW128388   1.554   2.596   3.288
 9163SOL    HW228389   1.524   2.665   3.432
 9164SOL     OW28390   2.491   0.851   6.911
 9164SOL    HW128391   2.438   0.779   6.956
 9164SOL    HW228392   2.485   0.840   6.812
 9165SOL     OW28393   5.224   2.255   5.785
 9165SOL    HW128394   5.301   2.299   5.831
 9165SOL    HW228395   5.180   2.321   5.724
 9166SOL     OW28396   5.079   5.356   1.688
 9166SOL    HW128397   4.989   5.314   1.670
 9166SOL    HW228398   5.129   5.300   1.754
 9167SOL     OW28399   2.054   0.930   5.322
 9167SOL    HW128400   2.078   0.860   5.254
 9167SOL    HW228401   1.979   0.897   5.379
 9168SOL     OW28402   6.829   6.316   4.629
 9168SOL    HW128403   6.759   6.349   4.565
 9168SOL    HW228404   6.847   6.219   4.611
 9169SOL     OW28405   6.317   6.281   0.619
 9169SOL    HW128406   6.249   6.209   0.629
 9169SOL    HW228407   6.388   6.251   0.555
 9170SOL     OW28408   1.790   1.324   5.372
 9170SOL    HW128409   1.878   1.348   5.330
 9170SOL    HW228410   1.799   1.330   5.471
 9171SOL     OW28411   3.208   4.798   0.894
 9171SOL    HW128412   3.242   4.712   0.856
 9171SOL    HW228413   3.194   4.864   0.819
 9172SOL     OW28414   5.006   1.317   4.260
 9172SOL    HW128415   4.987   1.371   4.178
 9172SOL    HW228416   5.019   1.379   4.338
 9173SOL     OW28417   6.301   2.835   4.002
 9173SOL    HW128418   6.380   2.813   4.060
 9173SOL    HW228419   6.304   2.781   3.918
 9174SOL     OW28420   7.016   5.335   0.304
 9174SOL    HW128421   0.008   5.410   0.368
 9174SOL    HW228422   0.028   5.360   0.214
 9175SOL     OW28423   1.629   6.808   6.549
 9175SOL    HW128424   1.638   6.820   6.648
 9175SOL    HW228425   1.673   6.884   6.502
 9176SOL     OW28426   1.380   1.432   2.603
 9176SOL    HW128427   1.469   1.443   2.648
 9176SOL    HW228428   1.349   1.338   2.614
 9177SOL     OW28429   0.336   4.368   3.919
 9177SOL    HW128430   0.430   4.380   3.888
 9177SOL    HW228431   0.331   4.293   3.985
 9178SOL     OW28432   1.551   6.397   0.700
 9178SOL    HW128433   1.602   6.483   0.702
 9178SOL    HW228434   1.454   6.416   0.683
 9179SOL     OW28435   4.340   5.867   5.114
 9179SOL    HW128436   4.413   5.855   5.047
 9179SOL    HW228437   4.259   5.903   5.068
 9180SOL     OW28438   0.282   1.266   4.005
 9180SOL    HW128439   0.271   1.191   4.070
 9180SOL    HW228440   0.287   1.353   4.054
 9181SOL     OW28441   3.798   1.947   3.629
 9181SOL    HW128442   3.722   1.996   3.585
 9181SOL    HW228443   3.764   1.899   3.710
 9182SOL     OW28444   1.598   0.968   3.282
 9182SOL    HW128445   1.697   0.961   3.275
 9182SOL    HW228446   1.556   0.945   3.194
 9183SOL     OW28447   6.038   2.813   5.702
 9183SOL    HW128448   6.000   2.801   5.610
 9183SOL    HW228449   6.128   2.857   5.695
 9184SOL     OW28450   3.763   3.109   1.272
 9184SOL    HW128451   3.681   3.155   1.305
 9184SOL    HW228452   3.753   3.010   1.284
 9185SOL     OW28453   0.853   0.177   6.216
 9185SOL    HW128454   0.856   0.188   6.316
 9185SOL    HW228455   0.861   0.080   6.193
 9186SOL     OW28456   5.757   0.674   6.263
 9186SOL    HW128457   5.741   0.770   6.238
 9186SOL    HW228458   5.825   0.635   6.201
 9187SOL     OW28459   5.166   1.577   0.176
 9187SOL    HW128460   5.149   1.675   0.186
 9187SOL    HW228461   5.239   1.550   0.238
 9188SOL     OW28462   1.007   0.451   1.934
 9188SOL    HW128463   1.043   0.360   1.951
 9188SOL    HW228464   0.968   0.487   2.019
 9189SOL     OW28465   3.773   1.648   3.695
 9189SOL    HW128466   3.844   1.642   3.766
 9189SOL    HW228467   3.683   1.641   3.738
 9190SOL     OW28468   6.082   3.949   5.513
 9190SOL    HW128469   6.006   3.949   5.578
 9190SOL    HW228470   6.046   3.957   5.420
 9191SOL     OW28471   5.569   6.146   6.975
 9191SOL    HW128472   5.499   6.083   7.008
 9191SOL    HW228473   5.542   6.240   6.994
 9192SOL     OW28474   6.406   4.490   5.472
 9192SOL    HW128475   6.308   4.499   5.456
 9192SOL    HW228476   6.432   4.546   5.551
 9193SOL     OW28477   3.420   3.173   3.635
 9193SOL    HW128478   3.492   3.169   3.704
 9193SOL    HW228479   3.412   3.084   3.591
 9194SOL     OW28480   2.628   5.333   3.052
 9194SOL    HW128481   2.643   5.250   3.106
 9194SOL    HW228482   2.699   5.400   3.074
 9195SOL     OW28483   0.249   3.153   3.101
 9195SOL    HW128484   0.159   3.111   3.114
 9195SOL    HW228485   0.265   3.167   3.003
 9196SOL     OW28486   4.816   0.241   3.476
 9196SOL    HW128487   4.744   0.197   3.530
 9196SOL    HW228488   4.843   0.327   3.520
 9197SOL     OW28489   3.404   3.263   6.183
 9197SOL    HW128490   3.393   3.165   6.201
 9197SOL    HW228491   3.469   3.302   6.248
 9198SOL     OW28492   5.976   2.986   5.452
 9198SOL    HW128493   5.910   2.912   5.440
 9198SOL    HW228494   5.973   3.018   5.547
 9199SOL     OW28495   1.321   4.059   6.681
 9199SOL    HW128496   1.343   4.019   6.592
 9199SOL    HW228497   1.313   4.158   6.672
 9200SOL     OW28498   6.388   0.336   0.375
 9200SOL    HW128499   6.456   0.409   0.372
 9200SOL    HW228500   6.344   0.328   0.285
 9201SOL     OW28501   0.605   3.601   2.237
 9201SOL    HW128502   0.578   3.533   2.169
 9201SOL    HW228503   0.604   3.692   2.196
 9202SOL     OW28504   3.194   5.475   4.385
 9202SOL    HW128505   3.256   5.473   4.463
 9202SOL    HW228506   3.144   5.388   4.380
 9203SOL     OW28507   5.264   1.013   5.526
 9203SOL    HW128508   5.206   1.039   5.449
 9203SOL    HW228509   5.210   1.013   5.610
 9204SOL     OW28510   4.917   4.210   2.556
 9204SOL    HW128511   4.912   4.118   2.517
 9204SOL    HW228512   4.858   4.216   2.636
 9205SOL     OW28513   5.185   2.610   2.500
 9205SOL    HW128514   5.193   2.607   2.400
 9205SOL    HW228515   5.090   2.629   2.525
 9206SOL     OW28516   0.694   6.588   3.259
 9206SOL    HW128517   0.667   6.547   3.172
 9206SOL    HW228518   0.770   6.535   3.299
 9207SOL     OW28519   4.123   6.517   0.510
 9207SOL    HW128520   4.089   6.608   0.487
 9207SOL    HW228521   4.216   6.524   0.546
 9208SOL     OW28522   5.301   3.694   1.827
 9208SOL    HW128523   5.303   3.703   1.727
 9208SOL    HW228524   5.223   3.639   1.855
 9209SOL     OW28525   4.219   1.197   2.192
 9209SOL    HW128526   4.301   1.144   2.173
 9209SOL    HW228527   4.141   1.136   2.202
 9210SOL     OW28528   1.220   6.951   1.206
 9210SOL    HW128529   1.214   0.002   1.140
 9210SOL    HW228530   1.276   6.877   1.168
 9211SOL     OW28531   5.208   1.506   6.843
 9211SOL    HW128532   5.172   1.543   6.757
 9211SOL    HW228533   5.132   1.485   6.905
 9212SOL     OW28534   5.425   3.613   4.557
 9212SOL    HW128535   5.516   3.650   4.538
 9212SOL    HW228536   5.378   3.595   4.470
 9213SOL     OW28537   6.095   6.674   3.332
 9213SOL    HW128538   6.089   6.683   3.431
 9213SOL    HW228539   6.189   6.651   3.306
 9214SOL     OW28540   2.277   2.374   4.796
 9214SOL    HW128541   2.226   2.377   4.882
 9214SOL    HW228542   2.369   2.410   4.810
 9215SOL     OW28543   0.383   3.662   2.696
 9215SOL    HW128544   0.475   3.640   2.730
 9215SOL    HW228545   0.365   3.611   2.612
 9216SOL     OW28546   2.128   5.743   4.838
 9216SOL    HW128547   2.142   5.733   4.937
 9216SOL    HW228548   2.036   5.710   4.815
 9217SOL     OW28549   4.301   1.114   6.525
 9217SOL    HW128550   4.236   1.182   6.489
 9217SOL    HW228551   4.264   1.072   6.607
 9218SOL     OW28552   5.654   5.611   5.905
 9218SOL    HW128553   5.625   5.603   6.000
 9218SOL    HW228554   5.665   5.520   5.865
 9219SOL     OW28555   3.539   2.959   5.431
 9219SOL    HW128556   3.594   2.945   5.348
 9219SOL    HW228557   3.557   2.885   5.495
 9220SOL     OW28558   1.788   6.237   3.056
 9220SOL    HW128559   1.799   6.280   2.966
 9220SOL    HW228560   1.846   6.156   3.062
 9221SOL     OW28561   2.583   0.825   6.621
 9221SOL    HW128562   2.621   0.880   6.695
 9221SOL    HW228563   2.586   0.877   6.536
 9222SOL     OW28564   1.373   3.846   3.340
 9222SOL    HW128565   1.285   3.861   3.294
 9222SOL    HW228566   1.404   3.753   3.322
 9223SOL     OW28567   1.030   3.539   4.501
 9223SOL    HW128568   1.056   3.549   4.597
 9223SOL    HW228569   0.998   3.445   4.485
 9224SOL     OW28570   1.969   3.925   4.433
 9224SOL    HW128571   2.025   3.868   4.372
 9224SOL    HW228572   2.028   3.982   4.490
 9225SOL     OW28573   4.719   6.992   6.829
 9225SOL    HW128574   4.796   6.943   6.871
 9225SOL    HW228575   4.736   0.067   6.835
 9226SOL     OW28576   0.862   0.972   0.601
 9226SOL    HW128577   0.876   1.059   0.649
 9226SOL    HW228578   0.902   0.978   0.510
 9227SOL     OW28579   2.664   5.557   0.935
 9227SOL    HW128580   2.736   5.493   0.908
 9227SOL    HW228581   2.679   5.586   1.029
 9228SOL     OW28582   3.212   2.734   5.724
 9228SOL    HW128583   3.161   2.768   5.803
 9228SOL    HW228584   3.278   2.665   5.755
 9229SOL     OW28585   0.043   4.707   6.856
 9229SOL    HW128586   0.023   4.707   6.955
 9229SOL    HW228587   0.056   4.801   6.825
 9230SOL     OW28588   4.723   1.819   4.091
 9230SOL    HW128589   4.707   1.903   4.143
 9230SOL    HW228590   4.636   1.777   4.066
 9231SOL     OW28591   0.101   5.760   4.113
 9231SOL    HW128592   0.061   5.758   4.205
 9231SOL    HW228593   0.050   5.698   4.053
 9232SOL     OW28594   1.443   5.362   1.955
 9232SOL    HW128595   1.470   5.418   1.877
 9232SOL    HW228596   1.430   5.267   1.926
 9233SOL     OW28597   1.082   6.994   0.307
 9233SOL    HW128598   1.091   0.068   0.326
 9233SOL    HW228599   1.009   6.956   0.364
 9234SOL     OW28600   2.124   4.618   0.668
 9234SOL    HW128601   2.148   4.698   0.612
 9234SOL    HW228602   2.078   4.648   0.751
 9235SOL     OW28603   2.520   2.169   4.216
 9235SOL    HW128604   2.507   2.155   4.118
 9235SOL    HW228605   2.504   2.266   4.239
 9236SOL     OW28606   2.211   3.811   6.478
 9236SOL    HW128607   2.181   3.807   6.573
 9236SOL    HW228608   2.164   3.885   6.431
 9237SOL     OW28609   6.458   4.922   3.671
 9237SOL    HW128610   6.555   4.934   3.690
 9237SOL    HW228611   6.439   4.946   3.576
 9238SOL     OW28612   1.715   3.155   5.324
 9238SOL    HW128613   1.808   3.136   5.354
 9238SOL    HW228614   1.714   3.173   5.226
 9239SOL     OW28615   0.556   4.795   0.020
 9239SOL    HW128616   0.473   4.833   7.003
 9239SOL    HW228617   0.626   4.866   0.024
 9240SOL     OW28618   4.589   2.350   2.641
 9240SOL    HW128619   4.562   2.405   2.563
 9240SOL    HW228620   4.531   2.372   2.719
 9241SOL     OW28621   5.825   6.909   0.950
 9241SOL    HW128622   5.758   6.954   1.009
 9241SOL    HW228623   5.806   6.811   0.948
 9242SOL     OW28624   1.168   2.814   1.014
 9242SOL    HW128625   1.206   2.722   1.010
 9242SOL    HW228626   1.110   2.830   0.935
 9243SOL     OW28627   0.981   0.701   0.159
 9243SOL    HW128628   0.885   0.727   0.145
 9243SOL    HW228629   1.010   0.638   0.087
 9244SOL     OW28630   4.062   6.233   5.078
 9244SOL    HW128631   3.965   6.215   5.066
 9244SOL    HW228632   4.107   6.231   4.989
 9245SOL     OW28633   0.846   4.247   3.036
 9245SOL    HW128634   0.870   4.218   3.129
 9245SOL    HW228635   0.761   4.300   3.040
 9246SOL     OW28636   6.755   0.575   4.927
 9246SOL    HW128637   6.756   0.493   4.984
 9246SOL    HW228638   6.837   0.630   4.945
 9247SOL     OW28639   3.839   5.768   3.558
 9247SOL    HW128640   3.934   5.792   3.576
 9247SOL    HW228641   3.780   5.814   3.624
 9248SOL     OW28642   2.648   1.305   5.362
 9248SOL    HW128643   2.702   1.298   5.446
 9248SOL    HW228644   2.686   1.244   5.292
 9249SOL     OW28645   3.983   5.456   1.646
 9249SOL    HW128646   3.929   5.506   1.579
 9249SOL    HW228647   3.973   5.498   1.736
 9250SOL     OW28648   0.171   3.036   3.996
 9250SOL    HW128649   0.123   3.092   4.064
 9250SOL    HW228650   0.209   2.955   4.041
 9251SOL     OW28651   3.212   2.838   0.823
 9251SOL    HW128652   3.190   2.932   0.797
 9251SOL    HW228653   3.192   2.824   0.919
 9252SOL     OW28654   5.659   0.671   5.708
 9252SOL    HW128655   5.586   0.722   5.663
 9252SOL    HW228656   5.720   0.736   5.754
 9253SOL     OW28657   0.955   4.737   5.500
 9253SOL    HW128658   1.031   4.800   5.482
 9253SOL    HW228659   0.896   4.776   5.570
 9254SOL     OW28660   6.642   5.139   3.346
 9254SOL    HW128661   6.573   5.208   3.364
 9254SOL    HW228662   6.730   5.171   3.381
 9255SOL     OW28663   6.728   4.593   0.695
 9255SOL    HW128664   6.696   4.587   0.790
 9255SOL    HW228665   6.823   4.563   0.690
 9256SOL     OW28666   1.731   6.443   1.325
 9256SOL    HW128667   1.748   6.376   1.253
 9256SOL    HW228668   1.811   6.501   1.337
 9257SOL     OW28669   6.762   5.758   4.040
 9257SOL    HW128670   6.752   5.705   4.124
 9257SOL    HW228671   6.840   5.725   3.988
 9258SOL     OW28672   3.742   4.540   0.965
 9258SOL    HW128673   3.773   4.447   0.986
 9258SOL    HW228674   3.703   4.542   0.873
 9259SOL     OW28675   2.246   1.755   6.415
 9259SOL    HW128676   2.258   1.771   6.317
 9259SOL    HW228677   2.262   1.839   6.466
 9260SOL     OW28678   5.391   3.380   4.903
 9260SOL    HW128679   5.473   3.366   4.848
 9260SOL    HW228680   5.359   3.292   4.940
 9261SOL     OW28681   3.893   2.357   1.760
 9261SOL    HW128682   3.896   2.258   1.742
 9261SOL    HW228683   3.805   2.380   1.802
 9262SOL     OW28684   6.248   6.046   3.629
 9262SOL    HW128685   6.240   6.071   3.726
 9262SOL    HW228686   6.331   5.992   3.616
 9263SOL     OW28687   2.036   4.155   3.949
 9263SOL    HW128688   1.982   4.239   3.952
 9263SOL    HW228689   2.034   4.112   4.039
 9264SOL     OW28690   4.418   3.843   6.863
 9264SOL    HW128691   4.487   3.783   6.822
 9264SOL    HW228692   4.339   3.788   6.891
 9265SOL     OW28693   5.336   2.292   0.391
 9265SOL    HW128694   5.400   2.219   0.416
 9265SOL    HW228695   5.260   2.294   0.457
 9266SOL     OW28696   0.103   4.162   0.972
 9266SOL    HW128697   0.048   4.108   1.036
 9266SOL    HW228698   0.043   4.210   0.909
 9267SOL     OW28699   0.535   1.100   4.291
 9267SOL    HW128700   0.534   1.168   4.364
 9267SOL    HW228701   0.442   1.089   4.255
 9268SOL     OW28702   0.526   6.899   2.256
 9268SOL    HW128703   0.478   6.896   2.344
 9268SOL    HW228704   0.600   6.832   2.256
 9269SOL     OW28705   3.787   0.672   1.251
 9269SOL    HW128706   3.859   0.669   1.182
 9269SOL    HW228707   3.808   0.608   1.325
 9270SOL     OW28708   1.867   0.875   5.917
 9270SOL    HW128709   1.951   0.924   5.897
 9270SOL    HW228710   1.885   0.776   5.916
 9271SOL     OW28711   1.542   0.295   5.129
 9271SOL    HW128712   1.618   0.262   5.072
 9271SOL    HW228713   1.473   0.224   5.136
 9272SOL     OW28714   6.683   6.409   6.041
 9272SOL    HW128715   6.751   6.383   6.110
 9272SOL    HW228716   6.606   6.345   6.044
 9273SOL     OW28717   4.573   5.018   4.717
 9273SOL    HW128718   4.591   5.071   4.634
 9273SOL    HW228719   4.519   5.073   4.781
 9274SOL     OW28720   0.895   3.306   0.151
 9274SOL    HW128721   0.828   3.345   0.089
 9274SOL    HW228722   0.957   3.246   0.101
 9275SOL     OW28723   0.721   0.134   0.712
 9275SOL    HW128724   0.790   0.205   0.723
 9275SOL    HW228725   0.734   0.064   0.782
 9276SOL     OW28726   3.413   5.124   0.360
 9276SOL    HW128727   3.328   5.176   0.348
 9276SOL    HW228728   3.411   5.043   0.300
 9277SOL     OW28729   5.265   5.185   2.502
 9277SOL    HW128730   5.339   5.145   2.555
 9277SOL    HW228731   5.235   5.270   2.545
 9278SOL     OW28732   0.734   0.940   4.940
 9278SOL    HW128733   0.635   0.923   4.933
 9278SOL    HW228734   0.783   0.853   4.932
 9279SOL     OW28735   4.749   5.751   1.585
 9279SOL    HW128736   4.678   5.809   1.625
 9279SOL    HW228737   4.832   5.757   1.641
 9280SOL     OW28738   1.599   0.781   2.782
 9280SOL    HW128739   1.618   0.741   2.872
 9280SOL    HW228740   1.639   0.872   2.777
 9281SOL     OW28741   3.104   4.568   0.177
 9281SOL    HW128742   3.053   4.569   0.091
 9281SOL    HW228743   3.057   4.623   0.245
 9282SOL     OW28744   2.975   0.270   4.828
 9282SOL    HW128745   3.006   0.353   4.874
 9282SOL    HW228746   3.009   0.190   4.876
 9283SOL     OW28747   4.775   6.656   0.048
 9283SOL    HW128748   4.815   6.656   6.980
 9283SOL    HW228749   4.682   6.622   0.045
 9284SOL     OW28750   3.176   4.041   5.105
 9284SOL    HW128751   3.095   4.100   5.118
 9284SOL    HW228752   3.255   4.083   5.150
 9285SOL     OW28753   6.873   4.048   2.475
 9285SOL    HW128754   6.941   4.006   2.535
 9285SOL    HW228755   6.857   4.142   2.505
 9286SOL     OW28756   4.838   5.446   1.424
 9286SOL    HW128757   4.764   5.474   1.485
 9286SOL    HW228758   4.813   5.361   1.378
 9287SOL     OW28759   3.059   4.547   5.942
 9287SOL    HW128760   3.088   4.517   6.033
 9287SOL    HW228761   3.100   4.488   5.872
 9288SOL     OW28762   4.398   2.128   3.494
 9288SOL    HW128763   4.317   2.143   3.551
 9288SOL    HW228764   4.401   2.032   3.464
 9289SOL     OW28765   4.878   6.461   6.640
 9289SOL    HW128766   4.951   6.408   6.597
 9289SOL    HW228767   4.808   6.399   6.674
 9290SOL     OW28768   5.350   0.452   4.595
 9290SOL    HW128769   5.347   0.497   4.684
 9290SOL    HW228770   5.258   0.451   4.554
 9291SOL     OW28771   1.515   5.151   5.844
 9291SOL    HW128772   1.505   5.083   5.772
 9291SOL    HW228773   1.439   5.143   5.909
 9292SOL     OW28774   1.752   2.049   6.194
 9292SOL    HW128775   1.754   2.102   6.279
 9292SOL    HW228776   1.845   2.041   6.158
 9293SOL     OW28777   5.190   2.936   6.043
 9293SOL    HW128778   5.240   3.015   6.081
 9293SOL    HW228779   5.242   2.853   6.060
 9294SOL     OW28780   4.401   1.383   0.204
 9294SOL    HW128781   4.446   1.405   0.118
 9294SOL    HW228782   4.320   1.326   0.186
 9295SOL     OW28783   0.997   1.471   5.507
 9295SOL    HW128784   1.040   1.558   5.529
 9295SOL    HW228785   1.066   1.399   5.506
 9296SOL     OW28786   2.294   4.404   0.284
 9296SOL    HW128787   2.393   4.401   0.300
 9296SOL    HW228788   2.247   4.357   0.359
 9297SOL     OW28789   5.915   6.592   2.923
 9297SOL    HW128790   5.918   6.556   2.830
 9297SOL    HW228791   5.901   6.691   2.919
 9298SOL     OW28792   1.419   6.281   5.905
 9298SOL    HW128793   1.369   6.308   5.987
 9298SOL    HW228794   1.401   6.184   5.886
 9299SOL     OW28795   2.116   2.791   4.793
 9299SOL    HW128796   2.071   2.829   4.873
 9299SOL    HW228797   2.063   2.714   4.757
 9300SOL     OW28798   1.610   6.190   6.139
 9300SOL    HW128799   1.570   6.280   6.120
 9300SOL    HW228800   1.628   6.143   6.053
 9301SOL     OW28801   0.470   4.014   4.725
 9301SOL    HW128802   0.438   3.919   4.730
 9301SOL    HW228803   0.392   4.073   4.703
 9302SOL     OW28804   1.917   3.524   4.987
 9302SOL    HW128805   1.940   3.585   4.910
 9302SOL    HW228806   1.824   3.541   5.017
 9303SOL     OW28807   2.304   4.865   0.854
 9303SOL    HW128808   2.213   4.907   0.856
 9303SOL    HW228809   2.335   4.849   0.948
 9304SOL     OW28810   4.639   5.357   0.617
 9304SOL    HW128811   4.674   5.334   0.526
 9304SOL    HW228812   4.714   5.368   0.681
 9305SOL     OW28813   2.497   1.424   1.494
 9305SOL    HW128814   2.493   1.450   1.397
 9305SOL    HW228815   2.592   1.406   1.519
 9306SOL     OW28816   0.586   5.679   4.616
 9306SOL    HW128817   0.661   5.729   4.659
 9306SOL    HW228818   0.606   5.664   4.519
 9307SOL     OW28819   2.651   3.205   1.711
 9307SOL    HW128820   2.570   3.155   1.680
 9307SOL    HW228821   2.701   3.149   1.777
 9308SOL     OW28822   1.944   3.710   1.848
 9308SOL    HW128823   1.953   3.797   1.896
 9308SOL    HW228824   2.025   3.654   1.864
 9309SOL     OW28825   4.874   5.978   5.608
 9309SOL    HW128826   4.950   6.041   5.591
 9309SOL    HW228827   4.813   6.017   5.677
 9310SOL     OW28828   5.223   5.927   6.281
 9310SOL    HW128829   5.159   5.933   6.205
 9310SOL    HW228830   5.313   5.900   6.247
 9311SOL     OW28831   4.504   3.541   1.527
 9311SOL    HW128832   4.594   3.579   1.546
 9311SOL    HW228833   4.446   3.550   1.608
 9312SOL     OW28834   0.579   2.452   1.527
 9312SOL    HW128835   0.538   2.473   1.615
 9312SOL    HW228836   0.512   2.470   1.454
 9313SOL     OW28837   0.582   6.668   1.875
 9313SOL    HW128838   0.632   6.635   1.955
 9313SOL    HW228839   0.627   6.750   1.840
 9314SOL     OW28840   4.964   3.048   0.042
 9314SOL    HW128841   4.871   3.071   0.014
 9314SOL    HW228842   4.962   2.977   0.112
 9315SOL     OW28843   5.660   0.957   6.490
 9315SOL    HW128844   5.575   0.948   6.542
 9315SOL    HW228845   5.646   0.919   6.398
 9316SOL     OW28846   4.548   1.129   5.559
 9316SOL    HW128847   4.544   1.059   5.630
 9316SOL    HW228848   4.461   1.130   5.509
 9317SOL     OW28849   4.350   6.097   3.431
 9317SOL    HW128850   4.288   6.084   3.354
 9317SOL    HW228851   4.427   6.154   3.403
 9318SOL     OW28852   5.221   5.931   1.276
 9318SOL    HW128853   5.178   5.916   1.365
 9318SOL    HW228854   5.155   5.911   1.203
 9319SOL     OW28855   2.556   4.368   0.326
 9319SOL    HW128856   2.619   4.349   0.400
 9319SOL    HW228857   2.556   4.291   0.262
 9320SOL     OW28858   6.490   6.594   6.392
 9320SOL    HW128859   6.410   6.636   6.435
 9320SOL    HW228860   6.557   6.571   6.462
 9321SOL     OW28861   0.562   3.648   4.833
 9321SOL    HW128862   0.479   3.599   4.808
 9321SOL    HW228863   0.558   3.673   4.930
 9322SOL     OW28864   5.339   3.973   5.771
 9322SOL    HW128865   5.313   4.063   5.807
 9322SOL    HW228866   5.421   3.982   5.715
 9323SOL     OW28867   1.558   2.669   4.196
 9323SOL    HW128868   1.613   2.733   4.143
 9323SOL    HW228869   1.543   2.586   4.143
 9324SOL     OW28870   0.554   4.006   1.375
 9324SOL    HW128871   0.548   4.002   1.475
 9324SOL    HW228872   0.465   3.986   1.335
 9325SOL     OW28873   1.226   4.701   2.917
 9325SOL    HW128874   1.269   4.615   2.890
 9325SOL    HW228875   1.241   4.717   3.015
 9326SOL     OW28876   4.040   4.270   0.829
 9326SOL    HW128877   4.136   4.287   0.806
 9326SOL    HW228878   4.035   4.216   0.913
 9327SOL     OW28879   4.469   0.499   3.674
 9327SOL    HW128880   4.475   0.474   3.771
 9327SOL    HW228881   4.404   0.438   3.628
 9328SOL     OW28882   2.871   6.038   4.323
 9328SOL    HW128883   2.792   5.980   4.344
 9328SOL    HW228884   2.955   5.990   4.347
 9329SOL     OW28885   6.942   5.640   6.546
 9329SOL    HW128886   0.010   5.648   6.584
 9329SOL    HW228887   6.909   5.547   6.558
 9330SOL     OW28888   5.857   5.947   6.309
 9330SOL    HW128889   5.903   5.887   6.374
 9330SOL    HW228890   5.893   5.931   6.217
 9331SOL     OW28891   1.336   3.247   4.335
 9331SOL    HW128892   1.435   3.248   4.347
 9331SOL    HW228893   1.303   3.340   4.319
 9332SOL     OW28894   4.416   5.690   0.959
 9332SOL    HW128895   4.499   5.693   1.014
 9332SOL    HW228896   4.369   5.779   0.964
 9333SOL     OW28897   3.761   4.666   0.615
 9333SOL    HW128898   3.690   4.627   0.556
 9333SOL    HW228899   3.727   4.751   0.656
 9334SOL     OW28900   5.331   6.347   5.436
 9334SOL    HW128901   5.328   6.415   5.509
 9334SOL    HW228902   5.406   6.368   5.374
 9335SOL     OW28903   2.197   2.792   1.410
 9335SOL    HW128904   2.244   2.781   1.323
 9335SOL    HW228905   2.108   2.837   1.395
 9336SOL     OW28906   6.987   0.545   5.243
 9336SOL    HW128907   0.051   0.538   5.194
 9336SOL    HW228908   6.996   0.613   5.316
 9337SOL     OW28909   2.621   0.415   6.373
 9337SOL    HW128910   2.605   0.418   6.472
 9337SOL    HW228911   2.677   0.493   6.346
 9338SOL     OW28912   6.218   6.095   0.065
 9338SOL    HW128913   6.307   6.069   0.027
 9338SOL    HW228914   6.145   6.056   0.010
 9339SOL     OW28915   6.467   4.669   5.675
 9339SOL    HW128916   6.377   4.685   5.714
 9339SOL    HW228917   6.535   4.665   5.748
 9340SOL     OW28918   4.090   6.312   2.330
 9340SOL    HW128919   4.043   6.365   2.400
 9340SOL    HW228920   4.095   6.365   2.245
 9341SOL     OW28921   5.308   3.789   7.020
 9341SOL    HW128922   5.353   3.773   6.932
 9341SOL    HW228923   5.360   3.857   0.048
 9342SOL     OW28924   2.813   0.163   4.250
 9342SOL    HW128925   2.766   0.185   4.165
 9342SOL    HW228926   2.901   0.211   4.254
 9343SOL     OW28927   4.863   4.156   1.566
 9343SOL    HW128928   4.934   4.222   1.587
 9343SOL    HW228929   4.775   4.189   1.599
 9344SOL     OW28930   5.721   5.405   4.817
 9344SOL    HW128931   5.812   5.374   4.845
 9344SOL    HW228932   5.670   5.435   4.897
 9345SOL     OW28933   0.070   6.726   0.920
 9345SOL    HW128934   0.127   6.762   0.845
 9345SOL    HW228935   7.011   6.782   0.928
 9346SOL     OW28936   5.387   6.472   1.642
 9346SOL    HW128937   5.291   6.486   1.618
 9346SOL    HW228938   5.397   6.477   1.742
 9347SOL     OW28939   3.837   5.494   0.420
 9347SOL    HW128940   3.741   5.522   0.426
 9347SOL    HW228941   3.862   5.442   0.502
 9348SOL     OW28942   2.113   6.024   1.929
 9348SOL    HW128943   2.060   6.072   1.998
 9348SOL    HW228944   2.070   6.036   1.839
 9349SOL     OW28945   6.172   5.127   1.656
 9349SOL    HW128946   6.141   5.033   1.668
 9349SOL    HW228947   6.094   5.186   1.639
 9350SOL     OW28948   0.180   0.903   5.013
 9350SOL    HW128949   0.100   0.955   5.044
 9350SOL    HW228950   0.218   0.852   5.090
 9351SOL     OW28951   3.001   1.253   6.065
 9351SOL    HW128952   3.024   1.236   5.969
 9351SOL    HW228953   2.914   1.209   6.086
 9352SOL     OW28954   3.509   1.852   6.393
 9352SOL    HW128955   3.565   1.935   6.386
 9352SOL    HW228956   3.424   1.865   6.343
 9353SOL     OW28957   0.961   3.848   1.376
 9353SOL    HW128958   0.976   3.943   1.349
 9353SOL    HW228959   0.990   3.834   1.470
 9354SOL     OW28960   5.420   1.788   1.327
 9354SOL    HW128961   5.374   1.846   1.395
 9354SOL    HW228962   5.433   1.697   1.365
 9355SOL     OW28963   6.671   6.974   3.597
 9355SOL    HW128964   6.650   6.916   3.676
 9355SOL    HW228965   6.756   6.944   3.554
 9356SOL     OW28966   4.365   5.114   2.088
 9356SOL    HW128967   4.386   5.212   2.085
 9356SOL    HW228968   4.441   5.065   2.130
 9357SOL     OW28969   3.033   3.063   1.068
 9357SOL    HW128970   3.066   3.148   1.110
 9357SOL    HW228971   2.935   3.052   1.087
 9358SOL     OW28972   6.377   4.333   1.939
 9358SOL    HW128973   6.326   4.335   1.853
 9358SOL    HW228974   6.385   4.239   1.971
 9359SOL     OW28975   0.136   4.168   6.394
 9359SOL    HW128976   0.115   4.232   6.467
 9359SOL    HW228977   0.051   4.125   6.362
 9360SOL     OW28978   2.325   0.847   6.230
 9360SOL    HW128979   2.329   0.944   6.256
 9360SOL    HW228980   2.383   0.832   6.151
 9361SOL     OW28981   3.059   6.274   2.193
 9361SOL    HW128982   3.010   6.209   2.135
 9361SOL    HW228983   3.126   6.324   2.138
 9362SOL     OW28984   2.377   1.479   2.372
 9362SOL    HW128985   2.437   1.448   2.299
 9362SOL    HW228986   2.332   1.564   2.345
 9363SOL     OW28987   3.466   6.145   2.936
 9363SOL    HW128988   3.391   6.109   2.991
 9363SOL    HW228989   3.490   6.237   2.968
 9364SOL     OW28990   4.349   2.778   6.529
 9364SOL    HW128991   4.272   2.741   6.581
 9364SOL    HW228992   4.344   2.745   6.435
 9365SOL     OW28993   2.808   2.019   4.961
 9365SOL    HW128994   2.754   1.948   5.007
 9365SOL    HW228995   2.749   2.072   4.900
 9366SOL     OW28996   3.339   2.050   0.271
 9366SOL    HW128997   3.415   2.102   0.309
 9366SOL    HW228998   3.369   2.000   0.190
 9367SOL     OW28999   6.805   5.685   3.273
 9367SOL    HW129000   6.903   5.701   3.281
 9367SOL    HW229001   6.788   5.587   3.259
 9368SOL     OW29002   3.219   2.384   1.551
 9368SOL    HW129003   3.187   2.334   1.632
 9368SOL    HW229004   3.233   2.319   1.476
 9369SOL     OW29005   6.981   1.857   5.246
 9369SOL    HW129006   7.005   1.950   5.272
 9369SOL    HW229007   7.022   1.792   5.310
 9370SOL     OW29008   6.341   0.941   2.703
 9370SOL    HW129009   6.283   0.910   2.628
 9370SOL    HW229010   6.293   0.928   2.790
 9371SOL     OW29011   1.242   5.938   0.386
 9371SOL    HW129012   1.151   5.928   0.426
 9371SOL    HW229013   1.239   6.005   0.312
 9372SOL     OW29014   5.526   6.564   3.412
 9372SOL    HW129015   5.554   6.617   3.333
 9372SOL    HW229016   5.597   6.498   3.435
 9373SOL     OW29017   4.467   1.603   3.431
 9373SOL    HW129018   4.545   1.549   3.398
 9373SOL    HW229019   4.418   1.642   3.353
 9374SOL     OW29020   5.909   2.505   0.431
 9374SOL    HW129021   5.924   2.577   0.362
 9374SOL    HW229022   5.884   2.547   0.518
 9375SOL     OW29023   6.987   1.284   2.664
 9375SOL    HW129024   6.996   1.191   2.697
 9375SOL    HW229025   6.903   1.293   2.611
 9376SOL     OW29026   3.038   3.635   0.703
 9376SOL    HW129027   3.106   3.707   0.687
 9376SOL    HW229028   2.980   3.662   0.780
 9377SOL     OW29029   6.595   5.321   3.814
 9377SOL    HW129030   6.544   5.239   3.838
 9377SOL    HW229031   6.692   5.308   3.838
 9378SOL     OW29032   2.562   0.384   0.150
 9378SOL    HW129033   2.542   0.302   0.204
 9378SOL    HW229034   2.636   0.435   0.193
 9379SOL     OW29035   4.461   4.755   3.997
 9379SOL    HW129036   4.470   4.841   4.048
 9379SOL    HW229037   4.376   4.710   4.024
 9380SOL     OW29038   6.639   6.899   5.767
 9380SOL    HW129039   6.707   6.841   5.723
 9380SOL    HW229040   6.590   6.952   5.698
 9381SOL     OW29041   2.751   2.656   5.402
 9381SOL    HW129042   2.827   2.705   5.444
 9381SOL    HW229043   2.687   2.722   5.362
 9382SOL     OW29044   4.054   1.192   2.719
 9382SOL    HW129045   4.028   1.128   2.647
 9382SOL    HW229046   3.973   1.216   2.773
 9383SOL     OW29047   3.312   6.990   4.366
 9383SOL    HW129048   3.287   0.004   4.276
 9383SOL    HW229049   3.369   6.909   4.353
 9384SOL     OW29050   4.994   5.870   2.626
 9384SOL    HW129051   4.973   5.953   2.677
 9384SOL    HW229052   4.991   5.889   2.528
 9385SOL     OW29053   3.668   1.318   3.492
 9385SOL    HW129054   3.745   1.305   3.554
 9385SOL    HW229055   3.625   1.406   3.510
 9386SOL     OW29056   3.423   6.452   5.289
 9386SOL    HW129057   3.324   6.467   5.282
 9386SOL    HW229058   3.462   6.449   5.197
 9387SOL     OW29059   3.441   6.520   1.446
 9387SOL    HW129060   3.432   6.610   1.488
 9387SOL    HW229061   3.397   6.521   1.356
 9388SOL     OW29062   0.617   6.653   2.790
 9388SOL    HW129063   0.701   6.600   2.803
 9388SOL    HW229064   0.587   6.690   2.877
 9389SOL     OW29065   2.876   0.554   5.660
 9389SOL    HW129066   2.944   0.545   5.733
 9389SOL    HW229067   2.813   0.477   5.663
 9390SOL     OW29068   3.684   5.526   2.909
 9390SOL    HW129069   3.753   5.566   2.969
 9390SOL    HW229070   3.724   5.513   2.818
 9391SOL     OW29071   1.628   1.074   5.347
 9391SOL    HW129072   1.700   1.137   5.375
 9391SOL    HW229073   1.551   1.125   5.309
 9392SOL     OW29074   0.991   6.453   5.031
 9392SOL    HW129075   0.907   6.421   5.075
 9392SOL    HW229076   1.013   6.392   4.954
 9393SOL     OW29077   4.029   2.134   5.360
 9393SOL    HW129078   3.991   2.098   5.444
 9393SOL    HW229079   4.075   2.221   5.378
 9394SOL     OW29080   6.212   2.756   3.208
 9394SOL    HW129081   6.283   2.706   3.158
 9394SOL    HW229082   6.124   2.711   3.196
 9395SOL     OW29083   2.656   2.620   0.431
 9395SOL    HW129084   2.645   2.699   0.371
 9395SOL    HW229085   2.578   2.615   0.494
 9396SOL     OW29086   6.283   6.498   5.082
 9396SOL    HW129087   6.355   6.560   5.114
 9396SOL    HW229088   6.314   6.451   4.999
 9397SOL     OW29089   1.996   0.948   6.866
 9397SOL    HW129090   1.950   0.881   6.924
 9397SOL    HW229091   2.022   0.905   6.779
 9398SOL     OW29092   2.706   1.408   6.973
 9398SOL    HW129093   2.606   1.413   6.978
 9398SOL    HW229094   2.735   1.410   6.877
 9399SOL     OW29095   6.657   1.925   6.391
 9399SOL    HW129096   6.700   1.904   6.304
 9399SOL    HW229097   6.559   1.942   6.378
 9400SOL     OW29098   5.079   3.273   1.443
 9400SOL    HW129099   5.000   3.241   1.494
 9400SOL    HW229100   5.135   3.195   1.415
 9401SOL     OW29101   2.600   6.388   4.042
 9401SOL    HW129102   2.683   6.331   4.040
 9401SOL    HW229103   2.521   6.333   4.017
 9402SOL     OW29104   2.878   5.372   6.540
 9402SOL    HW129105   2.920   5.459   6.565
 9402SOL    HW229106   2.919   5.338   6.456
 9403SOL     OW29107   5.702   1.282   3.439
 9403SOL    HW129108   5.703   1.275   3.339
 9403SOL    HW229109   5.616   1.323   3.468
 9404SOL     OW29110   0.738   4.957   6.773
 9404SOL    HW129111   0.827   4.938   6.815
 9404SOL    HW229112   0.751   4.980   6.677
 9405SOL     OW29113   5.916   6.565   1.558
 9405SOL    HW129114   5.941   6.653   1.598
 9405SOL    HW229115   5.995   6.525   1.513
 9406SOL     OW29116   0.037   2.092   5.380
 9406SOL    HW129117   6.982   2.143   5.344
 9406SOL    HW229118   0.047   2.113   5.478
 9407SOL     OW29119   2.802   6.474   3.439
 9407SOL    HW129120   2.710   6.448   3.470
 9407SOL    HW229121   2.865   6.469   3.516
 9408SOL     OW29122   4.046   1.370   6.706
 9408SOL    HW129123   4.071   1.426   6.626
 9408SOL    HW229124   3.954   1.334   6.694
 9409SOL     OW29125   5.224   3.811   4.221
 9409SOL    HW129126   5.198   3.845   4.311
 9409SOL    HW229127   5.145   3.817   4.160
 9410SOL     OW29128   3.937   6.188   2.070
 9410SOL    HW129129   3.996   6.268   2.081
 9410SOL    HW229130   3.846   6.208   2.107
 9411SOL     OW29131   4.033   5.614   0.892
 9411SOL    HW129132   4.087   5.635   0.974
 9411SOL    HW229133   4.036   5.692   0.830
 9412SOL     OW29134   0.610   3.191   1.619
 9412SOL    HW129135   0.699   3.184   1.664
 9412SOL    HW229136   0.576   3.100   1.598
 9413SOL     OW29137   4.383   5.706   5.333
 9413SOL    HW129138   4.339   5.786   5.292
 9413SOL    HW229139   4.313   5.641   5.361
 9414SOL     OW29140   3.184   1.411   2.273
 9414SOL    HW129141   3.219   1.321   2.301
 9414SOL    HW229142   3.226   1.482   2.329
 9415SOL     OW29143   1.902   6.739   2.556
 9415SOL    HW129144   1.846   6.714   2.477
 9415SOL    HW229145   1.887   6.835   2.578
 9416SOL     OW29146   0.708   1.826   1.466
 9416SOL    HW129147   0.795   1.793   1.503
 9416SOL    HW229148   0.665   1.888   1.532
 9417SOL     OW29149   3.041   5.985   5.158
 9417SOL    HW129150   3.044   6.038   5.073
 9417SOL    HW229151   3.072   6.043   5.234
 9418SOL     OW29152   2.352   5.646   1.320
 9418SOL    HW129153   2.426   5.706   1.290
 9418SOL    HW229154   2.311   5.601   1.241
 9419SOL     OW29155   3.228   6.817   5.472
 9419SOL    HW129156   3.203   6.913   5.456
 9419SOL    HW229157   3.147   6.760   5.468
 9420SOL     OW29158   6.669   1.411   4.510
 9420SOL    HW129159   6.617   1.459   4.581
 9420SOL    HW229160   6.692   1.319   4.542
 9421SOL     OW29161   2.097   4.897   5.151
 9421SOL    HW129162   2.192   4.912   5.124
 9421SOL    HW229163   2.091   4.816   5.210
 9422SOL     OW29164   5.513   6.850   2.487
 9422SOL    HW129165   5.501   6.799   2.403
 9422SOL    HW229166   5.550   6.940   2.467
 9423SOL     OW29167   4.355   0.807   3.030
 9423SOL    HW129168   4.282   0.875   3.036
 9423SOL    HW229169   4.427   0.829   3.097
 9424SOL     OW29170   4.838   0.044   5.553
 9424SOL    HW129171   4.841   7.000   5.479
 9424SOL    HW229172   4.743   0.072   5.569
 9425SOL     OW29173   0.602   3.332   5.888
 9425SOL    HW129174   0.697   3.306   5.901
 9425SOL    HW229175   0.586   3.423   5.926
 9426SOL     OW29176   2.964   1.367   0.468
 9426SOL    HW129177   3.034   1.318   0.521
 9426SOL    HW229178   2.980   1.353   0.371
 9427SOL     OW29179   2.921   5.017   4.888
 9427SOL    HW129180   2.850   4.946   4.885
 9427SOL    HW229181   2.983   4.999   4.965
 9428SOL     OW29182   5.894   6.891   2.884
 9428SOL    HW129183   5.803   6.906   2.847
 9428SOL    HW229184   5.953   6.969   2.861
 9429SOL     OW29185   1.310   4.007   2.125
 9429SOL    HW129186   1.341   4.042   2.036
 9429SOL    HW229187   1.252   3.927   2.110
 9430SOL     OW29188   6.352   6.858   2.171
 9430SOL    HW129189   6.301   6.788   2.120
 9430SOL    HW229190   6.287   6.919   2.217
 9431SOL     OW29191   6.099   4.062   0.082
 9431SOL    HW129192   6.119   3.971   0.046
 9431SOL    HW229193   6.006   4.063   0.119
 9432SOL     OW29194   5.980   0.050   3.549
 9432SOL    HW129195   6.061   0.003   3.515
 9432SOL    HW229196   5.973   0.140   3.507
 9433SOL     OW29197   3.227   4.962   4.943
 9433SOL    HW129198   3.210   4.973   4.845
 9433SOL    HW229199   3.142   4.934   4.989
 9434SOL     OW29200   5.713   4.519   3.179
 9434SOL    HW129201   5.742   4.532   3.084
 9434SOL    HW229202   5.614   4.505   3.181
 9435SOL     OW29203   1.662   1.351   4.003
 9435SOL    HW129204   1.598   1.391   3.937
 9435SOL    HW229205   1.611   1.298   4.070
 9436SOL     OW29206   1.556   4.020   1.071
 9436SOL    HW129207   1.462   4.054   1.074
 9436SOL    HW229208   1.556   3.921   1.059
 9437SOL     OW29209   1.250   5.387   3.216
 9437SOL    HW129210   1.331   5.411   3.269
 9437SOL    HW229211   1.235   5.288   3.220
 9438SOL     OW29212   0.837   6.471   1.764
 9438SOL    HW129213   0.751   6.481   1.714
 9438SOL    HW229214   0.881   6.560   1.773
 9439SOL     OW29215   6.840   3.083   2.082
 9439SOL    HW129216   6.854   3.040   2.171
 9439SOL    HW229217   6.772   3.156   2.091
 9440SOL     OW29218   4.773   6.411   4.914
 9440SOL    HW129219   4.866   6.376   4.904
 9440SOL    HW229220   4.707   6.339   4.894
 9441SOL     OW29221   1.500   5.306   5.405
 9441SOL    HW129222   1.522   5.402   5.390
 9441SOL    HW229223   1.584   5.252   5.405
 9442SOL     OW29224   6.563   1.791   0.062
 9442SOL    HW129225   6.547   1.851   0.141
 9442SOL    HW229226   6.484   1.796   0.001
 9443SOL     OW29227   1.914   4.774   1.417
 9443SOL    HW129228   1.938   4.824   1.500
 9443SOL    HW229229   1.863   4.692   1.441
 9444SOL     OW29230   0.325   3.249   0.160
 9444SOL    HW129231   0.249   3.213   0.107
 9444SOL    HW229232   0.364   3.176   0.216
 9445SOL     OW29233   5.093   3.834   1.989
 9445SOL    HW129234   5.049   3.818   1.901
 9445SOL    HW229235   5.025   3.860   2.057
 9446SOL     OW29236   6.696   6.753   3.015
 9446SOL    HW129237   6.693   6.782   2.920
 9446SOL    HW229238   6.670   6.829   3.074
 9447SOL     OW29239   5.457   3.297   2.128
 9447SOL    HW129240   5.367   3.277   2.088
 9447SOL    HW229241   5.514   3.343   2.060
 9448SOL     OW29242   5.200   6.158   6.024
 9448SOL    HW129243   5.251   6.211   6.092
 9448SOL    HW229244   5.251   6.158   5.938
 9449SOL     OW29245   6.697   5.097   5.245
 9449SOL    HW129246   6.746   5.144   5.318
 9449SOL    HW229247   6.758   5.034   5.198
 9450SOL     OW29248   2.423   4.891   4.958
 9450SOL    HW129249   2.392   4.953   5.030
 9450SOL    HW229250   2.436   4.943   4.874
 9451SOL     OW29251   4.791   5.754   5.970
 9451SOL    HW129252   4.716   5.816   5.948
 9451SOL    HW229253   4.769   5.662   5.937
 9452SOL     OW29254   2.305   3.436   0.795
 9452SOL    HW129255   2.382   3.497   0.814
 9452SOL    HW229256   2.229   3.460   0.855
 9453SOL     OW29257   1.852   4.631   2.936
 9453SOL    HW129258   1.784   4.640   2.863
 9453SOL    HW229259   1.941   4.662   2.903
 9454SOL     OW29260   1.370   4.228   6.195
 9454SOL    HW129261   1.301   4.187   6.256
 9454SOL    HW229262   1.421   4.155   6.149
 9455SOL     OW29263   3.312   1.510   2.536
 9455SOL    HW129264   3.370   1.437   2.572
 9455SOL    HW229265   3.360   1.598   2.543
 9456SOL     OW29266   0.582   4.258   0.994
 9456SOL    HW129267   0.505   4.252   1.057
 9456SOL    HW229268   0.608   4.166   0.963
 9457SOL     OW29269   1.914   3.917   6.891
 9457SOL    HW129270   1.996   3.902   6.837
 9457SOL    HW229271   1.934   3.979   6.967
 9458SOL     OW29272   0.462   4.964   5.945
 9458SOL    HW129273   0.427   4.919   5.862
 9458SOL    HW229274   0.391   4.965   6.014
 9459SOL     OW29275   6.558   5.226   2.257
 9459SOL    HW129276   6.657   5.234   2.270
 9459SOL    HW229277   6.517   5.190   2.341
 9460SOL     OW29278   0.059   2.405   4.877
 9460SOL    HW129279   0.142   2.362   4.841
 9460SOL    HW229280   0.057   2.396   4.976
 9461SOL     OW29281   6.867   1.232   3.103
 9461SOL    HW129282   6.885   1.146   3.055
 9461SOL    HW229283   6.873   1.218   3.201
 9462SOL     OW29284   1.863   3.313   3.031
 9462SOL    HW129285   1.784   3.346   3.082
 9462SOL    HW229286   1.833   3.264   2.949
 9463SOL     OW29287   0.030   0.579   0.774
 9463SOL    HW129288   6.995   0.602   0.696
 9463SOL    HW229289   7.003   0.595   0.859
 9464SOL     OW29290   5.639   6.543   6.391
 9464SOL    HW129291   5.625   6.636   6.425
 9464SOL    HW229292   5.592   6.478   6.450
 9465SOL     OW29293   6.782   0.493   2.888
 9465SOL    HW129294   6.699   0.447   2.918
 9465SOL    HW229295   6.839   0.428   2.837
 9466SOL     OW29296   2.617   3.222   5.641
 9466SOL    HW129297   2.613   3.123   5.628
 9466SOL    HW229298   2.558   3.267   5.573
 9467SOL     OW29299   1.620   2.479   1.547
 9467SOL    HW129300   1.569   2.441   1.470
 9467SOL    HW229301   1.691   2.413   1.575
 9468SOL     OW29302   5.774   3.084   5.913
 9468SOL    HW129303   5.762   3.154   5.843
 9468SOL    HW229304   5.724   3.110   5.995
 9469SOL     OW29305   6.487   5.482   2.437
 9469SOL    HW129306   6.527   5.424   2.366
 9469SOL    HW229307   6.388   5.491   2.422
 9470SOL     OW29308   5.100   2.635   6.865
 9470SOL    HW129309   5.151   2.658   6.783
 9470SOL    HW229310   5.132   2.690   6.942
 9471SOL     OW29311   6.852   2.506   5.383
 9471SOL    HW129312   6.895   2.582   5.333
 9471SOL    HW229313   6.843   2.428   5.322
 9472SOL     OW29314   6.727   4.274   4.830
 9472SOL    HW129315   6.716   4.198   4.894
 9472SOL    HW229316   6.647   4.278   4.769
 9473SOL     OW29317   3.467   6.467   5.553
 9473SOL    HW129318   3.427   6.395   5.610
 9473SOL    HW229319   3.459   6.441   5.456
 9474SOL     OW29320   5.898   4.314   1.954
 9474SOL    HW129321   5.902   4.217   1.977
 9474SOL    HW229322   5.858   4.324   1.862
 9475SOL     OW29323   3.393   3.688   1.023
 9475SOL    HW129324   3.355   3.596   1.017
 9475SOL    HW229325   3.487   3.684   1.057
 9476SOL     OW29326   3.326   3.296   5.094
 9476SOL    HW129327   3.250   3.340   5.046
 9476SOL    HW229328   3.297   3.271   5.186
 9477SOL     OW29329   0.769   3.058   1.017
 9477SOL    HW129330   0.777   2.959   1.031
 9477SOL    HW229331   0.675   3.087   1.036
 9478SOL     OW29332   5.168   3.845   5.556
 9478SOL    HW129333   5.202   3.926   5.604
 9478SOL    HW229334   5.138   3.777   5.624
 9479SOL     OW29335   5.791   5.591   6.350
 9479SOL    HW129336   5.736   5.557   6.426
 9479SOL    HW229337   5.735   5.598   6.268
 9480SOL     OW29338   4.463   4.528   6.695
 9480SOL    HW129339   4.427   4.599   6.634
 9480SOL    HW229340   4.489   4.448   6.641
 9481SOL     OW29341   6.476   3.816   1.675
 9481SOL    HW129342   6.490   3.903   1.629
 9481SOL    HW229343   6.382   3.811   1.710
 9482SOL     OW29344   5.816   0.648   3.614
 9482SOL    HW129345   5.719   0.653   3.591
 9482SOL    HW229346   5.850   0.739   3.636
 9483SOL     OW29347   1.792   1.749   1.000
 9483SOL    HW129348   1.693   1.735   0.986
 9483SOL    HW229349   1.810   1.762   1.097
 9484SOL     OW29350   6.231   1.370   3.665
 9484SOL    HW129351   6.151   1.424   3.688
 9484SOL    HW229352   6.266   1.399   3.576
 9485SOL     OW29353   1.819   0.749   1.786
 9485SOL    HW129354   1.889   0.723   1.719
 9485SOL    HW229355   1.863   0.795   1.863
 9486SOL     OW29356   2.529   5.287   0.729
 9486SOL    HW129357   2.466   5.360   0.753
 9486SOL    HW229358   2.596   5.276   0.802
 9487SOL     OW29359   3.177   3.950   3.443
 9487SOL    HW129360   3.188   3.970   3.540
 9487SOL    HW229361   3.263   3.915   3.406
 9488SOL     OW29362   1.660   5.975   1.415
 9488SOL    HW129363   1.582   5.951   1.473
 9488SOL    HW229364   1.712   5.893   1.394
 9489SOL     OW29365   4.183   3.899   0.871
 9489SOL    HW129366   4.129   3.920   0.790
 9489SOL    HW229367   4.154   3.958   0.947
 9490SOL     OW29368   5.326   0.334   1.045
 9490SOL    HW129369   5.241   0.323   0.993
 9490SOL    HW229370   5.308   0.388   1.127
 9491SOL     OW29371   0.263   5.046   4.708
 9491SOL    HW129372   0.348   5.032   4.758
 9491SOL    HW229373   0.189   5.066   4.772
 9492SOL     OW29374   3.295   3.815   2.183
 9492SOL    HW129375   3.283   3.888   2.250
 9492SOL    HW229376   3.328   3.854   2.097
 9493SOL     OW29377   4.795   4.943   3.913
 9493SOL    HW129378   4.726   5.002   3.956
 9493SOL    HW229379   4.856   4.907   3.983
 9494SOL     OW29380   5.238   3.800   0.327
 9494SOL    HW129381   5.197   3.839   0.244
 9494SOL    HW229382   5.217   3.859   0.405
 9495SOL     OW29383   6.249   2.175   3.328
 9495SOL    HW129384   6.231   2.086   3.287
 9495SOL    HW229385   6.346   2.180   3.356
 9496SOL     OW29386   5.261   3.958   6.572
 9496SOL    HW129387   5.266   3.885   6.504
 9496SOL    HW229388   5.210   4.035   6.535
 9497SOL     OW29389   4.302   4.274   0.825
 9497SOL    HW129390   4.353   4.209   0.770
 9497SOL    HW229391   4.305   4.248   0.921
 9498SOL     OW29392   4.591   6.532   5.567
 9498SOL    HW129393   4.552   6.604   5.510
 9498SOL    HW229394   4.519   6.469   5.596
 9499SOL     OW29395   2.208   3.921   5.811
 9499SOL    HW129396   2.117   3.883   5.823
 9499SOL    HW229397   2.265   3.857   5.759
 9500SOL     OW29398   4.058   6.533   1.687
 9500SOL    HW129399   4.015   6.446   1.709
 9500SOL    HW229400   3.987   6.601   1.664
 9501SOL     OW29401   3.726   1.922   4.625
 9501SOL    HW129402   3.643   1.942   4.573
 9501SOL    HW229403   3.742   1.995   4.691
 9502SOL     OW29404   6.575   1.954   4.779
 9502SOL    HW129405   6.483   1.945   4.818
 9502SOL    HW229406   6.569   1.995   4.689
 9503SOL     OW29407   6.898   1.231   1.342
 9503SOL    HW129408   6.969   1.183   1.392
 9503SOL    HW229409   6.938   1.306   1.289
 9504SOL     OW29410   6.639   2.777   1.268
 9504SOL    HW129411   6.620   2.745   1.176
 9504SOL    HW229412   6.724   2.830   1.269
 9505SOL     OW29413   5.926   3.812   3.300
 9505SOL    HW129414   5.990   3.883   3.270
 9505SOL    HW229415   5.977   3.740   3.348
 9506SOL     OW29416   0.093   3.222   7.008
 9506SOL    HW129417   0.107   3.151   6.940
 9506SOL    HW229418   0.000   3.216   0.020
 9507SOL     OW29419   2.338   1.211   4.489
 9507SOL    HW129420   2.258   1.187   4.433
 9507SOL    HW229421   2.419   1.212   4.431
 9508SOL     OW29422   5.375   2.569   0.320
 9508SOL    HW129423   5.355   2.473   0.342
 9508SOL    HW229424   5.317   2.629   0.375
 9509SOL     OW29425   1.025   6.808   5.531
 9509SOL    HW129426   1.005   6.725   5.478
 9509SOL    HW229427   1.104   6.854   5.492
 9510SOL     OW29428   0.122   3.750   1.897
 9510SOL    HW129429   0.165   3.767   1.808
 9510SOL    HW229430   0.057   3.675   1.888
 9511SOL     OW29431   0.570   2.043   0.308
 9511SOL    HW129432   0.471   2.051   0.303
 9511SOL    HW229433   0.612   2.134   0.297
 9512SOL     OW29434   6.533   1.846   3.522
 9512SOL    HW129435   6.579   1.810   3.441
 9512SOL    HW229436   6.481   1.773   3.566
 9513SOL     OW29437   1.853   4.002   5.031
 9513SOL    HW129438   1.817   3.997   4.938
 9513SOL    HW229439   1.948   3.973   5.032
 9514SOL     OW29440   1.772   3.656   6.833
 9514SOL    HW129441   1.825   3.740   6.845
 9514SOL    HW229442   1.740   3.624   6.923
 9515SOL     OW29443   1.123   6.042   0.145
 9515SOL    HW129444   1.150   6.135   0.121
 9515SOL    HW229445   1.028   6.041   0.176
 9516SOL     OW29446   4.929   3.048   4.110
 9516SOL    HW129447   4.925   3.089   4.201
 9516SOL    HW229448   4.902   3.116   4.041
 9517SOL     OW29449   0.958   4.997   1.278
 9517SOL    HW129450   1.030   4.963   1.338
 9517SOL    HW229451   0.871   5.000   1.329
 9518SOL     OW29452   1.526   2.715   6.118
 9518SOL    HW129453   1.496   2.622   6.142
 9518SOL    HW229454   1.553   2.717   6.022
 9519SOL     OW29455   3.073   3.403   2.815
 9519SOL    HW129456   3.071   3.314   2.768
 9519SOL    HW229457   3.105   3.473   2.751
 9520SOL     OW29458   6.641   1.004   4.294
 9520SOL    HW129459   6.664   0.961   4.381
 9520SOL    HW229460   6.720   1.056   4.261
 9521SOL     OW29461   2.987   5.167   1.697
 9521SOL    HW129462   2.947   5.122   1.776
 9521SOL    HW229463   3.082   5.190   1.717
 9522SOL     OW29464   4.204   5.351   2.394
 9522SOL    HW129465   4.292   5.305   2.380
 9522SOL    HW229466   4.204   5.396   2.483
 9523SOL     OW29467   2.314   5.098   5.136
 9523SOL    HW129468   2.224   5.137   5.114
 9523SOL    HW229469   2.333   5.113   5.233
 9524SOL     OW29470   1.286   3.341   2.017
 9524SOL    HW129471   1.380   3.326   2.046
 9524SOL    HW229472   1.272   3.437   1.995
 9525SOL     OW29473   2.004   1.945   6.029
 9525SOL    HW129474   1.930   1.906   5.975
 9525SOL    HW229475   2.022   2.038   5.997
 9526SOL     OW29476   5.438   4.620   0.804
 9526SOL    HW129477   5.479   4.535   0.770
 9526SOL    HW229478   5.505   4.694   0.798
 9527SOL     OW29479   2.546   6.689   4.470
 9527SOL    HW129480   2.462   6.644   4.500
 9527SOL    HW229481   2.524   6.763   4.407
 9528SOL     OW29482   5.771   1.137   1.576
 9528SOL    HW129483   5.773   1.144   1.676
 9528SOL    HW229484   5.862   1.114   1.542
 9529SOL     OW29485   6.043   3.591   0.711
 9529SOL    HW129486   6.124   3.538   0.688
 9529SOL    HW229487   5.997   3.550   0.789
 9530SOL     OW29488   1.144   5.326   4.401
 9530SOL    HW129489   1.134   5.369   4.491
 9530SOL    HW229490   1.053   5.298   4.367
 9531SOL     OW29491   4.240   4.685   2.904
 9531SOL    HW129492   4.274   4.647   2.818
 9531SOL    HW229493   4.145   4.713   2.893
 9532SOL     OW29494   6.423   5.199   1.549
 9532SOL    HW129495   6.430   5.298   1.548
 9532SOL    HW229496   6.329   5.172   1.573
 9533SOL     OW29497   0.931   5.694   4.643
 9533SOL    HW129498   1.012   5.636   4.636
 9533SOL    HW229499   0.931   5.760   4.568
 9534SOL     OW29500   6.090   4.408   5.078
 9534SOL    HW129501   5.995   4.389   5.102
 9534SOL    HW229502   6.092   4.474   5.003
 9535SOL     OW29503   2.022   1.934   5.395
 9535SOL    HW129504   2.011   1.840   5.427
 9535SOL    HW229505   1.979   1.996   5.461
 9536SOL     OW29506   3.671   2.935   4.531
 9536SOL    HW129507   3.577   2.906   4.517
 9536SOL    HW229508   3.681   2.973   4.624
 9537SOL     OW29509   2.623   1.553   4.130
 9537SOL    HW129510   2.686   1.629   4.111
 9537SOL    HW229511   2.535   1.590   4.160
 9538SOL     OW29512   4.361   1.026   4.454
 9538SOL    HW129513   4.315   1.105   4.495
 9538SOL    HW229514   4.300   0.947   4.455
 9539SOL     OW29515   3.203   3.051   4.073
 9539SOL    HW129516   3.176   3.043   3.977
 9539SOL    HW229517   3.126   3.088   4.126
 9540SOL     OW29518   4.879   5.244   4.380
 9540SOL    HW129519   4.798   5.211   4.430
 9540SOL    HW229520   4.864   5.338   4.350
 9541SOL     OW29521   1.063   0.785   5.582
 9541SOL    HW129522   1.031   0.864   5.634
 9541SOL    HW229523   1.087   0.711   5.644
 9542SOL     OW29524   5.787   4.648   4.931
 9542SOL    HW129525   5.848   4.601   4.867
 9542SOL    HW229526   5.757   4.735   4.891
 9543SOL     OW29527   3.004   0.198   5.945
 9543SOL    HW129528   2.957   0.122   5.991
 9543SOL    HW229529   2.996   0.280   6.002
 9544SOL     OW29530   4.936   3.983   3.812
 9544SOL    HW129531   4.873   4.057   3.835
 9544SOL    HW229532   4.884   3.904   3.779
 9545SOL     OW29533   0.486   5.841   2.277
 9545SOL    HW129534   0.471   5.758   2.223
 9545SOL    HW229535   0.398   5.876   2.310
 9546SOL     OW29536   3.689   1.930   5.791
 9546SOL    HW129537   3.665   1.971   5.703
 9546SOL    HW229538   3.606   1.895   5.835
 9547SOL     OW29539   2.800   5.726   3.833
 9547SOL    HW129540   2.848   5.638   3.830
 9547SOL    HW229541   2.701   5.710   3.824
 9548SOL     OW29542   0.886   5.414   5.032
 9548SOL    HW129543   0.884   5.339   4.966
 9548SOL    HW229544   0.832   5.388   5.113
 9549SOL     OW29545   3.584   0.372   2.597
 9549SOL    HW129546   3.494   0.352   2.635
 9549SOL    HW229547   3.574   0.407   2.504
 9550SOL     OW29548   6.400   2.314   0.545
 9550SOL    HW129549   6.494   2.334   0.573
 9550SOL    HW229550   6.362   2.242   0.603
 9551SOL     OW29551   6.183   3.159   6.202
 9551SOL    HW129552   6.112   3.089   6.208
 9551SOL    HW229553   6.254   3.130   6.138
 9552SOL     OW29554   2.032   0.249   6.034
 9552SOL    HW129555   1.963   0.312   6.070
 9552SOL    HW229556   2.113   0.251   6.093
 9553SOL     OW29557   5.560   1.898   0.315
 9553SOL    HW129558   5.588   1.805   0.340
 9553SOL    HW229559   5.577   1.914   0.218
 9554SOL     OW29560   2.088   6.807   3.730
 9554SOL    HW129561   2.074   6.882   3.666
 9554SOL    HW229562   2.001   6.762   3.749
 9555SOL     OW29563   0.143   1.477   3.346
 9555SOL    HW129564   0.187   1.524   3.269
 9555SOL    HW229565   0.160   1.528   3.430
 9556SOL     OW29566   1.617   4.806   1.632
 9556SOL    HW129567   1.585   4.751   1.554
 9556SOL    HW229568   1.656   4.746   1.702
 9557SOL     OW29569   4.653   0.060   1.714
 9557SOL    HW129570   4.604   0.119   1.651
 9557SOL    HW229571   4.689   0.115   1.790
 9558SOL     OW29572   5.584   6.421   5.331
 9558SOL    HW129573   5.683   6.427   5.328
 9558SOL    HW229574   5.547   6.495   5.387
 9559SOL     OW29575   1.007   4.008   0.230
 9559SOL    HW129576   1.031   3.968   0.319
 9559SOL    HW229577   1.089   4.045   0.187
 9560SOL     OW29578   2.417   0.931   2.605
 9560SOL    HW129579   2.322   0.921   2.637
 9560SOL    HW229580   2.430   0.874   2.524
 9561SOL     OW29581   0.427   0.932   1.173
 9561SOL    HW129582   0.469   0.966   1.088
 9561SOL    HW229583   0.341   0.979   1.189
 9562SOL     OW29584   2.995   6.665   4.038
 9562SOL    HW129585   3.068   6.598   4.040
 9562SOL    HW229586   2.996   6.719   4.122
 9563SOL     OW29587   0.244   6.474   0.385
 9563SOL    HW129588   0.185   6.554   0.377
 9563SOL    HW229589   0.212   6.417   0.460
 9564SOL     OW29590   2.376   1.472   0.959
 9564SOL    HW129591   2.306   1.474   0.887
 9564SOL    HW229592   2.465   1.452   0.917
 9565SOL     OW29593   3.541   1.355   4.769
 9565SOL    HW129594   3.514   1.432   4.712
 9565SOL    HW229595   3.619   1.381   4.826
 9566SOL     OW29596   2.526   6.044   0.043
 9566SOL    HW129597   2.453   6.051   0.112
 9566SOL    HW229598   2.576   5.958   0.057
 9567SOL     OW29599   5.974   4.116   0.708
 9567SOL    HW129600   6.020   4.037   0.750
 9567SOL    HW229601   6.009   4.130   0.616
 9568SOL     OW29602   4.200   1.127   0.400
 9568SOL    HW129603   4.194   1.150   0.302
 9568SOL    HW229604   4.260   1.193   0.445
 9569SOL     OW29605   0.276   0.974   1.837
 9569SOL    HW129606   0.299   0.936   1.747
 9569SOL    HW229607   0.200   0.922   1.877
 9570SOL     OW29608   0.688   3.096   0.638
 9570SOL    HW129609   0.778   3.136   0.656
 9570SOL    HW229610   0.650   3.060   0.723
 9571SOL     OW29611   2.889   2.672   5.896
 9571SOL    HW129612   2.862   2.667   5.800
 9571SOL    HW229613   2.809   2.661   5.955
 9572SOL     OW29614   2.178   4.973   2.467
 9572SOL    HW129615   2.159   4.953   2.563
 9572SOL    HW229616   2.219   4.892   2.424
 9573SOL     OW29617   6.967   1.487   5.773
 9573SOL    HW129618   6.884   1.514   5.820
 9573SOL    HW229619   7.003   1.403   5.812
 9574SOL     OW29620   3.566   2.841   1.921
 9574SOL    HW129621   3.576   2.764   1.858
 9574SOL    HW229622   3.651   2.853   1.973
 9575SOL     OW29623   6.515   0.924   2.009
 9575SOL    HW129624   6.560   1.013   2.008
 9575SOL    HW229625   6.561   0.862   1.946
 9576SOL     OW29626   1.669   1.928   0.062
 9576SOL    HW129627   1.689   1.894   6.994
 9576SOL    HW229628   1.577   1.898   0.089
 9577SOL     OW29629   0.478   5.662   5.960
 9577SOL    HW129630   0.402   5.726   5.950
 9577SOL    HW229631   0.563   5.705   5.930
 9578SOL     OW29632   1.591   2.923   2.310
 9578SOL    HW129633   1.562   2.910   2.405
 9578SOL    HW229634   1.674   2.870   2.293
 9579SOL     OW29635   6.943   6.341   2.898
 9579SOL    HW129636   6.865   6.402   2.911
 9579SOL    HW229637   0.002   6.395   2.880
 9580SOL     OW29638   5.031   3.873   0.993
 9580SOL    HW129639   4.953   3.859   0.933
 9580SOL    HW229640   5.045   3.971   1.008
 9581SOL     OW29641   0.295   6.946   6.526
 9581SOL    HW129642   0.302   7.016   6.455
 9581SOL    HW229643   0.223   6.972   6.591
 9582SOL     OW29644   3.708   5.650   4.706
 9582SOL    HW129645   3.715   5.552   4.722
 9582SOL    HW229646   3.614   5.680   4.719
 9583SOL     OW29647   3.023   4.274   1.278
 9583SOL    HW129648   2.950   4.291   1.344
 9583SOL    HW229649   3.112   4.288   1.321
 9584SOL     OW29650   1.219   4.832   5.958
 9584SOL    HW129651   1.260   4.769   6.025
 9584SOL    HW229652   1.122   4.841   5.977
 9585SOL     OW29653   5.254   6.294   2.273
 9585SOL    HW129654   5.266   6.378   2.221
 9585SOL    HW229655   5.242   6.315   2.370
 9586SOL     OW29656   4.497   5.345   2.388
 9586SOL    HW129657   4.572   5.366   2.326
 9586SOL    HW229658   4.522   5.266   2.445
 9587SOL     OW29659   1.091   6.897   1.918
 9587SOL    HW129660   1.181   6.911   1.877
 9587SOL    HW229661   1.102   6.852   2.007
 9588SOL     OW29662   5.974   6.139   0.461
 9588SOL    HW129663   5.891   6.156   0.408
 9588SOL    HW229664   6.006   6.225   0.500
 9589SOL     OW29665   1.877   4.182   0.011
 9589SOL    HW129666   1.843   4.276   0.014
 9589SOL    HW229667   1.829   4.127   0.080
 9590SOL     OW29668   6.065   2.421   1.801
 9590SOL    HW129669   6.032   2.422   1.707
 9590SOL    HW229670   6.065   2.327   1.836
 9591SOL     OW29671   3.784   5.837   6.257
 9591SOL    HW129672   3.824   5.756   6.299
 9591SOL    HW229673   3.701   5.812   6.207
 9592SOL     OW29674   3.530   5.292   1.295
 9592SOL    HW129675   3.577   5.269   1.380
 9592SOL    HW229676   3.476   5.375   1.309
 9593SOL     OW29677   1.207   1.709   5.854
 9593SOL    HW129678   1.173   1.651   5.929
 9593SOL    HW229679   1.305   1.723   5.864
 9594SOL     OW29680   2.572   6.273   4.584
 9594SOL    HW129681   2.652   6.225   4.620
 9594SOL    HW229682   2.568   6.366   4.621
 9595SOL     OW29683   0.537   2.624   3.939
 9595SOL    HW129684   0.446   2.582   3.947
 9595SOL    HW229685   0.555   2.679   4.021
 9596SOL     OW29686   0.865   5.252   0.400
 9596SOL    HW129687   0.827   5.159   0.397
 9596SOL    HW229688   0.828   5.306   0.325
 9597SOL     OW29689   0.028   4.033   1.509
 9597SOL    HW129690   6.991   3.968   1.464
 9597SOL    HW229691   7.004   4.078   1.584
 9598SOL     OW29692   2.183   4.008   3.425
 9598SOL    HW129693   2.231   4.056   3.498
 9598SOL    HW229694   2.215   4.042   3.336
 9599SOL     OW29695   2.999   0.376   3.791
 9599SOL    HW129696   2.925   0.343   3.732
 9599SOL    HW229697   3.072   0.414   3.735
 9600SOL     OW29698   2.918   0.382   0.093
 9600SOL    HW129699   2.874   0.430   0.017
 9600SOL    HW229700   2.877   0.411   0.180
 9601SOL     OW29701   5.198   4.403   0.334
 9601SOL    HW129702   5.287   4.442   0.313
 9601SOL    HW229703   5.149   4.463   0.397
 9602SOL     OW29704   5.069   4.053   5.777
 9602SOL    HW129705   5.072   4.137   5.831
 9602SOL    HW229706   4.975   4.034   5.749
 9603SOL     OW29707   4.717   6.929   6.503
 9603SOL    HW129708   4.757   6.982   6.427
 9603SOL    HW229709   4.762   6.954   6.588
 9604SOL     OW29710   4.964   6.987   1.277
 9604SOL    HW129711   4.874   0.008   1.281
 9604SOL    HW229712   4.951   6.888   1.281
 9605SOL     OW29713   1.173   5.098   3.144
 9605SOL    HW129714   1.098   5.102   3.078
 9605SOL    HW229715   1.257   5.068   3.098
 9606SOL     OW29716   1.235   6.609   6.638
 9606SOL    HW129717   1.184   6.525   6.619
 9606SOL    HW229718   1.329   6.598   6.606
 9607SOL     OW29719   2.808   1.343   6.731
 9607SOL    HW129720   2.745   1.274   6.695
 9607SOL    HW229721   2.901   1.322   6.703
 9608SOL     OW29722   7.022   4.485   2.024
 9608SOL    HW129723   6.974   4.564   1.985
 9608SOL    HW229724   0.097   4.501   2.021
 9609SOL     OW29725   3.399   3.010   0.595
 9609SOL    HW129726   3.342   3.084   0.560
 9609SOL    HW229727   3.358   2.922   0.569
 9610SOL     OW29728   1.740   4.553   3.517
 9610SOL    HW129729   1.689   4.470   3.495
 9610SOL    HW229730   1.816   4.530   3.578
 9611SOL     OW29731   1.234   6.290   0.715
 9611SOL    HW129732   1.191   6.373   0.679
 9611SOL    HW229733   1.276   6.240   0.640
 9612SOL     OW29734   0.380   3.111   1.800
 9612SOL    HW129735   0.438   3.118   1.720
 9612SOL    HW229736   0.436   3.118   1.883
 9613SOL     OW29737   4.977   6.359   3.894
 9613SOL    HW129738   4.948   6.419   3.968
 9613SOL    HW229739   5.003   6.270   3.932
 9614SOL     OW29740   3.679   2.024   1.819
 9614SOL    HW129741   3.708   2.072   1.736
 9614SOL    HW229742   3.666   2.091   1.892
 9615SOL     OW29743   2.047   1.141   1.473
 9615SOL    HW129744   2.124   1.193   1.436
 9615SOL    HW229745   1.982   1.121   1.399
 9616SOL     OW29746   3.743   4.058   0.911
 9616SOL    HW129747   3.651   4.094   0.893
 9616SOL    HW229748   3.761   3.980   0.851
 9617SOL     OW29749   1.854   3.088   3.228
 9617SOL    HW129750   1.941   3.061   3.188
 9617SOL    HW229751   1.862   3.177   3.272
 9618SOL     OW29752   2.521   0.209   0.746
 9618SOL    HW129753   2.488   0.155   0.668
 9618SOL    HW229754   2.528   0.149   0.826
 9619SOL     OW29755   1.793   0.414   6.091
 9619SOL    HW129756   1.813   0.484   6.022
 9619SOL    HW229757   1.746   0.456   6.169
 9620SOL     OW29758   4.465   6.720   5.408
 9620SOL    HW129759   4.397   6.709   5.336
 9620SOL    HW229760   4.420   6.749   5.493
 9621SOL     OW29761   1.986   2.850   1.991
 9621SOL    HW129762   1.899   2.829   1.948
 9621SOL    HW229763   2.022   2.936   1.955
 9622SOL     OW29764   6.858   1.663   0.373
 9622SOL    HW129765   6.920   1.732   0.411
 9622SOL    HW229766   6.841   1.592   0.441
 9623SOL     OW29767   2.709   3.405   5.357
 9623SOL    HW129768   2.712   3.316   5.311
 9623SOL    HW229769   2.794   3.420   5.406
 9624SOL     OW29770   6.262   4.389   3.068
 9624SOL    HW129771   6.358   4.366   3.050
 9624SOL    HW229772   6.226   4.441   2.991
 9625SOL     OW29773   5.163   5.243   0.107
 9625SOL    HW129774   5.258   5.246   0.075
 9625SOL    HW229775   5.111   5.177   0.053
 9626SOL     OW29776   4.393   5.247   0.644
 9626SOL    HW129777   4.423   5.176   0.580
 9626SOL    HW229778   4.465   5.316   0.654
 9627SOL     OW29779   0.707   5.827   5.951
 9627SOL    HW129780   0.644   5.903   5.967
 9627SOL    HW229781   0.796   5.849   5.992
 9628SOL     OW29782   4.999   4.927   0.832
 9628SOL    HW129783   5.035   4.870   0.905
 9628SOL    HW229784   5.049   5.013   0.828
 9629SOL     OW29785   1.572   0.378   1.468
 9629SOL    HW129786   1.631   0.359   1.546
 9629SOL    HW229787   1.495   0.314   1.467
 9630SOL     OW29788   6.306   6.975   4.325
 9630SOL    HW129789   6.257   0.027   4.368
 9630SOL    HW229790   6.247   6.931   4.257
 9631SOL     OW29791   6.877   6.581   6.756
 9631SOL    HW129792   6.843   6.616   6.843
 9631SOL    HW229793   6.977   6.585   6.754
 9632SOL     OW29794   1.791   0.222   3.025
 9632SOL    HW129795   1.722   0.154   3.049
 9632SOL    HW229796   1.752   0.313   3.030
 9633SOL     OW29797   5.103   4.986   6.572
 9633SOL    HW129798   5.107   4.940   6.661
 9633SOL    HW229799   5.064   4.924   6.504
 9634SOL     OW29800   1.431   6.489   3.936
 9634SOL    HW129801   1.358   6.435   3.978
 9634SOL    HW229802   1.491   6.429   3.883
 9635SOL     OW29803   2.001   6.017   4.865
 9635SOL    HW129804   1.990   6.063   4.777
 9635SOL    HW229805   2.037   5.925   4.850
 9636SOL     OW29806   4.154   1.351   5.583
 9636SOL    HW129807   4.112   1.439   5.605
 9636SOL    HW229808   4.173   1.347   5.485
 9637SOL     OW29809   2.684   2.663   6.073
 9637SOL    HW129810   2.671   2.735   6.141
 9637SOL    HW229811   2.598   2.648   6.024
 9638SOL     OW29812   0.125   3.704   6.408
 9638SOL    HW129813   0.171   3.758   6.478
 9638SOL    HW229814   0.094   3.618   6.448
 9639SOL     OW29815   3.948   1.887   2.180
 9639SOL    HW129816   4.015   1.843   2.239
 9639SOL    HW229817   3.952   1.847   2.088
 9640SOL     OW29818   2.267   2.952   4.124
 9640SOL    HW129819   2.168   2.961   4.133
 9640SOL    HW229820   2.299   2.879   4.183
 9641SOL     OW29821   4.354   6.843   0.545
 9641SOL    HW129822   4.451   6.860   0.563
 9641SOL    HW229823   4.342   6.810   0.452
 9642SOL     OW29824   3.012   7.006   4.807
 9642SOL    HW129825   2.950   6.985   4.732
 9642SOL    HW229826   3.106   6.989   4.779
 9643SOL     OW29827   5.382   4.558   4.071
 9643SOL    HW129828   5.380   4.608   3.984
 9643SOL    HW229829   5.474   4.521   4.087
 9644SOL     OW29830   1.229   4.108   6.389
 9644SOL    HW129831   1.259   4.016   6.417
 9644SOL    HW229832   1.129   4.111   6.386
 9645SOL     OW29833   2.494   5.217   4.978
 9645SOL    HW129834   2.429   5.165   5.033
 9645SOL    HW229835   2.533   5.157   4.908
 9646SOL     OW29836   3.372   4.872   2.558
 9646SOL    HW129837   3.417   4.783   2.553
 9646SOL    HW229838   3.337   4.886   2.651
 9647SOL     OW29839   6.344   4.598   1.310
 9647SOL    HW129840   6.426   4.655   1.313
 9647SOL    HW229841   6.270   4.648   1.266
 9648SOL     OW29842   4.311   1.325   1.122
 9648SOL    HW129843   4.358   1.345   1.036
 9648SOL    HW229844   4.376   1.328   1.197
 9649SOL     OW29845   2.858   0.086   0.107
 9649SOL    HW129846   2.912   0.169   0.099
 9649SOL    HW229847   2.761   0.109   0.107
 9650SOL     OW29848   6.837   5.201   2.297
 9650SOL    HW129849   6.879   5.256   2.370
 9650SOL    HW229850   6.812   5.111   2.333
 9651SOL     OW29851   0.185   2.039   5.842
 9651SOL    HW129852   0.214   2.096   5.919
 9651SOL    HW229853   0.208   1.944   5.860
 9652SOL     OW29854   1.272   4.645   1.279
 9652SOL    HW129855   1.196   4.581   1.287
 9652SOL    HW229856   1.303   4.648   1.184
 9653SOL     OW29857   4.069   4.804   5.136
 9653SOL    HW129858   3.986   4.842   5.095
 9653SOL    HW229859   4.138   4.791   5.065
 9654SOL     OW29860   2.896   2.219   1.246
 9654SOL    HW129861   2.866   2.311   1.271
 9654SOL    HW229862   2.823   2.154   1.267
 9655SOL     OW29863   0.413   1.244   6.387
 9655SOL    HW129864   0.449   1.335   6.406
 9655SOL    HW229865   0.336   1.226   6.448
 9656SOL     OW29866   2.356   0.692   2.407
 9656SOL    HW129867   2.435   0.721   2.351
 9656SOL    HW229868   2.272   0.702   2.353
 9657SOL     OW29869   5.517   0.994   4.028
 9657SOL    HW129870   5.454   0.989   3.950
 9657SOL    HW229871   5.497   0.921   4.093
 9658SOL     OW29872   0.259   2.065   2.602
 9658SOL    HW129873   0.164   2.032   2.606
 9658SOL    HW229874   0.318   2.001   2.650
 9659SOL     OW29875   6.380   4.083   0.297
 9659SOL    HW129876   6.359   4.141   0.375
 9659SOL    HW229877   6.336   4.119   0.215
 9660SOL     OW29878   0.428   6.188   0.851
 9660SOL    HW129879   0.511   6.222   0.807
 9660SOL    HW229880   0.423   6.223   0.945
 9661SOL     OW29881   4.420   5.651   1.282
 9661SOL    HW129882   4.365   5.730   1.312
 9661SOL    HW229883   4.489   5.682   1.216
 9662SOL     OW29884   6.460   2.950   4.446
 9662SOL    HW129885   6.368   2.913   4.461
 9662SOL    HW229886   6.523   2.911   4.513
 9663SOL     OW29887   1.588   5.714   3.883
 9663SOL    HW129888   1.529   5.686   3.959
 9663SOL    HW229889   1.562   5.806   3.853
 9664SOL     OW29890   4.703   6.943   2.879
 9664SOL    HW129891   4.794   6.952   2.919
 9664SOL    HW229892   4.650   0.003   2.895
 9665SOL     OW29893   5.867   4.806   5.912
 9665SOL    HW129894   5.868   4.902   5.940
 9665SOL    HW229895   5.793   4.791   5.846
 9666SOL     OW29896   5.981   3.889   1.279
 9666SOL    HW129897   5.992   3.854   1.186
 9666SOL    HW229898   5.903   3.951   1.282
 9667SOL     OW29899   4.097   3.294   4.343
 9667SOL    HW129900   4.152   3.213   4.322
 9667SOL    HW229901   4.025   3.269   4.409
 9668SOL     OW29902   6.543   1.566   5.737
 9668SOL    HW129903   6.507   1.506   5.666
 9668SOL    HW229904   6.490   1.650   5.740
 9669SOL     OW29905   0.663   1.114   1.013
 9669SOL    HW129906   0.747   1.065   1.038
 9669SOL    HW229907   0.685   1.210   0.997
 9670SOL     OW29908   4.096   4.811   5.793
 9670SOL    HW129909   4.082   4.909   5.808
 9670SOL    HW229910   4.191   4.787   5.814
 9671SOL     OW29911   6.921   4.934   6.246
 9671SOL    HW129912   6.963   4.999   6.183
 9671SOL    HW229913   6.963   4.844   6.232
 9672SOL     OW29914   0.992   6.760   5.129
 9672SOL    HW129915   0.917   6.814   5.090
 9672SOL    HW229916   1.007   6.679   5.073
 9673SOL     OW29917   3.929   4.805   0.036
 9673SOL    HW129918   3.993   4.776   0.108
 9673SOL    HW229919   3.976   4.803   6.971
 9674SOL     OW29920   2.771   6.332   2.264
 9674SOL    HW129921   2.801   6.310   2.171
 9674SOL    HW229922   2.717   6.416   2.262
 9675SOL     OW29923   6.095   1.084   2.547
 9675SOL    HW129924   6.065   1.105   2.454
 9675SOL    HW229925   6.127   0.989   2.551
 9676SOL     OW29926   1.562   3.751   5.759
 9676SOL    HW129927   1.478   3.740   5.811
 9676SOL    HW229928   1.641   3.734   5.818
 9677SOL     OW29929   2.190   4.193   6.019
 9677SOL    HW129930   2.225   4.182   5.926
 9677SOL    HW229931   2.098   4.152   6.026
 9678SOL     OW29932   3.619   3.913   2.964
 9678SOL    HW129933   3.719   3.914   2.960
 9678SOL    HW229934   3.582   3.968   2.889
 9679SOL     OW29935   0.766   2.527   1.995
 9679SOL    HW129936   0.801   2.606   1.946
 9679SOL    HW229937   0.786   2.444   1.943
 9680SOL     OW29938   5.835   6.820   3.329
 9680SOL    HW129939   5.914   6.763   3.353
 9680SOL    HW229940   5.866   6.912   3.305
 9681SOL     OW29941   2.325   0.672   1.411
 9681SOL    HW129942   2.395   0.727   1.456
 9681SOL    HW229943   2.251   0.732   1.381
 9682SOL     OW29944   4.806   5.264   3.405
 9682SOL    HW129945   4.881   5.271   3.339
 9682SOL    HW229946   4.818   5.182   3.460
 9683SOL     OW29947   3.975   5.361   0.613
 9683SOL    HW129948   4.028   5.426   0.668
 9683SOL    HW229949   4.038   5.300   0.564
 9684SOL     OW29950   0.345   3.671   5.137
 9684SOL    HW129951   0.443   3.651   5.139
 9684SOL    HW229952   0.330   3.767   5.113
 9685SOL     OW29953   2.364   2.735   1.186
 9685SOL    HW129954   2.433   2.746   1.114
 9685SOL    HW229955   2.410   2.729   1.275
 9686SOL     OW29956   6.737   1.565   1.020
 9686SOL    HW129957   6.727   1.628   0.943
 9686SOL    HW229958   6.781   1.481   0.988
 9687SOL     OW29959   1.793   0.738   2.475
 9687SOL    HW129960   1.722   0.683   2.520
 9687SOL    HW229961   1.836   0.798   2.542
 9688SOL     OW29962   6.897   2.203   2.982
 9688SOL    HW129963   6.916   2.105   2.972
 9688SOL    HW229964   6.959   2.242   3.051
 9689SOL     OW29965   1.781   6.961   0.425
 9689SOL    HW129966   1.750   6.912   0.344
 9689SOL    HW229967   1.744   0.030   0.425
 9690SOL     OW29968   5.793   4.537   6.722
 9690SOL    HW129969   5.865   4.606   6.733
 9690SOL    HW229970   5.835   4.447   6.717
 9691SOL     OW29971   2.092   5.228   1.995
 9691SOL    HW129972   2.190   5.241   2.003
 9691SOL    HW229973   2.057   5.184   2.078
 9692SOL     OW29974   2.468   5.278   2.824
 9692SOL    HW129975   2.536   5.248   2.892
 9692SOL    HW229976   2.442   5.372   2.844
 9693SOL     OW29977   0.156   5.760   1.952
 9693SOL    HW129978   0.216   5.841   1.956
 9693SOL    HW229979   0.061   5.788   1.969
 9694SOL     OW29980   2.002   1.926   6.404
 9694SOL    HW129981   2.087   1.979   6.400
 9694SOL    HW229982   1.967   1.911   6.312
 9695SOL     OW29983   5.963   4.302   0.895
 9695SOL    HW129984   5.963   4.220   0.838
 9695SOL    HW229985   5.916   4.376   0.847
 9696SOL     OW29986   4.012   2.677   1.383
 9696SOL    HW129987   3.982   2.728   1.303
 9696SOL    HW229988   4.106   2.702   1.406
 9697SOL     OW29989   0.666   5.060   6.997
 9697SOL    HW129990   0.637   5.155   6.988
 9697SOL    HW229991   0.690   5.024   6.907
 9698SOL     OW29992   5.866   0.597   5.276
 9698SOL    HW129993   5.800   0.564   5.343
 9698SOL    HW229994   5.957   0.598   5.318
 9699SOL     OW29995   0.774   3.717   5.813
 9699SOL    HW129996   0.807   3.634   5.858
 9699SOL    HW229997   0.715   3.692   5.736
 9700SOL     OW29998   3.564   4.770   5.329
 9700SOL    HW129999   3.501   4.752   5.253
 9700SOL    HW230000   3.616   4.688   5.349
 9701SOL     OW30001   4.069   5.846   5.283
 9701SOL    HW130002   4.117   5.908   5.220
 9701SOL    HW230003   3.974   5.839   5.255
 9702SOL     OW30004   5.228   0.845   0.307
 9702SOL    HW130005   5.266   0.861   0.399
 9702SOL    HW230006   5.268   0.762   0.269
 9703SOL     OW30007   3.031   5.937   4.625
 9703SOL    HW130008   3.039   5.850   4.675
 9703SOL    HW230009   3.068   5.927   4.533
 9704SOL     OW30010   3.123   0.148   2.977
 9704SOL    HW130011   3.172   0.075   2.929
 9704SOL    HW230012   3.119   0.229   2.919
 9705SOL     OW30013   4.673   4.786   0.185
 9705SOL    HW130014   4.611   4.739   0.247
 9705SOL    HW230015   4.627   4.803   0.098
 9706SOL     OW30016   6.795   2.170   0.769
 9706SOL    HW130017   6.861   2.106   0.729
 9706SOL    HW230018   6.838   2.221   0.843
 9707SOL     OW30019   0.687   4.348   1.912
 9707SOL    HW130020   0.725   4.260   1.939
 9707SOL    HW230021   0.719   4.372   1.821
 9708SOL     OW30022   2.143   2.826   3.594
 9708SOL    HW130023   2.234   2.824   3.635
 9708SOL    HW230024   2.126   2.740   3.546
 9709SOL     OW30025   0.771   5.994   3.772
 9709SOL    HW130026   0.814   6.001   3.682
 9709SOL    HW230027   0.837   5.958   3.838
 9710SOL     OW30028   0.579   0.827   2.521
 9710SOL    HW130029   0.593   0.883   2.439
 9710SOL    HW230030   0.485   0.791   2.520
 9711SOL     OW30031   1.332   3.435   6.054
 9711SOL    HW130032   1.294   3.413   5.965
 9711SOL    HW230033   1.414   3.379   6.070
 9712SOL     OW30034   5.447   2.824   4.926
 9712SOL    HW130035   5.388   2.750   4.959
 9712SOL    HW230036   5.415   2.911   4.962
 9713SOL     OW30037   0.472   4.604   2.912
 9713SOL    HW130038   0.559   4.569   2.877
 9713SOL    HW230039   0.441   4.545   2.987
 9714SOL     OW30040   1.766   1.875   1.690
 9714SOL    HW130041   1.717   1.889   1.776
 9714SOL    HW230042   1.701   1.874   1.614
 9715SOL     OW30043   6.781   5.503   4.656
 9715SOL    HW130044   6.875   5.493   4.625
 9715SOL    HW230045   6.766   5.597   4.686
 9716SOL     OW30046   3.600   1.897   6.807
 9716SOL    HW130047   3.640   1.853   6.727
 9716SOL    HW230048   3.568   1.989   6.782
 9717SOL     OW30049   5.355   5.992   4.443
 9717SOL    HW130050   5.266   5.966   4.480
 9717SOL    HW230051   5.417   6.014   4.518
 9718SOL     OW30052   4.287   2.674   1.538
 9718SOL    HW130053   4.252   2.748   1.596
 9718SOL    HW230054   4.254   2.586   1.571
 9719SOL     OW30055   0.818   2.179   0.199
 9719SOL    HW130056   0.795   2.139   0.111
 9719SOL    HW230057   0.763   2.261   0.214
 9720SOL     OW30058   0.468   6.454   1.641
 9720SOL    HW130059   0.501   6.547   1.658
 9720SOL    HW230060   0.404   6.429   1.713
 9721SOL     OW30061   1.022   2.860   2.148
 9721SOL    HW130062   0.966   2.922   2.203
 9721SOL    HW230063   1.007   2.766   2.178
 9722SOL     OW30064   0.793   0.401   3.591
 9722SOL    HW130065   0.707   0.413   3.640
 9722SOL    HW230066   0.800   0.308   3.556
 9723SOL     OW30067   0.842   6.431   2.558
 9723SOL    HW130068   0.852   6.478   2.646
 9723SOL    HW230069   0.765   6.367   2.563
 9724SOL     OW30070   3.067   2.876   1.767
 9724SOL    HW130071   3.029   2.783   1.771
 9724SOL    HW230072   3.078   2.903   1.672
 9725SOL     OW30073   4.113   3.190   6.210
 9725SOL    HW130074   4.022   3.193   6.252
 9725SOL    HW230075   4.183   3.203   6.280
 9726SOL     OW30076   5.361   0.524   4.866
 9726SOL    HW130077   5.304   0.535   4.948
 9726SOL    HW230078   5.394   0.430   4.861
 9727SOL     OW30079   1.424   4.120   5.413
 9727SOL    HW130080   1.376   4.199   5.450
 9727SOL    HW230081   1.499   4.151   5.354
 9728SOL     OW30082   1.787   6.442   6.718
 9728SOL    HW130083   1.789   6.424   6.816
 9728SOL    HW230084   1.850   6.516   6.695
 9729SOL     OW30085   1.547   4.703   3.294
 9729SOL    HW130086   1.501   4.616   3.280
 9729SOL    HW230087   1.485   4.766   3.341
 9730SOL     OW30088   0.068   3.146   2.674
 9730SOL    HW130089   0.004   3.193   2.613
 9730SOL    HW230090   0.080   3.201   2.757
 9731SOL     OW30091   4.173   5.080   0.826
 9731SOL    HW130092   4.116   5.029   0.762
 9731SOL    HW230093   4.226   5.016   0.882
 9732SOL     OW30094   6.709   6.482   2.941
 9732SOL    HW130095   6.732   6.569   2.985
 9732SOL    HW230096   6.680   6.416   3.011
 9733SOL     OW30097   5.848   5.132   4.570
 9733SOL    HW130098   5.782   5.155   4.641
 9733SOL    HW230099   5.841   5.034   4.549
 9734SOL     OW30100   5.288   1.514   3.843
 9734SOL    HW130101   5.189   1.525   3.832
 9734SOL    HW230102   5.307   1.432   3.898
 9735SOL     OW30103   2.201   4.866   2.732
 9735SOL    HW130104   2.142   4.888   2.810
 9735SOL    HW230105   2.289   4.912   2.742
 9736SOL     OW30106   5.062   0.913   6.386
 9736SOL    HW130107   5.144   0.916   6.328
 9736SOL    HW230108   5.089   0.896   6.481
 9737SOL     OW30109   4.628   2.533   4.807
 9737SOL    HW130110   4.709   2.582   4.776
 9737SOL    HW230111   4.574   2.505   4.727
 9738SOL     OW30112   1.970   0.374   2.515
 9738SOL    HW130113   1.929   0.381   2.424
 9738SOL    HW230114   1.905   0.330   2.577
 9739SOL     OW30115   0.423   5.261   1.357
 9739SOL    HW130116   0.518   5.264   1.386
 9739SOL    HW230117   0.418   5.235   1.261
 9740SOL     OW30118   5.859   3.470   3.180
 9740SOL    HW130119   5.802   3.441   3.257
 9740SOL    HW230120   5.945   3.419   3.181
 9741SOL     OW30121   4.572   1.308   2.846
 9741SOL    HW130122   4.524   1.264   2.770
 9741SOL    HW230123   4.513   1.310   2.926
 9742SOL     OW30124   4.881   0.069   3.079
 9742SOL    HW130125   4.802   0.100   3.132
 9742SOL    HW230126   4.958   0.130   3.095
 9743SOL     OW30127   1.869   2.782   5.852
 9743SOL    HW130128   1.964   2.763   5.824
 9743SOL    HW230129   1.869   2.831   5.939
 9744SOL     OW30130   1.272   0.548   2.159
 9744SOL    HW130131   1.365   0.512   2.159
 9744SOL    HW230132   1.243   0.565   2.254
 9745SOL     OW30133   0.374   2.682   5.288
 9745SOL    HW130134   0.287   2.728   5.305
 9745SOL    HW230135   0.357   2.590   5.253
 9746SOL     OW30136   5.329   1.403   5.263
 9746SOL    HW130137   5.261   1.336   5.233
 9746SOL    HW230138   5.286   1.469   5.324
 9747SOL     OW30139   1.696   1.382   1.006
 9747SOL    HW130140   1.726   1.347   1.095
 9747SOL    HW230141   1.603   1.351   0.987
 9748SOL     OW30142   1.011   6.559   5.345
 9748SOL    HW130143   0.936   6.508   5.304
 9748SOL    HW230144   1.023   6.646   5.297
 9749SOL     OW30145   1.228   2.672   5.803
 9749SOL    HW130146   1.291   2.630   5.868
 9749SOL    HW230147   1.280   2.712   5.727
 9750SOL     OW30148   5.780   4.974   3.908
 9750SOL    HW130149   5.801   4.892   3.961
 9750SOL    HW230150   5.688   5.007   3.932
 9751SOL     OW30151   1.900   2.212   1.051
 9751SOL    HW130152   1.951   2.291   1.018
 9751SOL    HW230153   1.962   2.149   1.097
 9752SOL     OW30154   4.925   0.502   6.155
 9752SOL    HW130155   5.011   0.451   6.157
 9752SOL    HW230156   4.861   0.461   6.220
 9753SOL     OW30157   6.536   6.288   4.699
 9753SOL    HW130158   6.605   6.360   4.705
 9753SOL    HW230159   6.544   6.242   4.611
 9754SOL     OW30160   1.304   1.755   6.730
 9754SOL    HW130161   1.233   1.706   6.779
 9754SOL    HW230162   1.266   1.798   6.649
 9755SOL     OW30163   4.097   3.708   5.240
 9755SOL    HW130164   4.130   3.644   5.171
 9755SOL    HW230165   4.000   3.689   5.258
 9756SOL     OW30166   5.748   2.989   0.011
 9756SOL    HW130167   5.706   3.070   6.997
 9756SOL    HW230168   5.697   2.908   7.007
 9757SOL     OW30169   5.255   3.237   3.609
 9757SOL    HW130170   5.342   3.188   3.604
 9757SOL    HW230171   5.187   3.193   3.550
 9758SOL     OW30172   2.135   0.181   5.752
 9758SOL    HW130173   2.109   0.192   5.848
 9758SOL    HW230174   2.077   0.239   5.695
 9759SOL     OW30175   2.242   6.647   1.013
 9759SOL    HW130176   2.147   6.671   1.035
 9759SOL    HW230177   2.264   6.681   0.921
 9760SOL     OW30178   5.347   4.601   5.062
 9760SOL    HW130179   5.440   4.567   5.049
 9760SOL    HW230180   5.339   4.646   5.151
 9761SOL     OW30181   5.936   5.287   1.597
 9761SOL    HW130182   5.844   5.248   1.602
 9761SOL    HW230183   5.930   5.386   1.585
 9762SOL     OW30184   2.189   2.248   4.571
 9762SOL    HW130185   2.223   2.313   4.639
 9762SOL    HW230186   2.108   2.201   4.607
 9763SOL     OW30187   4.536   1.360   1.738
 9763SOL    HW130188   4.580   1.337   1.651
 9763SOL    HW230189   4.506   1.275   1.783
 9764SOL     OW30190   1.844   2.173   3.420
 9764SOL    HW130191   1.835   2.272   3.421
 9764SOL    HW230192   1.911   2.145   3.488
 9765SOL     OW30193   6.501   2.349   5.515
 9765SOL    HW130194   6.564   2.274   5.537
 9765SOL    HW230195   6.407   2.320   5.534
 9766SOL     OW30196   2.986   0.732   2.965
 9766SOL    HW130197   3.066   0.761   3.017
 9766SOL    HW230198   2.988   0.632   2.953
 9767SOL     OW30199   5.466   1.715   4.872
 9767SOL    HW130200   5.466   1.643   4.803
 9767SOL    HW230201   5.429   1.680   4.957
 9768SOL     OW30202   4.686   2.134   2.463
 9768SOL    HW130203   4.678   2.221   2.510
 9768SOL    HW230204   4.780   2.122   2.429
 9769SOL     OW30205   1.009   2.664   1.272
 9769SOL    HW130206   1.028   2.700   1.181
 9769SOL    HW230207   0.957   2.731   1.325
 9770SOL     OW30208   5.965   5.403   5.624
 9770SOL    HW130209   5.930   5.332   5.685
 9770SOL    HW230210   5.888   5.451   5.581
 9771SOL     OW30211   4.346   4.604   1.050
 9771SOL    HW130212   4.375   4.671   1.119
 9771SOL    HW230213   4.255   4.627   1.017
 9772SOL     OW30214   6.861   6.949   1.590
 9772SOL    HW130215   6.788   6.935   1.657
 9772SOL    HW230216   6.906   6.862   1.571
 9773SOL     OW30217   5.522   5.728   3.736
 9773SOL    HW130218   5.602   5.786   3.752
 9773SOL    HW230219   5.542   5.664   3.662
 9774SOL     OW30220   6.072   4.830   3.958
 9774SOL    HW130221   6.154   4.817   4.015
 9774SOL    HW230222   6.041   4.924   3.965
 9775SOL     OW30223   1.979   2.562   5.156
 9775SOL    HW130224   2.034   2.522   5.083
 9775SOL    HW230225   1.890   2.589   5.120
 9776SOL     OW30226   0.006   5.430   4.327
 9776SOL    HW130227   6.945   5.390   4.291
 9776SOL    HW230228   7.014   5.526   4.348
 9777SOL     OW30229   6.384   4.767   6.048
 9777SOL    HW130230   6.330   4.683   6.048
 9777SOL    HW230231   6.344   4.832   5.983
 9778SOL     OW30232   4.501   6.968   3.283
 9778SOL    HW130233   4.449   6.967   3.197
 9778SOL    HW230234   4.551   6.883   3.293
 9779SOL     OW30235   2.468   1.528   4.716
 9779SOL    HW130236   2.526   1.599   4.677
 9779SOL    HW230237   2.374   1.540   4.683
 9780SOL     OW30238   1.881   2.691   0.368
 9780SOL    HW130239   1.822   2.704   0.448
 9780SOL    HW230240   1.887   2.594   0.346
 9781SOL     OW30241   1.591   4.391   4.551
 9781SOL    HW130242   1.666   4.336   4.513
 9781SOL    HW230243   1.506   4.340   4.544
 9782SOL     OW30244   6.531   0.386   1.041
 9782SOL    HW130245   6.599   0.355   0.975
 9782SOL    HW230246   6.462   0.442   0.994
 9783SOL     OW30247   6.293   0.713   1.489
 9783SOL    HW130248   6.310   0.622   1.526
 9783SOL    HW230249   6.248   0.769   1.559
 9784SOL     OW30250   4.249   1.373   3.419
 9784SOL    HW130251   4.324   1.436   3.404
 9784SOL    HW230252   4.162   1.420   3.404
 9785SOL     OW30253   6.941   2.843   2.870
 9785SOL    HW130254   7.008   2.811   2.804
 9785SOL    HW230255   6.911   2.767   2.927
 9786SOL     OW30256   2.395   5.215   6.201
 9786SOL    HW130257   2.300   5.183   6.199
 9786SOL    HW230258   2.455   5.140   6.230
 9787SOL     OW30259   4.954   3.527   1.806
 9787SOL    HW130260   4.998   3.549   1.893
 9787SOL    HW230261   4.908   3.438   1.813
 9788SOL     OW30262   0.246   6.844   4.257
 9788SOL    HW130263   0.342   6.859   4.280
 9788SOL    HW230264   0.233   6.748   4.230
 9789SOL     OW30265   2.368   5.438   5.790
 9789SOL    HW130266   2.328   5.463   5.702
 9789SOL    HW230267   2.457   5.394   5.776
 9790SOL     OW30268   5.547   1.699   4.304
 9790SOL    HW130269   5.581   1.649   4.225
 9790SOL    HW230270   5.533   1.795   4.280
 9791SOL     OW30271   1.281   1.645   1.181
 9791SOL    HW130272   1.312   1.702   1.258
 9791SOL    HW230273   1.361   1.616   1.128
 9792SOL     OW30274   4.752   4.782   1.424
 9792SOL    HW130275   4.829   4.782   1.487
 9792SOL    HW230276   4.741   4.690   1.386
 9793SOL     OW30277   5.287   6.095   2.957
 9793SOL    HW130278   5.366   6.042   2.986
 9793SOL    HW230279   5.303   6.192   2.972
 9794SOL     OW30280   5.301   3.127   6.225
 9794SOL    HW130281   5.376   3.118   6.290
 9794SOL    HW230282   5.238   3.199   6.256
 9795SOL     OW30283   1.139   3.048   4.400
 9795SOL    HW130284   1.064   3.099   4.358
 9795SOL    HW230285   1.226   3.081   4.365
 9796SOL     OW30286   2.992   5.158   0.954
 9796SOL    HW130287   3.058   5.211   1.007
 9796SOL    HW230288   2.947   5.092   1.015
 9797SOL     OW30289   4.222   3.288   6.804
 9797SOL    HW130290   4.291   3.359   6.789
 9797SOL    HW230291   4.264   3.198   6.795
 9798SOL     OW30292   2.311   0.385   0.700
 9798SOL    HW130293   2.359   0.303   0.667
 9798SOL    HW230294   2.218   0.385   0.663
 9799SOL     OW30295   3.208   2.979   2.501
 9799SOL    HW130296   3.209   3.029   2.415
 9799SOL    HW230297   3.302   2.967   2.534
 9800SOL     OW30298   4.155   5.919   6.587
 9800SOL    HW130299   4.058   5.898   6.600
 9800SOL    HW230300   4.210   5.866   6.652
 9801SOL     OW30301   5.058   5.632   0.610
 9801SOL    HW130302   5.053   5.684   0.524
 9801SOL    HW230303   5.122   5.557   0.600
 9802SOL     OW30304   0.661   3.548   1.328
 9802SOL    HW130305   0.586   3.603   1.290
 9802SOL    HW230306   0.717   3.604   1.388
 9803SOL     OW30307   6.057   6.822   6.764
 9803SOL    HW130308   6.114   6.867   6.695
 9803SOL    HW230309   6.049   6.883   6.844
 9804SOL     OW30310   0.157   5.115   3.724
 9804SOL    HW130311   0.235   5.149   3.778
 9804SOL    HW230312   0.188   5.042   3.663
 9805SOL     OW30313   1.348   5.376   7.020
 9805SOL    HW130314   1.355   5.474   7.001
 9805SOL    HW230315   1.425   5.347   0.053
 9806SOL     OW30316   0.661   2.725   1.587
 9806SOL    HW130317   0.708   2.710   1.674
 9806SOL    HW230318   0.645   2.638   1.541
 9807SOL     OW30319   4.333   1.719   0.495
 9807SOL    HW130320   4.269   1.707   0.419
 9807SOL    HW230321   4.354   1.816   0.506
 9808SOL     OW30322   6.014   1.540   5.212
 9808SOL    HW130323   6.018   1.533   5.112
 9808SOL    HW230324   6.094   1.496   5.251
 9809SOL     OW30325   0.835   1.445   4.911
 9809SOL    HW130326   0.790   1.490   4.834
 9809SOL    HW230327   0.902   1.506   4.951
 9810SOL     OW30328   2.812   1.411   2.937
 9810SOL    HW130329   2.737   1.431   3.000
 9810SOL    HW230330   2.899   1.428   2.984
 9811SOL     OW30331   6.966   6.301   3.161
 9811SOL    HW130332   6.913   6.378   3.196
 9811SOL    HW230333   6.956   6.295   3.062
 9812SOL     OW30334   4.449   2.450   5.735
 9812SOL    HW130335   4.501   2.380   5.785
 9812SOL    HW230336   4.368   2.408   5.694
 9813SOL     OW30337   6.199   5.247   0.310
 9813SOL    HW130338   6.224   5.151   0.309
 9813SOL    HW230339   6.162   5.274   0.221
 9814SOL     OW30340   6.708   6.933   5.478
 9814SOL    HW130341   6.622   6.977   5.503
 9814SOL    HW230342   6.689   6.846   5.434
 9815SOL     OW30343   6.502   3.181   1.479
 9815SOL    HW130344   6.562   3.257   1.454
 9815SOL    HW230345   6.471   3.193   1.574
 9816SOL     OW30346   6.231   0.615   0.087
 9816SOL    HW130347   6.273   0.697   0.048
 9816SOL    HW230348   6.214   0.629   0.184
 9817SOL     OW30349   3.060   6.147   1.816
 9817SOL    HW130350   2.964   6.119   1.822
 9817SOL    HW230351   3.114   6.093   1.881
 9818SOL     OW30352   1.954   1.044   3.539
 9818SOL    HW130353   2.000   1.061   3.626
 9818SOL    HW230354   1.933   0.946   3.531
 9819SOL     OW30355   5.917   3.573   4.768
 9819SOL    HW130356   5.942   3.485   4.809
 9819SOL    HW230357   5.820   3.591   4.783
 9820SOL     OW30358   2.680   2.367   6.124
 9820SOL    HW130359   2.725   2.456   6.133
 9820SOL    HW230360   2.581   2.379   6.127
 9821SOL     OW30361   4.263   2.030   1.783
 9821SOL    HW130362   4.220   2.047   1.872
 9821SOL    HW230363   4.221   2.089   1.714
 9822SOL     OW30364   4.053   5.823   4.661
 9822SOL    HW130365   3.984   5.784   4.600
 9822SOL    HW230366   4.135   5.766   4.659
 9823SOL     OW30367   1.304   0.768   2.733
 9823SOL    HW130368   1.234   0.837   2.717
 9823SOL    HW230369   1.383   0.810   2.777
 9824SOL     OW30370   1.679   6.100   5.886
 9824SOL    HW130371   1.668   6.178   5.824
 9824SOL    HW230372   1.708   6.020   5.833
 9825SOL     OW30373   5.057   5.936   6.069
 9825SOL    HW130374   4.963   5.967   6.082
 9825SOL    HW230375   5.114   6.014   6.043
 9826SOL     OW30376   3.046   6.617   5.468
 9826SOL    HW130377   3.039   6.525   5.507
 9826SOL    HW230378   2.996   6.621   5.382
 9827SOL     OW30379   2.026   5.527   2.506
 9827SOL    HW130380   2.106   5.584   2.485
 9827SOL    HW230381   2.044   5.433   2.478
 9828SOL     OW30382   4.258   1.911   5.060
 9828SOL    HW130383   4.216   1.885   5.147
 9828SOL    HW230384   4.357   1.901   5.066
 9829SOL     OW30385   4.561   5.914   5.876
 9829SOL    HW130386   4.525   6.006   5.860
 9829SOL    HW230387   4.532   5.853   5.802
 9830SOL     OW30388   5.759   2.083   2.501
 9830SOL    HW130389   5.716   2.001   2.463
 9830SOL    HW230390   5.856   2.065   2.519
 9831SOL     OW30391   0.854   4.192   2.177
 9831SOL    HW130392   0.874   4.164   2.084
 9831SOL    HW230393   0.889   4.123   2.241
 9832SOL     OW30394   4.896   4.743   4.784
 9832SOL    HW130395   4.986   4.704   4.807
 9832SOL    HW230396   4.888   4.834   4.825
 9833SOL     OW30397   3.200   4.083   4.313
 9833SOL    HW130398   3.241   4.092   4.404
 9833SOL    HW230399   3.264   4.117   4.244
 9834SOL     OW30400   2.690   5.635   5.441
 9834SOL    HW130401   2.778   5.669   5.408
 9834SOL    HW230402   2.638   5.711   5.480
 9835SOL     OW30403   3.759   4.144   4.978
 9835SOL    HW130404   3.811   4.062   4.956
 9835SOL    HW230405   3.809   4.225   4.946
 9836SOL     OW30406   0.583   3.564   6.060
 9836SOL    HW130407   0.665   3.591   6.111
 9836SOL    HW230408   0.533   3.646   6.032
 9837SOL     OW30409   5.511   1.797   1.697
 9837SOL    HW130410   5.434   1.734   1.683
 9837SOL    HW230411   5.555   1.815   1.610
 9838SOL     OW30412   0.845   5.994   1.434
 9838SOL    HW130413   0.826   5.903   1.471
 9838SOL    HW230414   0.761   6.048   1.436
 9839SOL     OW30415   4.451   1.042   2.166
 9839SOL    HW130416   4.454   0.942   2.168
 9839SOL    HW230417   4.500   1.078   2.246
 9840SOL     OW30418   6.295   1.815   6.812
 9840SOL    HW130419   6.220   1.851   6.756
 9840SOL    HW230420   6.315   1.879   6.886
 9841SOL     OW30421   0.304   6.106   3.449
 9841SOL    HW130422   0.401   6.131   3.454
 9841SOL    HW230423   0.256   6.172   3.391
 9842SOL     OW30424   3.093   2.160   0.293
 9842SOL    HW130425   3.184   2.117   0.287
 9842SOL    HW230426   3.046   2.149   0.205
 9843SOL     OW30427   6.872   6.337   0.850
 9843SOL    HW130428   6.954   6.366   0.801
 9843SOL    HW230429   6.874   6.372   0.944
 9844SOL     OW30430   4.852   0.028   4.366
 9844SOL    HW130431   4.756   0.032   4.395
 9844SOL    HW230432   4.904   0.101   4.411
 9845SOL     OW30433   1.596   2.680   1.702
 9845SOL    HW130434   1.598   2.604   1.636
 9845SOL    HW230435   1.595   2.767   1.653
 9846SOL     OW30436   5.111   1.190   1.518
 9846SOL    HW130437   5.181   1.123   1.540
 9846SOL    HW230438   5.069   1.168   1.430
 9847SOL     OW30439   3.843   3.451   0.496
 9847SOL    HW130440   3.891   3.402   0.568
 9847SOL    HW230441   3.863   3.549   0.502
 9848SOL     OW30442   3.832   3.529   5.196
 9848SOL    HW130443   3.825   3.485   5.107
 9848SOL    HW230444   3.887   3.472   5.257
 9849SOL     OW30445   0.977   1.593   6.018
 9849SOL    HW130446   0.961   1.534   6.097
 9849SOL    HW230447   0.947   1.545   5.935
 9850SOL     OW30448   0.612   0.387   4.320
 9850SOL    HW130449   0.681   0.387   4.392
 9850SOL    HW230450   0.631   0.313   4.255
 9851SOL     OW30451   3.685   4.889   4.303
 9851SOL    HW130452   3.587   4.892   4.286
 9851SOL    HW230453   3.731   4.846   4.226
 9852SOL     OW30454   1.876   1.314   6.474
 9852SOL    HW130455   1.830   1.361   6.550
 9852SOL    HW230456   1.822   1.326   6.391
 9853SOL     OW30457   0.318   4.170   4.097
 9853SOL    HW130458   0.378   4.206   4.169
 9853SOL    HW230459   0.234   4.136   4.138
 9854SOL     OW30460   0.895   5.291   6.285
 9854SOL    HW130461   0.878   5.250   6.374
 9854SOL    HW230462   0.856   5.384   6.283
 9855SOL     OW30463   1.435   3.755   1.074
 9855SOL    HW130464   1.463   3.677   1.130
 9855SOL    HW230465   1.349   3.792   1.110
 9856SOL     OW30466   5.674   4.247   3.071
 9856SOL    HW130467   5.739   4.201   3.010
 9856SOL    HW230468   5.590   4.266   3.020
 9857SOL     OW30469   4.535   2.163   3.868
 9857SOL    HW130470   4.446   2.189   3.905
 9857SOL    HW230471   4.607   2.198   3.927
 9858SOL     OW30472   6.742   6.442   2.652
 9858SOL    HW130473   6.762   6.346   2.631
 9858SOL    HW230474   6.706   6.450   2.745
 9859SOL     OW30475   0.362   5.983   4.470
 9859SOL    HW130476   0.390   5.893   4.436
 9859SOL    HW230477   0.373   5.987   4.569
 9860SOL     OW30478   1.699   2.734   5.470
 9860SOL    HW130479   1.663   2.641   5.475
 9860SOL    HW230480   1.629   2.795   5.433
 9861SOL     OW30481   3.491   1.518   4.180
 9861SOL    HW130482   3.479   1.595   4.243
 9861SOL    HW230483   3.536   1.442   4.227
 9862SOL     OW30484   1.709   5.263   1.079
 9862SOL    HW130485   1.664   5.290   0.994
 9862SOL    HW230486   1.801   5.303   1.082
 9863SOL     OW30487   3.333   6.189   0.829
 9863SOL    HW130488   3.344   6.156   0.735
 9863SOL    HW230489   3.240   6.171   0.860
 9864SOL     OW30490   3.225   6.241   4.989
 9864SOL    HW130491   3.221   6.287   5.077
 9864SOL    HW230492   3.133   6.230   4.952
 9865SOL     OW30493   0.830   6.212   5.897
 9865SOL    HW130494   0.916   6.260   5.882
 9865SOL    HW230495   0.798   6.174   5.810
 9866SOL     OW30496   6.526   4.544   4.646
 9866SOL    HW130497   6.612   4.529   4.598
 9866SOL    HW230498   6.542   4.599   4.728
 9867SOL     OW30499   5.026   1.884   1.758
 9867SOL    HW130500   5.006   1.872   1.855
 9867SOL    HW230501   5.080   1.967   1.744
 9868SOL     OW30502   1.407   4.471   3.209
 9868SOL    HW130503   1.358   4.388   3.182
 9868SOL    HW230504   1.367   4.550   3.162
 9869SOL     OW30505   0.171   2.933   1.321
 9869SOL    HW130506   0.200   3.026   1.302
 9869SOL    HW230507   0.126   2.894   1.241
 9870SOL     OW30508   2.932   1.244   2.051
 9870SOL    HW130509   2.922   1.342   2.031
 9870SOL    HW230510   2.920   1.229   2.149
 9871SOL     OW30511   6.916   3.718   4.993
 9871SOL    HW130512   6.925   3.618   4.999
 9871SOL    HW230513   6.963   3.750   4.911
 9872SOL     OW30514   1.856   4.930   5.268
 9872SOL    HW130515   1.790   4.927   5.193
 9872SOL    HW230516   1.948   4.939   5.231
 9873SOL     OW30517   2.356   2.047   5.684
 9873SOL    HW130518   2.400   1.980   5.744
 9873SOL    HW230519   2.408   2.055   5.599
 9874SOL     OW30520   6.940   2.617   4.747
 9874SOL    HW130521   6.973   2.538   4.799
 9874SOL    HW230522   6.888   2.586   4.668
 9875SOL     OW30523   6.716   5.884   0.556
 9875SOL    HW130524   6.677   5.973   0.578
 9875SOL    HW230525   6.764   5.889   0.469
 9876SOL     OW30526   2.238   6.442   3.159
 9876SOL    HW130527   2.281   6.409   3.243
 9876SOL    HW230528   2.234   6.542   3.161
 9877SOL     OW30529   0.915   5.195   4.894
 9877SOL    HW130530   0.945   5.165   4.984
 9877SOL    HW230531   0.972   5.153   4.824
 9878SOL     OW30532   1.984   3.108   0.110
 9878SOL    HW130533   1.991   3.052   0.193
 9878SOL    HW230534   1.953   3.051   0.034
 9879SOL     OW30535   0.256   4.869   6.144
 9879SOL    HW130536   0.305   4.792   6.104
 9879SOL    HW230537   0.161   4.844   6.162
 9880SOL     OW30538   3.065   1.770   0.208
 9880SOL    HW130539   3.091   1.793   0.302
 9880SOL    HW230540   3.043   1.853   0.158
 9881SOL     OW30541   5.540   0.303   4.817
 9881SOL    HW130542   5.629   0.260   4.823
 9881SOL    HW230543   5.485   0.256   4.747
 9882SOL     OW30544   4.146   3.535   4.209
 9882SOL    HW130545   4.176   3.495   4.122
 9882SOL    HW230546   4.138   3.463   4.278
 9883SOL     OW30547   2.070   0.011   1.227
 9883SOL    HW130548   2.055   0.048   1.136
 9883SOL    HW230549   2.148   0.056   1.269
 9884SOL     OW30550   1.807   3.907   6.463
 9884SOL    HW130551   1.805   3.831   6.527
 9884SOL    HW230552   1.901   3.925   6.434
 9885SOL     OW30553   6.296   3.380   4.347
 9885SOL    HW130554   6.352   3.402   4.267
 9885SOL    HW230555   6.343   3.312   4.403
 9886SOL     OW30556   4.860   6.138   1.488
 9886SOL    HW130557   4.916   6.211   1.448
 9886SOL    HW230558   4.859   6.059   1.427
 9887SOL     OW30559   4.010   7.006   0.553
 9887SOL    HW130560   4.060   6.937   0.500
 9887SOL    HW230561   4.001   6.974   0.648
 9888SOL     OW30562   6.175   5.449   2.352
 9888SOL    HW130563   6.175   5.547   2.332
 9888SOL    HW230564   6.081   5.418   2.364
 9889SOL     OW30565   0.621   5.042   3.394
 9889SOL    HW130566   0.597   4.996   3.480
 9889SOL    HW230567   0.655   5.134   3.414
 9890SOL     OW30568   6.613   4.119   1.890
 9890SOL    HW130569   6.644   4.210   1.862
 9890SOL    HW230570   6.688   4.072   1.939
 9891SOL     OW30571   5.292   4.330   0.860
 9891SOL    HW130572   5.239   4.260   0.812
 9891SOL    HW230573   5.352   4.378   0.796
 9892SOL     OW30574   1.765   5.602   4.129
 9892SOL    HW130575   1.856   5.642   4.129
 9892SOL    HW230576   1.736   5.584   4.035
 9893SOL     OW30577   6.369   4.919   3.410
 9893SOL    HW130578   6.270   4.932   3.403
 9893SOL    HW230579   6.408   4.921   3.318
 9894SOL     OW30580   3.695   2.752   5.917
 9894SOL    HW130581   3.679   2.783   5.823
 9894SOL    HW230582   3.631   2.799   5.979
 9895SOL     OW30583   5.060   2.361   6.611
 9895SOL    HW130584   4.961   2.362   6.629
 9895SOL    HW230585   5.099   2.450   6.635
 9896SOL     OW30586   4.021   3.757   0.281
 9896SOL    HW130587   4.094   3.823   0.261
 9896SOL    HW230588   3.973   3.735   0.196
 9897SOL     OW30589   5.913   2.113   2.822
 9897SOL    HW130590   5.976   2.108   2.900
 9897SOL    HW230591   5.849   2.036   2.826
 9898SOL     OW30592   1.527   5.422   5.738
 9898SOL    HW130593   1.477   5.350   5.785
 9898SOL    HW230594   1.532   5.401   5.640
 9899SOL     OW30595   5.261   4.857   2.529
 9899SOL    HW130596   5.193   4.858   2.456
 9899SOL    HW230597   5.301   4.766   2.537
 9900SOL     OW30598   1.400   2.433   4.129
 9900SOL    HW130599   1.306   2.464   4.143
 9900SOL    HW230600   1.402   2.333   4.127
 9901SOL     OW30601   2.953   2.303   6.000
 9901SOL    HW130602   3.035   2.351   6.031
 9901SOL    HW230603   2.873   2.344   6.044
 9902SOL     OW30604   3.777   3.320   0.280
 9902SOL    HW130605   3.679   3.304   0.296
 9902SOL    HW230606   3.815   3.369   0.358
 9903SOL     OW30607   4.127   1.565   1.882
 9903SOL    HW130608   4.074   1.632   1.830
 9903SOL    HW230609   4.177   1.506   1.819
 9904SOL     OW30610   6.651   2.014   0.949
 9904SOL    HW130611   6.553   2.005   0.965
 9904SOL    HW230612   6.666   2.077   0.872
 9905SOL     OW30613   1.253   6.795   5.901
 9905SOL    HW130614   1.277   6.698   5.895
 9905SOL    HW230615   1.263   6.825   5.996
 9906SOL     OW30616   2.788   4.004   6.246
 9906SOL    HW130617   2.788   3.914   6.290
 9906SOL    HW230618   2.702   4.017   6.198
 9907SOL     OW30619   2.791   5.962   3.081
 9907SOL    HW130620   2.808   6.047   3.132
 9907SOL    HW230621   2.734   5.901   3.136
 9908SOL     OW30622   0.879   3.504   5.925
 9908SOL    HW130623   0.977   3.523   5.915
 9908SOL    HW230624   0.865   3.405   5.931
 9909SOL     OW30625   2.988   1.183   2.858
 9909SOL    HW130626   2.989   1.200   2.760
 9909SOL    HW230627   2.907   1.226   2.899
 9910SOL     OW30628   6.281   4.509   0.562
 9910SOL    HW130629   6.191   4.467   0.568
 9910SOL    HW230630   6.323   4.487   0.474
 9911SOL     OW30631   3.640   4.907   3.524
 9911SOL    HW130632   3.555   4.884   3.477
 9911SOL    HW230633   3.620   4.927   3.620
 9912SOL     OW30634   5.188   0.230   1.498
 9912SOL    HW130635   5.192   0.308   1.561
 9912SOL    HW230636   5.118   0.166   1.529
 9913SOL     OW30637   5.481   2.638   2.909
 9913SOL    HW130638   5.454   2.605   2.818
 9913SOL    HW230639   5.449   2.732   2.921
 9914SOL     OW30640   0.912   0.431   4.853
 9914SOL    HW130641   0.878   0.344   4.890
 9914SOL    HW230642   0.987   0.413   4.790
 9915SOL     OW30643   4.849   3.207   3.760
 9915SOL    HW130644   4.812   3.285   3.809
 9915SOL    HW230645   4.868   3.232   3.665
 9916SOL     OW30646   2.227   2.800   2.458
 9916SOL    HW130647   2.236   2.845   2.547
 9916SOL    HW230648   2.287   2.720   2.455
 9917SOL     OW30649   3.129   3.974   5.481
 9917SOL    HW130650   3.150   4.072   5.483
 9917SOL    HW230651   3.089   3.950   5.393
 9918SOL     OW30652   2.281   2.293   5.611
 9918SOL    HW130653   2.357   2.358   5.616
 9918SOL    HW230654   2.309   2.206   5.651
 9919SOL     OW30655   0.532   5.506   2.811
 9919SOL    HW130656   0.514   5.581   2.748
 9919SOL    HW230657   0.629   5.483   2.809
 9920SOL     OW30658   3.699   6.421   1.452
 9920SOL    HW130659   3.611   6.466   1.436
 9920SOL    HW230660   3.737   6.453   1.539
 9921SOL     OW30661   5.753   0.485   2.693
 9921SOL    HW130662   5.852   0.494   2.697
 9921SOL    HW230663   5.711   0.575   2.704
 9922SOL     OW30664   4.321   4.889   0.913
 9922SOL    HW130665   4.407   4.842   0.932
 9922SOL    HW230666   4.248   4.821   0.902
 9923SOL     OW30667   6.904   2.437   5.923
 9923SOL    HW130668   6.822   2.471   5.970
 9923SOL    HW230669   6.985   2.462   5.975
 9924SOL     OW30670   6.552   0.756   2.791
 9924SOL    HW130671   6.493   0.815   2.737
 9924SOL    HW230672   6.498   0.710   2.861
 9925SOL     OW30673   2.731   2.958   5.581
 9925SOL    HW130674   2.813   3.010   5.559
 9925SOL    HW230675   2.682   2.935   5.497
 9926SOL     OW30676   1.017   1.044   0.373
 9926SOL    HW130677   1.090   0.993   0.327
 9926SOL    HW230678   1.034   1.142   0.364
 9927SOL     OW30679   0.073   1.979   2.379
 9927SOL    HW130680   0.057   2.077   2.374
 9927SOL    HW230681   0.171   1.960   2.380
 9928SOL     OW30682   0.254   3.675   2.147
 9928SOL    HW130683   0.226   3.674   2.051
 9928SOL    HW230684   0.173   3.682   2.205
 9929SOL     OW30685   2.759   4.693   0.103
 9929SOL    HW130686   2.674   4.642   0.113
 9929SOL    HW230687   2.822   4.642   0.045
 9930SOL     OW30688   0.072   0.057   5.954
 9930SOL    HW130689   0.151   0.119   5.948
 9930SOL    HW230690   0.072   7.020   5.874
 9931SOL     OW30691   1.724   5.881   5.710
 9931SOL    HW130692   1.718   5.910   5.614
 9931SOL    HW230693   1.648   5.819   5.731
 9932SOL     OW30694   1.241   1.560   0.301
 9932SOL    HW130695   1.282   1.550   0.392
 9932SOL    HW230696   1.286   1.635   0.252
 9933SOL     OW30697   2.435   1.549   3.097
 9933SOL    HW130698   2.427   1.638   3.143
 9933SOL    HW230699   2.433   1.562   2.998
 9934SOL     OW30700   5.398   1.639   5.694
 9934SOL    HW130701   5.467   1.569   5.714
 9934SOL    HW230702   5.358   1.671   5.780
 9935SOL     OW30703   3.019   2.203   0.747
 9935SOL    HW130704   2.990   2.195   0.842
 9935SOL    HW230705   2.942   2.183   0.687
 9936SOL     OW30706   5.827   5.775   5.402
 9936SOL    HW130707   5.853   5.812   5.491
 9936SOL    HW230708   5.760   5.835   5.358
 9937SOL     OW30709   0.626   0.019   3.034
 9937SOL    HW130710   0.703   0.080   3.053
 9937SOL    HW230711   0.614   6.979   3.110
 9938SOL     OW30712   6.726   0.528   4.054
 9938SOL    HW130713   6.721   0.471   3.972
 9938SOL    HW230714   6.634   0.547   4.087
 9939SOL     OW30715   2.584   4.480   1.275
 9939SOL    HW130716   2.530   4.434   1.204
 9939SOL    HW230717   2.543   4.464   1.364
 9940SOL     OW30718   0.906   0.250   2.913
 9940SOL    HW130719   0.988   0.301   2.940
 9940SOL    HW230720   0.827   0.285   2.962
 9941SOL     OW30721   4.719   5.074   5.982
 9941SOL    HW130722   4.798   5.012   5.980
 9941SOL    HW230723   4.740   5.154   6.038
 9942SOL     OW30724   4.480   4.821   3.697
 9942SOL    HW130725   4.480   4.920   3.684
 9942SOL    HW230726   4.559   4.795   3.753
 9943SOL     OW30727   2.885   4.171   0.134
 9943SOL    HW130728   2.812   4.212   0.079
 9943SOL    HW230729   2.868   4.073   0.144
 9944SOL     OW30730   1.623   4.675   0.318
 9944SOL    HW130731   1.630   4.731   0.235
 9944SOL    HW230732   1.528   4.675   0.350
 9945SOL     OW30733   5.820   4.268   6.975
 9945SOL    HW130734   5.848   4.177   7.005
 9945SOL    HW230735   5.831   4.275   6.876
 9946SOL     OW30736   5.504   1.374   2.619
 9946SOL    HW130737   5.473   1.291   2.572
 9946SOL    HW230738   5.603   1.378   2.616
 9947SOL     OW30739   1.839   1.554   3.951
 9947SOL    HW130740   1.876   1.539   3.859
 9947SOL    HW230741   1.794   1.470   3.982
 9948SOL     OW30742   6.033   0.546   4.326
 9948SOL    HW130743   6.006   0.630   4.373
 9948SOL    HW230744   5.951   0.498   4.296
 9949SOL     OW30745   6.504   4.271   4.677
 9949SOL    HW130746   6.506   4.370   4.667
 9949SOL    HW230747   6.433   4.245   4.743
 9950SOL     OW30748   6.425   5.199   6.001
 9950SOL    HW130749   6.404   5.270   6.068
 9950SOL    HW230750   6.440   5.241   5.912
 9951SOL     OW30751   0.629   2.430   2.474
 9951SOL    HW130752   0.554   2.369   2.498
 9951SOL    HW230753   0.638   2.436   2.375
 9952SOL     OW30754   0.312   4.060   1.900
 9952SOL    HW130755   0.213   4.057   1.892
 9952SOL    HW230756   0.353   3.991   1.840
 9953SOL     OW30757   5.891   2.265   3.185
 9953SOL    HW130758   5.950   2.206   3.129
 9953SOL    HW230759   5.841   2.208   3.251
 9954SOL     OW30760   2.948   2.046   5.908
 9954SOL    HW130761   2.861   2.002   5.882
 9954SOL    HW230762   2.929   2.124   5.968
 9955SOL     OW30763   5.335   3.191   0.948
 9955SOL    HW130764   5.298   3.276   0.910
 9955SOL    HW230765   5.320   3.117   0.883
 9956SOL     OW30766   2.151   3.625   3.176
 9956SOL    HW130767   2.162   3.634   3.275
 9956SOL    HW230768   2.151   3.528   3.152
 9957SOL     OW30769   5.588   6.697   1.268
 9957SOL    HW130770   5.556   6.603   1.278
 9957SOL    HW230771   5.521   6.759   1.309
 9958SOL     OW30772   4.720   4.774   6.770
 9958SOL    HW130773   4.787   4.702   6.752
 9958SOL    HW230774   4.745   4.856   6.717
 9959SOL     OW30775   4.350   4.350   1.126
 9959SOL    HW130776   4.280   4.362   1.197
 9959SOL    HW230777   4.370   4.439   1.085
 9960SOL     OW30778   6.577   6.903   6.553
 9960SOL    HW130779   6.672   6.907   6.520
 9960SOL    HW230780   6.515   6.931   6.480
 9961SOL     OW30781   2.707   4.910   2.244
 9961SOL    HW130782   2.658   4.868   2.168
 9961SOL    HW230783   2.763   4.842   2.291
 9962SOL     OW30784   3.148   5.948   2.592
 9962SOL    HW130785   3.071   5.919   2.648
 9962SOL    HW230786   3.215   5.995   2.650
 9963SOL     OW30787   1.710   1.346   6.252
 9963SOL    HW130788   1.647   1.398   6.310
 9963SOL    HW230789   1.687   1.360   6.156
 9964SOL     OW30790   4.754   4.052   5.277
 9964SOL    HW130791   4.762   4.137   5.329
 9964SOL    HW230792   4.782   4.068   5.182
 9965SOL     OW30793   2.679   5.408   4.935
 9965SOL    HW130794   2.627   5.323   4.946
 9965SOL    HW230795   2.740   5.420   5.014
 9966SOL     OW30796   3.616   4.998   2.453
 9966SOL    HW130797   3.526   4.955   2.449
 9966SOL    HW230798   3.650   4.995   2.547
 9967SOL     OW30799   6.821   6.886   3.332
 9967SOL    HW130800   6.729   6.884   3.291
 9967SOL    HW230801   6.881   6.944   3.277
 9968SOL     OW30802   3.763   6.489   0.711
 9968SOL    HW130803   3.825   6.413   0.692
 9968SOL    HW230804   3.707   6.508   0.630
 9969SOL     OW30805   1.408   5.199   3.690
 9969SOL    HW130806   1.370   5.120   3.739
 9969SOL    HW230807   1.493   5.227   3.734
 9970SOL     OW30808   6.320   4.360   1.210
 9970SOL    HW130809   6.370   4.365   1.124
 9970SOL    HW230810   6.345   4.437   1.268
 9971SOL     OW30811   1.379   3.631   2.251
 9971SOL    HW130812   1.453   3.592   2.305
 9971SOL    HW230813   1.302   3.652   2.311
 9972SOL     OW30814   3.612   3.625   0.507
 9972SOL    HW130815   3.637   3.532   0.533
 9972SOL    HW230816   3.694   3.681   0.495
 9973SOL     OW30817   3.687   1.874   3.292
 9973SOL    HW130818   3.648   1.808   3.357
 9973SOL    HW230819   3.655   1.852   3.200
 9974SOL     OW30820   0.161   2.200   3.601
 9974SOL    HW130821   0.076   2.150   3.619
 9974SOL    HW230822   0.145   2.298   3.613
 9975SOL     OW30823   1.155   5.107   6.800
 9975SOL    HW130824   1.139   5.089   6.703
 9975SOL    HW230825   1.123   5.030   6.854
 9976SOL     OW30826   2.507   4.432   6.275
 9976SOL    HW130827   2.436   4.471   6.334
 9976SOL    HW230828   2.581   4.498   6.264
 9977SOL     OW30829   5.386   5.827   5.274
 9977SOL    HW130830   5.388   5.817   5.374
 9977SOL    HW230831   5.435   5.910   5.248
 9978SOL     OW30832   0.490   2.385   6.313
 9978SOL    HW130833   0.438   2.314   6.266
 9978SOL    HW230834   0.459   2.392   6.408
 9979SOL     OW30835   5.071   3.209   5.309
 9979SOL    HW130836   5.003   3.170   5.372
 9979SOL    HW230837   5.028   3.230   5.222
 9980SOL     OW30838   0.818   0.511   6.666
 9980SOL    HW130839   0.745   0.500   6.599
 9980SOL    HW230840   0.784   0.559   6.747
 9981SOL     OW30841   0.267   2.366   1.150
 9981SOL    HW130842   0.265   2.466   1.158
 9981SOL    HW230843   0.214   2.325   1.224
 9982SOL     OW30844   2.263   1.895   4.670
 9982SOL    HW130845   2.199   1.926   4.740
 9982SOL    HW230846   2.357   1.903   4.705
 9983SOL     OW30847   0.128   3.160   2.205
 9983SOL    HW130848   0.061   3.107   2.257
 9983SOL    HW230849   0.107   3.258   2.213
 9984SOL     OW30850   0.057   5.951   1.685
 9984SOL    HW130851   0.032   6.043   1.655
 9984SOL    HW230852   0.025   5.884   1.617
 9985SOL     OW30853   4.230   5.485   0.764
 9985SOL    HW130854   4.165   5.549   0.806
 9985SOL    HW230855   4.292   5.536   0.703
 9986SOL     OW30856   4.764   4.383   0.038
 9986SOL    HW130857   4.846   4.372   0.093
 9986SOL    HW230858   4.685   4.348   0.089
 9987SOL     OW30859   5.268   2.739   1.597
 9987SOL    HW130860   5.362   2.737   1.631
 9987SOL    HW230861   5.236   2.645   1.582
 9988SOL     OW30862   5.624   6.228   4.386
 9988SOL    HW130863   5.700   6.277   4.428
 9988SOL    HW230864   5.615   6.137   4.428
 9989SOL     OW30865   6.797   4.951   2.384
 9989SOL    HW130866   6.850   4.883   2.333
 9989SOL    HW230867   6.763   4.910   2.468
 9990SOL     OW30868   0.428   6.971   3.417
 9990SOL    HW130869   0.366   7.018   3.354
 9990SOL    HW230870   0.427   7.018   3.505
 9991SOL     OW30871   1.551   4.385   3.890
 9991SOL    HW130872   1.517   4.458   3.830
 9991SOL    HW230873   1.637   4.349   3.853
 9992SOL     OW30874   3.401   4.698   1.109
 9992SOL    HW130875   3.436   4.705   1.016
 9992SOL    HW230876   3.307   4.663   1.108
 9993SOL     OW30877   3.754   6.900   3.832
 9993SOL    HW130878   3.677   6.964   3.844
 9993SOL    HW230879   3.817   6.909   3.909
 9994SOL     OW30880   7.010   4.020   4.574
 9994SOL    HW130881   7.005   4.002   4.672
 9994SOL    HW230882   6.959   3.950   4.524
 9995SOL     OW30883   2.684   0.627   4.905
 9995SOL    HW130884   2.616   0.701   4.903
 9995SOL    HW230885   2.641   0.542   4.875
 9996SOL     OW30886   2.435   4.321   1.122
 9996SOL    HW130887   2.359   4.275   1.168
 9996SOL    HW230888   2.436   4.295   1.025
 9997SOL     OW30889   6.287   1.798   4.245
 9997SOL    HW130890   6.378   1.836   4.224
 9997SOL    HW230891   6.298   1.707   4.285
 9998SOL     OW30892   4.913   3.569   2.909
 9998SOL    HW130893   4.878   3.486   2.865
 9998SOL    HW230894   4.926   3.552   3.007
 9999SOL     OW30895   0.228   6.694   3.820
 9999SOL    HW130896   0.226   6.784   3.863
 9999SOL    HW230897   0.203   6.624   3.887
10000SOL     OW30898   5.146   1.530   1.848
10000SOL    HW130899   5.087   1.457   1.813
10000SOL    HW230900   5.091   1.597   1.898
10001SOL     OW30901   2.897   6.157   2.665
10001SOL    HW130902   2.902   6.067   2.708
10001SOL    HW230903   2.870   6.225   2.733
10002SOL     OW30904   2.482   1.173   0.744
10002SOL    HW130905   2.501   1.136   0.653
10002SOL    HW230906   2.538   1.254   0.759
10003SOL     OW30907   2.564   1.816   3.047
10003SOL    HW130908   2.643   1.852   3.096
10003SOL    HW230909   2.492   1.884   3.045
10004SOL     OW30910   5.445   4.382   4.767
10004SOL    HW130911   5.349   4.381   4.742
10004SOL    HW230912   5.495   4.316   4.711
10005SOL     OW30913   3.232   5.637   3.719
10005SOL    HW130914   3.265   5.712   3.776
10005SOL    HW230915   3.151   5.595   3.761
10006SOL     OW30916   5.535   0.545   5.186
10006SOL    HW130917   5.591   0.563   5.267
10006SOL    HW230918   5.593   0.545   5.105
10007SOL     OW30919   0.721   3.967   4.660
10007SOL    HW130920   0.754   4.033   4.592
10007SOL    HW230921   0.627   3.988   4.685
10008SOL     OW30922   3.502   1.725   4.364
10008SOL    HW130923   3.502   1.774   4.277
10008SOL    HW230924   3.408   1.720   4.399
10009SOL     OW30925   2.148   4.407   1.979
10009SOL    HW130926   2.132   4.421   1.881
10009SOL    HW230927   2.069   4.441   2.030
10010SOL     OW30928   3.081   4.840   6.883
10010SOL    HW130929   3.039   4.926   6.852
10010SOL    HW230930   3.144   4.807   6.814
10011SOL     OW30931   0.442   4.003   0.359
10011SOL    HW130932   0.451   3.932   0.289
10011SOL    HW230933   0.462   4.092   0.318
10012SOL     OW30934   5.186   0.516   2.287
10012SOL    HW130935   5.229   0.579   2.223
10012SOL    HW230936   5.105   0.559   2.327
10013SOL     OW30937   1.536   5.136   4.972
10013SOL    HW130938   1.607   5.110   4.906
10013SOL    HW230939   1.541   5.234   4.991
10014SOL     OW30940   0.506   6.729   3.038
10014SOL    HW130941   0.408   6.739   3.052
10014SOL    HW230942   0.556   6.764   3.117
10015SOL     OW30943   3.628   5.612   6.674
10015SOL    HW130944   3.620   5.694   6.617
10015SOL    HW230945   3.592   5.533   6.624
10016SOL     OW30946   1.328   0.386   4.549
10016SOL    HW130947   1.330   0.286   4.547
10016SOL    HW230948   1.307   0.420   4.457
10017SOL     OW30949   2.742   1.995   3.203
10017SOL    HW130950   2.759   2.083   3.159
10017SOL    HW230951   2.812   1.929   3.175
10018SOL     OW30952   6.935   4.161   6.004
10018SOL    HW130953   0.007   4.150   5.981
10018SOL    HW230954   6.885   4.198   5.926
10019SOL     OW30955   0.297   1.150   2.492
10019SOL    HW130956   0.260   1.173   2.582
10019SOL    HW230957   0.336   1.232   2.450
10020SOL     OW30958   6.690   0.834   1.788
10020SOL    HW130959   6.657   0.781   1.710
10020SOL    HW230960   6.734   0.918   1.756
10021SOL     OW30961   1.577   3.571   1.220
10021SOL    HW130962   1.591   3.511   1.141
10021SOL    HW230963   1.664   3.581   1.269
10022SOL     OW30964   2.344   6.344   0.189
10022SOL    HW130965   2.422   6.392   0.230
10022SOL    HW230966   2.360   6.245   0.193
10023SOL     OW30967   2.228   6.651   5.712
10023SOL    HW130968   2.159   6.710   5.754
10023SOL    HW230969   2.301   6.632   5.777
10024SOL     OW30970   1.600   4.850   3.036
10024SOL    HW130971   1.675   4.914   3.053
10024SOL    HW230972   1.574   4.806   3.122
10025SOL     OW30973   1.631   3.719   1.773
10025SOL    HW130974   1.687   3.794   1.739
10025SOL    HW230975   1.636   3.717   1.873
10026SOL     OW30976   5.114   1.248   2.372
10026SOL    HW130977   5.043   1.188   2.407
10026SOL    HW230978   5.073   1.316   2.310
10027SOL     OW30979   1.482   2.796   4.970
10027SOL    HW130980   1.417   2.841   4.909
10027SOL    HW230981   1.433   2.727   5.025
10028SOL     OW30982   2.848   0.904   1.733
10028SOL    HW130983   2.874   0.877   1.640
10028SOL    HW230984   2.907   0.856   1.799
10029SOL     OW30985   6.975   2.716   4.093
10029SOL    HW130986   6.957   2.695   3.997
10029SOL    HW230987   6.933   2.804   4.117
10030SOL     OW30988   2.680   6.934   4.925
10030SOL    HW130989   2.612   6.874   4.967
10030SOL    HW230990   2.682   6.918   4.826
10031SOL     OW30991   3.836   4.920   5.001
10031SOL    HW130992   3.862   4.999   4.945
10031SOL    HW230993   3.745   4.890   4.975
10032SOL     OW30994   3.351   6.320   5.796
10032SOL    HW130995   3.383   6.226   5.795
10032SOL    HW230996   3.251   6.322   5.798
10033SOL     OW30997   4.780   1.509   3.630
10033SOL    HW130998   4.724   1.508   3.712
10033SOL    HW230999   4.734   1.456   3.558
10034SOL     OW31000   1.917   0.750   3.616
10034SOL    HW131001   1.836   0.708   3.577
10034SOL    HW231002   1.999   0.710   3.574
10035SOL     OW31003   6.095   3.776   0.241
10035SOL    HW131004   6.090   3.769   0.142
10035SOL    HW231005   6.103   3.685   0.281
10036SOL     OW31006   6.603   0.325   6.535
10036SOL    HW131007   6.682   0.366   6.581
10036SOL    HW231008   6.581   0.377   6.452
10037SOL     OW31009   6.280   0.074   5.957
10037SOL    HW131010   6.359   0.027   5.998
10037SOL    HW231011   6.199   0.058   6.013
10038SOL     OW31012   4.794   6.922   0.189
10038SOL    HW131013   4.886   6.960   0.179
10038SOL    HW231014   4.797   6.823   0.176
10039SOL     OW31015   4.923   5.698   4.533
10039SOL    HW131016   4.829   5.679   4.505
10039SOL    HW231017   4.936   5.672   4.629
10040SOL     OW31018   4.373   6.548   0.723
10040SOL    HW131019   4.417   6.560   0.635
10040SOL    HW231020   4.442   6.530   0.793
10041SOL     OW31021   6.588   4.877   5.495
10041SOL    HW131022   6.557   4.791   5.537
10041SOL    HW231023   6.688   4.881   5.499
10042SOL     OW31024   0.570   1.047   5.562
10042SOL    HW131025   0.597   1.040   5.466
10042SOL    HW231026   0.620   1.122   5.606
10043SOL     OW31027   0.850   0.824   2.451
10043SOL    HW131028   0.900   0.741   2.473
10043SOL    HW231029   0.753   0.810   2.468
10044SOL     OW31030   2.567   1.756   4.592
10044SOL    HW131031   2.554   1.822   4.666
10044SOL    HW231032   2.646   1.782   4.537
10045SOL     OW31033   4.518   0.225   4.366
10045SOL    HW131034   4.515   0.130   4.332
10045SOL    HW231035   4.577   0.279   4.306
10046SOL     OW31036   6.975   2.206   1.658
10046SOL    HW131037   6.888   2.174   1.620
10046SOL    HW231038   6.961   2.239   1.751
10047SOL     OW31039   5.905   2.708   5.438
10047SOL    HW131040   5.969   2.673   5.369
10047SOL    HW231041   5.824   2.648   5.442
10048SOL     OW31042   3.017   1.456   1.854
10048SOL    HW131043   2.937   1.399   1.834
10048SOL    HW231044   3.025   1.527   1.785
10049SOL     OW31045   0.782   0.703   6.927
10049SOL    HW131046   0.714   0.714   6.999
10049SOL    HW231047   0.800   0.791   6.883
10050SOL     OW31048   5.633   2.746   4.739
10050SOL    HW131049   5.556   2.764   4.801
10050SOL    HW231050   5.607   2.676   4.672
10051SOL     OW31051   6.907   2.979   4.647
10051SOL    HW131052   6.955   2.997   4.733
10051SOL    HW231053   6.814   2.947   4.667
10052SOL     OW31054   1.995   3.190   1.445
10052SOL    HW131055   1.956   3.252   1.377
10052SOL    HW231056   1.924   3.158   1.506
10053SOL     OW31057   3.707   4.834   2.663
10053SOL    HW131058   3.802   4.864   2.663
10053SOL    HW231059   3.669   4.844   2.755
10054SOL     OW31060   4.579   5.786   6.313
10054SOL    HW131061   4.501   5.785   6.250
10054SOL    HW231062   4.555   5.735   6.396
10055SOL     OW31063   6.384   2.236   4.625
10055SOL    HW131064   6.312   2.173   4.657
10055SOL    HW231065   6.386   2.317   4.683
10056SOL     OW31066   5.739   5.084   0.835
10056SOL    HW131067   5.779   5.008   0.886
10056SOL    HW231068   5.764   5.077   0.738
10057SOL     OW31069   3.781   1.580   4.313
10057SOL    HW131070   3.816   1.606   4.403
10057SOL    HW231071   3.700   1.634   4.292
10058SOL     OW31072   6.947   4.301   4.521
10058SOL    HW131073   6.939   4.352   4.606
10058SOL    HW231074   6.931   4.204   4.539
10059SOL     OW31075   5.328   6.380   0.931
10059SOL    HW131076   5.365   6.310   0.992
10059SOL    HW231077   5.228   6.380   0.937
10060SOL     OW31078   2.290   2.340   2.220
10060SOL    HW131079   2.262   2.307   2.131
10060SOL    HW231080   2.372   2.397   2.211
10061SOL     OW31081   5.337   1.294   3.973
10061SOL    HW131082   5.354   1.297   4.071
10061SOL    HW231083   5.265   1.227   3.953
10062SOL     OW31084   6.266   6.988   4.628
10062SOL    HW131085   6.351   6.935   4.628
10062SOL    HW231086   6.260   0.017   4.713
10063SOL     OW31087   1.623   2.056   3.343
10063SOL    HW131088   1.695   2.115   3.380
10063SOL    HW231089   1.574   2.105   3.271
10064SOL     OW31090   6.036   5.469   5.332
10064SOL    HW131091   6.084   5.557   5.329
10064SOL    HW231092   6.034   5.435   5.426
10065SOL     OW31093   1.581   0.778   1.911
10065SOL    HW131094   1.664   0.773   1.856
10065SOL    HW231095   1.515   0.838   1.866
10066SOL     OW31096   1.246   0.757   3.918
10066SOL    HW131097   1.265   0.770   3.821
10066SOL    HW231098   1.154   0.789   3.939
10067SOL     OW31099   5.439   4.662   4.696
10067SOL    HW131100   5.347   4.690   4.724
10067SOL    HW231101   5.448   4.563   4.703
10068SOL     OW31102   5.333   3.046   3.980
10068SOL    HW131103   5.396   3.057   3.904
10068SOL    HW231104   5.347   2.957   4.023
10069SOL     OW31105   2.270   6.353   3.577
10069SOL    HW131106   2.259   6.334   3.480
10069SOL    HW231107   2.271   6.452   3.592
10070SOL     OW31108   0.571   6.733   4.610
10070SOL    HW131109   0.591   6.812   4.669
10070SOL    HW231110   0.488   6.688   4.641
10071SOL     OW31111   4.430   4.965   4.176
10071SOL    HW131112   4.474   4.924   4.256
10071SOL    HW231113   4.337   4.993   4.200
10072SOL     OW31114   0.897   6.417   3.951
10072SOL    HW131115   0.838   6.461   4.019
10072SOL    HW231116   0.899   6.473   3.868
10073SOL     OW31117   6.218   4.158   5.142
10073SOL    HW131118   6.180   4.234   5.090
10073SOL    HW231119   6.276   4.193   5.216
10074SOL     OW31120   0.612   0.369   5.772
10074SOL    HW131121   0.692   0.330   5.818
10074SOL    HW231122   0.633   0.462   5.743
10075SOL     OW31123   1.330   2.518   2.494
10075SOL    HW131124   1.389   2.436   2.492
10075SOL    HW231125   1.314   2.545   2.589
10076SOL     OW31126   5.638   0.182   4.221
10076SOL    HW131127   5.648   0.145   4.313
10076SOL    HW231128   5.551   0.230   4.213
10077SOL     OW31129   3.545   2.176   6.698
10077SOL    HW131130   3.469   2.116   6.672
10077SOL    HW231131   3.509   2.264   6.729
10078SOL     OW31132   6.293   6.691   4.441
10078SOL    HW131133   6.324   6.709   4.348
10078SOL    HW231134   6.258   6.775   4.482
10079SOL     OW31135   1.720   2.805   1.917
10079SOL    HW131136   1.660   2.773   1.990
10079SOL    HW231137   1.677   2.787   1.829
10080SOL     OW31138   3.234   2.117   6.386
10080SOL    HW131139   3.293   2.186   6.344
10080SOL    HW231140   3.230   2.036   6.327
10081SOL     OW31141   0.483   6.617   6.373
10081SOL    HW131142   0.467   6.672   6.455
10081SOL    HW231143   0.478   6.675   6.292
10082SOL     OW31144   6.903   2.691   2.558
10082SOL    HW131145   6.848   2.773   2.576
10082SOL    HW231146   6.999   2.716   2.556
10083SOL     OW31147   4.966   0.908   3.331
10083SOL    HW131148   4.894   0.882   3.395
10083SOL    HW231149   4.937   0.987   3.277
10084SOL     OW31150   3.790   0.227   5.811
10084SOL    HW131151   3.704   0.199   5.769
10084SOL    HW231152   3.793   0.195   5.906
10085SOL     OW31153   0.235   4.974   2.885
10085SOL    HW131154   0.194   4.938   2.801
10085SOL    HW231155   0.298   5.048   2.863
10086SOL     OW31156   5.920   5.353   2.373
10086SOL    HW131157   5.877   5.281   2.319
10086SOL    HW231158   5.855   5.428   2.388
10087SOL     OW31159   0.981   0.848   3.974
10087SOL    HW131160   0.951   0.942   3.956
10087SOL    HW231161   0.908   0.797   4.019
10088SOL     OW31162   0.107   6.629   5.944
10088SOL    HW131163   0.088   6.644   6.041
10088SOL    HW231164   0.057   6.548   5.913
10089SOL     OW31165   2.694   1.538   3.185
10089SOL    HW131166   2.600   1.546   3.152
10089SOL    HW231167   2.742   1.625   3.172
10090SOL     OW31168   0.288   4.601   1.323
10090SOL    HW131169   0.245   4.618   1.234
10090SOL    HW231170   0.381   4.567   1.309
10091SOL     OW31171   1.281   2.911   4.811
10091SOL    HW131172   1.252   2.876   4.721
10091SOL    HW231173   1.253   3.006   4.820
10092SOL     OW31174   1.582   3.969   5.053
10092SOL    HW131175   1.558   3.919   5.136
10092SOL    HW231176   1.682   3.976   5.047
10093SOL     OW31177   1.281   4.876   4.412
10093SOL    HW131178   1.315   4.953   4.358
10093SOL    HW231179   1.321   4.791   4.379
10094SOL     OW31180   2.704   6.541   1.839
10094SOL    HW131181   2.616   6.500   1.814
10094SOL    HW231182   2.778   6.495   1.789
10095SOL     OW31183   6.190   1.363   5.342
10095SOL    HW131184   6.161   1.281   5.392
10095SOL    HW231185   6.275   1.344   5.294
10096SOL     OW31186   6.409   5.072   2.767
10096SOL    HW131187   6.482   5.017   2.808
10096SOL    HW231188   6.424   5.168   2.789
10097SOL     OW31189   0.831   0.917   6.767
10097SOL    HW131190   0.898   0.871   6.709
10097SOL    HW231191   0.744   0.923   6.717
10098SOL     OW31192   1.990   6.914   5.639
10098SOL    HW131193   1.913   6.880   5.692
10098SOL    HW231194   2.075   6.900   5.690
10099SOL     OW31195   6.783   4.436   6.518
10099SOL    HW131196   6.812   4.427   6.423
10099SOL    HW231197   6.788   4.532   6.545
10100SOL     OW31198   5.421   0.036   4.741
10100SOL    HW131199   5.335   0.021   4.791
10100SOL    HW231200   5.494   7.005   4.782
10101SOL     OW31201   5.890   4.610   1.750
10101SOL    HW131202   5.852   4.522   1.723
10101SOL    HW231203   5.952   4.643   1.679
10102SOL     OW31204   2.344   0.672   2.885
10102SOL    HW131205   2.277   0.746   2.878
10102SOL    HW231206   2.385   0.656   2.796
10103SOL     OW31207   2.812   1.337   4.700
10103SOL    HW131208   2.713   1.329   4.690
10103SOL    HW231209   2.857   1.304   4.617
10104SOL     OW31210   1.375   3.422   5.050
10104SOL    HW131211   1.390   3.330   5.013
10104SOL    HW231212   1.307   3.418   5.123
10105SOL     OW31213   1.324   1.552   6.089
10105SOL    HW131214   1.270   1.599   6.158
10105SOL    HW231215   1.413   1.596   6.081
10106SOL     OW31216   5.159   4.819   1.025
10106SOL    HW131217   5.168   4.906   1.073
10106SOL    HW231218   5.246   4.769   1.031
10107SOL     OW31219   6.943   1.546   6.241
10107SOL    HW131220   6.880   1.468   6.243
10107SOL    HW231221   6.977   1.563   6.333
10108SOL     OW31222   6.476   6.389   0.041
10108SOL    HW131223   6.492   6.482   0.073
10108SOL    HW231224   6.382   6.363   0.061
10109SOL     OW31225   3.656   6.486   2.504
10109SOL    HW131226   3.609   6.502   2.416
10109SOL    HW231227   3.588   6.473   2.576
10110SOL     OW31228   4.026   6.644   5.286
10110SOL    HW131229   3.957   6.572   5.277
10110SOL    HW231230   4.063   6.645   5.379
10111SOL     OW31231   6.360   3.219   3.973
10111SOL    HW131232   6.325   3.171   4.053
10111SOL    HW231233   6.300   3.201   3.895
10112SOL     OW31234   5.689   3.968   4.784
10112SOL    HW131235   5.750   3.975   4.863
10112SOL    HW231236   5.622   3.896   4.799
10113SOL     OW31237   3.846   1.206   6.606
10113SOL    HW131238   3.850   1.149   6.687
10113SOL    HW231239   3.902   1.165   6.533
10114SOL     OW31240   5.478   0.590   1.241
10114SOL    HW131241   5.548   0.521   1.228
10114SOL    HW231242   5.388   0.550   1.225
10115SOL     OW31243   2.867   1.766   3.171
10115SOL    HW131244   2.948   1.725   3.211
10115SOL    HW231245   2.875   1.764   3.071
10116SOL     OW31246   0.795   6.391   0.597
10116SOL    HW131247   0.754   6.412   0.508
10116SOL    HW231248   0.777   6.466   0.661
10117SOL     OW31249   6.301   0.172   4.796
10117SOL    HW131250   6.331   0.229   4.720
10117SOL    HW231251   6.370   0.174   4.868
10118SOL     OW31252   7.011   4.618   3.026
10118SOL    HW131253   0.033   4.550   3.082
10118SOL    HW231254   0.028   4.619   2.934
10119SOL     OW31255   1.587   6.834   4.574
10119SOL    HW131256   1.533   6.887   4.640
10119SOL    HW231257   1.575   6.737   4.592
10120SOL     OW31258   0.491   3.240   4.148
10120SOL    HW131259   0.533   3.320   4.104
10120SOL    HW231260   0.449   3.267   4.234
10121SOL     OW31261   6.878   4.903   5.543
10121SOL    HW131262   6.953   4.940   5.488
10121SOL    HW231263   6.908   4.820   5.590
10122SOL     OW31264   5.393   3.190   0.553
10122SOL    HW131265   5.480   3.233   0.528
10122SOL    HW231266   5.317   3.244   0.516
10123SOL     OW31267   6.531   6.053   0.218
10123SOL    HW131268   6.597   6.006   0.276
10123SOL    HW231269   6.514   6.000   0.135
10124SOL     OW31270   2.261   3.952   0.007
10124SOL    HW131271   2.241   3.861   0.043
10124SOL    HW231272   2.226   3.960   6.937
10125SOL     OW31273   1.941   1.143   2.421
10125SOL    HW131274   1.850   1.180   2.437
10125SOL    HW231275   1.972   1.169   2.329
10126SOL     OW31276   6.664   6.292   6.449
10126SOL    HW131277   6.653   6.384   6.485
10126SOL    HW231278   6.575   6.255   6.422
10127SOL     OW31279   2.663   5.412   5.716
10127SOL    HW131280   2.631   5.402   5.622
10127SOL    HW231281   2.736   5.346   5.734
10128SOL     OW31282   1.026   1.950   1.268
10128SOL    HW131283   1.022   1.919   1.362
10128SOL    HW231284   0.934   1.977   1.238
10129SOL     OW31285   4.834   2.722   3.990
10129SOL    HW131286   4.759   2.717   3.924
10129SOL    HW231287   4.913   2.673   3.955
10130SOL     OW31288   2.288   4.172   2.786
10130SOL    HW131289   2.326   4.263   2.767
10130SOL    HW231290   2.263   4.128   2.700
10131SOL     OW31291   0.640   1.228   3.264
10131SOL    HW131292   0.556   1.282   3.254
10131SOL    HW231293   0.683   1.250   3.351
10132SOL     OW31294   2.581   6.439   3.563
10132SOL    HW131295   2.565   6.451   3.661
10132SOL    HW231296   2.509   6.485   3.511
10133SOL     OW31297   4.414   6.345   2.357
10133SOL    HW131298   4.314   6.351   2.355
10133SOL    HW231299   4.444   6.277   2.291
10134SOL     OW31300   7.003   0.173   3.669
10134SOL    HW131301   0.021   0.257   3.702
10134SOL    HW231302   6.929   0.145   3.731
10135SOL     OW31303   5.405   3.440   3.420
10135SOL    HW131304   5.318   3.447   3.371
10135SOL    HW231305   5.388   3.418   3.515
10136SOL     OW31306   5.665   6.998   2.715
10136SOL    HW131307   5.691   0.053   2.771
10136SOL    HW231308   5.578   7.016   2.670
10137SOL     OW31309   6.753   4.980   4.206
10137SOL    HW131310   6.716   5.005   4.296
10137SOL    HW231311   6.850   4.957   4.215
10138SOL     OW31312   4.256   2.091   1.128
10138SOL    HW131313   4.241   2.189   1.123
10138SOL    HW231314   4.337   2.067   1.075
10139SOL     OW31315   4.059   3.410   3.153
10139SOL    HW131316   4.005   3.360   3.085
10139SOL    HW231317   4.137   3.354   3.181
10140SOL     OW31318   6.036   5.885   5.666
10140SOL    HW131319   5.937   5.872   5.671
10140SOL    HW231320   6.081   5.796   5.654
10141SOL     OW31321   3.450   1.258   4.268
10141SOL    HW131322   3.375   1.311   4.306
10141SOL    HW231323   3.416   1.171   4.233
10142SOL     OW31324   5.827   6.410   4.496
10142SOL    HW131325   5.854   6.374   4.585
10142SOL    HW231326   5.765   6.487   4.509
10143SOL     OW31327   4.949   0.296   1.071
10143SOL    HW131328   4.972   0.393   1.070
10143SOL    HW231329   5.018   0.245   1.021
10144SOL     OW31330   4.578   6.535   6.628
10144SOL    HW131331   4.548   6.618   6.675
10144SOL    HW231332   4.553   6.455   6.683
10145SOL     OW31333   3.769   6.122   6.157
10145SOL    HW131334   3.698   6.092   6.221
10145SOL    HW231335   3.857   6.123   6.204
10146SOL     OW31336   3.540   5.173   5.259
10146SOL    HW131337   3.630   5.140   5.229
10146SOL    HW231338   3.475   5.166   5.184
10147SOL     OW31339   5.173   4.690   4.838
10147SOL    HW131340   5.222   4.634   4.904
10147SOL    HW231341   5.161   4.782   4.875
10148SOL     OW31342   5.541   5.260   6.699
10148SOL    HW131343   5.518   5.166   6.675
10148SOL    HW231344   5.588   5.261   6.787
10149SOL     OW31345   5.217   2.043   0.800
10149SOL    HW131346   5.200   2.015   0.894
10149SOL    HW231347   5.179   1.975   0.738
10150SOL     OW31348   4.449   3.640   0.332
10150SOL    HW131349   4.426   3.575   0.404
10150SOL    HW231350   4.480   3.727   0.372
10151SOL     OW31351   0.453   6.758   6.624
10151SOL    HW131352   0.382   6.814   6.581
10151SOL    HW231353   0.535   6.813   6.640
10152SOL     OW31354   1.513   6.335   4.517
10152SOL    HW131355   1.467   6.353   4.430
10152SOL    HW231356   1.549   6.421   4.554
10153SOL     OW31357   5.001   5.529   4.326
10153SOL    HW131358   4.987   5.557   4.421
10153SOL    HW231359   5.075   5.463   4.322
10154SOL     OW31360   5.713   7.010   4.451
10154SOL    HW131361   5.765   0.023   4.528
10154SOL    HW231362   5.621   0.025   4.452
10155SOL     OW31363   4.314   1.751   5.755
10155SOL    HW131364   4.354   1.711   5.673
10155SOL    HW231365   4.259   1.683   5.802
10156SOL     OW31366   6.200   7.009   2.334
10156SOL    HW131367   6.100   7.013   2.338
10156SOL    HW231368   6.238   7.018   2.426
10157SOL     OW31369   5.792   2.635   6.096
10157SOL    HW131370   5.709   2.675   6.135
10157SOL    HW231371   5.837   2.703   6.037
10158SOL     OW31372   4.654   3.347   0.343
10158SOL    HW131373   4.699   3.395   0.418
10158SOL    HW231374   4.569   3.306   0.376
10159SOL     OW31375   2.920   3.412   6.485
10159SOL    HW131376   2.945   3.481   6.417
10159SOL    HW231377   2.821   3.411   6.497
10160SOL     OW31378   1.545   3.289   2.081
10160SOL    HW131379   1.572   3.260   2.173
10160SOL    HW231380   1.601   3.367   2.053
10161SOL     OW31381   3.665   3.905   6.782
10161SOL    HW131382   3.624   3.882   6.694
10161SOL    HW231383   3.679   3.822   6.835
10162SOL     OW31384   2.894   4.592   0.405
10162SOL    HW131385   2.821   4.548   0.352
10162SOL    HW231386   2.943   4.523   0.459
10163SOL     OW31387   5.331   5.117   6.545
10163SOL    HW131388   5.351   5.186   6.614
10163SOL    HW231389   5.267   5.050   6.581
10164SOL     OW31390   6.081   3.147   4.756
10164SOL    HW131391   6.092   3.202   4.674
10164SOL    HW231392   6.016   3.073   4.738
10165SOL     OW31393   0.872   1.937   3.686
10165SOL    HW131394   0.899   1.960   3.780
10165SOL    HW231395   0.879   1.839   3.672
10166SOL     OW31396   3.293   1.362   1.848
10166SOL    HW131397   3.251   1.452   1.861
10166SOL    HW231398   3.277   1.305   1.929
10167SOL     OW31399   4.093   2.219   6.407
10167SOL    HW131400   4.086   2.282   6.330
10167SOL    HW231401   4.111   2.126   6.373
10168SOL     OW31402   6.377   4.072   5.575
10168SOL    HW131403   6.289   4.095   5.534
10168SOL    HW231404   6.425   4.006   5.517
10169SOL     OW31405   5.902   4.175   2.940
10169SOL    HW131406   5.969   4.114   2.982
10169SOL    HW231407   5.917   4.268   2.973
10170SOL     OW31408   1.010   4.359   5.709
10170SOL    HW131409   0.915   4.385   5.690
10170SOL    HW231410   1.022   4.349   5.808
10171SOL     OW31411   6.290   3.660   5.643
10171SOL    HW131412   6.363   3.641   5.708
10171SOL    HW231413   6.329   3.697   5.559
10172SOL     OW31414   6.124   0.027   3.908
10172SOL    HW131415   6.042   0.017   3.852
10172SOL    HW231416   6.112   0.103   3.972
10173SOL     OW31417   0.992   3.451   0.642
10173SOL    HW131418   0.986   3.358   0.678
10173SOL    HW231419   0.957   3.516   0.710
10174SOL     OW31420   5.582   5.448   2.709
10174SOL    HW131421   5.535   5.533   2.687
10174SOL    HW231422   5.560   5.379   2.640
10175SOL     OW31423   6.511   2.107   3.396
10175SOL    HW131424   6.585   2.113   3.329
10175SOL    HW231425   6.504   2.013   3.430
10176SOL     OW31426   1.676   3.694   6.007
10176SOL    HW131427   1.580   3.684   6.033
10176SOL    HW231428   1.734   3.644   6.071
10177SOL     OW31429   1.828   1.522   0.401
10177SOL    HW131430   1.787   1.537   0.311
10177SOL    HW231431   1.907   1.462   0.392
10178SOL     OW31432   6.730   2.121   5.269
10178SOL    HW131433   6.676   2.087   5.192
10178SOL    HW231434   6.793   2.192   5.236
10179SOL     OW31435   0.935   1.439   5.774
10179SOL    HW131436   1.007   1.374   5.795
10179SOL    HW231437   0.942   1.469   5.679
10180SOL     OW31438   3.846   0.222   6.921
10180SOL    HW131439   3.769   0.184   6.971
10180SOL    HW231440   3.929   0.170   6.944
10181SOL     OW31441   5.113   3.403   2.267
10181SOL    HW131442   5.040   3.336   2.253
10181SOL    HW231443   5.195   3.356   2.300
10182SOL     OW31444   5.667   0.938   2.050
10182SOL    HW131445   5.637   0.853   2.094
10182SOL    HW231446   5.645   1.016   2.108
10183SOL     OW31447   0.430   1.933   6.748
10183SOL    HW131448   0.344   1.977   6.774
10183SOL    HW231449   0.411   1.844   6.707
10184SOL     OW31450   3.782   1.096   6.258
10184SOL    HW131451   3.806   1.091   6.161
10184SOL    HW231452   3.771   1.192   6.285
10185SOL     OW31453   5.494   5.709   1.909
10185SOL    HW131454   5.408   5.754   1.932
10185SOL    HW231455   5.474   5.624   1.860
10186SOL     OW31456   5.608   3.384   3.064
10186SOL    HW131457   5.668   3.306   3.078
10186SOL    HW231458   5.646   3.464   3.111
10187SOL     OW31459   0.626   2.773   0.760
10187SOL    HW131460   0.554   2.707   0.782
10187SOL    HW231461   0.713   2.725   0.753
10188SOL     OW31462   3.207   5.814   0.846
10188SOL    HW131463   3.227   5.824   0.748
10188SOL    HW231464   3.226   5.720   0.874
10189SOL     OW31465   1.450   0.620   5.763
10189SOL    HW131466   1.484   0.553   5.828
10189SOL    HW231467   1.514   0.696   5.755
10190SOL     OW31468   4.653   3.313   1.370
10190SOL    HW131469   4.615   3.389   1.423
10190SOL    HW231470   4.590   3.236   1.374
10191SOL     OW31471   4.820   4.211   6.252
10191SOL    HW131472   4.824   4.158   6.167
10191SOL    HW231473   4.865   4.299   6.239
10192SOL     OW31474   4.538   0.946   5.759
10192SOL    HW131475   4.531   1.015   5.831
10192SOL    HW231476   4.568   0.859   5.798
10193SOL     OW31477   4.125   3.586   1.913
10193SOL    HW131478   4.131   3.489   1.936
10193SOL    HW231479   4.129   3.640   1.997
10194SOL     OW31480   5.830   4.344   5.131
10194SOL    HW131481   5.813   4.303   5.220
10194SOL    HW231482   5.745   4.383   5.095
10195SOL     OW31483   5.998   4.992   1.276
10195SOL    HW131484   5.928   5.028   1.214
10195SOL    HW231485   5.955   4.964   1.362
10196SOL     OW31486   4.487   1.837   4.378
10196SOL    HW131487   4.465   1.799   4.288
10196SOL    HW231488   4.479   1.937   4.375
10197SOL     OW31489   6.637   1.640   4.973
10197SOL    HW131490   6.556   1.690   5.003
10197SOL    HW231491   6.719   1.693   4.992
10198SOL     OW31492   3.089   0.699   1.597
10198SOL    HW131493   3.119   0.604   1.595
10198SOL    HW231494   2.997   0.706   1.560
10199SOL     OW31495   2.558   2.972   6.022
10199SOL    HW131496   2.480   3.033   6.034
10199SOL    HW231497   2.600   2.954   6.111
10200SOL     OW31498   4.666   1.944   1.193
10200SOL    HW131499   4.726   1.934   1.114
10200SOL    HW231500   4.599   2.016   1.175
10201SOL     OW31501   1.205   4.676   0.957
10201SOL    HW131502   1.230   4.769   0.930
10201SOL    HW231503   1.106   4.663   0.945
10202SOL     OW31504   3.836   2.596   6.639
10202SOL    HW131505   3.921   2.597   6.585
10202SOL    HW231506   3.859   2.589   6.736
10203SOL     OW31507   6.044   2.668   3.691
10203SOL    HW131508   6.012   2.577   3.663
10203SOL    HW231509   5.981   2.706   3.759
10204SOL     OW31510   5.547   6.792   6.476
10204SOL    HW131511   5.575   6.845   6.555
10204SOL    HW231512   5.466   6.835   6.434
10205SOL     OW31513   1.228   1.096   0.672
10205SOL    HW131514   1.248   1.116   0.576
10205SOL    HW231515   1.146   1.146   0.700
10206SOL     OW31516   0.744   0.639   6.106
10206SOL    HW131517   0.713   0.556   6.152
10206SOL    HW231518   0.737   0.626   6.007
10207SOL     OW31519   1.277   1.778   6.270
10207SOL    HW131520   1.360   1.810   6.315
10207SOL    HW231521   1.209   1.753   6.339
10208SOL     OW31522   5.841   4.751   4.101
10208SOL    HW131523   5.840   4.765   4.200
10208SOL    HW231524   5.933   4.726   4.072
10209SOL     OW31525   6.518   6.976   6.020
10209SOL    HW131526   6.521   6.889   6.068
10209SOL    HW231527   6.568   6.968   5.934
10210SOL     OW31528   4.756   6.538   1.424
10210SOL    HW131529   4.789   6.500   1.510
10210SOL    HW231530   4.656   6.529   1.420
10211SOL     OW31531   4.004   6.898   3.985
10211SOL    HW131532   4.026   6.991   4.016
10211SOL    HW231533   4.089   6.847   3.970
10212SOL     OW31534   1.169   0.278   5.441
10212SOL    HW131535   1.154   0.286   5.343
10212SOL    HW231536   1.141   0.187   5.472
10213SOL     OW31537   4.150   3.002   1.446
10213SOL    HW131538   4.096   3.079   1.480
10213SOL    HW231539   4.123   2.981   1.352
10214SOL     OW31540   0.929   2.192   1.483
10214SOL    HW131541   0.883   2.211   1.570
10214SOL    HW231542   0.869   2.220   1.408
10215SOL     OW31543   3.946   3.037   3.181
10215SOL    HW131544   3.949   3.040   3.081
10215SOL    HW231545   3.857   3.001   3.211
10216SOL     OW31546   6.724   0.858   0.976
10216SOL    HW131547   6.681   0.944   0.948
10216SOL    HW231548   6.811   0.877   1.021
10217SOL     OW31549   2.806   1.239   3.388
10217SOL    HW131550   2.767   1.331   3.401
10217SOL    HW231551   2.752   1.189   3.321
10218SOL     OW31552   1.313   2.777   1.712
10218SOL    HW131553   1.395   2.726   1.690
10218SOL    HW231554   1.322   2.818   1.803
10219SOL     OW31555   0.312   1.841   2.761
10219SOL    HW131556   0.239   1.846   2.829
10219SOL    HW231557   0.308   1.752   2.715
10220SOL     OW31558   3.711   2.818   1.245
10220SOL    HW131559   3.626   2.854   1.206
10220SOL    HW231560   3.698   2.799   1.342
10221SOL     OW31561   0.715   5.846   3.324
10221SOL    HW131562   0.735   5.788   3.245
10221SOL    HW231563   0.647   5.801   3.382
10222SOL     OW31564   3.014   3.261   5.276
10222SOL    HW131565   3.017   3.195   5.351
10222SOL    HW231566   2.934   3.243   5.219
10223SOL     OW31567   0.646   4.676   1.350
10223SOL    HW131568   0.633   4.772   1.377
10223SOL    HW231569   0.737   4.666   1.309
10224SOL     OW31570   6.653   2.844   3.981
10224SOL    HW131571   6.602   2.799   4.054
10224SOL    HW231572   6.618   2.813   3.892
10225SOL     OW31573   2.164   4.581   5.875
10225SOL    HW131574   2.123   4.493   5.850
10225SOL    HW231575   2.101   4.655   5.851
10226SOL     OW31576   3.437   0.822   6.498
10226SOL    HW131577   3.444   0.797   6.595
10226SOL    HW231578   3.511   0.885   6.475
10227SOL     OW31579   4.511   4.239   0.350
10227SOL    HW131580   4.529   4.290   0.266
10227SOL    HW231581   4.508   4.141   0.330
10228SOL     OW31582   6.763   0.254   0.897
10228SOL    HW131583   6.846   0.218   0.939
10228SOL    HW231584   6.691   0.184   0.900
10229SOL     OW31585   0.934   2.715   4.907
10229SOL    HW131586   1.012   2.721   4.969
10229SOL    HW231587   0.953   2.769   4.825
10230SOL     OW31588   6.408   5.786   2.893
10230SOL    HW131589   6.354   5.721   2.839
10230SOL    HW231590   6.437   5.744   2.978
10231SOL     OW31591   1.608   5.729   4.844
10231SOL    HW131592   1.592   5.661   4.915
10231SOL    HW231593   1.649   5.811   4.885
10232SOL     OW31594   2.772   0.839   3.148
10232SOL    HW131595   2.677   0.808   3.150
10232SOL    HW231596   2.819   0.796   3.070
10233SOL     OW31597   3.797   4.099   5.345
10233SOL    HW131598   3.831   4.088   5.438
10233SOL    HW231599   3.832   4.024   5.288
10234SOL     OW31600   6.104   6.738   1.044
10234SOL    HW131601   6.004   6.740   1.048
10234SOL    HW231602   6.135   6.783   0.961
10235SOL     OW31603   1.650   1.900   1.908
10235SOL    HW131604   1.727   1.853   1.951
10235SOL    HW231605   1.637   1.989   1.952
10236SOL     OW31606   2.040   6.759   0.532
10236SOL    HW131607   2.113   6.804   0.583
10236SOL    HW231608   1.956   6.812   0.539
10237SOL     OW31609   0.103   3.501   0.028
10237SOL    HW131610   0.107   3.401   0.031
10237SOL    HW231611   0.014   3.530   7.016
10238SOL     OW31612   4.083   5.031   1.579
10238SOL    HW131613   4.017   5.001   1.648
10238SOL    HW231614   4.116   4.952   1.528
10239SOL     OW31615   1.674   2.691   4.778
10239SOL    HW131616   1.616   2.611   4.767
10239SOL    HW231617   1.624   2.762   4.828
10240SOL     OW31618   2.789   6.107   2.397
10240SOL    HW131619   2.833   6.134   2.483
10240SOL    HW231620   2.788   6.185   2.334
10241SOL     OW31621   5.312   1.761   2.010
10241SOL    HW131622   5.289   1.770   1.914
10241SOL    HW231623   5.382   1.828   2.035
10242SOL     OW31624   0.074   1.780   0.477
10242SOL    HW131625   0.158   1.784   0.531
10242SOL    HW231626   0.072   1.858   0.414
10243SOL     OW31627   2.572   4.741   1.371
10243SOL    HW131628   2.526   4.818   1.327
10243SOL    HW231629   2.555   4.658   1.319
10244SOL     OW31630   2.429   4.330   0.805
10244SOL    HW131631   2.333   4.351   0.788
10244SOL    HW231632   2.474   4.306   0.719
10245SOL     OW31633   3.587   4.361   1.407
10245SOL    HW131634   3.676   4.348   1.363
10245SOL    HW231635   3.601   4.388   1.502
10246SOL     OW31636   2.972   3.519   4.253
10246SOL    HW131637   3.046   3.551   4.312
10246SOL    HW231638   2.929   3.597   4.208
10247SOL     OW31639   0.801   4.150   6.003
10247SOL    HW131640   0.820   4.070   6.060
10247SOL    HW231641   0.790   4.120   5.908
10248SOL     OW31642   0.972   0.610   2.863
10248SOL    HW131643   0.909   0.683   2.890
10248SOL    HW231644   1.061   0.627   2.903
10249SOL     OW31645   2.225   4.792   6.874
10249SOL    HW131646   2.233   4.891   6.862
10249SOL    HW231647   2.142   4.759   6.830
10250SOL     OW31648   6.371   3.441   0.618
10250SOL    HW131649   6.357   3.368   0.685
10250SOL    HW231650   6.452   3.420   0.564
10251SOL     OW31651   2.126   1.120   4.282
10251SOL    HW131652   2.149   1.145   4.189
10251SOL    HW231653   2.027   1.108   4.290
10252SOL     OW31654   4.281   3.434   5.947
10252SOL    HW131655   4.297   3.343   5.908
10252SOL    HW231656   4.283   3.502   5.875
10253SOL     OW31657   3.575   6.647   0.868
10253SOL    HW131658   3.650   6.604   0.818
10253SOL    HW231659   3.489   6.601   0.847
10254SOL     OW31660   4.815   1.361   5.777
10254SOL    HW131661   4.808   1.332   5.681
10254SOL    HW231662   4.752   1.437   5.793
10255SOL     OW31663   2.439   6.764   1.153
10255SOL    HW131664   2.474   6.707   1.228
10255SOL    HW231665   2.367   6.715   1.105
10256SOL     OW31666   4.484   0.761   2.186
10256SOL    HW131667   4.544   0.736   2.110
10256SOL    HW231668   4.420   0.687   2.203
10257SOL     OW31669   2.197   4.680   3.876
10257SOL    HW131670   2.231   4.717   3.790
10257SOL    HW231671   2.182   4.581   3.867
10258SOL     OW31672   3.810   2.101   3.320
10258SOL    HW131673   3.753   2.155   3.382
10258SOL    HW231674   3.775   2.007   3.316
10259SOL     OW31675   0.676   3.710   3.527
10259SOL    HW131676   0.624   3.632   3.563
10259SOL    HW231677   0.774   3.691   3.534
10260SOL     OW31678   1.013   1.449   3.431
10260SOL    HW131679   1.083   1.379   3.420
10260SOL    HW231680   0.988   1.484   3.340
10261SOL     OW31681   6.985   4.594   0.543
10261SOL    HW131682   6.998   4.504   0.585
10261SOL    HW231683   6.919   4.587   0.468
10262SOL     OW31684   3.282   6.847   6.279
10262SOL    HW131685   3.340   6.907   6.224
10262SOL    HW231686   3.312   6.752   6.268
10263SOL     OW31687   5.703   0.620   0.764
10263SOL    HW131688   5.720   0.528   0.727
10263SOL    HW231689   5.636   0.614   0.838
10264SOL     OW31690   5.781   5.254   6.433
10264SOL    HW131691   5.748   5.160   6.444
10264SOL    HW231692   5.736   5.314   6.499
10265SOL     OW31693   2.889   2.510   0.478
10265SOL    HW131694   2.793   2.532   0.461
10265SOL    HW231695   2.943   2.594   0.485
10266SOL     OW31696   3.537   2.836   2.715
10266SOL    HW131697   3.469   2.874   2.778
10266SOL    HW231698   3.517   2.739   2.699
10267SOL     OW31699   5.536   1.105   1.049
10267SOL    HW131700   5.615   1.127   0.992
10267SOL    HW231701   5.476   1.184   1.055
10268SOL     OW31702   5.552   6.354   2.067
10268SOL    HW131703   5.589   6.366   1.975
10268SOL    HW231704   5.582   6.430   2.125
10269SOL     OW31705   1.010   2.762   6.532
10269SOL    HW131706   0.959   2.848   6.533
10269SOL    HW231707   1.009   2.721   6.624
10270SOL     OW31708   3.342   6.029   2.412
10270SOL    HW131709   3.319   6.073   2.325
10270SOL    HW231710   3.258   5.995   2.455
10271SOL     OW31711   2.894   2.925   0.151
10271SOL    HW131712   2.946   3.002   0.190
10271SOL    HW231713   2.924   2.840   0.195
10272SOL     OW31714   0.785   0.722   4.109
10272SOL    HW131715   0.698   0.697   4.152
10272SOL    HW231716   0.841   0.639   4.097
10273SOL     OW31717   2.830   4.750   4.618
10273SOL    HW131718   2.904   4.690   4.647
10273SOL    HW231719   2.798   4.804   4.697
10274SOL     OW31720   0.441   4.639   6.113
10274SOL    HW131721   0.528   4.609   6.075
10274SOL    HW231722   0.398   4.562   6.161
10275SOL     OW31723   0.041   0.652   2.104
10275SOL    HW131724   0.054   0.620   2.010
10275SOL    HW231725   0.130   0.671   2.146
10276SOL     OW31726   4.498   5.724   5.695
10276SOL    HW131727   4.538   5.743   5.605
10276SOL    HW231728   4.405   5.691   5.684
10277SOL     OW31729   1.250   6.837   4.377
10277SOL    HW131730   1.325   6.875   4.323
10277SOL    HW231731   1.163   6.876   4.345
10278SOL     OW31732   0.557   0.635   4.238
10278SOL    HW131733   0.551   0.681   4.326
10278SOL    HW231734   0.602   0.546   4.250
10279SOL     OW31735   2.647   5.363   4.044
10279SOL    HW131736   2.710   5.308   4.099
10279SOL    HW231737   2.672   5.357   3.948
10280SOL     OW31738   5.418   3.557   0.091
10280SOL    HW131739   5.414   3.541   0.190
10280SOL    HW231740   5.372   3.643   0.069
10281SOL     OW31741   6.894   2.617   3.000
10281SOL    HW131742   6.940   2.560   3.068
10281SOL    HW231743   6.890   2.569   2.913
10282SOL     OW31744   5.578   3.398   3.693
10282SOL    HW131745   5.641   3.426   3.620
10282SOL    HW231746   5.525   3.477   3.723
10283SOL     OW31747   0.954   3.192   0.740
10283SOL    HW131748   1.045   3.223   0.767
10283SOL    HW231749   0.897   3.180   0.821
10284SOL     OW31750   6.313   2.149   3.946
10284SOL    HW131751   6.355   2.115   3.862
10284SOL    HW231752   6.242   2.086   3.976
10285SOL     OW31753   4.113   6.455   3.052
10285SOL    HW131754   4.066   6.539   3.080
10285SOL    HW231755   4.157   6.470   2.964
10286SOL     OW31756   3.203   0.487   3.655
10286SOL    HW131757   3.265   0.481   3.577
10286SOL    HW231758   3.227   0.566   3.710
10287SOL     OW31759   1.780   5.972   1.962
10287SOL    HW131760   1.693   5.986   1.915
10287SOL    HW231761   1.814   5.880   1.943
10288SOL     OW31762   3.874   0.100   4.306
10288SOL    HW131763   3.950   0.036   4.292
10288SOL    HW231764   3.809   0.093   4.231
10289SOL     OW31765   2.875   6.124   0.932
10289SOL    HW131766   2.831   6.075   1.008
10289SOL    HW231767   2.806   6.175   0.881
10290SOL     OW31768   3.112   3.162   2.673
10290SOL    HW131769   3.202   3.206   2.673
10290SOL    HW231770   3.116   3.076   2.622
10291SOL     OW31771   3.839   1.532   3.042
10291SOL    HW131772   3.751   1.574   3.063
10291SOL    HW231773   3.908   1.604   3.030
10292SOL     OW31774   0.692   1.340   5.962
10292SOL    HW131775   0.771   1.365   5.906
10292SOL    HW231776   0.610   1.387   5.927
10293SOL     OW31777   0.807   3.174   3.487
10293SOL    HW131778   0.763   3.190   3.575
10293SOL    HW231779   0.769   3.236   3.419
10294SOL     OW31780   4.359   1.728   3.207
10294SOL    HW131781   4.377   1.667   3.130
10294SOL    HW231782   4.262   1.752   3.208
10295SOL     OW31783   1.294   2.616   5.399
10295SOL    HW131784   1.299   2.528   5.447
10295SOL    HW231785   1.322   2.689   5.461
10296SOL     OW31786   5.734   1.300   5.931
10296SOL    HW131787   5.717   1.272   6.026
10296SOL    HW231788   5.818   1.353   5.926
10297SOL     OW31789   2.438   1.435   6.965
10297SOL    HW131790   2.360   1.372   6.972
10297SOL    HW231791   2.405   1.527   6.944
10298SOL     OW31792   1.287   4.477   2.021
10298SOL    HW131793   1.337   4.516   1.944
10298SOL    HW231794   1.294   4.539   2.100
10299SOL     OW31795   4.283   6.073   2.360
10299SOL    HW131796   4.224   6.147   2.328
10299SOL    HW231797   4.252   5.987   2.320
10300SOL     OW31798   1.816   4.242   1.825
10300SOL    HW131799   1.729   4.214   1.785
10300SOL    HW231800   1.806   4.254   1.923
10301SOL     OW31801   4.881   1.627   5.200
10301SOL    HW131802   4.803   1.570   5.224
10301SOL    HW231803   4.894   1.697   5.271
10302SOL     OW31804   2.525   5.721   3.821
10302SOL    HW131805   2.490   5.722   3.727
10302SOL    HW231806   2.453   5.753   3.883
10303SOL     OW31807   0.946   5.399   3.477
10303SOL    HW131808   1.007   5.322   3.497
10303SOL    HW231809   0.908   5.434   3.562
10304SOL     OW31810   6.043   0.258   0.858
10304SOL    HW131811   6.117   0.191   0.848
10304SOL    HW231812   5.957   0.217   0.827
10305SOL     OW31813   2.554   4.218   5.798
10305SOL    HW131814   2.481   4.198   5.733
10305SOL    HW231815   2.556   4.316   5.818
10306SOL     OW31816   5.460   5.758   0.328
10306SOL    HW131817   5.420   5.850   0.333
10306SOL    HW231818   5.443   5.709   0.413
10307SOL     OW31819   3.142   1.523   4.637
10307SOL    HW131820   3.138   1.518   4.537
10307SOL    HW231821   3.168   1.434   4.673
10308SOL     OW31822   2.375   4.403   2.151
10308SOL    HW131823   2.455   4.417   2.092
10308SOL    HW231824   2.292   4.408   2.096
10309SOL     OW31825   6.677   1.349   6.433
10309SOL    HW131826   6.683   1.249   6.431
10309SOL    HW231827   6.622   1.377   6.511
10310SOL     OW31828   2.981   3.676   0.385
10310SOL    HW131829   3.027   3.630   0.461
10310SOL    HW231830   2.933   3.757   0.419
10311SOL     OW31831   6.545   5.470   0.097
10311SOL    HW131832   6.463   5.438   0.049
10311SOL    HW231833   6.577   5.398   0.159
10312SOL     OW31834   4.629   6.816   2.665
10312SOL    HW131835   4.622   6.886   2.594
10312SOL    HW231836   4.662   6.858   2.750
10313SOL     OW31837   3.776   5.926   2.180
10313SOL    HW131838   3.724   6.010   2.160
10313SOL    HW231839   3.843   5.945   2.252
10314SOL     OW31840   6.647   0.455   0.135
10314SOL    HW131841   6.560   0.421   0.098
10314SOL    HW231842   6.654   0.430   0.231
10315SOL     OW31843   6.035   6.193   4.118
10315SOL    HW131844   5.938   6.206   4.098
10315SOL    HW231845   6.047   6.179   4.216
10316SOL     OW31846   6.681   2.514   6.056
10316SOL    HW131847   6.596   2.462   6.054
10316SOL    HW231848   6.721   2.511   6.148
10317SOL     OW31849   4.097   6.447   6.253
10317SOL    HW131850   4.106   6.405   6.344
10317SOL    HW231851   4.005   6.432   6.218
10318SOL     OW31852   4.966   1.225   6.396
10318SOL    HW131853   4.881   1.186   6.431
10318SOL    HW231854   5.033   1.231   6.470
10319SOL     OW31855   0.848   4.031   5.500
10319SOL    HW131856   0.853   4.026   5.600
10319SOL    HW231857   0.791   4.109   5.474
10320SOL     OW31858   0.616   6.240   2.599
10320SOL    HW131859   0.536   6.293   2.569
10320SOL    HW231860   0.596   6.197   2.687
10321SOL     OW31861   5.729   1.835   1.860
10321SOL    HW131862   5.714   1.807   1.955
10321SOL    HW231863   5.655   1.799   1.802
10322SOL     OW31864   4.279   4.801   4.895
10322SOL    HW131865   4.374   4.824   4.872
10322SOL    HW231866   4.276   4.711   4.939
10323SOL     OW31867   6.164   4.734   5.196
10323SOL    HW131868   6.135   4.807   5.135
10323SOL    HW231869   6.261   4.714   5.180
10324SOL     OW31870   3.552   3.175   2.904
10324SOL    HW131871   3.494   3.224   2.968
10324SOL    HW231872   3.585   3.091   2.946
10325SOL     OW31873   0.132   5.152   2.218
10325SOL    HW131874   0.065   5.101   2.164
10325SOL    HW231875   0.094   5.174   2.307
10326SOL     OW31876   5.982   3.840   6.609
10326SOL    HW131877   5.971   3.787   6.525
10326SOL    HW231878   6.070   3.888   6.606
10327SOL     OW31879   2.206   3.082   1.692
10327SOL    HW131880   2.140   3.149   1.727
10327SOL    HW231881   2.157   3.002   1.658
10328SOL     OW31882   6.218   2.813   1.028
10328SOL    HW131883   6.263   2.748   1.089
10328SOL    HW231884   6.248   2.906   1.049
10329SOL     OW31885   2.565   1.121   2.961
10329SOL    HW131886   2.543   1.214   2.931
10329SOL    HW231887   2.605   1.070   2.884
10330SOL     OW31888   4.023   0.449   1.791
10330SOL    HW131889   4.102   0.510   1.787
10330SOL    HW231890   4.004   0.425   1.887
10331SOL     OW31891   6.850   6.268   6.229
10331SOL    HW131892   6.905   6.191   6.197
10331SOL    HW231893   6.804   6.244   6.314
10332SOL     OW31894   6.637   0.194   6.963
10332SOL    HW131895   6.710   0.256   6.935
10332SOL    HW231896   6.555   0.214   6.909
10333SOL     OW31897   0.606   5.378   5.207
10333SOL    HW131898   0.579   5.394   5.113
10333SOL    HW231899   0.537   5.415   5.269
10334SOL     OW31900   3.401   0.727   4.591
10334SOL    HW131901   3.493   0.693   4.608
10334SOL    HW231902   3.344   0.713   4.672
10335SOL     OW31903   1.539   4.170   0.033
10335SOL    HW131904   1.601   4.151   0.109
10335SOL    HW231905   1.574   4.128   6.973
10336SOL     OW31906   5.984   0.230   1.920
10336SOL    HW131907   6.044   0.186   1.986
10336SOL    HW231908   5.917   0.287   1.969
10337SOL     OW31909   0.323   5.957   6.751
10337SOL    HW131910   0.239   6.010   6.763
10337SOL    HW231911   0.369   5.986   6.667
10338SOL     OW31912   1.818   6.304   2.294
10338SOL    HW131913   1.876   6.255   2.229
10338SOL    HW231914   1.730   6.324   2.252
10339SOL     OW31915   5.654   3.365   5.965
10339SOL    HW131916   5.666   3.349   5.867
10339SOL    HW231917   5.663   3.462   5.984
10340SOL     OW31918   1.376   3.170   6.979
10340SOL    HW131919   1.378   3.079   6.938
10340SOL    HW231920   1.414   3.237   6.915
10341SOL     OW31921   2.128   3.656   2.219
10341SOL    HW131922   2.193   3.656   2.143
10341SOL    HW231923   2.142   3.575   2.275
10342SOL     OW31924   2.020   0.589   4.132
10342SOL    HW131925   2.051   0.637   4.050
10342SOL    HW231926   1.920   0.591   4.135
10343SOL     OW31927   3.114   5.220   7.018
10343SOL    HW131928   3.203   5.184   0.021
10343SOL    HW231929   3.047   5.201   0.066
10344SOL     OW31930   4.343   3.401   0.172
10344SOL    HW131931   4.249   3.412   0.139
10344SOL    HW231932   4.367   3.480   0.228
10345SOL     OW31933   1.763   2.536   5.768
10345SOL    HW131934   1.798   2.625   5.798
10345SOL    HW231935   1.831   2.491   5.710
10346SOL     OW31936   6.984   5.686   1.563
10346SOL    HW131937   0.018   5.717   1.488
10346SOL    HW231938   6.890   5.718   1.549
10347SOL     OW31939   4.750   1.467   3.345
10347SOL    HW131940   4.763   1.407   3.266
10347SOL    HW231941   4.839   1.489   3.385
10348SOL     OW31942   6.253   2.555   0.555
10348SOL    HW131943   6.163   2.573   0.593
10348SOL    HW231944   6.297   2.482   0.607
10349SOL     OW31945   0.971   0.719   6.568
10349SOL    HW131946   0.904   0.651   6.598
10349SOL    HW231947   1.050   0.717   6.629
10350SOL     OW31948   3.141   5.432   5.309
10350SOL    HW131949   3.184   5.385   5.386
10350SOL    HW231950   3.063   5.379   5.276
10351SOL     OW31951   4.723   5.360   0.047
10351SOL    HW131952   4.628   5.368   0.014
10351SOL    HW231953   4.746   5.264   0.056
10352SOL     OW31954   3.212   0.646   6.274
10352SOL    HW131955   3.198   0.565   6.331
10352SOL    HW231956   3.241   0.618   6.183
10353SOL     OW31957   0.107   2.888   4.825
10353SOL    HW131958   0.200   2.861   4.851
10353SOL    HW231959   0.072   2.825   4.756
10354SOL     OW31960   5.963   1.652   2.021
10354SOL    HW131961   5.972   1.748   1.993
10354SOL    HW231962   5.946   1.648   2.120
10355SOL     OW31963   2.609   6.644   1.565
10355SOL    HW131964   2.585   6.616   1.657
10355SOL    HW231965   2.707   6.662   1.559
10356SOL     OW31966   6.991   4.867   5.830
10356SOL    HW131967   6.900   4.902   5.806
10356SOL    HW231968   0.012   4.932   5.892
10357SOL     OW31969   1.779   2.862   6.593
10357SOL    HW131970   1.696   2.810   6.612
10357SOL    HW231971   1.828   2.821   6.515
10358SOL     OW31972   0.560   2.578   3.170
10358SOL    HW131973   0.618   2.658   3.187
10358SOL    HW231974   0.602   2.521   3.099
10359SOL     OW31975   0.843   1.568   0.854
10359SOL    HW131976   0.940   1.586   0.838
10359SOL    HW231977   0.805   1.644   0.908
10360SOL     OW31978   4.730   4.990   3.181
10360SOL    HW131979   4.713   4.963   3.086
10360SOL    HW231980   4.677   4.931   3.242
10361SOL     OW31981   2.549   6.576   2.572
10361SOL    HW131982   2.557   6.477   2.569
10361SOL    HW231983   2.570   6.614   2.482
10362SOL     OW31984   2.004   4.544   4.896
10362SOL    HW131985   2.090   4.576   4.936
10362SOL    HW231986   1.980   4.602   4.818
10363SOL     OW31987   5.106   0.738   2.845
10363SOL    HW131988   5.040   0.804   2.882
10363SOL    HW231989   5.075   0.645   2.864
10364SOL     OW31990   3.206   3.687   1.724
10364SOL    HW131991   3.200   3.761   1.656
10364SOL    HW231992   3.148   3.709   1.802
10365SOL     OW31993   3.536   5.714   0.310
10365SOL    HW131994   3.547   5.643   0.379
10365SOL    HW231995   3.461   5.690   0.248
10366SOL     OW31996   2.175   0.153   4.225
10366SOL    HW131997   2.247   0.123   4.163
10366SOL    HW231998   2.196   0.244   4.260
10367SOL     OW31999   5.426   2.359   2.407
10367SOL    HW132000   5.395   2.452   2.387
10367SOL    HW232001   5.510   2.363   2.460
10368SOL     OW32002   2.436   1.138   1.051
10368SOL    HW132003   2.471   1.138   0.958
10368SOL    HW232004   2.336   1.134   1.049
10369SOL     OW32005   4.116   0.876   6.944
10369SOL    HW132006   4.059   0.896   6.865
10369SOL    HW232007   4.064   0.823   7.011
10370SOL     OW32008   4.629   1.220   4.880
10370SOL    HW132009   4.590   1.161   4.950
10370SOL    HW232010   4.729   1.212   4.882
10371SOL     OW32011   3.548   5.765   5.363
10371SOL    HW132012   3.573   5.680   5.316
10371SOL    HW232013   3.618   5.789   5.429
10372SOL     OW32014   2.618   0.978   5.524
10372SOL    HW132015   2.538   1.036   5.541
10372SOL    HW232016   2.669   1.014   5.447
10373SOL     OW32017   1.733   6.359   4.794
10373SOL    HW132018   1.787   6.301   4.734
10373SOL    HW232019   1.788   6.386   4.873
10374SOL     OW32020   2.980   1.586   3.483
10374SOL    HW132021   2.913   1.516   3.459
10374SOL    HW232022   2.936   1.675   3.485
10375SOL     OW32023   4.849   1.959   0.265
10375SOL    HW132024   4.827   2.055   0.282
10375SOL    HW232025   4.933   1.954   0.210
10376SOL     OW32026   1.042   0.155   3.581
10376SOL    HW132027   1.123   0.212   3.594
10376SOL    HW232028   1.033   0.091   3.657
10377SOL     OW32029   0.250   0.888   3.348
10377SOL    HW132030   0.333   0.930   3.385
10377SOL    HW232031   0.179   0.886   3.418
10378SOL     OW32032   0.200   0.864   6.271
10378SOL    HW132033   0.113   0.894   6.231
10378SOL    HW232034   0.275   0.912   6.226
10379SOL     OW32035   5.436   0.144   5.108
10379SOL    HW132036   5.484   0.181   5.029
10379SOL    HW232037   5.346   0.187   5.115
10380SOL     OW32038   5.698   0.755   2.760
10380SOL    HW132039   5.610   0.799   2.778
10380SOL    HW232040   5.722   0.768   2.664
10381SOL     OW32041   4.929   5.375   5.832
10381SOL    HW132042   4.989   5.337   5.902
10381SOL    HW232043   4.863   5.436   5.875
10382SOL     OW32044   2.532   5.376   6.015
10382SOL    HW132045   2.460   5.440   5.986
10382SOL    HW232046   2.493   5.309   6.079
10383SOL     OW32047   1.148   3.576   1.065
10383SOL    HW132048   1.166   3.538   0.974
10383SOL    HW232049   1.063   3.628   1.063
10384SOL     OW32050   6.998   0.148   0.990
10384SOL    HW132051   6.967   0.057   0.961
10384SOL    HW232052   0.032   0.188   0.919
10385SOL     OW32053   5.562   6.943   6.177
10385SOL    HW132054   5.506   7.022   6.153
10385SOL    HW232055   5.607   6.960   6.265
10386SOL     OW32056   6.473   3.551   5.116
10386SOL    HW132057   6.408   3.533   5.043
10386SOL    HW232058   6.491   3.649   5.122
10387SOL     OW32059   2.960   2.263   2.888
10387SOL    HW132060   2.928   2.253   2.794
10387SOL    HW232061   3.026   2.338   2.893
10388SOL     OW32062   1.255   5.308   3.978
10388SOL    HW132063   1.213   5.342   3.894
10388SOL    HW232064   1.352   5.290   3.962
10389SOL     OW32065   0.616   4.972   2.807
10389SOL    HW132066   0.548   5.045   2.813
10389SOL    HW232067   0.611   4.928   2.717
10390SOL     OW32068   1.693   4.014   3.000
10390SOL    HW132069   1.727   3.929   2.961
10390SOL    HW232070   1.594   4.020   2.987
10391SOL     OW32071   1.540   6.082   6.555
10391SOL    HW132072   1.575   6.085   6.649
10391SOL    HW232073   1.562   6.168   6.509
10392SOL     OW32074   6.122   4.440   0.244
10392SOL    HW132075   6.195   4.446   0.176
10392SOL    HW232076   6.046   4.498   0.216
10393SOL     OW32077   0.763   1.265   4.178
10393SOL    HW132078   0.697   1.339   4.164
10393SOL    HW232079   0.716   1.184   4.213
10394SOL     OW32080   1.681   6.681   6.999
10394SOL    HW132081   1.585   6.708   6.995
10394SOL    HW232082   1.734   6.735   6.934
10395SOL     OW32083   0.181   0.987   3.831
10395SOL    HW132084   0.123   0.978   3.912
10395SOL    HW232085   0.177   1.080   3.797
10396SOL     OW32086   0.928   0.475   3.130
10396SOL    HW132087   0.995   0.541   3.098
10396SOL    HW232088   0.942   0.458   3.228
10397SOL     OW32089   4.192   0.598   3.044
10397SOL    HW132090   4.252   0.670   3.010
10397SOL    HW232091   4.100   0.612   3.009
10398SOL     OW32092   6.534   3.039   1.235
10398SOL    HW132093   6.549   3.081   1.325
10398SOL    HW232094   6.531   2.940   1.245
10399SOL     OW32095   4.914   2.346   5.540
10399SOL    HW132096   4.953   2.416   5.601
10399SOL    HW232097   4.977   2.269   5.534
10400SOL     OW32098   2.373   5.494   3.170
10400SOL    HW132099   2.446   5.427   3.183
10400SOL    HW232100   2.287   5.456   3.205
10401SOL     OW32101   6.864   5.888   2.295
10401SOL    HW132102   6.888   5.896   2.391
10401SOL    HW232103   6.844   5.979   2.258
10402SOL     OW32104   0.849   3.198   5.095
10402SOL    HW132105   0.773   3.149   5.137
10402SOL    HW232106   0.892   3.141   5.025
10403SOL     OW32107   4.944   1.404   2.225
10403SOL    HW132108   4.995   1.481   2.185
10403SOL    HW232109   4.856   1.395   2.178
10404SOL     OW32110   0.730   6.593   4.116
10404SOL    HW132111   0.721   6.531   4.195
10404SOL    HW232112   0.643   6.595   4.067
10405SOL     OW32113   1.712   6.044   5.472
10405SOL    HW132114   1.795   6.100   5.476
10405SOL    HW232115   1.631   6.103   5.476
10406SOL     OW32116   2.161   5.001   6.141
10406SOL    HW132117   2.167   4.927   6.208
10406SOL    HW232118   2.226   4.984   6.066
10407SOL     OW32119   1.354   1.379   5.751
10407SOL    HW132120   1.385   1.454   5.810
10407SOL    HW232121   1.267   1.345   5.785
10408SOL     OW32122   4.214   4.699   3.184
10408SOL    HW132123   4.126   4.728   3.222
10408SOL    HW232124   4.203   4.682   3.086
10409SOL     OW32125   0.376   3.511   1.883
10409SOL    HW132126   0.282   3.479   1.880
10409SOL    HW232127   0.418   3.502   1.793
10410SOL     OW32128   4.353   0.908   1.035
10410SOL    HW132129   4.277   0.973   1.030
10410SOL    HW232130   4.371   0.885   1.130
10411SOL     OW32131   2.106   4.671   2.944
10411SOL    HW132132   2.147   4.689   2.855
10411SOL    HW232133   2.138   4.584   2.980
10412SOL     OW32134   1.013   2.409   6.962
10412SOL    HW132135   1.076   2.380   0.010
10412SOL    HW232136   0.969   2.329   6.922
10413SOL     OW32137   0.062   1.970   0.073
10413SOL    HW132138   0.018   1.993   0.160
10413SOL    HW232139   0.122   1.891   0.086
10414SOL     OW32140   5.338   6.425   6.779
10414SOL    HW132141   5.306   6.467   6.864
10414SOL    HW232142   5.290   6.339   6.764
10415SOL     OW32143   0.564   5.742   3.531
10415SOL    HW132144   0.572   5.652   3.575
10415SOL    HW232145   0.564   5.813   3.601
10416SOL     OW32146   6.292   2.252   5.043
10416SOL    HW132147   6.285   2.163   5.088
10416SOL    HW232148   6.202   2.280   5.010
10417SOL     OW32149   3.950   5.224   2.761
10417SOL    HW132150   3.888   5.238   2.838
10417SOL    HW232151   4.041   5.258   2.786
10418SOL     OW32152   6.927   4.040   6.319
10418SOL    HW132153   6.895   4.027   6.225
10418SOL    HW232154   6.868   3.990   6.381
10419SOL     OW32155   3.042   0.869   5.279
10419SOL    HW132156   3.050   0.968   5.265
10419SOL    HW232157   2.970   0.851   5.345
10420SOL     OW32158   6.506   3.131   3.239
10420SOL    HW132159   6.429   3.080   3.277
10420SOL    HW232160   6.569   3.068   3.194
10421SOL     OW32161   1.026   4.595   3.759
10421SOL    HW132162   1.044   4.535   3.837
10421SOL    HW232163   1.071   4.558   3.678
10422SOL     OW32164   7.015   3.577   4.522
10422SOL    HW132165   6.998   3.500   4.584
10422SOL    HW232166   7.011   3.545   4.428
10423SOL     OW32167   3.181   4.863   4.047
10423SOL    HW132168   3.087   4.837   4.066
10423SOL    HW232169   3.198   4.860   3.949
10424SOL     OW32170   3.777   0.809   6.216
10424SOL    HW132171   3.780   0.737   6.286
10424SOL    HW232172   3.867   0.819   6.174
10425SOL     OW32173   2.356   0.869   0.606
10425SOL    HW132174   2.339   0.816   0.522
10425SOL    HW232175   2.273   0.870   0.661
10426SOL     OW32176   5.316   2.707   6.109
10426SOL    HW132177   5.298   2.634   6.043
10426SOL    HW232178   5.285   2.678   6.200
10427SOL     OW32179   5.213   6.080   4.878
10427SOL    HW132180   5.114   6.094   4.875
10427SOL    HW232181   5.254   6.118   4.796
10428SOL     OW32182   2.039   1.234   3.363
10428SOL    HW132183   2.018   1.184   3.447
10428SOL    HW232184   1.957   1.281   3.331
10429SOL     OW32185   1.031   3.557   2.923
10429SOL    HW132186   1.127   3.578   2.902
10429SOL    HW232187   1.024   3.463   2.954
10430SOL     OW32188   3.506   0.388   3.632
10430SOL    HW132189   3.580   0.453   3.616
10430SOL    HW232190   3.434   0.402   3.564
10431SOL     OW32191   3.365   2.170   4.008
10431SOL    HW132192   3.352   2.239   3.937
10431SOL    HW232193   3.290   2.104   4.005
10432SOL     OW32194   6.878   6.711   5.715
10432SOL    HW132195   6.849   6.711   5.811
10432SOL    HW232196   6.805   6.674   5.658
10433SOL     OW32197   2.086   6.798   2.072
10433SOL    HW132198   2.056   6.754   1.988
10433SOL    HW232199   2.017   6.783   2.144
10434SOL     OW32200   4.834   6.431   5.564
10434SOL    HW132201   4.743   6.466   5.545
10434SOL    HW232202   4.837   6.393   5.656
10435SOL     OW32203   0.979   2.219   6.428
10435SOL    HW132204   0.880   2.226   6.442
10435SOL    HW232205   1.011   2.300   6.378
10436SOL     OW32206   0.480   4.416   5.276
10436SOL    HW132207   0.512   4.411   5.182
10436SOL    HW232208   0.410   4.346   5.291
10437SOL     OW32209   5.779   4.948   5.241
10437SOL    HW132210   5.752   4.852   5.236
10437SOL    HW232211   5.866   4.956   5.290
10438SOL     OW32212   6.970   6.479   6.408
10438SOL    HW132213   6.911   6.435   6.340
10438SOL    HW232214   0.042   6.474   6.378
10439SOL     OW32215   0.040   7.020   4.196
10439SOL    HW132216   0.002   0.080   4.234
10439SOL    HW232217   0.114   6.988   4.255
10440SOL     OW32218   0.091   1.964   6.545
10440SOL    HW132219   0.143   2.003   6.621
10440SOL    HW232220   0.080   1.865   6.560
10441SOL     OW32221   3.438   2.153   0.739
10441SOL    HW132222   3.535   2.139   0.759
10441SOL    HW232223   3.410   2.242   0.777
10442SOL     OW32224   2.811   1.659   5.313
10442SOL    HW132225   2.903   1.679   5.347
10442SOL    HW232226   2.746   1.666   5.388
10443SOL     OW32227   6.936   1.051   2.791
10443SOL    HW132228   6.868   0.989   2.752
10443SOL    HW232229   6.948   1.030   2.888
10444SOL     OW32230   4.091   5.529   4.411
10444SOL    HW132231   4.041   5.446   4.385
10444SOL    HW232232   4.038   5.609   4.383
10445SOL     OW32233   2.031   4.431   2.615
10445SOL    HW132234   2.038   4.335   2.589
10445SOL    HW232235   2.112   4.457   2.667
10446SOL     OW32236   1.966   4.245   5.097
10446SOL    HW132237   1.907   4.186   5.041
10446SOL    HW232238   2.044   4.191   5.131
10447SOL     OW32239   0.220   1.595   3.130
10447SOL    HW132240   0.217   1.559   3.037
10447SOL    HW232241   0.293   1.662   3.138
10448SOL     OW32242   2.335   6.685   2.970
10448SOL    HW132243   2.325   6.589   2.943
10448SOL    HW232244   2.245   6.724   2.988
10449SOL     OW32245   3.621   6.085   6.658
10449SOL    HW132246   3.636   6.166   6.714
10449SOL    HW232247   3.618   6.004   6.716
10450SOL     OW32248   6.766   0.252   6.214
10450SOL    HW132249   6.667   0.265   6.212
10450SOL    HW232250   6.790   0.175   6.155
10451SOL     OW32251   2.030   0.776   3.926
10451SOL    HW132252   1.952   0.839   3.930
10451SOL    HW232253   2.055   0.760   3.830
10452SOL     OW32254   6.878   3.775   4.160
10452SOL    HW132255   6.929   3.702   4.206
10452SOL    HW232256   6.861   3.749   4.065
10453SOL     OW32257   4.435   5.542   3.576
10453SOL    HW132258   4.412   5.633   3.543
10453SOL    HW232259   4.534   5.529   3.571
10454SOL     OW32260   6.488   1.188   5.698
10454SOL    HW132261   6.450   1.243   5.772
10454SOL    HW232262   6.545   1.246   5.639
10455SOL     OW32263   6.308   6.699   4.161
10455SOL    HW132264   6.284   6.603   4.143
10455SOL    HW232265   6.224   6.752   4.175
10456SOL     OW32266   0.225   5.167   0.044
10456SOL    HW132267   0.190   5.260   0.054
10456SOL    HW232268   0.215   5.119   0.131
10457SOL     OW32269   3.986   2.501   0.215
10457SOL    HW132270   3.968   2.591   0.174
10457SOL    HW232271   4.060   2.456   0.164
10458SOL     OW32272   6.381   6.241   6.495
10458SOL    HW132273   6.355   6.145   6.489
10458SOL    HW232274   6.313   6.290   6.550
10459SOL     OW32275   0.013   5.860   0.599
10459SOL    HW132276   0.057   5.797   0.662
10459SOL    HW232277   6.957   5.902   0.643
10460SOL     OW32278   0.251   3.781   0.483
10460SOL    HW132279   0.161   3.772   0.442
10460SOL    HW232280   0.319   3.797   0.411
10461SOL     OW32281   0.324   5.264   4.978
10461SOL    HW132282   0.377   5.332   4.927
10461SOL    HW232283   0.275   5.310   5.053
10462SOL     OW32284   4.309   1.585   1.225
10462SOL    HW132285   4.218   1.619   1.202
10462SOL    HW232286   4.333   1.509   1.165
10463SOL     OW32287   4.740   2.843   6.197
10463SOL    HW132288   4.729   2.943   6.203
10463SOL    HW232289   4.761   2.807   6.287
10464SOL     OW32290   6.107   5.439   2.859
10464SOL    HW132291   6.159   5.371   2.910
10464SOL    HW232292   6.010   5.414   2.858
10465SOL     OW32293   5.743   3.623   1.765
10465SOL    HW132294   5.736   3.651   1.669
10465SOL    HW232295   5.785   3.532   1.770
10466SOL     OW32296   5.503   4.902   6.684
10466SOL    HW132297   5.593   4.908   6.642
10466SOL    HW232298   5.456   4.819   6.653
10467SOL     OW32299   1.994   2.712   6.693
10467SOL    HW132300   1.935   2.784   6.658
10467SOL    HW232301   2.007   2.724   6.792
10468SOL     OW32302   2.557   4.586   3.818
10468SOL    HW132303   2.651   4.608   3.844
10468SOL    HW232304   2.495   4.658   3.850
10469SOL     OW32305   5.952   1.559   5.506
10469SOL    HW132306   5.978   1.574   5.411
10469SOL    HW232307   5.900   1.474   5.513
10470SOL     OW32308   2.668   2.440   4.001
10470SOL    HW132309   2.632   2.431   4.094
10470SOL    HW232310   2.751   2.384   3.993
10471SOL     OW32311   2.620   0.854   0.283
10471SOL    HW132312   2.666   0.890   0.364
10471SOL    HW232313   2.522   0.853   0.298
10472SOL     OW32314   3.609   5.244   0.739
10472SOL    HW132315   3.672   5.311   0.778
10472SOL    HW232316   3.614   5.247   0.640
10473SOL     OW32317   5.111   4.704   6.624
10473SOL    HW132318   5.128   4.742   6.715
10473SOL    HW232319   5.029   4.647   6.625
10474SOL     OW32320   5.334   0.939   3.827
10474SOL    HW132321   5.269   1.012   3.848
10474SOL    HW232322   5.307   0.895   3.741
10475SOL     OW32323   1.540   6.242   1.756
10475SOL    HW132324   1.497   6.259   1.844
10475SOL    HW232325   1.484   6.179   1.703
10476SOL     OW32326   3.801   6.781   0.684
10476SOL    HW132327   3.791   6.683   0.703
10476SOL    HW232328   3.822   6.829   0.769
10477SOL     OW32329   6.523   6.551   4.006
10477SOL    HW132330   6.488   6.633   4.053
10477SOL    HW232331   6.516   6.472   4.067
10478SOL     OW32332   6.101   6.697   0.216
10478SOL    HW132333   6.010   6.737   0.207
10478SOL    HW232334   6.167   6.769   0.236
10479SOL     OW32335   0.016   1.989   2.689
10479SOL    HW132336   0.012   1.959   2.594
10479SOL    HW232337   6.963   1.949   2.739
10480SOL     OW32338   1.363   0.025   2.191
10480SOL    HW132339   1.299   0.056   2.261
10480SOL    HW232340   1.380   0.100   2.127
10481SOL     OW32341   0.768   0.173   3.228
10481SOL    HW132342   0.849   0.232   3.232
10481SOL    HW232343   0.743   0.146   3.320
10482SOL     OW32344   5.490   3.925   3.632
10482SOL    HW132345   5.454   4.004   3.582
10482SOL    HW232346   5.499   3.948   3.729
10483SOL     OW32347   5.659   5.034   0.407
10483SOL    HW132348   5.659   4.986   0.320
10483SOL    HW232349   5.588   5.105   0.407
10484SOL     OW32350   6.292   1.235   1.413
10484SOL    HW132351   6.258   1.326   1.437
10484SOL    HW232352   6.259   1.210   1.322
10485SOL     OW32353   4.425   3.807   6.084
10485SOL    HW132354   4.450   3.711   6.098
10485SOL    HW232355   4.412   3.824   5.987
10486SOL     OW32356   6.217   3.030   0.598
10486SOL    HW132357   6.192   3.013   0.503
10486SOL    HW232358   6.150   3.090   0.641
10487SOL     OW32359   5.889   6.023   1.257
10487SOL    HW132360   5.815   6.052   1.318
10487SOL    HW232361   5.929   5.939   1.291
10488SOL     OW32362   2.693   2.963   6.283
10488SOL    HW132363   2.781   2.946   6.239
10488SOL    HW232364   2.708   2.977   6.381
10489SOL     OW32365   0.091   5.745   6.171
10489SOL    HW132366   0.007   5.767   6.221
10489SOL    HW232367   0.158   5.818   6.186
10490SOL     OW32368   6.944   1.158   3.351
10490SOL    HW132369   6.980   1.248   3.377
10490SOL    HW232370   6.944   1.098   3.432
10491SOL     OW32371   2.043   4.024   6.433
10491SOL    HW132372   2.033   4.107   6.379
10491SOL    HW232373   2.035   4.045   6.530
10492SOL     OW32374   4.899   3.578   5.371
10492SOL    HW132375   4.863   3.602   5.280
10492SOL    HW232376   4.955   3.496   5.364
10493SOL     OW32377   3.506   0.550   1.322
10493SOL    HW132378   3.421   0.601   1.339
10493SOL    HW232379   3.582   0.615   1.311
10494SOL     OW32380   5.514   2.006   4.280
10494SOL    HW132381   5.459   2.089   4.275
10494SOL    HW232382   5.590   2.021   4.344
10495SOL     OW32383   1.934   0.104   0.798
10495SOL    HW132384   1.928   0.152   0.886
10495SOL    HW232385   1.872   0.026   0.799
10496SOL     OW32386   6.666   0.131   0.213
10496SOL    HW132387   6.667   0.198   0.287
10496SOL    HW232388   6.658   0.179   0.125
10497SOL     OW32389   1.377   0.276   0.822
10497SOL    HW132390   1.359   0.374   0.828
10497SOL    HW232391   1.461   0.254   0.873
10498SOL     OW32392   1.836   6.908   6.855
10498SOL    HW132393   1.780   6.989   6.835
10498SOL    HW232394   1.894   6.927   6.934
10499SOL     OW32395   2.824   6.217   3.223
10499SOL    HW132396   2.918   6.249   3.232
10499SOL    HW232397   2.781   6.213   3.313
10500SOL     OW32398   0.583   2.298   5.694
10500SOL    HW132399   0.662   2.237   5.699
10500SOL    HW232400   0.610   2.385   5.652
10501SOL     OW32401   2.341   4.449   2.684
10501SOL    HW132402   2.328   4.442   2.585
10501SOL    HW232403   2.427   4.495   2.703
10502SOL     OW32404   3.153   0.119   0.276
10502SOL    HW132405   3.158   0.214   0.245
10502SOL    HW232406   3.246   0.082   0.287
10503SOL     OW32407   3.983   2.896   0.343
10503SOL    HW132408   4.030   2.984   0.353
10503SOL    HW232409   3.912   2.888   0.413
10504SOL     OW32410   1.955   2.955   0.318
10504SOL    HW132411   1.986   2.943   0.412
10504SOL    HW232412   1.880   2.891   0.299
10505SOL     OW32413   6.207   6.018   0.698
10505SOL    HW132414   6.125   5.960   0.700
10505SOL    HW232415   6.208   6.079   0.777
10506SOL     OW32416   0.326   4.529   6.438
10506SOL    HW132417   0.324   4.503   6.535
10506SOL    HW232418   0.242   4.576   6.414
10507SOL     OW32419   1.645   0.533   6.295
10507SOL    HW132420   1.585   0.455   6.310
10507SOL    HW232421   1.590   0.614   6.273
10508SOL     OW32422   5.979   5.227   3.261
10508SOL    HW132423   5.942   5.140   3.293
10508SOL    HW232424   5.905   5.283   3.223
10509SOL     OW32425   0.923   6.641   6.967
10509SOL    HW132426   0.993   6.674   0.007
10509SOL    HW232427   0.837   6.625   7.017
10510SOL     OW32428   5.681   4.978   6.393
10510SOL    HW132429   5.609   4.973   6.324
10510SOL    HW232430   5.765   4.938   6.356
10511SOL     OW32431   4.279   3.000   0.691
10511SOL    HW132432   4.193   2.950   0.680
10511SOL    HW232433   4.350   2.955   0.637
10512SOL     OW32434   4.735   0.533   6.704
10512SOL    HW132435   4.659   0.594   6.684
10512SOL    HW232436   4.784   0.566   6.785
10513SOL     OW32437   0.426   1.869   6.070
10513SOL    HW132438   0.394   1.876   6.164
10513SOL    HW232439   0.370   1.803   6.020
10514SOL     OW32440   6.155   4.162   0.471
10514SOL    HW132441   6.156   4.236   0.403
10514SOL    HW232442   6.095   4.089   0.439
10515SOL     OW32443   6.706   1.657   2.828
10515SOL    HW132444   6.693   1.558   2.826
10515SOL    HW232445   6.792   1.680   2.783
10516SOL     OW32446   4.566   0.994   6.623
10516SOL    HW132447   4.527   1.078   6.584
10516SOL    HW232448   4.661   0.983   6.591
10517SOL     OW32449   6.646   1.885   2.636
10517SOL    HW132450   6.679   1.844   2.550
10517SOL    HW232451   6.673   1.827   2.712
10518SOL     OW32452   1.274   5.393   0.404
10518SOL    HW132453   1.252   5.324   0.335
10518SOL    HW232454   1.324   5.468   0.360
10519SOL     OW32455   3.459   2.965   5.891
10519SOL    HW132456   3.470   2.926   5.800
10519SOL    HW232457   3.380   3.027   5.891
10520SOL     OW32458   2.993   2.911   6.453
10520SOL    HW132459   3.030   2.851   6.524
10520SOL    HW232460   2.902   2.942   6.480
10521SOL     OW32461   6.263   6.442   1.065
10521SOL    HW132462   6.228   6.532   1.092
10521SOL    HW232463   6.362   6.447   1.053
10522SOL     OW32464   6.476   0.921   0.206
10522SOL    HW132465   6.488   0.944   0.302
10522SOL    HW232466   6.506   0.827   0.190
10523SOL     OW32467   0.282   5.441   5.704
10523SOL    HW132468   0.361   5.500   5.687
10523SOL    HW232469   0.302   5.380   5.781
10524SOL     OW32470   1.965   6.989   4.143
10524SOL    HW132471   1.899   0.025   4.097
10524SOL    HW232472   2.035   0.021   4.188
10525SOL     OW32473   2.309   6.404   5.372
10525SOL    HW132474   2.261   6.474   5.320
10525SOL    HW232475   2.387   6.444   5.419
10526SOL     OW32476   0.579   0.979   2.301
10526SOL    HW132477   0.596   1.075   2.281
10526SOL    HW232478   0.577   0.927   2.215
10527SOL     OW32479   1.256   2.474   4.469
10527SOL    HW132480   1.321   2.550   4.466
10527SOL    HW232481   1.254   2.436   4.561
10528SOL     OW32482   0.837   4.679   5.189
10528SOL    HW132483   0.831   4.707   5.285
10528SOL    HW232484   0.756   4.711   5.140
10529SOL     OW32485   0.573   6.187   3.410
10529SOL    HW132486   0.624   6.245   3.474
10529SOL    HW232487   0.637   6.126   3.363
10530SOL     OW32488   2.673   1.946   6.114
10530SOL    HW132489   2.677   2.004   6.033
10530SOL    HW232490   2.632   1.996   6.190
10531SOL     OW32491   1.757   3.633   4.528
10531SOL    HW132492   1.823   3.558   4.525
10531SOL    HW232493   1.710   3.634   4.616
10532SOL     OW32494   2.686   2.424   6.857
10532SOL    HW132495   2.774   2.473   6.863
10532SOL    HW232496   2.672   2.371   6.941
10533SOL     OW32497   3.253   1.282   4.721
10533SOL    HW132498   3.244   1.209   4.653
10533SOL    HW232499   3.347   1.313   4.724
10534SOL     OW32500   7.003   6.034   1.289
10534SOL    HW132501   0.044   6.106   1.265
10534SOL    HW232502   0.028   5.947   1.299
10535SOL     OW32503   0.002   1.307   2.323
10535SOL    HW132504   6.967   1.251   2.382
10535SOL    HW232505   0.061   1.247   2.268
10536SOL     OW32506   4.686   0.373   3.073
10536SOL    HW132507   4.765   0.424   3.107
10536SOL    HW232508   4.676   0.289   3.126
10537SOL     OW32509   2.886   5.376   3.292
10537SOL    HW132510   2.938   5.457   3.266
10537SOL    HW232511   2.855   5.385   3.387
10538SOL     OW32512   4.209   3.601   6.648
10538SOL    HW132513   4.249   3.535   6.712
10538SOL    HW232514   4.188   3.555   6.562
10539SOL     OW32515   0.837   3.930   6.163
10539SOL    HW132516   0.908   3.861   6.149
10539SOL    HW232517   0.758   3.888   6.208
10540SOL     OW32518   1.579   0.694   5.390
10540SOL    HW132519   1.482   0.672   5.396
10540SOL    HW232520   1.591   0.789   5.363
10541SOL     OW32521   3.979   3.519   1.112
10541SOL    HW132522   3.905   3.470   1.065
10541SOL    HW232523   3.981   3.491   1.208
10542SOL     OW32524   0.334   1.467   0.675
10542SOL    HW132525   0.308   1.370   0.677
10542SOL    HW232526   0.431   1.476   0.698
10543SOL     OW32527   0.287   1.617   5.666
10543SOL    HW132528   0.329   1.675   5.597
10543SOL    HW232529   0.304   1.521   5.644
10544SOL     OW32530   2.673   2.071   2.525
10544SOL    HW132531   2.618   2.154   2.515
10544SOL    HW232532   2.661   2.013   2.444
10545SOL     OW32533   6.952   0.120   2.224
10545SOL    HW132534   6.899   0.158   2.148
10545SOL    HW232535   6.901   0.129   2.309
10546SOL     OW32536   1.546   6.760   5.081
10546SOL    HW132537   1.458   6.803   5.101
10546SOL    HW232538   1.538   6.662   5.094
10547SOL     OW32539   4.646   1.158   1.983
10547SOL    HW132540   4.674   1.141   1.888
10547SOL    HW232541   4.563   1.107   2.003
10548SOL     OW32542   5.122   3.909   4.804
10548SOL    HW132543   5.101   3.889   4.900
10548SOL    HW232544   5.060   3.859   4.744
10549SOL     OW32545   0.270   0.616   2.297
10549SOL    HW132546   0.345   0.555   2.323
10549SOL    HW232547   0.299   0.711   2.307
10550SOL     OW32548   5.109   6.746   4.184
10550SOL    HW132549   5.156   6.817   4.236
10550SOL    HW232550   5.099   6.664   4.241
10551SOL     OW32551   1.331   2.612   5.119
10551SOL    HW132552   1.320   2.618   5.218
10551SOL    HW232553   1.260   2.551   5.081
10552SOL     OW32554   4.336   1.851   5.417
10552SOL    HW132555   4.247   1.855   5.370
10552SOL    HW232556   4.361   1.755   5.432
10553SOL     OW32557   0.448   5.146   1.085
10553SOL    HW132558   0.439   5.049   1.106
10553SOL    HW232559   0.525   5.160   1.023
10554SOL     OW32560   5.909   5.079   6.990
10554SOL    HW132561   5.839   5.025   6.942
10554SOL    HW232562   5.997   5.065   6.945
10555SOL     OW32563   3.223   1.919   1.642
10555SOL    HW132564   3.281   1.951   1.717
10555SOL    HW232565   3.253   1.828   1.613
10556SOL     OW32566   2.071   3.340   5.104
10556SOL    HW132567   2.088   3.268   5.037
10556SOL    HW232568   2.024   3.416   5.059
10557SOL     OW32569   0.352   2.412   3.207
10557SOL    HW132570   0.391   2.353   3.278
10557SOL    HW232571   0.423   2.472   3.171
10558SOL     OW32572   4.621   6.603   5.167
10558SOL    HW132573   4.572   6.690   5.169
10558SOL    HW232574   4.715   6.618   5.136
10559SOL     OW32575   4.003   1.543   0.927
10559SOL    HW132576   3.949   1.560   0.845
10559SOL    HW232577   4.091   1.589   0.918
10560SOL     OW32578   1.633   4.906   5.106
10560SOL    HW132579   1.595   4.998   5.095
10560SOL    HW232580   1.623   4.856   5.020
10561SOL     OW32581   1.933   5.130   0.276
10561SOL    HW132582   1.834   5.125   0.291
10561SOL    HW232583   1.952   5.125   0.178
10562SOL     OW32584   4.547   0.244   0.914
10562SOL    HW132585   4.579   0.293   0.833
10562SOL    HW232586   4.456   0.206   0.895
10563SOL     OW32587   1.909   1.282   4.714
10563SOL    HW132588   1.997   1.238   4.733
10563SOL    HW232589   1.922   1.354   4.646
10564SOL     OW32590   5.881   0.202   1.291
10564SOL    HW132591   5.971   0.245   1.302
10564SOL    HW232592   5.847   0.174   1.381
10565SOL     OW32593   6.586   1.150   5.118
10565SOL    HW132594   6.679   1.175   5.091
10565SOL    HW232595   6.588   1.093   5.200
10566SOL     OW32596   4.053   3.862   6.442
10566SOL    HW132597   4.135   3.842   6.388
10566SOL    HW232598   4.053   3.958   6.470
10567SOL     OW32599   1.928   3.369   4.350
10567SOL    HW132600   1.895   3.373   4.445
10567SOL    HW232601   2.002   3.302   4.344
10568SOL     OW32602   5.741   1.030   2.417
10568SOL    HW132603   5.653   1.046   2.372
10568SOL    HW232604   5.735   1.060   2.512
10569SOL     OW32605   6.707   3.608   2.476
10569SOL    HW132606   6.709   3.703   2.445
10569SOL    HW232607   6.616   3.569   2.458
10570SOL     OW32608   1.860   4.653   2.667
10570SOL    HW132609   1.791   4.660   2.595
10570SOL    HW232610   1.909   4.567   2.658
10571SOL     OW32611   6.389   5.551   3.483
10571SOL    HW132612   6.299   5.591   3.497
10571SOL    HW232613   6.459   5.621   3.494
10572SOL     OW32614   5.597   3.639   2.920
10572SOL    HW132615   5.652   3.696   2.980
10572SOL    HW232616   5.589   3.547   2.958
10573SOL     OW32617   5.845   6.025   3.368
10573SOL    HW132618   5.835   6.113   3.321
10573SOL    HW232619   5.759   6.002   3.414
10574SOL     OW32620   1.854   2.049   3.888
10574SOL    HW132621   1.867   1.951   3.872
10574SOL    HW232622   1.781   2.083   3.829
10575SOL     OW32623   0.401   0.624   4.023
10575SOL    HW132624   0.398   0.716   3.984
10575SOL    HW232625   0.443   0.628   4.114
10576SOL     OW32626   1.351   5.938   5.203
10576SOL    HW132627   1.397   6.016   5.160
10576SOL    HW232628   1.280   5.903   5.141
10577SOL     OW32629   1.898   3.205   6.713
10577SOL    HW132630   1.812   3.177   6.753
10577SOL    HW232631   1.904   3.170   6.619
10578SOL     OW32632   5.984   0.787   5.062
10578SOL    HW132633   5.947   0.723   5.129
10578SOL    HW232634   6.047   0.850   5.108
10579SOL     OW32635   3.633   0.980   0.680
10579SOL    HW132636   3.559   0.974   0.613
10579SOL    HW232637   3.630   1.068   0.727
10580SOL     OW32638   6.667   6.540   6.592
10580SOL    HW132639   6.590   6.527   6.655
10580SOL    HW232640   6.752   6.546   6.644
10581SOL     OW32641   5.871   0.239   3.015
10581SOL    HW132642   5.957   0.249   2.966
10581SOL    HW232643   5.887   0.192   3.102
10582SOL     OW32644   3.461   4.884   0.201
10582SOL    HW132645   3.559   4.903   0.205
10582SOL    HW232646   3.446   4.792   0.166
10583SOL     OW32647   3.924   0.671   6.431
10583SOL    HW132648   3.988   0.596   6.413
10583SOL    HW232649   3.974   0.757   6.436
10584SOL     OW32650   5.314   6.098   1.510
10584SOL    HW132651   5.402   6.139   1.531
10584SOL    HW232652   5.326   6.000   1.491
10585SOL     OW32653   1.217   3.397   5.816
10585SOL    HW132654   1.189   3.430   5.726
10585SOL    HW232655   1.228   3.297   5.813
10586SOL     OW32656   2.621   6.022   5.828
10586SOL    HW132657   2.612   5.934   5.875
10586SOL    HW232658   2.536   6.043   5.780
10587SOL     OW32659   6.010   3.552   0.396
10587SOL    HW132660   5.985   3.587   0.486
10587SOL    HW232661   6.055   3.463   0.406
10588SOL     OW32662   1.043   4.387   2.198
10588SOL    HW132663   0.967   4.323   2.209
10588SOL    HW232664   1.017   4.460   2.134
10589SOL     OW32665   5.750   2.448   4.092
10589SOL    HW132666   5.777   2.544   4.100
10589SOL    HW232667   5.723   2.429   3.997
10590SOL     OW32668   1.136   6.745   2.775
10590SOL    HW132669   1.095   6.819   2.829
10590SOL    HW232670   1.172   6.783   2.690
10591SOL     OW32671   1.763   1.789   5.634
10591SOL    HW132672   1.744   1.840   5.550
10591SOL    HW232673   1.719   1.699   5.629
10592SOL     OW32674   6.351   1.076   6.632
10592SOL    HW132675   6.270   1.060   6.689
10592SOL    HW232676   6.408   1.146   6.676
10593SOL     OW32677   2.596   6.436   1.152
10593SOL    HW132678   2.528   6.461   1.222
10593SOL    HW232679   2.607   6.513   1.089
10594SOL     OW32680   6.370   1.657   3.662
10594SOL    HW132681   6.385   1.578   3.603
10594SOL    HW232682   6.277   1.691   3.649
10595SOL     OW32683   3.274   6.917   5.849
10595SOL    HW132684   3.189   6.873   5.877
10595SOL    HW232685   3.335   6.849   5.808
10596SOL     OW32686   4.078   6.734   2.113
10596SOL    HW132687   4.072   6.740   2.213
10596SOL    HW232688   4.024   6.807   2.072
10597SOL     OW32689   2.696   1.018   4.676
10597SOL    HW132690   2.747   1.011   4.762
10597SOL    HW232691   2.636   1.098   4.679
10598SOL     OW32692   1.902   2.511   6.543
10598SOL    HW132693   1.966   2.488   6.470
10598SOL    HW232694   1.945   2.577   6.605
10599SOL     OW32695   5.993   1.566   6.925
10599SOL    HW132696   6.070   1.526   6.874
10599SOL    HW232697   6.012   1.662   6.946
10600SOL     OW32698   2.643   3.374   6.561
10600SOL    HW132699   2.623   3.281   6.590
10600SOL    HW232700   2.563   3.413   6.516
10601SOL     OW32701   2.879   6.052   6.239
10601SOL    HW132702   2.838   6.126   6.292
10601SOL    HW232703   2.971   6.078   6.211
10602SOL     OW32704   4.775   1.087   1.468
10602SOL    HW132705   4.800   1.007   1.413
10602SOL    HW232706   4.762   1.166   1.408
10603SOL     OW32707   1.339   6.435   3.567
10603SOL    HW132708   1.323   6.399   3.475
10603SOL    HW232709   1.289   6.379   3.634
10604SOL     OW32710   6.344   4.087   4.871
10604SOL    HW132711   6.319   4.059   4.778
10604SOL    HW232712   6.262   4.087   4.928
10605SOL     OW32713   1.048   5.137   0.608
10605SOL    HW132714   0.987   5.181   0.542
10605SOL    HW232715   1.019   5.159   0.701
10606SOL     OW32716   6.995   0.813   1.404
10606SOL    HW132717   6.944   0.842   1.323
10606SOL    HW232718   0.016   0.725   1.385
10607SOL     OW32719   4.239   4.809   6.173
10607SOL    HW132720   4.224   4.907   6.162
10607SOL    HW232721   4.302   4.793   6.249
10608SOL     OW32722   6.095   1.574   4.466
10608SOL    HW132723   6.027   1.646   4.479
10608SOL    HW232724   6.091   1.540   4.372
10609SOL     OW32725   3.801   6.375   1.201
10609SOL    HW132726   3.729   6.374   1.131
10609SOL    HW232727   3.761   6.397   1.290
10610SOL     OW32728   1.275   3.854   6.454
10610SOL    HW132729   1.335   3.785   6.414
10610SOL    HW232730   1.200   3.809   6.503
10611SOL     OW32731   5.563   2.999   6.607
10611SOL    HW132732   5.629   3.049   6.663
10611SOL    HW232733   5.555   3.041   6.517
10612SOL     OW32734   2.116   0.329   6.600
10612SOL    HW132735   2.179   0.273   6.654
10612SOL    HW232736   2.053   0.270   6.550
10613SOL     OW32737   0.040   0.323   5.597
10613SOL    HW132738   7.019   0.235   5.614
10613SOL    HW232739   0.002   0.363   5.514
10614SOL     OW32740   6.669   0.486   4.669
10614SOL    HW132741   6.667   0.536   4.755
10614SOL    HW232742   6.594   0.420   4.666
10615SOL     OW32743   4.570   5.414   5.457
10615SOL    HW132744   4.561   5.512   5.479
10615SOL    HW232745   4.665   5.393   5.435
10616SOL     OW32746   2.718   6.258   0.190
10616SOL    HW132747   2.759   6.201   0.261
10616SOL    HW232748   2.630   6.220   0.162
10617SOL     OW32749   2.345   2.680   0.308
10617SOL    HW132750   2.308   2.635   0.389
10617SOL    HW232751   2.287   2.758   0.283
10618SOL     OW32752   6.061   2.210   0.648
10618SOL    HW132753   6.153   2.170   0.656
10618SOL    HW232754   6.069   2.309   0.636
10619SOL     OW32755   0.810   3.882   3.264
10619SOL    HW132756   0.852   3.791   3.271
10619SOL    HW232757   0.764   3.891   3.175
10620SOL     OW32758   1.576   6.315   5.692
10620SOL    HW132759   1.522   6.291   5.611
10620SOL    HW232760   1.518   6.308   5.774
10621SOL     OW32761   1.347   6.098   6.911
10621SOL    HW132762   1.357   6.189   6.952
10621SOL    HW232763   1.402   6.032   6.962
10622SOL     OW32764   4.051   0.964   1.992
10622SOL    HW132765   3.965   0.923   1.960
10622SOL    HW232766   4.052   1.061   1.971
10623SOL     OW32767   5.472   2.682   3.853
10623SOL    HW132768   5.468   2.725   3.944
10623SOL    HW232769   5.540   2.730   3.797
10624SOL     OW32770   1.715   1.098   4.720
10624SOL    HW132771   1.796   1.155   4.709
10624SOL    HW232772   1.634   1.149   4.690
10625SOL     OW32773   0.842   4.181   6.753
10625SOL    HW132774   0.833   4.199   6.851
10625SOL    HW232775   0.847   4.082   6.738
10626SOL     OW32776   1.119   2.406   1.320
10626SOL    HW132777   1.034   2.364   1.352
10626SOL    HW232778   1.101   2.499   1.288
10627SOL     OW32779   6.731   6.147   2.604
10627SOL    HW132780   6.760   6.115   2.694
10627SOL    HW232781   6.753   6.078   2.535
10628SOL     OW32782   6.339   5.097   5.081
10628SOL    HW132783   6.393   5.019   5.113
10628SOL    HW232784   6.303   5.078   4.990
10629SOL     OW32785   2.344   5.093   5.886
10629SOL    HW132786   2.418   5.078   5.952
10629SOL    HW232787   2.383   5.125   5.800
10630SOL     OW32788   6.292   0.457   3.037
10630SOL    HW132789   6.241   0.447   3.122
10630SOL    HW232790   6.352   0.537   3.043
10631SOL     OW32791   0.653   6.926   3.710
10631SOL    HW132792   0.601   6.841   3.707
10631SOL    HW232793   0.749   6.906   3.727
10632SOL     OW32794   6.418   2.183   4.350
10632SOL    HW132795   6.359   2.252   4.309
10632SOL    HW232796   6.434   2.204   4.446
10633SOL     OW32797   2.595   4.973   1.528
10633SOL    HW132798   2.618   4.882   1.494
10633SOL    HW232799   2.546   4.965   1.615
10634SOL     OW32800   2.852   5.839   1.005
10634SOL    HW132801   2.756   5.854   0.981
10634SOL    HW232802   2.858   5.807   1.100
10635SOL     OW32803   3.213   1.106   0.954
10635SOL    HW132804   3.304   1.108   0.914
10635SOL    HW232805   3.213   1.158   1.040
10636SOL     OW32806   0.447   1.946   1.259
10636SOL    HW132807   0.501   1.895   1.326
10636SOL    HW232808   0.465   1.910   1.167
10637SOL     OW32809   3.480   4.078   5.116
10637SOL    HW132810   3.489   4.032   5.204
10637SOL    HW232811   3.568   4.076   5.068
10638SOL     OW32812   0.215   6.585   4.238
10638SOL    HW132813   0.191   6.525   4.162
10638SOL    HW232814   0.305   6.559   4.273
10639SOL     OW32815   1.066   1.238   4.638
10639SOL    HW132816   1.009   1.215   4.717
10639SOL    HW232817   1.081   1.156   4.583
10640SOL     OW32818   5.052   0.618   0.029
10640SOL    HW132819   4.966   0.596   0.074
10640SOL    HW232820   5.128   0.594   0.090
10641SOL     OW32821   5.183   1.872   0.240
10641SOL    HW132822   5.244   1.949   0.219
10641SOL    HW232823   5.183   1.855   0.339
10642SOL     OW32824   0.092   2.256   1.324
10642SOL    HW132825   0.025   2.329   1.337
10642SOL    HW232826   0.057   2.172   1.365
10643SOL     OW32827   2.210   3.852   5.348
10643SOL    HW132828   2.251   3.912   5.280
10643SOL    HW232829   2.257   3.764   5.348
10644SOL     OW32830   4.665   1.472   3.876
10644SOL    HW132831   4.653   1.373   3.883
10644SOL    HW232832   4.583   1.517   3.911
10645SOL     OW32833   1.320   0.751   4.578
10645SOL    HW132834   1.299   0.753   4.480
10645SOL    HW232835   1.411   0.713   4.592
10646SOL     OW32836   0.525   2.807   5.744
10646SOL    HW132837   0.578   2.723   5.737
10646SOL    HW232838   0.459   2.799   5.819
10647SOL     OW32839   6.697   4.991   0.333
10647SOL    HW132840   6.718   5.064   0.399
10647SOL    HW232841   6.761   4.915   0.346
10648SOL     OW32842   4.832   2.766   6.446
10648SOL    HW132843   4.883   2.794   6.527
10648SOL    HW232844   4.851   2.670   6.427
10649SOL     OW32845   0.251   5.129   5.441
10649SOL    HW132846   0.190   5.063   5.396
10649SOL    HW232847   0.294   5.086   5.520
10650SOL     OW32848   2.035   6.249   3.804
10650SOL    HW132849   2.110   6.264   3.740
10650SOL    HW232850   2.070   6.252   3.898
10651SOL     OW32851   4.433   6.497   5.908
10651SOL    HW132852   4.528   6.520   5.887
10651SOL    HW232853   4.413   6.518   6.003
10652SOL     OW32854   3.290   0.174   5.888
10652SOL    HW132855   3.271   0.081   5.855
10652SOL    HW232856   3.206   0.226   5.892
10653SOL     OW32857   4.708   4.391   4.554
10653SOL    HW132858   4.686   4.343   4.469
10653SOL    HW232859   4.805   4.414   4.555
10654SOL     OW32860   2.771   0.728   1.125
10654SOL    HW132861   2.700   0.799   1.125
10654SOL    HW232862   2.861   0.771   1.125
10655SOL     OW32863   2.924   5.673   1.976
10655SOL    HW132864   2.873   5.587   1.974
10655SOL    HW232865   2.929   5.706   2.070
10656SOL     OW32866   6.084   2.287   0.322
10656SOL    HW132867   6.037   2.310   0.237
10656SOL    HW232868   6.047   2.341   0.397
10657SOL     OW32869   5.721   6.625   0.938
10657SOL    HW132870   5.743   6.612   1.035
10657SOL    HW232871   5.622   6.621   0.925
10658SOL     OW32872   1.504   4.849   4.093
10658SOL    HW132873   1.461   4.763   4.120
10658SOL    HW232874   1.598   4.851   4.128
10659SOL     OW32875   5.774   0.148   0.824
10659SOL    HW132876   5.771   0.079   0.896
10659SOL    HW232877   5.724   0.114   0.744
10660SOL     OW32878   4.105   3.887   5.731
10660SOL    HW132879   4.088   3.978   5.691
10660SOL    HW232880   4.053   3.819   5.681
10661SOL     OW32881   0.343   6.698   1.788
10661SOL    HW132882   0.280   6.626   1.820
10661SOL    HW232883   0.426   6.695   1.843
10662SOL     OW32884   0.032   1.190   0.590
10662SOL    HW132885   0.128   1.168   0.571
10662SOL    HW232886   0.028   1.260   0.661
10663SOL     OW32887   0.536   0.607   1.062
10663SOL    HW132888   0.580   0.572   1.145
10663SOL    HW232889   0.461   0.546   1.036
10664SOL     OW32890   2.214   4.801   0.460
10664SOL    HW132891   2.311   4.821   0.466
10664SOL    HW232892   2.197   4.739   0.383
10665SOL     OW32893   0.029   2.025   0.366
10665SOL    HW132894   6.953   2.013   0.360
10665SOL    HW232895   0.049   2.118   0.396
10666SOL     OW32896   2.937   6.055   6.941
10666SOL    HW132897   2.887   6.123   6.886
10666SOL    HW232898   2.879   6.027   7.018
10667SOL     OW32899   3.853   1.797   5.424
10667SOL    HW132900   3.880   1.875   5.480
10667SOL    HW232901   3.801   1.732   5.481
10668SOL     OW32902   1.521   1.984   6.478
10668SOL    HW132903   1.609   2.030   6.477
10668SOL    HW232904   1.528   1.898   6.427
10669SOL     OW32905   1.410   0.052   0.254
10669SOL    HW132906   1.414   0.083   0.159
10669SOL    HW232907   1.315   0.054   0.285
10670SOL     OW32908   5.358   4.533   5.870
10670SOL    HW132909   5.264   4.566   5.873
10670SOL    HW232910   5.402   4.549   5.958
10671SOL     OW32911   2.435   2.633   2.753
10671SOL    HW132912   2.425   2.634   2.853
10671SOL    HW232913   2.428   2.727   2.718
10672SOL     OW32914   0.252   2.713   0.537
10672SOL    HW132915   0.334   2.768   0.550
10672SOL    HW232916   0.196   2.716   0.620
10673SOL     OW32917   2.729   3.135   5.290
10673SOL    HW132918   2.808   3.074   5.294
10673SOL    HW232919   2.655   3.091   5.239
10674SOL     OW32920   4.022   3.786   1.687
10674SOL    HW132921   4.050   3.736   1.605
10674SOL    HW232922   4.067   3.746   1.767
10675SOL     OW32923   0.023   6.902   5.416
10675SOL    HW132924   0.022   6.872   5.512
10675SOL    HW232925   0.090   6.975   5.404
10676SOL     OW32926   5.857   0.102   6.675
10676SOL    HW132927   5.900   0.185   6.711
10676SOL    HW232928   5.876   0.094   6.578
10677SOL     OW32929   0.334   0.739   1.367
10677SOL    HW132930   0.303   0.645   1.349
10677SOL    HW232931   0.339   0.789   1.280
10678SOL     OW32932   2.312   5.811   2.366
10678SOL    HW132933   2.380   5.875   2.331
10678SOL    HW232934   2.353   5.721   2.376
10679SOL     OW32935   6.067   5.339   4.119
10679SOL    HW132936   6.022   5.274   4.057
10679SOL    HW232937   6.163   5.349   4.092
10680SOL     OW32938   1.003   3.219   2.369
10680SOL    HW132939   1.102   3.211   2.356
10680SOL    HW232940   0.984   3.245   2.464
10681SOL     OW32941   6.616   2.708   5.838
10681SOL    HW132942   6.654   2.655   5.914
10681SOL    HW232943   6.597   2.647   5.761
10682SOL     OW32944   0.304   1.997   2.087
10682SOL    HW132945   0.336   1.954   2.172
10682SOL    HW232946   0.260   2.084   2.108
10683SOL     OW32947   1.728   2.320   4.493
10683SOL    HW132948   1.738   2.420   4.498
10683SOL    HW232949   1.709   2.293   4.399
10684SOL     OW32950   5.961   4.528   6.992
10684SOL    HW132951   5.935   4.434   7.016
10684SOL    HW232952   5.881   4.587   6.998
10685SOL     OW32953   0.548   3.436   3.450
10685SOL    HW132954   0.526   3.527   3.414
10685SOL    HW232955   0.618   3.394   3.393
10686SOL     OW32956   2.809   6.046   0.332
10686SOL    HW132957   2.876   5.976   0.306
10686SOL    HW232958   2.721   6.003   0.350
10687SOL     OW32959   6.824   5.010   2.722
10687SOL    HW132960   6.747   4.955   2.754
10687SOL    HW232961   6.790   5.093   2.677
10688SOL     OW32962   6.792   5.153   2.005
10688SOL    HW132963   6.701   5.177   1.971
10688SOL    HW232964   6.807   5.195   2.094
10689SOL     OW32965   0.039   0.531   2.685
10689SOL    HW132966   0.123   0.552   2.734
10689SOL    HW232967   0.035   0.586   2.601
10690SOL     OW32968   4.559   4.950   2.218
10690SOL    HW132969   4.644   4.995   2.244
10690SOL    HW232970   4.510   4.922   2.300
10691SOL     OW32971   6.693   1.274   1.544
10691SOL    HW132972   6.728   1.229   1.461
10691SOL    HW232973   6.630   1.212   1.591
10692SOL     OW32974   3.824   5.827   4.015
10692SOL    HW132975   3.903   5.767   4.027
10692SOL    HW232976   3.744   5.772   3.990
10693SOL     OW32977   6.845   1.432   1.688
10693SOL    HW132978   6.871   1.513   1.635
10693SOL    HW232979   6.783   1.376   1.633
10694SOL     OW32980   4.357   6.154   1.211
10694SOL    HW132981   4.430   6.174   1.275
10694SOL    HW232982   4.273   6.200   1.240
10695SOL     OW32983   6.858   2.505   4.212
10695SOL    HW132984   6.910   2.586   4.187
10695SOL    HW232985   6.854   2.442   4.135
10696SOL     OW32986   6.753   6.192   1.360
10696SOL    HW132987   6.751   6.267   1.426
10696SOL    HW232988   6.846   6.156   1.353
10697SOL     OW32989   1.140   6.118   4.680
10697SOL    HW132990   1.082   6.152   4.606
10697SOL    HW232991   1.158   6.021   4.667
10698SOL     OW32992   2.805   0.301   3.630
10698SOL    HW132993   2.803   0.226   3.564
10698SOL    HW232994   2.714   0.315   3.668
10699SOL     OW32995   3.718   1.703   2.769
10699SOL    HW132996   3.680   1.633   2.707
10699SOL    HW232997   3.743   1.783   2.716
10700SOL     OW32998   6.765   6.583   1.045
10700SOL    HW132999   6.716   6.646   1.105
10700SOL    HW233000   6.852   6.557   1.088
10701SOL     OW33001   3.367   6.638   0.368
10701SOL    HW133002   3.280   6.686   0.365
10701SOL    HW233003   3.421   6.661   0.287
10702SOL     OW33004   6.045   2.689   0.206
10702SOL    HW133005   6.033   2.675   0.108
10702SOL    HW233006   6.031   2.785   0.228
10703SOL     OW33007   3.779   3.956   3.556
10703SOL    HW133008   3.861   3.968   3.612
10703SOL    HW233009   3.735   3.869   3.578
10704SOL     OW33010   5.079   0.074   2.078
10704SOL    HW133011   5.042   7.006   2.067
10704SOL    HW233012   5.178   0.070   2.087
10705SOL     OW33013   0.653   2.978   5.937
10705SOL    HW133014   0.623   2.945   5.848
10705SOL    HW233015   0.573   3.001   5.993
10706SOL     OW33016   3.468   0.584   1.674
10706SOL    HW133017   3.407   0.567   1.597
10706SOL    HW233018   3.435   0.534   1.754
10707SOL     OW33019   5.983   0.002   5.779
10707SOL    HW133020   5.890   6.990   5.784
10707SOL    HW233021   6.040   6.983   5.849
10708SOL     OW33022   4.553   0.994   0.565
10708SOL    HW133023   4.516   1.064   0.504
10708SOL    HW233024   4.478   0.950   0.614
10709SOL     OW33025   6.038   6.593   5.187
10709SOL    HW133026   6.035   6.693   5.180
10709SOL    HW233027   6.132   6.562   5.180
10710SOL     OW33028   6.018   5.108   3.940
10710SOL    HW133029   6.067   5.109   3.853
10710SOL    HW233030   5.922   5.085   3.924
10711SOL     OW33031   1.355   6.911   3.843
10711SOL    HW133032   1.388   6.976   3.911
10711SOL    HW233033   1.399   6.930   3.755
10712SOL     OW33034   3.676   1.439   5.365
10712SOL    HW133035   3.695   1.490   5.448
10712SOL    HW233036   3.763   1.413   5.321
10713SOL     OW33037   1.366   5.836   1.286
10713SOL    HW133038   1.389   5.926   1.249
10713SOL    HW233039   1.267   5.831   1.303
10714SOL     OW33040   0.669   5.428   5.837
10714SOL    HW133041   0.592   5.401   5.894
10714SOL    HW233042   0.750   5.440   5.894
10715SOL     OW33043   4.694   2.039   4.257
10715SOL    HW133044   4.735   2.106   4.196
10715SOL    HW233045   4.613   2.078   4.301
10716SOL     OW33046   6.492   0.582   4.196
10716SOL    HW133047   6.509   0.681   4.192
10716SOL    HW233048   6.397   0.564   4.169
10717SOL     OW33049   6.965   0.829   1.697
10717SOL    HW133050   6.969   0.799   1.602
10717SOL    HW233051   6.919   0.918   1.702
10718SOL     OW33052   6.236   5.100   6.589
10718SOL    HW133053   6.152   5.149   6.564
10718SOL    HW233054   6.304   5.112   6.517
10719SOL     OW33055   5.907   0.806   1.888
10719SOL    HW133056   5.837   0.876   1.879
10719SOL    HW233057   5.883   0.728   1.830
10720SOL     OW33058   0.656   3.793   6.308
10720SOL    HW133059   0.650   3.703   6.351
10720SOL    HW233060   0.567   3.838   6.311
10721SOL     OW33061   5.208   2.815   4.643
10721SOL    HW133062   5.210   2.717   4.623
10721SOL    HW233063   5.269   2.834   4.721
10722SOL     OW33064   6.928   3.683   6.845
10722SOL    HW133065   6.838   3.707   6.809
10722SOL    HW233066   6.985   3.765   6.850
10723SOL     OW33067   5.546   3.940   0.077
10723SOL    HW133068   5.548   4.039   0.064
10723SOL    HW233069   5.544   3.920   0.175
10724SOL     OW33070   3.981   6.584   6.586
10724SOL    HW133071   3.950   6.656   6.648
10724SOL    HW233072   3.965   6.613   6.492
10725SOL     OW33073   0.678   6.088   5.261
10725SOL    HW133074   0.630   6.010   5.302
10725SOL    HW233075   0.649   6.172   5.306
10726SOL     OW33076   5.302   0.748   4.436
10726SOL    HW133077   5.363   0.748   4.515
10726SOL    HW233078   5.236   0.674   4.444
10727SOL     OW33079   2.528   5.802   5.948
10727SOL    HW133080   2.438   5.834   5.976
10727SOL    HW233081   2.586   5.791   6.029
10728SOL     OW33082   4.616   6.721   3.329
10728SOL    HW133083   4.592   6.669   3.247
10728SOL    HW233084   4.675   6.665   3.387
10729SOL     OW33085   6.277   2.459   2.843
10729SOL    HW133086   6.190   2.507   2.845
10729SOL    HW233087   6.282   2.401   2.762
10730SOL     OW33088   1.827   6.854   3.025
10730SOL    HW133089   1.804   6.757   3.019
10730SOL    HW233090   1.794   6.901   2.943
10731SOL     OW33091   3.363   0.120   6.867
10731SOL    HW133092   3.368   0.036   6.921
10731SOL    HW233093   3.356   0.198   6.928
10732SOL     OW33094   5.961   5.919   3.126
10732SOL    HW133095   5.903   5.929   3.206
10732SOL    HW233096   6.005   5.829   3.127
10733SOL     OW33097   6.742   0.743   5.816
10733SOL    HW133098   6.658   0.796   5.815
10733SOL    HW233099   6.797   0.768   5.896
10734SOL     OW33100   1.780   1.031   5.644
10734SOL    HW133101   1.838   1.096   5.596
10734SOL    HW233102   1.758   0.955   5.583
10735SOL     OW33103   1.064   5.476   2.005
10735SOL    HW133104   1.110   5.388   2.018
10735SOL    HW233105   1.039   5.487   1.909
10736SOL     OW33106   6.601   0.144   3.937
10736SOL    HW133107   6.650   0.058   3.950
10736SOL    HW233108   6.552   0.142   3.850
10737SOL     OW33109   6.808   1.441   1.959
10737SOL    HW133110   6.826   1.433   1.861
10737SOL    HW233111   6.842   1.530   1.992
10738SOL     OW33112   2.823   0.700   2.076
10738SOL    HW133113   2.878   0.718   1.994
10738SOL    HW233114   2.883   0.701   2.156
10739SOL     OW33115   6.039   2.068   2.564
10739SOL    HW133116   6.124   2.026   2.535
10739SOL    HW233117   6.042   2.086   2.662
10740SOL     OW33118   1.574   6.637   6.347
10740SOL    HW133119   1.578   6.709   6.416
10740SOL    HW233120   1.499   6.574   6.368
10741SOL     OW33121   2.133   2.543   3.393
10741SOL    HW133122   2.045   2.585   3.369
10741SOL    HW233123   2.119   2.473   3.463
10742SOL     OW33124   6.265   6.060   2.812
10742SOL    HW133125   6.324   5.981   2.830
10742SOL    HW233126   6.218   6.086   2.896
10743SOL     OW33127   3.791   0.816   5.531
10743SOL    HW133128   3.868   0.763   5.566
10743SOL    HW233129   3.734   0.847   5.607
10744SOL     OW33130   1.661   0.407   0.340
10744SOL    HW133131   1.633   0.338   0.407
10744SOL    HW233132   1.760   0.420   0.345
10745SOL     OW33133   2.093   5.007   1.214
10745SOL    HW133134   2.127   4.915   1.233
10745SOL    HW233135   2.163   5.058   1.164
10746SOL     OW33136   1.620   6.326   6.488
10746SOL    HW133137   1.702   6.325   6.430
10746SOL    HW233138   1.640   6.376   6.573
10747SOL     OW33139   6.346   1.753   3.948
10747SOL    HW133140   6.424   1.785   4.002
10747SOL    HW233141   6.308   1.830   3.897
10748SOL     OW33142   4.068   6.421   1.064
10748SOL    HW133143   3.974   6.389   1.076
10748SOL    HW233144   4.076   6.468   0.976
10749SOL     OW33145   6.280   4.942   3.074
10749SOL    HW133146   6.317   5.035   3.071
10749SOL    HW233147   6.294   4.897   2.986
10750SOL     OW33148   5.036   2.638   4.314
10750SOL    HW133149   5.083   2.703   4.253
10750SOL    HW233150   4.946   2.617   4.276
10751SOL     OW33151   0.969   4.268   5.251
10751SOL    HW133152   0.993   4.341   5.187
10751SOL    HW233153   1.037   4.265   5.324
10752SOL     OW33154   6.115   5.830   0.913
10752SOL    HW133155   6.033   5.888   0.908
10752SOL    HW233156   6.154   5.836   1.004
10753SOL     OW33157   5.041   6.380   4.187
10753SOL    HW133158   5.080   6.289   4.171
10753SOL    HW233159   5.102   6.433   4.245
10754SOL     OW33160   1.495   3.182   1.589
10754SOL    HW133161   1.547   3.240   1.652
10754SOL    HW233162   1.516   3.207   1.495
10755SOL     OW33163   6.314   3.094   1.077
10755SOL    HW133164   6.354   3.133   0.994
10755SOL    HW233165   6.386   3.080   1.145
10756SOL     OW33166   0.138   2.726   0.887
10756SOL    HW133167   0.220   2.774   0.920
10756SOL    HW233168   0.161   2.632   0.863
10757SOL     OW33169   6.618   4.298   1.278
10757SOL    HW133170   6.656   4.391   1.280
10757SOL    HW233171   6.536   4.295   1.336
10758SOL     OW33172   0.565   6.776   6.933
10758SOL    HW133173   0.517   6.806   6.850
10758SOL    HW233174   0.585   6.855   6.991
10759SOL     OW33175   2.185   2.332   6.169
10759SOL    HW133176   2.234   2.247   6.188
10759SOL    HW233177   2.159   2.375   6.256
10760SOL     OW33178   0.331   5.501   0.190
10760SOL    HW133179   0.346   5.600   0.186
10760SOL    HW233180   0.244   5.479   0.147
10761SOL     OW33181   0.815   1.893   6.434
10761SOL    HW133182   0.860   1.865   6.519
10761SOL    HW233183   0.836   1.826   6.362
10762SOL     OW33184   3.800   6.616   5.701
10762SOL    HW133185   3.817   6.711   5.727
10762SOL    HW233186   3.779   6.611   5.604
10763SOL     OW33187   5.330   0.147   2.849
10763SOL    HW133188   5.316   0.088   2.770
10763SOL    HW233189   5.337   0.091   2.932
10764SOL     OW33190   4.282   0.897   5.215
10764SOL    HW133191   4.332   0.811   5.208
10764SOL    HW233192   4.221   0.907   5.137
10765SOL     OW33193   6.934   1.709   2.629
10765SOL    HW133194   6.993   1.638   2.591
10765SOL    HW233195   6.984   1.759   2.701
10766SOL     OW33196   1.956   4.787   6.599
10766SOL    HW133197   1.995   4.827   6.516
10766SOL    HW233198   2.002   4.701   6.619
10767SOL     OW33199   1.697   5.700   0.753
10767SOL    HW133200   1.744   5.786   0.733
10767SOL    HW233201   1.652   5.666   0.671
10768SOL     OW33202   5.957   5.932   0.642
10768SOL    HW133203   5.861   5.917   0.619
10768SOL    HW233204   5.987   6.019   0.603
10769SOL     OW33205   2.961   3.215   4.546
10769SOL    HW133206   2.884   3.243   4.488
10769SOL    HW233207   3.014   3.144   4.499
10770SOL     OW33208   5.158   6.961   3.991
10770SOL    HW133209   5.204   6.922   3.911
10770SOL    HW233210   5.220   6.958   4.070
10771SOL     OW33211   5.137   5.882   5.767
10771SOL    HW133212   5.061   5.827   5.732
10771SOL    HW233213   5.122   5.903   5.863
10772SOL     OW33214   5.969   4.766   2.839
10772SOL    HW133215   5.991   4.806   2.927
10772SOL    HW233216   5.988   4.832   2.766
10773SOL     OW33217   6.572   4.768   1.301
10773SOL    HW133218   6.590   4.833   1.227
10773SOL    HW233219   6.587   4.813   1.389
10774SOL     OW33220   1.380   3.278   0.691
10774SOL    HW133221   1.400   3.192   0.737
10774SOL    HW233222   1.461   3.310   0.643
10775SOL     OW33223   1.232   4.423   1.686
10775SOL    HW133224   1.308   4.479   1.718
10775SOL    HW233225   1.156   4.482   1.658
10776SOL     OW33226   1.066   1.923   3.075
10776SOL    HW133227   0.971   1.935   3.047
10776SOL    HW233228   1.115   2.010   3.066
10777SOL     OW33229   3.447   1.169   2.043
10777SOL    HW133230   3.506   1.140   2.119
10777SOL    HW233231   3.352   1.145   2.064
10778SOL     OW33232   6.324   6.449   3.849
10778SOL    HW133233   6.306   6.459   3.751
10778SOL    HW233234   6.408   6.499   3.872
10779SOL     OW33235   5.642   3.767   4.594
10779SOL    HW133236   5.602   3.839   4.537
10779SOL    HW233237   5.737   3.752   4.567
10780SOL     OW33238   1.314   5.717   4.804
10780SOL    HW133239   1.412   5.705   4.816
10780SOL    HW233240   1.266   5.636   4.839
10781SOL     OW33241   5.705   2.058   4.951
10781SOL    HW133242   5.608   2.047   4.929
10781SOL    HW233243   5.741   1.971   4.985
10782SOL     OW33244   1.436   3.145   4.998
10782SOL    HW133245   1.375   3.093   5.057
10782SOL    HW233246   1.410   3.131   4.902
10783SOL     OW33247   1.182   2.610   2.721
10783SOL    HW133248   1.160   2.692   2.668
10783SOL    HW233249   1.100   2.555   2.733
10784SOL     OW33250   3.686   6.210   2.195
10784SOL    HW133251   3.636   6.269   2.132
10784SOL    HW233252   3.658   6.231   2.289
10785SOL     OW33253   1.921   6.205   2.534
10785SOL    HW133254   1.859   6.202   2.455
10785SOL    HW233255   1.982   6.285   2.525
10786SOL     OW33256   4.167   1.474   2.159
10786SOL    HW133257   4.153   1.500   2.063
10786SOL    HW233258   4.204   1.381   2.164
10787SOL     OW33259   3.505   1.119   3.306
10787SOL    HW133260   3.562   1.134   3.225
10787SOL    HW233261   3.540   1.174   3.382
10788SOL     OW33262   0.708   4.512   0.711
10788SOL    HW133263   0.718   4.505   0.811
10788SOL    HW233264   0.612   4.494   0.686
10789SOL     OW33265   6.487   1.202   0.127
10789SOL    HW133266   6.507   1.107   0.152
10789SOL    HW233267   6.568   1.258   0.142
10790SOL     OW33268   6.993   2.198   4.660
10790SOL    HW133269   0.017   2.263   4.718
10790SOL    HW233270   6.897   2.224   4.652
10791SOL     OW33271   2.124   1.601   3.229
10791SOL    HW133272   2.131   1.587   3.130
10791SOL    HW233273   2.159   1.520   3.276
10792SOL     OW33274   3.579   2.578   1.003
10792SOL    HW133275   3.622   2.550   1.089
10792SOL    HW233276   3.574   2.678   1.000
10793SOL     OW33277   5.058   1.524   5.009
10793SOL    HW133278   5.031   1.582   5.086
10793SOL    HW233279   5.156   1.506   5.014
10794SOL     OW33280   4.386   3.235   0.786
10794SOL    HW133281   4.394   3.141   0.755
10794SOL    HW233282   4.294   3.251   0.821
10795SOL     OW33283   6.748   3.258   3.318
10795SOL    HW133284   6.767   3.337   3.377
10795SOL    HW233285   6.656   3.266   3.280
10796SOL     OW33286   6.838   7.020   6.967
10796SOL    HW133287   6.781   6.938   6.965
10796SOL    HW233288   6.780   0.078   6.966
10797SOL     OW33289   4.139   3.469   0.381
10797SOL    HW133290   4.043   3.446   0.400
10797SOL    HW233291   4.143   3.533   0.305
10798SOL     OW33292   2.307   0.013   6.376
10798SOL    HW133293   2.244   7.005   6.305
10798SOL    HW233294   2.322   0.111   6.365
10799SOL     OW33295   2.983   1.765   2.472
10799SOL    HW133296   2.925   1.759   2.553
10799SOL    HW233297   3.008   1.860   2.456
10800SOL     OW33298   1.390   6.901   5.699
10800SOL    HW133299   1.352   6.872   5.787
10800SOL    HW233300   1.396   7.001   5.695
10801SOL     OW33301   2.895   6.339   6.019
10801SOL    HW133302   2.911   6.367   6.114
10801SOL    HW233303   2.797   6.331   6.002
10802SOL     OW33304   0.680   4.150   5.012
10802SOL    HW133305   0.765   4.105   5.037
10802SOL    HW233306   0.611   4.135   5.083
10803SOL     OW33307   6.411   4.870   5.256
10803SOL    HW133308   6.495   4.881   5.202
10803SOL    HW233309   6.432   4.887   5.352
10804SOL     OW33310   5.450   4.780   1.984
10804SOL    HW133311   5.486   4.794   2.077
10804SOL    HW233312   5.524   4.750   1.924
10805SOL     OW33313   4.422   6.545   0.431
10805SOL    HW133314   4.401   6.610   0.358
10805SOL    HW233315   4.521   6.545   0.449
10806SOL     OW33316   4.835   4.054   7.015
10806SOL    HW133317   4.878   4.044   6.925
10806SOL    HW233318   4.858   3.975   0.048
10807SOL     OW33319   4.011   6.050   3.754
10807SOL    HW133320   3.966   6.039   3.842
10807SOL    HW233321   4.099   6.096   3.767
10808SOL     OW33322   0.110   2.901   6.242
10808SOL    HW133323   0.082   2.905   6.338
10808SOL    HW233324   0.057   2.968   6.189
10809SOL     OW33325   2.255   0.821   3.193
10809SOL    HW133326   2.247   0.911   3.236
10809SOL    HW233327   2.244   0.831   3.094
10810SOL     OW33328   6.654   1.451   5.190
10810SOL    HW133329   6.667   1.491   5.099
10810SOL    HW233330   6.743   1.421   5.226
10811SOL     OW33331   4.629   4.415   5.361
10811SOL    HW133332   4.695   4.370   5.422
10811SOL    HW233333   4.663   4.411   5.267
10812SOL     OW33334   6.492   2.552   2.553
10812SOL    HW133335   6.519   2.497   2.633
10812SOL    HW233336   6.570   2.559   2.490
10813SOL     OW33337   3.077   6.083   1.544
10813SOL    HW133338   3.046   6.087   1.639
10813SOL    HW233339   3.105   5.990   1.522
10814SOL     OW33340   1.662   6.962   4.915
10814SOL    HW133341   1.621   6.885   4.964
10814SOL    HW233342   1.751   6.935   4.879
10815SOL     OW33343   5.178   3.317   3.224
10815SOL    HW133344   5.240   3.282   3.154
10815SOL    HW233345   5.158   3.244   3.290
10816SOL     OW33346   1.815   1.704   2.080
10816SOL    HW133347   1.818   1.606   2.063
10816SOL    HW233348   1.864   1.725   2.164
10817SOL     OW33349   4.484   0.072   2.125
10817SOL    HW133350   4.493   7.005   2.084
10817SOL    HW233351   4.443   0.063   2.216
10818SOL     OW33352   4.589   3.021   6.724
10818SOL    HW133353   4.607   2.973   6.638
10818SOL    HW233354   4.492   3.041   6.732
10819SOL     OW33355   6.937   4.262   6.636
10819SOL    HW133356   6.870   4.328   6.604
10819SOL    HW233357   7.021   4.311   6.663
10820SOL     OW33358   0.413   6.497   4.678
10820SOL    HW133359   0.329   6.444   4.684
10820SOL    HW233360   0.479   6.464   4.746
10821SOL     OW33361   6.599   0.719   0.757
10821SOL    HW133362   6.556   0.644   0.806
10821SOL    HW233363   6.617   0.794   0.821
10822SOL     OW33364   0.883   3.780   2.279
10822SOL    HW133365   0.803   3.732   2.314
10822SOL    HW233366   0.964   3.723   2.293
10823SOL     OW33367   1.659   6.953   0.998
10823SOL    HW133368   1.615   6.863   0.997
10823SOL    HW233369   1.720   6.960   1.077
10824SOL     OW33370   5.420   0.552   2.457
10824SOL    HW133371   5.335   0.571   2.407
10824SOL    HW233372   5.413   0.464   2.503
10825SOL     OW33373   3.671   1.629   1.073
10825SOL    HW133374   3.726   1.615   1.155
10825SOL    HW233375   3.660   1.727   1.056
10826SOL     OW33376   6.917   3.027   2.352
10826SOL    HW133377   6.993   2.967   2.380
10826SOL    HW233378   6.836   3.005   2.406
10827SOL     OW33379   6.823   2.950   4.163
10827SOL    HW133380   6.754   2.894   4.117
10827SOL    HW233381   6.853   3.023   4.101
10828SOL     OW33382   1.186   5.560   0.735
10828SOL    HW133383   1.237   5.474   0.743
10828SOL    HW233384   1.217   5.623   0.806
10829SOL     OW33385   3.136   3.613   1.422
10829SOL    HW133386   3.199   3.535   1.423
10829SOL    HW233387   3.189   3.697   1.430
10830SOL     OW33388   4.751   2.844   4.218
10830SOL    HW133389   4.744   2.799   4.130
10830SOL    HW233390   4.843   2.882   4.230
10831SOL     OW33391   5.411   1.444   2.954
10831SOL    HW133392   5.424   1.382   2.877
10831SOL    HW233393   5.452   1.533   2.933
10832SOL     OW33394   0.625   1.901   0.523
10832SOL    HW133395   0.571   1.818   0.512
10832SOL    HW233396   0.626   1.952   0.437
10833SOL     OW33397   3.237   0.215   4.391
10833SOL    HW133398   3.269   0.125   4.419
10833SOL    HW233399   3.177   0.252   4.462
10834SOL     OW33400   0.803   1.890   4.597
10834SOL    HW133401   0.720   1.935   4.628
10834SOL    HW233402   0.835   1.933   4.512
10835SOL     OW33403   6.209   1.549   1.985
10835SOL    HW133404   6.116   1.586   1.993
10835SOL    HW233405   6.204   1.449   1.977
10836SOL     OW33406   1.942   2.274   6.691
10836SOL    HW133407   1.887   2.273   6.774
10836SOL    HW233408   1.915   2.351   6.634
10837SOL     OW33409   0.010   4.768   0.926
10837SOL    HW133410   6.997   4.675   0.936
10837SOL    HW233411   0.092   4.777   0.983
10838SOL     OW33412   5.800   6.725   6.686
10838SOL    HW133413   5.783   6.637   6.729
10838SOL    HW233414   5.891   6.759   6.712
10839SOL     OW33415   1.613   2.218   0.103
10839SOL    HW133416   1.680   2.289   0.128
10839SOL    HW233417   1.661   2.132   0.088
10840SOL     OW33418   4.363   5.671   1.585
10840SOL    HW133419   4.402   5.593   1.536
10840SOL    HW233420   4.295   5.638   1.651
10841SOL     OW33421   3.625   4.803   6.374
10841SOL    HW133422   3.661   4.843   6.290
10841SOL    HW233423   3.688   4.733   6.407
10842SOL     OW33424   6.333   2.790   1.746
10842SOL    HW133425   6.291   2.880   1.737
10842SOL    HW233426   6.368   2.760   1.657
10843SOL     OW33427   0.585   1.712   1.949
10843SOL    HW133428   0.642   1.690   1.870
10843SOL    HW233429   0.494   1.738   1.918
10844SOL     OW33430   4.785   0.179   4.019
10844SOL    HW133431   4.807   0.095   3.968
10844SOL    HW233432   4.730   0.239   3.961
10845SOL     OW33433   1.462   1.957   1.085
10845SOL    HW133434   1.536   2.023   1.072
10845SOL    HW233435   1.389   1.998   1.139
10846SOL     OW33436   3.792   1.843   1.307
10846SOL    HW133437   3.845   1.759   1.310
10846SOL    HW233438   3.842   1.916   1.353
10847SOL     OW33439   4.071   2.587   6.442
10847SOL    HW133440   4.085   2.680   6.408
10847SOL    HW233441   4.074   2.522   6.366
10848SOL     OW33442   1.120   0.566   6.386
10848SOL    HW133443   1.194   0.629   6.362
10848SOL    HW233444   1.063   0.606   6.457
10849SOL     OW33445   2.941   4.851   4.392
10849SOL    HW133446   2.884   4.930   4.410
10849SOL    HW233447   2.933   4.785   4.467
10850SOL     OW33448   5.207   6.682   0.751
10850SOL    HW133449   5.168   6.740   0.680
10850SOL    HW233450   5.307   6.678   0.739
10851SOL     OW33451   3.846   1.831   6.324
10851SOL    HW133452   3.790   1.911   6.301
10851SOL    HW233453   3.792   1.767   6.379
10852SOL     OW33454   0.665   0.409   6.187
10852SOL    HW133455   0.574   0.366   6.190
10852SOL    HW233456   0.733   0.345   6.222
10853SOL     OW33457   2.209   1.642   4.575
10853SOL    HW133458   2.227   1.740   4.587
10853SOL    HW233459   2.110   1.627   4.578
10854SOL     OW33460   6.828   6.296   6.817
10854SOL    HW133461   6.829   6.396   6.829
10854SOL    HW233462   6.883   6.254   6.889
10855SOL     OW33463   1.229   6.080   1.477
10855SOL    HW133464   1.215   6.081   1.576
10855SOL    HW233465   1.290   6.154   1.450
10856SOL     OW33466   6.471   6.818   6.786
10856SOL    HW133467   6.487   6.722   6.812
10856SOL    HW233468   6.509   6.835   6.696
10857SOL     OW33469   5.941   1.776   3.901
10857SOL    HW133470   6.016   1.710   3.906
10857SOL    HW233471   5.918   1.794   3.806
10858SOL     OW33472   2.253   2.648   6.976
10858SOL    HW133473   2.260   2.615   6.881
10858SOL    HW233474   2.335   2.621   0.002
10859SOL     OW33475   0.708   4.331   2.379
10859SOL    HW133476   0.611   4.319   2.398
10859SOL    HW233477   0.735   4.271   2.305
10860SOL     OW33478   6.267   2.099   0.266
10860SOL    HW133479   6.327   2.145   0.201
10860SOL    HW233480   6.183   2.152   0.276
10861SOL     OW33481   3.388   2.909   2.128
10861SOL    HW133482   3.427   2.863   2.208
10861SOL    HW233483   3.424   2.866   2.045
10862SOL     OW33484   3.693   3.130   5.627
10862SOL    HW133485   3.633   3.121   5.547
10862SOL    HW233486   3.713   3.039   5.663
10863SOL     OW33487   2.223   1.654   2.764
10863SOL    HW133488   2.315   1.667   2.798
10863SOL    HW233489   2.218   1.684   2.668
10864SOL     OW33490   2.911   4.830   2.062
10864SOL    HW133491   2.872   4.748   2.021
10864SOL    HW233492   2.912   4.821   2.162
10865SOL     OW33493   3.877   1.555   3.392
10865SOL    HW133494   3.781   1.553   3.418
10865SOL    HW233495   3.907   1.463   3.366
10866SOL     OW33496   6.972   3.600   3.149
10866SOL    HW133497   6.902   3.532   3.126
10866SOL    HW233498   6.992   3.595   3.246
10867SOL     OW33499   4.084   3.157   0.421
10867SOL    HW133500   4.181   3.134   0.435
10867SOL    HW233501   4.041   3.174   0.509
10868SOL     OW33502   1.149   1.610   4.237
10868SOL    HW133503   1.179   1.556   4.315
10868SOL    HW233504   1.190   1.573   4.153
10869NA      NA33505   0.134   2.361   5.718
10870NA      NA33506   4.249   4.642   5.262
10871NA      NA33507   1.009   4.733   2.838
10872NA      NA33508   5.697   4.320   3.323
10873NA      NA33509   4.420   2.295   5.094
10874NA      NA33510   2.522   5.090   0.608
10875NA      NA33511   1.179   5.327   6.840
10876NA      NA33512   3.450   4.510   1.271
10877NA      NA33513   4.294   5.275   0.858
10878NA      NA33514   3.295   0.871   6.313
10879NA      NA33515   5.460   6.141   2.149
10880NA      NA33516   1.675   6.665   5.422
10881NA      NA33517   4.250   5.118   1.810
10882NA      NA33518   3.417   3.227   6.739
   7.02371   7.02371   7.02371
