Generated by trjconv : CNT in water t= 502.00000
33518
    1C        C    1   2.842   2.770   4.746
    1C        C    2   2.895   2.720   4.867
    1C        C    3   2.844   2.774   4.986
    1C        C    4   2.851   2.776   4.259
    1C        C    5   2.904   2.731   4.382
    1C        C    6   2.847   2.773   4.504
    1C        C    7   3.015   2.642   4.624
    1C        C    8   2.899   2.723   4.625
    1C        C    9   3.076   2.609   4.747
    1C        C   10   3.009   2.636   4.869
    1C        C   11   3.175   2.486   4.973
    1C        C   12   3.060   2.566   4.979
    1C        C   13   2.852   2.772   3.771
    1C        C   14   2.905   2.724   3.894
    1C        C   15   2.851   2.773   4.015
    1C        C   16   3.021   2.647   4.139
    1C        C   17   2.907   2.731   4.137
    1C        C   18   3.082   2.614   4.262
    1C        C   19   3.022   2.652   4.384
    1C        C   20   3.211   2.555   4.505
    1C        C   21   3.079   2.606   4.504
    1C        C   22   3.277   2.534   4.628
    1C        C   23   3.206   2.552   4.749
    1C        C   24   3.411   2.486   4.866
    1C        C   25   3.268   2.502   4.866
    1C        C   26   3.487   2.476   4.983
    1C        C   27   2.850   2.770   3.281
    1C        C   28   2.906   2.725   3.402
    1C        C   29   2.857   2.775   3.525
    1C        C   30   3.019   2.642   3.649
    1C        C   31   2.906   2.726   3.649
    1C        C   32   3.082   2.608   3.771
    1C        C   33   3.020   2.643   3.893
    1C        C   34   3.209   2.551   4.015
    1C        C   35   3.080   2.609   4.017
    1C        C   36   3.276   2.529   4.138
    1C        C   37   3.212   2.559   4.260
    1C        C   38   3.415   2.500   4.381
    1C        C   39   3.278   2.532   4.383
    1C        C   40   3.487   2.501   4.503
    1C        C   41   3.415   2.505   4.625
    1C        C   42   3.628   2.480   4.744
    1C        C   43   3.486   2.485   4.745
    1C        C   44   3.704   2.484   4.862
    1C        C   45   3.626   2.485   4.979
    1C        C   46   2.837   2.751   2.793
    1C        C   47   2.896   2.709   2.915
    1C        C   48   2.846   2.760   3.036
    1C        C   49   3.017   2.637   3.161
    1C        C   50   2.901   2.719   3.159
    1C        C   51   3.078   2.603   3.283
    1C        C   52   3.017   2.638   3.406
    1C        C   53   3.206   2.541   3.528
    1C        C   54   3.077   2.598   3.528
    1C        C   55   3.275   2.518   3.650
    1C        C   56   3.207   2.543   3.771
    1C        C   57   3.414   2.497   3.894
    1C        C   58   3.275   2.522   3.894
    1C        C   59   3.484   2.496   4.017
    1C        C   60   3.414   2.501   4.139
    1C        C   61   3.628   2.493   4.259
    1C        C   62   3.487   2.494   4.260
    1C        C   63   3.700   2.502   4.381
    1C        C   64   3.628   2.500   4.503
    1C        C   65   3.836   2.540   4.622
    1C        C   66   3.700   2.504   4.625
    1C        C   67   3.902   2.567   4.744
    1C        C   68   3.840   2.523   4.863
    1C        C   69   4.053   2.584   4.977
    1C        C   70   3.924   2.529   4.975
    1C        C   71   2.827   2.740   2.307
    1C        C   72   2.883   2.694   2.429
    1C        C   73   2.830   2.744   2.549
    1C        C   74   3.004   2.621   2.671
    1C        C   75   2.887   2.700   2.671
    1C        C   76   3.070   2.588   2.792
    1C        C   77   3.014   2.632   2.914
    1C        C   78   3.205   2.544   3.037
    1C        C   79   3.075   2.600   3.038
    1C        C   80   3.273   2.525   3.160
    1C        C   81   3.207   2.544   3.283
    1C        C   82   3.411   2.493   3.401
    1C        C   83   3.272   2.518   3.406
    1C        C   84   3.482   2.488   3.523
    1C        C   85   3.415   2.498   3.647
    1C        C   86   3.623   2.495   3.768
    1C        C   87   3.482   2.492   3.771
    1C        C   88   3.692   2.513   3.890
    1C        C   89   3.625   2.502   4.014
    1C        C   90   3.831   2.550   4.134
    1C        C   91   3.697   2.507   4.136
    1C        C   92   3.898   2.574   4.256
    1C        C   93   3.835   2.542   4.378
    1C        C   94   4.027   2.633   4.499
    1C        C   95   3.904   2.564   4.500
    1C        C   96   4.090   2.669   4.620
    1C        C   97   4.029   2.630   4.741
    1C        C   98   4.188   2.769   4.861
    1C        C   99   4.096   2.659   4.863
    1C        C  100   4.222   2.838   4.978
    1C        C  101   2.822   2.732   2.074
    1C        C  102   2.995   2.593   2.189
    1C        C  103   2.885   2.685   2.190
    1C        C  104   3.064   2.571   2.311
    1C        C  105   3.000   2.615   2.430
    1C        C  106   3.198   2.534   2.550
    1C        C  107   3.066   2.583   2.550
    1C        C  108   3.269   2.515   2.671
    1C        C  109   3.199   2.532   2.792
    1C        C  110   3.408   2.496   2.915
    1C        C  111   3.269   2.516   2.914
    1C        C  112   3.482   2.490   3.035
    1C        C  113   3.412   2.499   3.158
    1C        C  114   3.624   2.498   3.279
    1C        C  115   3.483   2.493   3.279
    1C        C  116   3.694   2.507   3.401
    1C        C  117   3.623   2.496   3.523
    1C        C  118   3.827   2.551   3.645
    1C        C  119   3.693   2.505   3.645
    1C        C  120   3.893   2.575   3.767
    1C        C  121   3.829   2.548   3.891
    1C        C  122   4.021   2.643   4.010
    1C        C  123   3.898   2.574   4.011
    1C        C  124   4.083   2.678   4.132
    1C        C  125   4.024   2.637   4.254
    1C        C  126   4.192   2.765   4.376
    1C        C  127   4.085   2.673   4.377
    1C        C  128   4.240   2.820   4.498
    1C        C  129   4.194   2.766   4.620
    1C        C  130   4.321   2.939   4.739
    1C        C  131   4.241   2.822   4.740
    1C        C  132   4.354   3.006   4.859
    1C        C  133   4.289   2.960   4.974
    1C        C  134   3.173   2.465   2.081
    1C        C  135   3.040   2.511   2.081
    1C        C  136   3.257   2.468   2.193
    1C        C  137   3.195   2.516   2.310
    1C        C  138   3.405   2.475   2.427
    1C        C  139   3.265   2.498   2.430
    1C        C  140   3.478   2.474   2.548
    1C        C  141   3.407   2.484   2.670
    1C        C  142   3.618   2.496   2.788
    1C        C  143   3.478   2.484   2.792
    1C        C  144   3.691   2.501   2.910
    1C        C  145   3.623   2.491   3.033
    1C        C  146   3.829   2.540   3.152
    1C        C  147   3.693   2.500   3.156
    1C        C  148   3.894   2.566   3.275
    1C        C  149   3.831   2.543   3.400
    1C        C  150   4.020   2.636   3.520
    1C        C  151   3.895   2.570   3.523
    1C        C  152   4.079   2.672   3.643
    1C        C  153   4.019   2.639   3.766
    1C        C  154   4.195   2.761   3.888
    1C        C  155   4.081   2.677   3.887
    1C        C  156   4.245   2.813   4.010
    1C        C  157   4.195   2.764   4.132
    1C        C  158   4.339   2.919   4.251
    1C        C  159   4.248   2.812   4.255
    1C        C  160   4.375   2.983   4.372
    1C        C  161   4.327   2.931   4.494
    1C        C  162   4.434   3.116   4.615
    1C        C  163   4.364   2.993   4.615
    1C        C  164   4.466   3.186   4.734
    1C        C  165   4.430   3.125   4.856
    1C        C  166   4.512   3.321   4.969
    1C        C  167   4.480   3.186   4.971
    1C        C  168   3.472   2.420   2.072
    1C        C  169   3.398   2.453   2.186
    1C        C  170   3.616   2.464   2.304
    1C        C  171   3.474   2.458   2.305
    1C        C  172   3.690   2.485   2.422
    1C        C  173   3.619   2.477   2.544
    1C        C  174   3.825   2.532   2.666
    1C        C  175   3.688   2.497   2.666
    1C        C  176   3.893   2.559   2.787
    1C        C  177   3.828   2.535   2.910
    1C        C  178   4.023   2.625   3.030
    1C        C  179   3.894   2.567   3.030
    1C        C  180   4.081   2.665   3.153
    1C        C  181   4.019   2.631   3.276
    1C        C  182   4.193   2.756   3.398
    1C        C  183   4.080   2.671   3.397
    1C        C  184   4.241   2.805   3.521
    1C        C  185   4.192   2.757   3.644
    1C        C  186   4.336   2.916   3.761
    1C        C  187   4.247   2.807   3.765
    1C        C  188   4.375   2.976   3.883
    1C        C  189   4.333   2.923   4.007
    1C        C  190   4.443   3.105   4.128
    1C        C  191   4.377   2.980   4.129
    1C        C  192   4.467   3.173   4.249
    1C        C  193   4.437   3.110   4.372
    1C        C  194   4.513   3.311   4.489
    1C        C  195   4.463   3.179   4.492
    1C        C  196   4.530   3.386   4.608
    1C        C  197   4.515   3.320   4.732
    1C        C  198   4.556   3.534   4.848
    1C        C  199   4.540   3.392   4.852
    1C        C  200   4.582   3.620   4.959
    1C        C  201   3.612   2.409   2.071
    1C        C  202   3.824   2.504   2.178
    1C        C  203   3.690   2.453   2.183
    1C        C  204   3.893   2.536   2.298
    1C        C  205   3.827   2.518   2.421
    1C        C  206   4.016   2.618   2.540
    1C        C  207   3.891   2.553   2.542
    1C        C  208   4.073   2.660   2.662
    1C        C  209   4.014   2.631   2.788
    1C        C  210   4.193   2.750   2.904
    1C        C  211   4.082   2.663   2.908
    1C        C  212   4.245   2.798   3.026
    1C        C  213   4.191   2.753   3.149
    1C        C  214   4.329   2.910   3.269
    1C        C  215   4.241   2.800   3.272
    1C        C  216   4.363   2.973   3.391
    1C        C  217   4.327   2.918   3.516
    1C        C  218   4.430   3.103   3.636
    1C        C  219   4.370   2.975   3.637
    1C        C  220   4.458   3.168   3.758
    1C        C  221   4.436   3.103   3.882
    1C        C  222   4.504   3.304   4.004
    1C        C  223   4.466   3.168   4.004
    1C        C  224   4.518   3.378   4.123
    1C        C  225   4.503   3.310   4.246
    1C        C  226   4.520   3.523   4.367
    1C        C  227   4.516   3.382   4.367
    1C        C  228   4.517   3.597   4.487
    1C        C  229   4.532   3.527   4.609
    1C        C  230   4.507   3.743   4.726
    1C        C  231   4.543   3.605   4.726
    1C        C  232   4.497   3.818   4.846
    1C        C  233   4.544   3.755   4.962
    1C        C  234   4.013   2.608   2.061
    1C        C  235   3.890   2.543   2.061
    1C        C  236   4.081   2.645   2.177
    1C        C  237   4.017   2.607   2.297
    1C        C  238   4.191   2.736   2.420
    1C        C  239   4.078   2.650   2.417
    1C        C  240   4.245   2.786   2.541
    1C        C  241   4.186   2.744   2.662
    1C        C  242   4.332   2.906   2.781
    1C        C  243   4.245   2.795   2.781
    1C        C  244   4.374   2.963   2.904
    1C        C  245   4.336   2.906   3.028
    1C        C  246   4.439   3.095   3.149
    1C        C  247   4.371   2.970   3.149
    1C        C  248   4.462   3.161   3.271
    1C        C  249   4.429   3.098   3.393
    1C        C  250   4.503   3.301   3.512
    1C        C  251   4.459   3.166   3.513
    1C        C  252   4.511   3.370   3.635
    1C        C  253   4.498   3.304   3.760
    1C        C  254   4.522   3.515   3.880
    1C        C  255   4.515   3.374   3.881
    1C        C  256   4.517   3.589   4.000
    1C        C  257   4.522   3.519   4.123
    1C        C  258   4.493   3.731   4.240
    1C        C  259   4.520   3.592   4.244
    1C        C  260   4.474   3.803   4.360
    1C        C  261   4.493   3.736   4.483
    1C        C  262   4.432   3.941   4.602
    1C        C  263   4.479   3.808   4.604
    1C        C  264   4.402   4.008   4.723
    1C        C  265   4.438   3.946   4.844
    1C        C  266   4.317   4.126   4.959
    1C        C  267   4.401   4.015   4.960
    1C        C  268   4.255   2.778   2.062
    1C        C  269   4.191   2.734   2.179
    1C        C  270   4.338   2.891   2.299
    1C        C  271   4.248   2.781   2.299
    1C        C  272   4.378   2.956   2.418
    1C        C  273   4.335   2.894   2.538
    1C        C  274   4.444   3.082   2.659
    1C        C  275   4.376   2.958   2.657
    1C        C  276   4.470   3.151   2.779
    1C        C  277   4.442   3.086   2.902
    1C        C  278   4.501   3.290   3.024
    1C        C  279   4.470   3.153   3.024
    1C        C  280   4.513   3.364   3.144
    1C        C  281   4.502   3.297   3.268
    1C        C  282   4.522   3.509   3.389
    1C        C  283   4.514   3.368   3.389
    1C        C  284   4.516   3.580   3.511
    1C        C  285   4.516   3.511   3.634
    1C        C  286   4.496   3.723   3.751
    1C        C  287   4.517   3.583   3.756
    1C        C  288   4.473   3.793   3.872
    1C        C  289   4.486   3.727   3.996
    1C        C  290   4.428   3.931   4.114
    1C        C  291   4.476   3.798   4.117
    1C        C  292   4.397   3.997   4.235
    1C        C  293   4.423   3.934   4.359
    1C        C  294   4.329   4.126   4.478
    1C        C  295   4.402   4.005   4.480
    1C        C  296   4.287   4.187   4.598
    1C        C  297   4.325   4.128   4.720
    1C        C  298   4.195   4.305   4.838
    1C        C  299   4.279   4.190   4.840
    1C        C  300   4.165   4.394   4.946
    1C        C  301   4.345   2.884   2.063
    1C        C  302   4.469   3.067   2.173
    1C        C  303   4.390   2.947   2.179
    1C        C  304   4.484   3.140   2.294
    1C        C  305   4.446   3.079   2.416
    1C        C  306   4.510   3.283   2.536
    1C        C  307   4.472   3.147   2.537
    1C        C  308   4.518   3.356   2.657
    1C        C  309   4.502   3.288   2.780
    1C        C  310   4.524   3.501   2.901
    1C        C  311   4.513   3.360   2.902
    1C        C  312   4.521   3.576   3.021
    1C        C  313   4.520   3.505   3.143
    1C        C  314   4.493   3.716   3.266
    1C        C  315   4.518   3.577   3.265
    1C        C  316   4.476   3.787   3.387
    1C        C  317   4.493   3.720   3.510
    1C        C  318   4.431   3.926   3.627
    1C        C  319   4.477   3.793   3.630
    1C        C  320   4.392   3.988   3.748
    1C        C  321   4.421   3.924   3.871
    1C        C  322   4.313   4.109   3.990
    1C        C  323   4.393   3.992   3.991
    1C        C  324   4.272   4.168   4.112
    1C        C  325   4.323   4.117   4.233
    1C        C  326   4.186   4.280   4.352
    1C        C  327   4.285   4.180   4.355
    1C        C  328   4.135   4.335   4.472
    1C        C  329   4.190   4.289   4.593
    1C        C  330   4.021   4.424   4.710
    1C        C  331   4.137   4.342   4.713
    1C        C  332   3.964   4.476   4.828
    1C        C  333   4.048   4.471   4.940
    1C        C  334   4.545   3.267   2.060
    1C        C  335   4.531   3.128   2.060
    1C        C  336   4.535   3.348   2.174
    1C        C  337   4.517   3.278   2.296
    1C        C  338   4.532   3.495   2.412
    1C        C  339   4.526   3.354   2.415
    1C        C  340   4.520   3.568   2.533
    1C        C  341   4.520   3.497   2.655
    1C        C  342   4.493   3.707   2.775
    1C        C  343   4.517   3.568   2.777
    1C        C  344   4.478   3.779   2.896
    1C        C  345   4.497   3.715   3.020
    1C        C  346   4.427   3.914   3.138
    1C        C  347   4.481   3.784   3.143
    1C        C  348   4.397   3.981   3.259
    1C        C  349   4.426   3.919   3.382
    1C        C  350   4.321   4.104   3.499
    1C        C  351   4.399   3.987   3.503
    1C        C  352   4.272   4.160   3.620
    1C        C  353   4.316   4.107   3.743
    1C        C  354   4.171   4.260   3.867
    1C        C  355   4.267   4.156   3.866
    1C        C  356   4.118   4.312   3.987
    1C        C  357   4.172   4.267   4.109
    1C        C  358   4.004   4.395   4.228
    1C        C  359   4.121   4.316   4.232
    1C        C  360   3.945   4.435   4.349
    1C        C  361   4.014   4.408   4.470
    1C        C  362   3.824   4.508   4.590
    1C        C  363   3.953   4.450   4.590
    1C        C  364   3.757   4.537   4.711
    1C        C  365   3.834   4.531   4.830
    1C        C  366   3.627   4.590   4.949
    1C        C  367   3.764   4.564   4.946
    1C        C  368   4.514   3.564   2.053
    1C        C  369   4.524   3.488   2.171
    1C        C  370   4.505   3.704   2.288
    1C        C  371   4.528   3.565   2.289
    1C        C  372   4.486   3.776   2.408
    1C        C  373   4.498   3.708   2.531
    1C        C  374   4.422   3.907   2.649
    1C        C  375   4.474   3.775   2.652
    1C        C  376   4.395   3.973   2.771
    1C        C  377   4.421   3.908   2.894
    1C        C  378   4.320   4.096   3.010
    1C        C  379   4.393   3.975   3.015
    1C        C  380   4.273   4.151   3.131
    1C        C  381   4.319   4.099   3.254
    1C        C  382   4.170   4.251   3.376
    1C        C  383   4.277   4.158   3.376
    1C        C  384   4.113   4.298   3.496
    1C        C  385   4.168   4.255   3.619
    1C        C  386   4.000   4.380   3.741
    1C        C  387   4.117   4.301   3.743
    1C        C  388   3.939   4.421   3.862
    1C        C  389   4.002   4.393   3.986
    1C        C  390   3.810   4.485   4.108
    1C        C  391   3.940   4.431   4.107
    1C        C  392   3.745   4.514   4.230
    1C        C  393   3.819   4.499   4.349
    1C        C  394   3.614   4.552   4.473
    1C        C  395   3.753   4.530   4.470
    1C        C  396   3.542   4.559   4.594
    1C        C  397   3.618   4.562   4.713
    1C        C  398   3.409   4.558   4.837
    1C        C  399   3.548   4.579   4.834
    1C        C  400   3.343   4.520   4.955
    1C        C  401   4.501   3.702   2.052
    1C        C  402   4.456   3.915   2.165
    1C        C  403   4.493   3.779   2.169
    1C        C  404   4.415   3.977   2.286
    1C        C  405   4.436   3.908   2.407
    1C        C  406   4.325   4.094   2.525
    1C        C  407   4.396   3.972   2.527
    1C        C  408   4.280   4.153   2.645
    1C        C  409   4.324   4.095   2.767
    1C        C  410   4.175   4.247   2.888
    1C        C  411   4.281   4.155   2.888
    1C        C  412   4.116   4.290   3.009
    1C        C  413   4.170   4.248   3.133
    1C        C  414   3.995   4.370   3.253
    1C        C  415   4.114   4.295   3.254
    1C        C  416   3.936   4.411   3.375
    1C        C  417   3.997   4.379   3.498
    1C        C  418   3.808   4.475   3.619
    1C        C  419   3.936   4.416   3.620
    1C        C  420   3.741   4.497   3.741
    1C        C  421   3.811   4.479   3.863
    1C        C  422   3.606   4.538   3.985
    1C        C  423   3.744   4.508   3.985
    1C        C  424   3.536   4.548   4.108
    1C        C  425   3.606   4.543   4.230
    1C        C  426   3.398   4.559   4.355
    1C        C  427   3.539   4.558   4.353
    1C        C  428   3.326   4.553   4.476
    1C        C  429   3.401   4.556   4.596
    1C        C  430   3.192   4.525   4.721
    1C        C  431   3.332   4.549   4.720
    1C        C  432   3.123   4.497   4.842
    1C        C  433   3.205   4.499   4.956
    1C        C  434   4.388   4.125   2.056
    1C        C  435   4.443   3.996   2.051
    1C        C  436   4.300   4.160   2.164
    1C        C  437   4.331   4.092   2.285
    1C        C  438   4.181   4.249   2.402
    1C        C  439   4.281   4.150   2.403
    1C        C  440   4.119   4.293   2.522
    1C        C  441   4.178   4.250   2.643
    1C        C  442   4.002   4.369   2.764
    1C        C  443   4.121   4.293   2.765
    1C        C  444   3.940   4.408   2.885
    1C        C  445   3.998   4.368   3.007
    1C        C  446   3.808   4.465   3.128
    1C        C  447   3.936   4.404   3.129
    1C        C  448   3.741   4.485   3.250
    1C        C  449   3.806   4.466   3.374
    1C        C  450   3.605   4.531   3.493
    1C        C  451   3.742   4.496   3.496
    1C        C  452   3.536   4.545   3.616
    1C        C  453   3.605   4.535   3.739
    1C        C  454   3.396   4.548   3.862
    1C        C  455   3.537   4.546   3.862
    1C        C  456   3.327   4.544   3.985
    1C        C  457   3.395   4.546   4.109
    1C        C  458   3.190   4.511   4.235
    1C        C  459   3.327   4.545   4.233
    1C        C  460   3.124   4.489   4.358
    1C        C  461   3.190   4.516   4.480
    1C        C  462   2.992   4.440   4.602
    1C        C  463   3.120   4.502   4.602
    1C        C  464   2.929   4.405   4.723
    1C        C  465   2.990   4.444   4.845
    1C        C  466   2.800   4.334   4.960
    1C        C  467   2.907   4.425   4.959
    1C        C  468   4.126   4.284   2.039
    1C        C  469   4.185   4.244   2.160
    1C        C  470   4.007   4.372   2.276
    1C        C  471   4.126   4.294   2.279
    1C        C  472   3.940   4.402   2.397
    1C        C  473   4.001   4.370   2.520
    1C        C  474   3.811   4.464   2.638
    1C        C  475   3.939   4.403   2.642
    1C        C  476   3.745   4.491   2.760
    1C        C  477   3.811   4.467   2.883
    1C        C  478   3.604   4.517   3.005
    1C        C  479   3.742   4.486   3.005
    1C        C  480   3.535   4.527   3.128
    1C        C  481   3.603   4.518   3.251
    1C        C  482   3.392   4.540   3.373
    1C        C  483   3.534   4.540   3.372
    1C        C  484   3.323   4.538   3.496
    1C        C  485   3.395   4.551   3.617
    1C        C  486   3.189   4.505   3.743
    1C        C  487   3.326   4.540   3.739
    1C        C  488   3.125   4.485   3.867
    1C        C  489   3.190   4.510   3.990
    1C        C  490   3.002   4.416   4.115
    1C        C  491   3.124   4.487   4.112
    1C        C  492   2.941   4.384   4.238
    1C        C  493   2.997   4.428   4.361
    1C        C  494   2.826   4.302   4.482
    1C        C  495   2.932   4.396   4.482
    1C        C  496   2.776   4.255   4.605
    1C        C  497   2.818   4.316   4.725
    1C        C  498   2.664   4.164   4.841
    1C        C  499   2.753   4.274   4.843
    1C        C  500   2.602   4.113   4.956
    1C        C  501   4.001   4.346   2.039
    1C        C  502   3.813   4.458   2.154
    1C        C  503   3.941   4.397   2.154
    1C        C  504   3.741   4.474   2.274
    1C        C  505   3.808   4.453   2.397
    1C        C  506   3.603   4.515   2.517
    1C        C  507   3.740   4.478   2.517
    1C        C  508   3.534   4.523   2.640
    1C        C  509   3.606   4.514   2.761
    1C        C  510   3.393   4.526   2.884
    1C        C  511   3.535   4.525   2.883
    1C        C  512   3.322   4.520   3.005
    1C        C  513   3.393   4.529   3.127
    1C        C  514   3.185   4.504   3.253
    1C        C  515   3.324   4.532   3.250
    1C        C  516   3.118   4.481   3.375
    1C        C  517   3.185   4.507   3.497
    1C        C  518   2.999   4.411   3.624
    1C        C  519   3.122   4.482   3.621
    1C        C  520   2.944   4.372   3.748
    1C        C  521   3.000   4.418   3.869
    1C        C  522   2.842   4.281   3.994
    1C        C  523   2.942   4.380   3.992
    1C        C  524   2.792   4.233   4.117
    1C        C  525   2.834   4.292   4.239
    1C        C  526   2.694   4.133   4.364
    1C        C  527   2.780   4.245   4.361
    1C        C  528   2.654   4.074   4.485
    1C        C  529   2.691   4.142   4.604
    1C        C  530   2.582   3.959   4.728
    1C        C  531   2.640   4.088   4.724
    1C        C  532   2.540   3.900   4.851
    1C        C  533   2.529   3.994   4.958
    1C        C  534   3.616   4.550   2.037
    1C        C  535   3.749   4.505   2.038
    1C        C  536   3.535   4.537   2.154
    1C        C  537   3.603   4.508   2.275
    1C        C  538   3.391   4.523   2.400
    1C        C  539   3.532   4.526   2.395
    1C        C  540   3.321   4.517   2.522
    1C        C  541   3.393   4.521   2.643
    1C        C  542   3.181   4.489   2.763
    1C        C  543   3.319   4.520   2.764
    1C        C  544   3.115   4.469   2.886
    1C        C  545   3.183   4.493   3.008
    1C        C  546   2.996   4.404   3.135
    1C        C  547   3.118   4.474   3.132
    1C        C  548   2.940   4.361   3.257
    1C        C  549   2.999   4.406   3.378
    1C        C  550   2.833   4.279   3.505
    1C        C  551   2.942   4.369   3.502
    1C        C  552   2.784   4.229   3.628
    1C        C  553   2.838   4.279   3.749
    1C        C  554   2.708   4.115   3.875
    1C        C  555   2.795   4.226   3.873
    1C        C  556   2.664   4.061   3.998
    1C        C  557   2.702   4.124   4.118
    1C        C  558   2.599   3.944   4.243
    1C        C  559   2.656   4.073   4.242
    1C        C  560   2.572   3.878   4.365
    1C        C  561   2.592   3.948   4.486
    1C        C  562   2.528   3.748   4.614
    1C        C  563   2.562   3.885   4.609
    1C        C  564   2.516   3.680   4.737
    1C        C  565   2.523   3.758   4.856
    1C        C  566   2.527   3.545   4.975
    1C        C  567   2.526   3.685   4.975
    1C        C  568   3.323   4.479   2.043
    1C        C  569   3.394   4.516   2.158
    1C        C  570   3.181   4.478   2.278
    1C        C  571   3.319   4.513   2.279
    1C        C  572   3.114   4.458   2.401
    1C        C  573   3.183   4.484   2.521
    1C        C  574   2.986   4.405   2.647
    1C        C  575   3.112   4.467   2.642
    1C        C  576   2.932   4.358   2.769
    1C        C  577   2.992   4.399   2.889
    1C        C  578   2.832   4.266   3.014
    1C        C  579   2.937   4.361   3.014
    1C        C  580   2.783   4.220   3.138
    1C        C  581   2.832   4.271   3.261
    1C        C  582   2.701   4.109   3.385
    1C        C  583   2.785   4.223   3.385
    1C        C  584   2.664   4.052   3.509
    1C        C  585   2.700   4.116   3.629
    1C        C  586   2.602   3.931   3.756
    1C        C  587   2.666   4.057   3.753
    1C        C  588   2.579   3.865   3.879
    1C        C  589   2.604   3.933   4.001
    1C        C  590   2.537   3.735   4.126
    1C        C  591   2.575   3.871   4.124
    1C        C  592   2.522   3.669   4.250
    1C        C  593   2.529   3.743   4.370
    1C        C  594   2.513   3.534   4.496
    1C        C  595   2.515   3.675   4.493
    1C        C  596   2.517   3.462   4.618
    1C        C  597   2.517   3.538   4.737
    1C        C  598   2.529   3.326   4.863
    1C        C  599   2.520   3.467   4.859
    1C        C  600   2.537   3.245   4.977
    1C        C  601   3.192   4.435   2.043
    1C        C  602   2.980   4.390   2.157
    1C        C  603   3.113   4.443   2.158
    1C        C  604   2.924   4.358   2.284
    1C        C  605   2.986   4.400   2.404
    1C        C  606   2.820   4.271   2.527
    1C        C  607   2.922   4.368   2.526
    1C        C  608   2.775   4.217   2.650
    1C        C  609   2.822   4.269   2.772
    1C        C  610   2.692   4.102   2.894
    1C        C  611   2.773   4.218   2.895
    1C        C  612   2.656   4.047   3.019
    1C        C  613   2.697   4.108   3.139
    1C        C  614   2.595   3.925   3.265
    1C        C  615   2.661   4.050   3.263
    1C        C  616   2.570   3.863   3.389
    1C        C  617   2.598   3.927   3.512
    1C        C  618   2.528   3.730   3.636
    1C        C  619   2.573   3.864   3.636
    1C        C  620   2.515   3.663   3.760
    1C        C  621   2.535   3.731   3.882
    1C        C  622   2.507   3.523   4.009
    1C        C  623   2.520   3.663   4.005
    1C        C  624   2.513   3.456   4.134
    1C        C  625   2.512   3.528   4.255
    1C        C  626   2.531   3.318   4.377
    1C        C  627   2.508   3.458   4.377
    1C        C  628   2.546   3.250   4.499
    1C        C  629   2.532   3.322   4.620
    1C        C  630   2.596   3.120   4.743
    1C        C  631   2.550   3.254   4.743
    1C        C  632   2.617   3.050   4.864
    1C        C  633   2.558   3.107   4.981
    1C        C  634   2.779   4.307   2.055
    1C        C  635   2.891   4.391   2.045
    1C        C  636   2.749   4.228   2.167
    1C        C  637   2.813   4.269   2.286
    1C        C  638   2.679   4.106   2.407
    1C        C  639   2.768   4.216   2.409
    1C        C  640   2.645   4.046   2.530
    1C        C  641   2.689   4.105   2.651
    1C        C  642   2.587   3.917   2.776
    1C        C  643   2.652   4.043   2.773
    1C        C  644   2.560   3.855   2.899
    1C        C  645   2.588   3.923   3.020
    1C        C  646   2.526   3.723   3.150
    1C        C  647   2.566   3.858   3.144
    1C        C  648   2.512   3.654   3.272
    1C        C  649   2.532   3.727   3.391
    1C        C  650   2.510   3.518   3.516
    1C        C  651   2.517   3.659   3.515
    1C        C  652   2.514   3.451   3.640
    1C        C  653   2.509   3.522   3.763
    1C        C  654   2.534   3.314   3.888
    1C        C  655   2.510   3.453   3.886
    1C        C  656   2.548   3.246   4.012
    1C        C  657   2.537   3.317   4.133
    1C        C  658   2.608   3.119   4.257
    1C        C  659   2.553   3.249   4.256
    1C        C  660   2.641   3.057   4.380
    1C        C  661   2.599   3.119   4.500
    1C        C  662   2.705   2.935   4.625
    1C        C  663   2.629   3.054   4.622
    1C        C  664   2.749   2.877   4.746
    1C        C  665   2.696   2.930   4.867
    1C        C  666   2.743   2.870   4.984
    1C        C  667   2.690   4.018   2.052
    1C        C  668   2.688   4.101   2.165
    1C        C  669   2.589   3.911   2.291
    1C        C  670   2.646   4.041   2.286
    1C        C  671   2.561   3.846   2.413
    1C        C  672   2.587   3.917   2.533
    1C        C  673   2.517   3.716   2.660
    1C        C  674   2.560   3.851   2.654
    1C        C  675   2.502   3.649   2.784
    1C        C  676   2.522   3.718   2.905
    1C        C  677   2.504   3.510   3.028
    1C        C  678   2.515   3.651   3.029
    1C        C  679   2.501   3.440   3.151
    1C        C  680   2.498   3.513   3.272
    1C        C  681   2.531   3.305   3.401
    1C        C  682   2.506   3.444   3.395
    1C        C  683   2.556   3.241   3.524
    1C        C  684   2.540   3.313   3.645
    1C        C  685   2.603   3.111   3.770
    1C        C  686   2.557   3.244   3.768
    1C        C  687   2.635   3.049   3.893
    1C        C  688   2.602   3.115   4.014
    1C        C  689   2.708   2.932   4.137
    1C        C  690   2.634   3.052   4.136
    1C        C  691   2.752   2.877   4.259
    1C        C  692   2.712   2.935   4.382
    1C        C  693   2.750   2.876   4.504
    1C        C  694   2.625   3.895   2.058
    1C        C  695   2.530   3.700   2.174
    1C        C  696   2.573   3.835   2.174
    1C        C  697   2.505   3.638   2.298
    1C        C  698   2.516   3.712   2.418
    1C        C  699   2.490   3.503   2.542
    1C        C  700   2.498   3.644   2.541
    1C        C  701   2.498   3.434   2.665
    1C        C  702   2.497   3.508   2.785
    1C        C  703   2.524   3.297   2.910
    1C        C  704   2.502   3.437   2.907
    1C        C  705   2.539   3.230   3.034
    1C        C  706   2.522   3.300   3.155
    1C        C  707   2.594   3.103   3.278
    1C        C  708   2.542   3.235   3.279
    1C        C  709   2.628   3.043   3.401
    1C        C  710   2.600   3.107   3.525
    1C        C  711   2.717   2.933   3.648
    1C        C  712   2.633   3.046   3.648
    1C        C  713   2.756   2.875   3.770
    1C        C  714   2.711   2.930   3.892
    1C        C  715   2.754   2.876   4.015
    1C        C  716   2.441   3.501   2.066
    1C        C  717   2.488   3.633   2.059
    1C        C  718   2.461   3.421   2.183
    1C        C  719   2.486   3.497   2.300
    1C        C  720   2.514   3.289   2.423
    1C        C  721   2.485   3.427   2.423
    1C        C  722   2.537   3.222   2.545
    1C        C  723   2.529   3.296   2.665
    1C        C  724   2.595   3.097   2.791
    1C        C  725   2.545   3.229   2.789
    1C        C  726   2.627   3.035   2.914
    1C        C  727   2.594   3.100   3.035
    1C        C  728   2.706   2.921   3.156
    1C        C  729   2.624   3.036   3.158
    1C        C  730   2.754   2.874   3.280
    1C        C  731   2.712   2.930   3.403
    1C        C  732   2.758   2.876   3.525
    1C        C  733   2.490   3.198   2.069
    1C        C  734   2.478   3.279   2.182
    1C        C  735   2.581   3.087   2.303
    1C        C  736   2.521   3.216   2.303
    1C        C  737   2.615   3.025   2.425
    1C        C  738   2.590   3.091   2.548
    1C        C  739   2.696   2.909   2.669
    1C        C  740   2.621   3.028   2.670
    1C        C  741   2.740   2.853   2.792
    1C        C  742   2.700   2.914   2.913
    1C        C  743   2.747   2.862   3.035
    1C        C  744   2.545   3.070   2.067
    1C        C  745   2.686   2.903   2.185
    1C        C  746   2.608   3.020   2.182
    1C        C  747   2.729   2.843   2.305
    1C        C  748   2.686   2.902   2.426
    1C        C  749   2.740   2.853   2.547
    1C        C  750   2.741   2.845   2.070
    1C        C  751   3.660   2.302   1.980
    1C        O  752   3.758   2.230   2.012
    1C        O  753   3.651   2.327   1.843
    1C        C  754   4.627   3.060   1.969
    1C        O  755   4.612   3.086   1.847
    1C        O  756   4.742   2.986   1.995
    1C        C  757   4.457   4.224   1.971
    1C        O  758   4.518   4.325   2.015
    1C        O  759   4.418   4.249   1.839
    1C        C  760   3.581   4.628   1.916
    1C        O  761   3.544   4.746   1.941
    1C        O  762   3.609   4.593   1.783
    1C        C  763   2.874   4.512   1.962
    1C        O  764   2.847   4.509   1.838
    1C        O  765   2.828   4.635   2.012
    1C        C  766   2.340   3.463   1.965
    1C        O  767   2.368   3.465   1.842
    1C        O  768   2.202   3.471   1.986
    1C        C  769   4.684   3.584   5.060
    1C        O  770   4.638   3.563   5.176
    1C        O  771   4.804   3.655   5.050
    1C        C  772   4.268   4.429   5.047
    1C        O  773   4.249   4.374   5.159
    1C        O  774   4.329   4.555   5.054
    1C        C  775   4.149   2.527   5.074
    1C        O  776   4.191   2.409   5.057
    1C        O  777   4.163   2.579   5.203
    1C        C  778   2.897   4.522   5.070
    1C        O  779   2.833   4.631   5.068
    1C        O  780   2.952   4.491   5.195
    1C        C  781   2.439   3.041   5.041
    1C        O  782   2.386   2.936   4.997
    1C        O  783   2.430   3.056   5.179
    1C        C  784   2.421   3.988   5.059
    1C        O  785   2.301   4.019   5.034
    1C        O  786   2.438   3.923   5.182
    1C        C  787   2.960   2.419   1.997
    1C        O  788   2.979   2.396   1.874
    1C        O  789   2.878   2.329   2.063
    1C        C  790   3.155   2.358   5.046
    1C        O  791   3.069   2.270   5.021
    1C        O  792   3.165   2.352   5.186
    1C        H  793   4.280   3.028   5.056
    1C        H  794   4.177   2.807   5.070
    1C        H  795   4.487   3.129   5.062
    1C        H  796   4.486   3.381   5.054
    1C        H  797   4.580   3.808   5.048
    1C        H  798   4.479   4.013   5.033
    1C        H  799   4.288   4.170   5.052
    1C        H  800   4.057   4.567   4.988
    1C        H  801   3.823   4.605   5.026
    1C        H  802   3.582   4.636   5.034
    1C        H  803   3.395   4.447   5.014
    1C        H  804   3.169   4.476   5.054
    1C        H  805   3.893   2.477   5.063
    1C        H  806   3.674   2.479   5.074
    1C        H  807   3.051   2.613   5.074
    1C        H  808   3.449   2.411   5.059
    1C        H  809   2.881   2.742   5.081
    1C        H  810   2.719   2.912   5.079
    1C        H  811   2.553   3.291   5.072
    1C        H  812   2.490   3.498   5.063
    1C        H  813   2.497   3.726   5.069
    1C        H  814   2.597   4.178   5.041
    1C        H  815   2.780   4.289   5.055
    1C        H  816   2.687   2.864   1.979
    1C        H  817   2.814   2.663   1.992
    1C        H  818   3.217   2.464   1.984
    1C        H  819   3.420   2.406   1.980
    1C        H  820   3.849   2.522   1.965
    1C        H  821   4.039   2.661   1.971
    1C        H  822   4.282   2.705   1.988
    1C        H  823   4.370   2.930   1.969
    1C        H  824   4.600   3.305   1.977
    1C        H  825   4.557   3.530   1.961
    1C        H  826   4.534   3.753   1.963
    1C        H  827   3.813   4.553   1.968
    1C        H  828   3.943   4.334   1.950
    1C        H  829   4.190   4.295   1.955
    1C        H  830   4.499   3.966   1.965
    1C        H  831   2.628   3.837   1.968
    1C        H  832   2.752   4.035   1.966
    1C        H  833   2.693   4.336   1.998
    1C        H  834   3.376   4.465   1.951
    1C        H  835   3.152   4.388   1.955
    1C        H  836   2.523   3.007   1.983
    1C        H  837   2.412   3.209   1.996
    1C        H  838   2.543   3.656   1.970
    2V3OU   H29  839   2.801   3.549   5.514
    2V3OU   C27  840   2.777   3.502   5.613
    2V3OU   H27  841   2.732   3.572   5.688
    2V3OU   H28  842   2.721   3.407   5.591
    2V3OU   O11  843   2.904   3.468   5.669
    2V3OU   C15  844   2.921   3.393   5.783
    2V3OU   C13  845   3.052   3.371   5.829
    2V3OU   C14  846   3.075   3.268   5.921
    2V3OU   C16  847   2.970   3.187   5.965
    2V3OU    H6  848   2.989   3.099   6.028
    2V3OU   C12  849   3.212   3.226   5.956
    2V3OU    O2  850   3.238   3.127   6.028
    2V3OU   C10  851   3.325   3.303   5.903
    2V3OU    C8  852   3.459   3.270   5.923
    2V3OU   O10  853   3.492   3.151   5.980
    2V3OU   H26  854   3.408   3.109   6.003
    2V3OU    C6  855   3.565   3.348   5.868
    2V3OU    C5  856   3.537   3.463   5.795
    2V3OU    C4  857   3.701   3.288   5.866
    2V3OU    H4  858   3.719   3.221   5.956
    2V3OU    H5  859   3.704   3.219   5.777
    2V3OU    C2  860   3.812   3.393   5.858
    2V3OU    O6  861   3.805   3.473   5.976
    2V3OU   H21  862   3.760   3.556   5.953
    2V3OU    C3  863   3.780   3.493   5.746
    2V3OU    H2  864   3.866   3.564   5.735
    2V3OU    H3  865   3.773   3.436   5.650
    2V3OU   C25  866   3.949   3.324   5.854
    2V3OU    O7  867   4.004   3.288   5.750
    2V3OU   C26  868   4.027   3.289   5.979
    2V3OU   H22  869   4.068   3.383   6.025
    2V3OU   H23  870   4.110   3.219   5.952
    2V3OU    O8  871   3.963   3.206   6.073
    2V3OU   H24  872   3.925   3.260   6.145
    2V3OU    C1  873   3.646   3.562   5.768
    2V3OU    H1  874   3.622   3.619   5.674
    2V3OU    O3  875   3.660   3.653   5.877
    2V3OU   C19  876   3.618   3.789   5.856
    2V3OU    H9  877   3.519   3.794   5.803
    2V3OU    O4  878   3.714   3.851   5.773
    2V3OU   C20  879   3.847   3.873   5.821
    2V3OU   H10  880   3.897   3.774   5.840
    2V3OU   C24  881   3.611   3.856   5.993
    2V3OU   H16  882   3.532   3.801   6.050
    2V3OU   H17  883   3.568   3.957   5.970
    2V3OU   C23  884   3.753   3.873   6.048
    2V3OU   H15  885   3.798   3.769   6.052
    2V3OU    N1  886   3.735   3.951   6.169
    2V3OU   H19  887   3.803   3.926   6.238
    2V3OU   H20  888   3.642   3.938   6.203
    2V3OU   C21  889   3.845   3.954   5.951
    2V3OU   H11  890   3.950   3.933   5.988
    2V3OU    O5  891   3.821   4.094   5.951
    2V3OU   H18  892   3.778   4.100   6.038
    2V3OU   C22  893   3.917   3.944   5.706
    2V3OU   H12  894   3.869   4.044   5.690
    2V3OU   H13  895   3.904   3.885   5.612
    2V3OU   H14  896   4.023   3.965   5.734
    2V3OU   C11  897   3.160   3.468   5.804
    2V3OU    O1  898   3.138   3.588   5.778
    2V3OU    C9  899   3.298   3.417   5.822
    2V3OU    C7  900   3.400   3.498   5.774
    2V3OU    O9  901   3.379   3.618   5.708
    2V3OU   H25  902   3.283   3.629   5.712
    2V3OU   C17  903   2.819   3.308   5.832
    2V3OU    H7  904   2.716   3.341   5.825
    2V3OU   C18  905   2.839   3.203   5.922
    2V3OU    H8  906   2.752   3.151   5.965
    3SOL     OW  907   4.018   3.077   3.890
    3SOL    HW1  908   3.980   3.041   3.805
    3SOL    HW2  909   4.081   3.152   3.869
    4SOL     OW  910   6.746   6.234   0.748
    4SOL    HW1  911   6.657   6.190   0.760
    4SOL    HW2  912   6.768   6.240   0.651
    5SOL     OW  913   5.230   2.076   1.022
    5SOL    HW1  914   5.276   2.073   1.111
    5SOL    HW2  915   5.166   1.999   1.016
    6SOL     OW  916   4.368   1.058   2.696
    6SOL    HW1  917   4.444   1.084   2.637
    6SOL    HW2  918   4.290   1.031   2.640
    7SOL     OW  919   2.248   4.012   4.271
    7SOL    HW1  920   2.242   3.914   4.249
    7SOL    HW2  921   2.204   4.029   4.360
    8SOL     OW  922   1.268   2.735   5.184
    8SOL    HW1  923   1.211   2.664   5.227
    8SOL    HW2  924   1.320   2.695   5.109
    9SOL     OW  925   0.045   1.061   6.383
    9SOL    HW1  926   0.129   1.033   6.431
    9SOL    HW2  927   6.998   0.989   6.391
   10SOL     OW  928   5.316   5.025   1.542
   10SOL    HW1  929   5.411   5.022   1.573
   10SOL    HW2  930   5.259   4.971   1.604
   11SOL     OW  931   2.547   2.217   1.174
   11SOL    HW1  932   2.505   2.192   1.086
   11SOL    HW2  933   2.477   2.253   1.235
   12SOL     OW  934   4.776   4.758   2.716
   12SOL    HW1  935   4.791   4.852   2.747
   12SOL    HW2  936   4.804   4.695   2.788
   13SOL     OW  937   5.817   5.950   1.111
   13SOL    HW1  938   5.841   5.902   1.027
   13SOL    HW2  939   5.781   5.885   1.178
   14SOL     OW  940   4.117   6.864   7.014
   14SOL    HW1  941   4.082   6.928   0.061
   14SOL    HW2  942   4.156   6.915   6.937
   15SOL     OW  943   1.460   6.142   6.351
   15SOL    HW1  944   1.447   6.198   6.270
   15SOL    HW2  945   1.533   6.181   6.407
   16SOL     OW  946   1.955   4.810   5.051
   16SOL    HW1  947   1.866   4.776   5.021
   16SOL    HW2  948   1.951   4.834   5.148
   17SOL     OW  949   6.321   1.056   4.946
   17SOL    HW1  950   6.317   0.978   4.883
   17SOL    HW2  951   6.304   1.024   5.039
   18SOL     OW  952   2.567   1.413   5.830
   18SOL    HW1  953   2.654   1.375   5.801
   18SOL    HW2  954   2.577   1.454   5.920
   19SOL     OW  955   3.289   6.536   3.268
   19SOL    HW1  956   3.204   6.497   3.234
   19SOL    HW2  957   3.363   6.516   3.203
   20SOL     OW  958   5.887   1.222   5.536
   20SOL    HW1  959   5.789   1.225   5.551
   20SOL    HW2  960   5.907   1.222   5.438
   21SOL     OW  961   2.108   3.857   2.790
   21SOL    HW1  962   2.115   3.912   2.707
   21SOL    HW2  963   2.136   3.763   2.770
   22SOL     OW  964   0.901   0.953   0.269
   22SOL    HW1  965   0.918   0.981   0.364
   22SOL    HW2  966   0.885   0.854   0.266
   23SOL     OW  967   5.856   4.646   1.010
   23SOL    HW1  968   5.910   4.583   0.955
   23SOL    HW2  969   5.761   4.646   0.978
   24SOL     OW  970   5.186   1.703   0.675
   24SOL    HW1  971   5.229   1.774   0.620
   24SOL    HW2  972   5.257   1.647   0.719
   25SOL     OW  973   1.978   0.753   4.871
   25SOL    HW1  974   1.915   0.709   4.934
   25SOL    HW2  975   1.965   0.852   4.875
   26SOL     OW  976   0.994   1.980   6.259
   26SOL    HW1  977   0.933   2.059   6.252
   26SOL    HW2  978   0.961   1.920   6.332
   27SOL     OW  979   6.803   6.901   2.472
   27SOL    HW1  980   6.852   6.898   2.559
   27SOL    HW2  981   6.709   6.932   2.488
   28SOL     OW  982   1.997   0.916   5.361
   28SOL    HW1  983   2.042   0.968   5.288
   28SOL    HW2  984   1.991   0.820   5.335
   29SOL     OW  985   6.516   0.116   1.319
   29SOL    HW1  986   6.434   0.139   1.266
   29SOL    HW2  987   6.565   0.042   1.272
   30SOL     OW  988   4.483   6.831   5.222
   30SOL    HW1  989   4.480   6.742   5.178
   30SOL    HW2  990   4.444   6.900   5.161
   31SOL     OW  991   0.628   4.670   4.788
   31SOL    HW1  992   0.590   4.756   4.755
   31SOL    HW2  993   0.699   4.639   4.725
   32SOL     OW  994   3.603   0.783   1.226
   32SOL    HW1  995   3.588   0.781   1.127
   32SOL    HW2  996   3.516   0.770   1.274
   33SOL     OW  997   2.228   5.512   6.409
   33SOL    HW1  998   2.205   5.595   6.358
   33SOL    HW2  999   2.284   5.452   6.352
   34SOL     OW 1000   2.600   5.681   5.593
   34SOL    HW1 1001   2.699   5.693   5.589
   34SOL    HW2 1002   2.556   5.750   5.536
   35SOL     OW 1003   1.654   2.787   6.338
   35SOL    HW1 1004   1.574   2.813   6.392
   35SOL    HW2 1005   1.632   2.795   6.241
   36SOL     OW 1006   4.954   0.986   3.112
   36SOL    HW1 1007   4.932   1.013   3.206
   36SOL    HW2 1008   4.968   0.887   3.108
   37SOL     OW 1009   2.365   6.495   4.112
   37SOL    HW1 1010   2.393   6.545   4.030
   37SOL    HW2 1011   2.410   6.534   4.192
   38SOL     OW 1012   1.462   4.436   2.581
   38SOL    HW1 1013   1.365   4.416   2.564
   38SOL    HW2 1014   1.477   4.535   2.577
   39SOL     OW 1015   6.496   5.066   1.361
   39SOL    HW1 1016   6.564   5.005   1.401
   39SOL    HW2 1017   6.442   5.109   1.433
   40SOL     OW 1018   4.947   1.472   0.122
   40SOL    HW1 1019   4.899   1.495   0.037
   40SOL    HW2 1020   4.916   1.382   0.154
   41SOL     OW 1021   5.549   3.803   1.574
   41SOL    HW1 1022   5.465   3.837   1.533
   41SOL    HW2 1023   5.527   3.733   1.642
   42SOL     OW 1024   2.228   4.638   6.672
   42SOL    HW1 1025   2.229   4.544   6.707
   42SOL    HW2 1026   2.166   4.643   6.593
   43SOL     OW 1027   5.065   6.704   5.063
   43SOL    HW1 1028   4.977   6.742   5.092
   43SOL    HW2 1029   5.059   6.677   4.967
   44SOL     OW 1030   0.386   1.303   0.028
   44SOL    HW1 1031   0.353   1.282   6.957
   44SOL    HW2 1032   0.336   1.381   0.064
   45SOL     OW 1033   2.050   4.691   6.114
   45SOL    HW1 1034   2.033   4.789   6.120
   45SOL    HW2 1035   2.017   4.646   6.197
   46SOL     OW 1036   1.585   3.677   5.170
   46SOL    HW1 1037   1.585   3.592   5.117
   46SOL    HW2 1038   1.677   3.715   5.173
   47SOL     OW 1039   5.676   3.739   6.809
   47SOL    HW1 1040   5.644   3.792   6.888
   47SOL    HW2 1041   5.647   3.644   6.819
   48SOL     OW 1042   6.238   4.023   0.683
   48SOL    HW1 1043   6.170   4.077   0.633
   48SOL    HW2 1044   6.195   3.941   0.720
   49SOL     OW 1045   2.758   3.638   6.799
   49SOL    HW1 1046   2.810   3.715   6.762
   49SOL    HW2 1047   2.661   3.653   6.783
   50SOL     OW 1048   6.021   2.177   0.003
   50SOL    HW1 1049   5.944   2.202   0.062
   50SOL    HW2 1050   5.990   2.112   6.956
   51SOL     OW 1051   1.037   5.835   2.285
   51SOL    HW1 1052   0.968   5.852   2.214
   51SOL    HW2 1053   1.084   5.749   2.267
   52SOL     OW 1054   5.869   2.894   2.189
   52SOL    HW1 1055   5.833   2.981   2.155
   52SOL    HW2 1056   5.869   2.894   2.289
   53SOL     OW 1057   3.447   0.361   1.223
   53SOL    HW1 1058   3.493   0.426   1.163
   53SOL    HW2 1059   3.417   0.408   1.306
   54SOL     OW 1060   6.116   0.204   6.589
   54SOL    HW1 1061   6.117   0.109   6.558
   54SOL    HW2 1062   6.038   0.251   6.547
   55SOL     OW 1063   1.354   3.383   6.192
   55SOL    HW1 1064   1.371   3.450   6.120
   55SOL    HW2 1065   1.256   3.382   6.215
   56SOL     OW 1066   0.880   2.173   0.012
   56SOL    HW1 1067   0.826   2.097   6.997
   56SOL    HW2 1068   0.914   2.148   0.103
   57SOL     OW 1069   4.206   6.161   0.891
   57SOL    HW1 1070   4.181   6.257   0.885
   57SOL    HW2 1071   4.146   6.115   0.957
   58SOL     OW 1072   1.455   0.803   0.206
   58SOL    HW1 1073   1.518   0.731   0.233
   58SOL    HW2 1074   1.442   0.866   0.283
   59SOL     OW 1075   4.428   3.191   5.614
   59SOL    HW1 1076   4.445   3.288   5.635
   59SOL    HW2 1077   4.351   3.159   5.669
   60SOL     OW 1078   6.144   2.788   2.396
   60SOL    HW1 1079   6.164   2.875   2.440
   60SOL    HW2 1080   6.193   2.783   2.309
   61SOL     OW 1081   0.984   6.399   3.776
   61SOL    HW1 1082   1.002   6.385   3.679
   61SOL    HW2 1083   1.064   6.374   3.829
   62SOL     OW 1084   6.357   3.373   3.390
   62SOL    HW1 1085   6.290   3.397   3.460
   62SOL    HW2 1086   6.310   3.335   3.310
   63SOL     OW 1087   3.803   0.513   6.345
   63SOL    HW1 1088   3.765   0.599   6.379
   63SOL    HW2 1089   3.819   0.520   6.247
   64SOL     OW 1090   0.894   2.352   5.733
   64SOL    HW1 1091   0.863   2.438   5.774
   64SOL    HW2 1092   0.930   2.369   5.642
   65SOL     OW 1093   0.720   5.324   4.457
   65SOL    HW1 1094   0.802   5.347   4.405
   65SOL    HW2 1095   0.654   5.279   4.398
   66SOL     OW 1096   3.982   1.511   1.547
   66SOL    HW1 1097   4.066   1.537   1.596
   66SOL    HW2 1098   4.002   1.500   1.450
   67SOL     OW 1099   0.232   3.271   1.856
   67SOL    HW1 1100   0.275   3.254   1.945
   67SOL    HW2 1101   0.212   3.184   1.811
   68SOL     OW 1102   6.764   1.953   0.002
   68SOL    HW1 1103   6.839   1.921   6.967
   68SOL    HW2 1104   6.790   2.039   0.047
   69SOL     OW 1105   1.371   5.552   6.904
   69SOL    HW1 1106   1.297   5.510   6.956
   69SOL    HW2 1107   1.364   5.523   6.808
   70SOL     OW 1108   5.104   4.535   3.718
   70SOL    HW1 1109   5.011   4.528   3.683
   70SOL    HW2 1110   5.104   4.591   3.801
   71SOL     OW 1111   5.207   1.859   4.505
   71SOL    HW1 1112   5.117   1.892   4.477
   71SOL    HW2 1113   5.273   1.934   4.503
   72SOL     OW 1114   0.186   1.093   3.399
   72SOL    HW1 1115   0.147   1.018   3.345
   72SOL    HW2 1116   0.252   1.055   3.465
   73SOL     OW 1117   2.243   0.569   1.189
   73SOL    HW1 1118   2.256   0.486   1.136
   73SOL    HW2 1119   2.145   0.591   1.194
   74SOL     OW 1120   3.431   2.396   0.623
   74SOL    HW1 1121   3.411   2.480   0.674
   74SOL    HW2 1122   3.525   2.400   0.590
   75SOL     OW 1123   3.166   2.912   0.220
   75SOL    HW1 1124   3.076   2.953   0.208
   75SOL    HW2 1125   3.216   2.961   0.293
   76SOL     OW 1126   4.046   5.394   5.734
   76SOL    HW1 1127   4.107   5.317   5.754
   76SOL    HW2 1128   3.996   5.376   5.650
   77SOL     OW 1129   0.875   5.492   4.898
   77SOL    HW1 1130   0.951   5.498   4.964
   77SOL    HW2 1131   0.791   5.469   4.947
   78SOL     OW 1132   4.728   1.963   1.039
   78SOL    HW1 1133   4.630   1.981   1.035
   78SOL    HW2 1134   4.773   2.004   0.960
   79SOL     OW 1135   1.382   4.316   3.434
   79SOL    HW1 1136   1.435   4.389   3.390
   79SOL    HW2 1137   1.319   4.356   3.500
   80SOL     OW 1138   3.189   2.141   4.792
   80SOL    HW1 1139   3.154   2.188   4.873
   80SOL    HW2 1140   3.116   2.133   4.724
   81SOL     OW 1141   3.655   5.444   1.764
   81SOL    HW1 1142   3.745   5.470   1.730
   81SOL    HW2 1143   3.662   5.417   1.860
   82SOL     OW 1144   2.617   7.013   1.600
   82SOL    HW1 1145   2.655   0.082   1.584
   82SOL    HW2 1146   2.594   7.002   1.697
   83SOL     OW 1147   5.179   1.634   4.019
   83SOL    HW1 1148   5.274   1.634   3.987
   83SOL    HW2 1149   5.176   1.594   4.111
   84SOL     OW 1150   5.769   2.933   2.883
   84SOL    HW1 1151   5.842   2.865   2.877
   84SOL    HW2 1152   5.733   2.935   2.976
   85SOL     OW 1153   2.555   6.570   3.842
   85SOL    HW1 1154   2.479   6.506   3.831
   85SOL    HW2 1155   2.595   6.590   3.753
   86SOL     OW 1156   5.157   0.333   0.818
   86SOL    HW1 1157   5.093   0.384   0.761
   86SOL    HW2 1158   5.181   0.387   0.899
   87SOL     OW 1159   2.492   3.606   6.726
   87SOL    HW1 1160   2.441   3.653   6.654
   87SOL    HW2 1161   2.485   3.658   6.811
   88SOL     OW 1162   2.385   3.400   1.561
   88SOL    HW1 1163   2.397   3.314   1.511
   88SOL    HW2 1164   2.357   3.380   1.655
   89SOL     OW 1165   3.082   3.266   3.811
   89SOL    HW1 1166   3.172   3.309   3.804
   89SOL    HW2 1167   3.069   3.232   3.904
   90SOL     OW 1168   5.919   3.886   2.421
   90SOL    HW1 1169   5.979   3.813   2.387
   90SOL    HW2 1170   5.974   3.967   2.441
   91SOL     OW 1171   4.632   5.852   6.477
   91SOL    HW1 1172   4.533   5.863   6.476
   91SOL    HW2 1173   4.659   5.798   6.557
   92SOL     OW 1174   5.306   4.338   6.944
   92SOL    HW1 1175   5.276   4.243   6.937
   92SOL    HW2 1176   5.248   4.387   7.009
   93SOL     OW 1177   3.121   3.944   1.656
   93SOL    HW1 1178   3.173   3.859   1.651
   93SOL    HW2 1179   3.025   3.926   1.632
   94SOL     OW 1180   3.406   2.114   4.046
   94SOL    HW1 1181   3.426   2.028   4.092
   94SOL    HW2 1182   3.317   2.147   4.076
   95SOL     OW 1183   0.457   0.107   4.171
   95SOL    HW1 1184   0.393   0.077   4.100
   95SOL    HW2 1185   0.410   0.170   4.233
   96SOL     OW 1186   0.274   5.213   6.486
   96SOL    HW1 1187   0.316   5.301   6.461
   96SOL    HW2 1188   0.178   5.213   6.455
   97SOL     OW 1189   2.331   4.392   6.014
   97SOL    HW1 1190   2.301   4.454   5.941
   97SOL    HW2 1191   2.272   4.312   6.017
   98SOL     OW 1192   0.416   1.890   4.027
   98SOL    HW1 1193   0.448   1.801   3.995
   98SOL    HW2 1194   0.448   1.905   4.121
   99SOL     OW 1195   3.673   4.364   5.291
   99SOL    HW1 1196   3.650   4.280   5.341
   99SOL    HW2 1197   3.727   4.424   5.351
  100SOL     OW 1198   0.754   0.327   5.130
  100SOL    HW1 1199   0.794   0.237   5.119
  100SOL    HW2 1200   0.691   0.345   5.055
  101SOL     OW 1201   4.873   3.186   2.429
  101SOL    HW1 1202   4.882   3.207   2.527
  101SOL    HW2 1203   4.964   3.180   2.388
  102SOL     OW 1204   4.424   0.618   0.110
  102SOL    HW1 1205   4.484   0.563   0.168
  102SOL    HW2 1206   4.334   0.575   0.104
  103SOL     OW 1207   1.087   1.574   1.867
  103SOL    HW1 1208   1.082   1.654   1.926
  103SOL    HW2 1209   1.181   1.541   1.863
  104SOL     OW 1210   6.506   4.210   1.745
  104SOL    HW1 1211   6.407   4.208   1.733
  104SOL    HW2 1212   6.534   4.298   1.782
  105SOL     OW 1213   0.326   0.282   4.783
  105SOL    HW1 1214   0.394   0.276   4.710
  105SOL    HW2 1215   0.296   0.377   4.793
  106SOL     OW 1216   4.523   3.335   1.734
  106SOL    HW1 1217   4.435   3.320   1.689
  106SOL    HW2 1218   4.538   3.264   1.802
  107SOL     OW 1219   5.852   6.995   1.661
  107SOL    HW1 1220   5.846   6.918   1.725
  107SOL    HW2 1221   5.867   6.960   1.569
  108SOL     OW 1222   3.310   0.961   4.720
  108SOL    HW1 1223   3.346   1.039   4.670
  108SOL    HW2 1224   3.234   0.920   4.669
  109SOL     OW 1225   2.074   1.058   5.135
  109SOL    HW1 1226   2.039   1.018   5.051
  109SOL    HW2 1227   2.046   1.154   5.140
  110SOL     OW 1228   3.644   3.855   5.508
  110SOL    HW1 1229   3.668   3.872   5.604
  110SOL    HW2 1230   3.546   3.840   5.501
  111SOL     OW 1231   6.213   2.652   0.929
  111SOL    HW1 1232   6.236   2.741   0.888
  111SOL    HW2 1233   6.121   2.656   0.968
  112SOL     OW 1234   5.507   0.160   6.228
  112SOL    HW1 1235   5.546   0.252   6.239
  112SOL    HW2 1236   5.580   0.096   6.203
  113SOL     OW 1237   0.563   5.158   2.734
  113SOL    HW1 1238   0.552   5.255   2.752
  113SOL    HW2 1239   0.654   5.141   2.696
  114SOL     OW 1240   6.842   2.461   2.016
  114SOL    HW1 1241   6.832   2.536   2.082
  114SOL    HW2 1242   6.927   2.474   1.964
  115SOL     OW 1243   4.631   6.985   2.999
  115SOL    HW1 1244   4.634   6.980   2.900
  115SOL    HW2 1245   4.584   6.904   3.035
  116SOL     OW 1246   6.868   5.117   0.687
  116SOL    HW1 1247   6.818   5.199   0.657
  116SOL    HW2 1248   6.848   5.100   0.784
  117SOL     OW 1249   2.842   2.510   0.339
  117SOL    HW1 1250   2.885   2.422   0.315
  117SOL    HW2 1251   2.849   2.572   0.262
  118SOL     OW 1252   6.823   1.626   2.513
  118SOL    HW1 1253   6.787   1.547   2.463
  118SOL    HW2 1254   6.768   1.642   2.595
  119SOL     OW 1255   6.107   0.516   4.873
  119SOL    HW1 1256   6.031   0.537   4.935
  119SOL    HW2 1257   6.133   0.599   4.823
  120SOL     OW 1258   4.322   0.607   4.377
  120SOL    HW1 1259   4.378   0.584   4.297
  120SOL    HW2 1260   4.375   0.593   4.460
  121SOL     OW 1261   0.551   5.556   6.900
  121SOL    HW1 1262   0.487   5.587   6.830
  121SOL    HW2 1263   0.554   5.456   6.901
  122SOL     OW 1264   6.634   4.749   6.005
  122SOL    HW1 1265   6.669   4.831   5.958
  122SOL    HW2 1266   6.585   4.776   6.087
  123SOL     OW 1267   0.793   2.723   1.802
  123SOL    HW1 1268   0.846   2.660   1.859
  123SOL    HW2 1269   0.759   2.798   1.859
  124SOL     OW 1270   1.146   3.256   0.278
  124SOL    HW1 1271   1.215   3.236   0.208
  124SOL    HW2 1272   1.191   3.288   0.361
  125SOL     OW 1273   4.345   2.701   0.755
  125SOL    HW1 1274   4.400   2.620   0.736
  125SOL    HW2 1275   4.381   2.778   0.703
  126SOL     OW 1276   3.727   2.917   4.030
  126SOL    HW1 1277   3.701   2.877   3.942
  126SOL    HW2 1278   3.822   2.949   4.025
  127SOL     OW 1279   0.329   4.332   5.405
  127SOL    HW1 1280   0.231   4.333   5.423
  127SOL    HW2 1281   0.344   4.331   5.306
  128SOL     OW 1282   5.054   4.032   6.484
  128SOL    HW1 1283   5.029   4.073   6.397
  128SOL    HW2 1284   5.152   4.045   6.500
  129SOL     OW 1285   0.236   5.731   2.284
  129SOL    HW1 1286   0.329   5.766   2.293
  129SOL    HW2 1287   0.185   5.750   2.367
  130SOL     OW 1288   6.098   2.899   4.339
  130SOL    HW1 1289   6.044   2.898   4.423
  130SOL    HW2 1290   6.133   2.808   4.320
  131SOL     OW 1291   0.628   3.602   3.718
  131SOL    HW1 1292   0.723   3.605   3.750
  131SOL    HW2 1293   0.586   3.516   3.747
  132SOL     OW 1294   4.358   2.317   0.832
  132SOL    HW1 1295   4.291   2.277   0.895
  132SOL    HW2 1296   4.395   2.401   0.871
  133SOL     OW 1297   4.921   5.769   6.306
  133SOL    HW1 1298   4.877   5.846   6.351
  133SOL    HW2 1299   4.893   5.766   6.210
  134SOL     OW 1300   5.551   2.302   0.863
  134SOL    HW1 1301   5.455   2.320   0.886
  134SOL    HW2 1302   5.596   2.389   0.838
  135SOL     OW 1303   4.982   3.576   3.989
  135SOL    HW1 1304   5.076   3.573   4.023
  135SOL    HW2 1305   4.963   3.666   3.950
  136SOL     OW 1306   3.873   1.104   6.155
  136SOL    HW1 1307   3.945   1.056   6.104
  136SOL    HW2 1308   3.916   1.166   6.221
  137SOL     OW 1309   2.515   3.685   5.776
  137SOL    HW1 1310   2.568   3.731   5.705
  137SOL    HW2 1311   2.452   3.620   5.733
  138SOL     OW 1312   1.056   5.471   6.911
  138SOL    HW1 1313   1.043   5.375   6.937
  138SOL    HW2 1314   1.053   5.479   6.811
  139SOL     OW 1315   1.349   0.264   1.037
  139SOL    HW1 1316   1.323   0.352   0.996
  139SOL    HW2 1317   1.326   0.190   0.974
  140SOL     OW 1318   4.374   0.672   1.500
  140SOL    HW1 1319   4.455   0.728   1.486
  140SOL    HW2 1320   4.351   0.670   1.598
  141SOL     OW 1321   0.325   2.543   0.449
  141SOL    HW1 1322   0.295   2.507   0.537
  141SOL    HW2 1323   0.420   2.574   0.457
  142SOL     OW 1324   2.332   3.857   0.655
  142SOL    HW1 1325   2.357   3.947   0.618
  142SOL    HW2 1326   2.235   3.857   0.680
  143SOL     OW 1327   4.560   6.296   2.135
  143SOL    HW1 1328   4.510   6.303   2.049
  143SOL    HW2 1329   4.619   6.216   2.134
  144SOL     OW 1330   3.052   5.783   3.125
  144SOL    HW1 1331   3.046   5.723   3.204
  144SOL    HW2 1332   3.007   5.740   3.046
  145SOL     OW 1333   0.016   5.473   3.810
  145SOL    HW1 1334   6.977   5.547   3.781
  145SOL    HW2 1335   7.018   5.450   3.905
  146SOL     OW 1336   4.947   0.761   6.266
  146SOL    HW1 1337   5.046   0.770   6.260
  146SOL    HW2 1338   4.924   0.682   6.324
  147SOL     OW 1339   4.994   0.743   5.199
  147SOL    HW1 1340   4.918   0.760   5.262
  147SOL    HW2 1341   5.062   0.685   5.243
  148SOL     OW 1342   2.100   6.004   1.584
  148SOL    HW1 1343   2.139   5.915   1.562
  148SOL    HW2 1344   2.149   6.076   1.534
  149SOL     OW 1345   2.078   2.299   4.206
  149SOL    HW1 1346   2.115   2.381   4.250
  149SOL    HW2 1347   1.983   2.285   4.235
  150SOL     OW 1348   4.263   1.487   5.146
  150SOL    HW1 1349   4.238   1.398   5.107
  150SOL    HW2 1350   4.181   1.537   5.171
  151SOL     OW 1351   5.958   2.912   0.917
  151SOL    HW1 1352   5.935   2.972   0.994
  151SOL    HW2 1353   6.038   2.948   0.869
  152SOL     OW 1354   1.168   2.638   1.840
  152SOL    HW1 1355   1.096   2.600   1.898
  152SOL    HW2 1356   1.142   2.629   1.744
  153SOL     OW 1357   2.499   1.663   3.763
  153SOL    HW1 1358   2.409   1.623   3.743
  153SOL    HW2 1359   2.571   1.601   3.731
  154SOL     OW 1360   6.338   2.300   2.391
  154SOL    HW1 1361   6.247   2.273   2.361
  154SOL    HW2 1362   6.338   2.397   2.413
  155SOL     OW 1363   6.596   5.038   3.155
  155SOL    HW1 1364   6.552   4.968   3.099
  155SOL    HW2 1365   6.600   5.124   3.103
  156SOL     OW 1366   5.311   2.141   0.383
  156SOL    HW1 1367   5.353   2.175   0.467
  156SOL    HW2 1368   5.281   2.219   0.327
  157SOL     OW 1369   5.184   6.498   0.960
  157SOL    HW1 1370   5.157   6.545   0.875
  157SOL    HW2 1371   5.207   6.403   0.940
  158SOL     OW 1372   0.563   2.924   4.074
  158SOL    HW1 1373   0.502   2.859   4.119
  158SOL    HW2 1374   0.562   2.907   3.975
  159SOL     OW 1375   6.167   5.462   0.483
  159SOL    HW1 1376   6.185   5.559   0.464
  159SOL    HW2 1377   6.215   5.436   0.567
  160SOL     OW 1378   5.620   0.811   1.078
  160SOL    HW1 1379   5.661   0.723   1.052
  160SOL    HW2 1380   5.692   0.873   1.110
  161SOL     OW 1381   6.339   6.618   0.978
  161SOL    HW1 1382   6.404   6.660   1.041
  161SOL    HW2 1383   6.275   6.560   1.029
  162SOL     OW 1384   4.338   0.174   6.588
  162SOL    HW1 1385   4.331   0.119   6.505
  162SOL    HW2 1386   4.420   0.148   6.639
  163SOL     OW 1387   0.465   3.113   2.334
  163SOL    HW1 1388   0.524   3.033   2.350
  163SOL    HW2 1389   0.374   3.095   2.371
  164SOL     OW 1390   3.050   2.072   2.987
  164SOL    HW1 1391   3.137   2.026   2.967
  164SOL    HW2 1392   3.041   2.151   2.927
  165SOL     OW 1393   6.950   6.619   4.028
  165SOL    HW1 1394   7.006   6.643   4.107
  165SOL    HW2 1395   6.888   6.695   4.007
  166SOL     OW 1396   6.222   4.782   4.122
  166SOL    HW1 1397   6.289   4.708   4.123
  166SOL    HW2 1398   6.134   4.746   4.090
  167SOL     OW 1399   2.197   1.073   4.856
  167SOL    HW1 1400   2.163   1.131   4.930
  167SOL    HW2 1401   2.147   1.093   4.772
  168SOL     OW 1402   3.747   3.476   1.980
  168SOL    HW1 1403   3.703   3.388   1.999
  168SOL    HW2 1404   3.689   3.550   2.015
  169SOL     OW 1405   5.071   2.578   0.792
  169SOL    HW1 1406   5.052   2.542   0.701
  169SOL    HW2 1407   4.997   2.639   0.821
  170SOL     OW 1408   6.087   5.744   0.810
  170SOL    HW1 1409   6.172   5.695   0.827
  170SOL    HW2 1410   6.014   5.679   0.791
  171SOL     OW 1411   3.647   3.055   0.995
  171SOL    HW1 1412   3.565   3.107   0.973
  171SOL    HW2 1413   3.669   3.067   1.092
  172SOL     OW 1414   1.150   1.276   6.468
  172SOL    HW1 1415   1.190   1.356   6.424
  172SOL    HW2 1416   1.067   1.304   6.518
  173SOL     OW 1417   6.295   1.196   4.019
  173SOL    HW1 1418   6.216   1.222   4.076
  173SOL    HW2 1419   6.269   1.199   3.923
  174SOL     OW 1420   5.577   4.308   4.055
  174SOL    HW1 1421   5.507   4.312   4.126
  174SOL    HW2 1422   5.628   4.222   4.063
  175SOL     OW 1423   0.431   6.470   2.640
  175SOL    HW1 1424   0.354   6.450   2.580
  175SOL    HW2 1425   0.485   6.387   2.655
  176SOL     OW 1426   6.631   3.070   1.671
  176SOL    HW1 1427   6.584   3.058   1.583
  176SOL    HW2 1428   6.651   3.167   1.685
  177SOL     OW 1429   5.761   2.396   3.639
  177SOL    HW1 1430   5.785   2.361   3.549
  177SOL    HW2 1431   5.839   2.386   3.701
  178SOL     OW 1432   2.377   5.867   4.644
  178SOL    HW1 1433   2.422   5.779   4.657
  178SOL    HW2 1434   2.444   5.940   4.656
  179SOL     OW 1435   3.103   4.619   1.288
  179SOL    HW1 1436   3.116   4.532   1.335
  179SOL    HW2 1437   3.016   4.659   1.315
  180SOL     OW 1438   4.611   1.016   6.425
  180SOL    HW1 1439   4.620   0.919   6.403
  180SOL    HW2 1440   4.702   1.054   6.442
  181SOL     OW 1441   2.783   1.868   6.108
  181SOL    HW1 1442   2.778   1.923   6.025
  181SOL    HW2 1443   2.758   1.773   6.087
  182SOL     OW 1444   3.425   2.915   5.668
  182SOL    HW1 1445   3.329   2.918   5.642
  182SOL    HW2 1446   3.482   2.915   5.586
  183SOL     OW 1447   2.781   0.940   3.121
  183SOL    HW1 1448   2.792   0.853   3.169
  183SOL    HW2 1449   2.858   0.953   3.058
  184SOL     OW 1450   5.286   6.031   3.816
  184SOL    HW1 1451   5.194   6.001   3.791
  184SOL    HW2 1452   5.340   6.044   3.733
  185SOL     OW 1453   0.036   0.476   4.680
  185SOL    HW1 1454   0.078   0.432   4.600
  185SOL    HW2 1455   0.101   0.478   4.755
  186SOL     OW 1456   3.275   6.034   5.316
  186SOL    HW1 1457   3.195   6.016   5.258
  186SOL    HW2 1458   3.246   6.082   5.399
  187SOL     OW 1459   4.071   5.831   1.465
  187SOL    HW1 1460   3.993   5.773   1.442
  187SOL    HW2 1461   4.078   5.842   1.564
  188SOL     OW 1462   1.500   3.720   3.552
  188SOL    HW1 1463   1.444   3.801   3.568
  188SOL    HW2 1464   1.559   3.704   3.631
  189SOL     OW 1465   5.188   5.075   5.263
  189SOL    HW1 1466   5.229   5.086   5.353
  189SOL    HW2 1467   5.093   5.046   5.273
  190SOL     OW 1468   6.162   0.371   0.424
  190SOL    HW1 1469   6.209   0.283   0.428
  190SOL    HW2 1470   6.142   0.403   0.517
  191SOL     OW 1471   0.742   1.837   5.569
  191SOL    HW1 1472   0.767   1.925   5.608
  191SOL    HW2 1473   0.664   1.799   5.619
  192SOL     OW 1474   0.348   5.793   1.498
  192SOL    HW1 1475   0.269   5.847   1.471
  192SOL    HW2 1476   0.385   5.829   1.584
  193SOL     OW 1477   2.084   0.189   1.272
  193SOL    HW1 1478   2.026   0.257   1.226
  193SOL    HW2 1479   2.029   0.108   1.294
  194SOL     OW 1480   3.666   5.812   2.118
  194SOL    HW1 1481   3.708   5.793   2.206
  194SOL    HW2 1482   3.566   5.803   2.125
  195SOL     OW 1483   3.906   0.584   1.022
  195SOL    HW1 1484   3.923   0.525   1.101
  195SOL    HW2 1485   3.891   0.678   1.053
  196SOL     OW 1486   4.175   2.067   0.675
  196SOL    HW1 1487   4.188   1.972   0.702
  196SOL    HW2 1488   4.121   2.115   0.744
  197SOL     OW 1489   1.839   5.807   0.601
  197SOL    HW1 1490   1.869   5.725   0.552
  197SOL    HW2 1491   1.840   5.788   0.700
  198SOL     OW 1492   3.863   6.565   6.620
  198SOL    HW1 1493   3.878   6.663   6.603
  198SOL    HW2 1494   3.952   6.520   6.632
  199SOL     OW 1495   0.631   0.483   3.032
  199SOL    HW1 1496   0.541   0.522   3.050
  199SOL    HW2 1497   0.701   0.546   3.067
  200SOL     OW 1498   0.690   4.282   3.372
  200SOL    HW1 1499   0.751   4.247   3.444
  200SOL    HW2 1500   0.615   4.334   3.414
  201SOL     OW 1501   5.468   1.684   6.595
  201SOL    HW1 1502   5.560   1.693   6.635
  201SOL    HW2 1503   5.414   1.621   6.650
  202SOL     OW 1504   3.598   0.946   2.435
  202SOL    HW1 1505   3.616   0.962   2.338
  202SOL    HW2 1506   3.565   0.853   2.448
  203SOL     OW 1507   6.105   2.866   6.576
  203SOL    HW1 1508   6.168   2.833   6.646
  203SOL    HW2 1509   6.042   2.933   6.616
  204SOL     OW 1510   2.190   6.835   1.369
  204SOL    HW1 1511   2.189   6.932   1.389
  204SOL    HW2 1512   2.120   6.788   1.422
  205SOL     OW 1513   5.486   0.823   0.848
  205SOL    HW1 1514   5.553   0.886   0.808
  205SOL    HW2 1515   5.514   0.800   0.941
  206SOL     OW 1516   0.069   5.433   1.796
  206SOL    HW1 1517   0.073   5.523   1.751
  206SOL    HW2 1518   0.003   5.375   1.749
  207SOL     OW 1519   4.741   1.762   5.723
  207SOL    HW1 1520   4.803   1.712   5.783
  207SOL    HW2 1521   4.784   1.775   5.634
  208SOL     OW 1522   3.585   4.722   6.244
  208SOL    HW1 1523   3.626   4.631   6.238
  208SOL    HW2 1524   3.644   4.789   6.198
  209SOL     OW 1525   6.842   5.163   4.918
  209SOL    HW1 1526   6.898   5.243   4.941
  209SOL    HW2 1527   6.772   5.189   4.851
  210SOL     OW 1528   3.907   2.098   1.492
  210SOL    HW1 1529   3.885   2.172   1.428
  210SOL    HW2 1530   3.936   2.137   1.579
  211SOL     OW 1531   1.370   2.179   2.077
  211SOL    HW1 1532   1.282   2.188   2.031
  211SOL    HW2 1533   1.361   2.209   2.172
  212SOL     OW 1534   0.508   5.330   4.656
  212SOL    HW1 1535   0.493   5.401   4.725
  212SOL    HW2 1536   0.594   5.346   4.609
  213SOL     OW 1537   4.219   2.353   6.157
  213SOL    HW1 1538   4.242   2.437   6.109
  213SOL    HW2 1539   4.176   2.376   6.245
  214SOL     OW 1540   1.559   6.349   3.097
  214SOL    HW1 1541   1.468   6.330   3.062
  214SOL    HW2 1542   1.557   6.433   3.152
  215SOL     OW 1543   3.677   3.573   2.918
  215SOL    HW1 1544   3.727   3.591   3.003
  215SOL    HW2 1545   3.686   3.476   2.894
  216SOL     OW 1546   1.758   6.619   5.721
  216SOL    HW1 1547   1.666   6.632   5.756
  216SOL    HW2 1548   1.825   6.649   5.789
  217SOL     OW 1549   6.800   2.454   4.027
  217SOL    HW1 1550   6.785   2.379   4.092
  217SOL    HW2 1551   6.813   2.540   4.076
  218SOL     OW 1552   1.969   3.549   5.333
  218SOL    HW1 1553   1.993   3.644   5.357
  218SOL    HW2 1554   1.896   3.518   5.393
  219SOL     OW 1555   3.587   5.385   0.410
  219SOL    HW1 1556   3.546   5.375   0.501
  219SOL    HW2 1557   3.514   5.388   0.342
  220SOL     OW 1558   1.708   4.505   0.665
  220SOL    HW1 1559   1.794   4.549   0.693
  220SOL    HW2 1560   1.726   4.445   0.588
  221SOL     OW 1561   6.424   2.909   4.087
  221SOL    HW1 1562   6.368   2.989   4.110
  221SOL    HW2 1563   6.515   2.921   4.126
  222SOL     OW 1564   1.263   5.962   4.516
  222SOL    HW1 1565   1.169   5.997   4.523
  222SOL    HW2 1566   1.265   5.885   4.453
  223SOL     OW 1567   5.767   4.470   2.537
  223SOL    HW1 1568   5.755   4.550   2.596
  223SOL    HW2 1569   5.694   4.404   2.555
  224SOL     OW 1570   3.808   2.050   2.182
  224SOL    HW1 1571   3.784   2.107   2.104
  224SOL    HW2 1572   3.907   2.035   2.182
  225SOL     OW 1573   0.002   0.249   1.078
  225SOL    HW1 1574   0.037   0.155   1.078
  225SOL    HW2 1575   6.957   0.259   1.004
  226SOL     OW 1576   0.321   6.167   1.505
  226SOL    HW1 1577   0.342   6.073   1.531
  226SOL    HW2 1578   0.223   6.183   1.515
  227SOL     OW 1579   1.815   2.934   2.899
  227SOL    HW1 1580   1.866   2.863   2.851
  227SOL    HW2 1581   1.828   3.021   2.853
  228SOL     OW 1582   3.488   6.556   2.438
  228SOL    HW1 1583   3.462   6.561   2.535
  228SOL    HW2 1584   3.490   6.461   2.408
  229SOL     OW 1585   6.219   5.615   3.245
  229SOL    HW1 1586   6.147   5.559   3.286
  229SOL    HW2 1587   6.269   5.561   3.177
  230SOL     OW 1588   1.216   4.138   6.045
  230SOL    HW1 1589   1.143   4.083   6.005
  230SOL    HW2 1590   1.186   4.233   6.053
  231SOL     OW 1591   0.575   1.791   0.343
  231SOL    HW1 1592   0.533   1.847   0.414
  231SOL    HW2 1593   0.654   1.742   0.381
  232SOL     OW 1594   1.759   4.209   6.590
  232SOL    HW1 1595   1.763   4.297   6.638
  232SOL    HW2 1596   1.785   4.223   6.494
  233SOL     OW 1597   3.371   0.892   6.349
  233SOL    HW1 1598   3.426   0.975   6.341
  233SOL    HW2 1599   3.333   0.885   6.441
  234SOL     OW 1600   2.961   5.623   6.710
  234SOL    HW1 1601   2.865   5.611   6.735
  234SOL    HW2 1602   2.967   5.682   6.630
  235SOL     OW 1603   3.809   2.949   4.670
  235SOL    HW1 1604   3.757   2.961   4.586
  235SOL    HW2 1605   3.904   2.928   4.648
  236SOL     OW 1606   6.956   2.116   5.399
  236SOL    HW1 1607   6.998   2.041   5.348
  236SOL    HW2 1608   6.933   2.084   5.491
  237SOL     OW 1609   6.696   6.435   1.821
  237SOL    HW1 1610   6.689   6.397   1.729
  237SOL    HW2 1611   6.783   6.408   1.862
  238SOL     OW 1612   6.894   1.934   2.201
  238SOL    HW1 1613   6.823   1.986   2.153
  238SOL    HW2 1614   6.882   1.944   2.300
  239SOL     OW 1615   0.054   5.973   1.256
  239SOL    HW1 1616   0.093   5.890   1.216
  239SOL    HW2 1617   0.099   6.053   1.216
  240SOL     OW 1618   6.988   2.771   5.553
  240SOL    HW1 1619   7.011   2.727   5.466
  240SOL    HW2 1620   6.994   2.870   5.543
  241SOL     OW 1621   6.116   1.859   4.573
  241SOL    HW1 1622   6.115   1.792   4.647
  241SOL    HW2 1623   6.022   1.887   4.553
  242SOL     OW 1624   2.444   2.637   3.271
  242SOL    HW1 1625   2.404   2.721   3.233
  242SOL    HW2 1626   2.398   2.558   3.231
  243SOL     OW 1627   4.098   1.206   6.301
  243SOL    HW1 1628   4.145   1.221   6.214
  243SOL    HW2 1629   4.150   1.143   6.358
  244SOL     OW 1630   6.827   0.717   6.059
  244SOL    HW1 1631   6.871   0.662   6.131
  244SOL    HW2 1632   6.898   0.758   6.001
  245SOL     OW 1633   5.305   2.665   3.849
  245SOL    HW1 1634   5.374   2.635   3.915
  245SOL    HW2 1635   5.259   2.746   3.884
  246SOL     OW 1636   4.856   3.325   3.538
  246SOL    HW1 1637   4.803   3.382   3.476
  246SOL    HW2 1638   4.851   3.362   3.631
  247SOL     OW 1639   2.602   6.886   3.596
  247SOL    HW1 1640   2.673   6.920   3.536
  247SOL    HW2 1641   2.614   6.787   3.609
  248SOL     OW 1642   6.629   1.195   1.878
  248SOL    HW1 1643   6.691   1.231   1.948
  248SOL    HW2 1644   6.604   1.269   1.815
  249SOL     OW 1645   2.091   6.090   4.641
  249SOL    HW1 1646   1.996   6.089   4.611
  249SOL    HW2 1647   2.143   6.023   4.587
  250SOL     OW 1648   5.123   3.409   6.287
  250SOL    HW1 1649   5.042   3.357   6.313
  250SOL    HW2 1650   5.197   3.347   6.264
  251SOL     OW 1651   1.795   2.573   0.656
  251SOL    HW1 1652   1.836   2.570   0.748
  251SOL    HW2 1653   1.862   2.608   0.591
  252SOL     OW 1654   0.539   1.231   0.369
  252SOL    HW1 1655   0.515   1.328   0.369
  252SOL    HW2 1656   0.632   1.220   0.333
  253SOL     OW 1657   1.595   4.029   5.739
  253SOL    HW1 1658   1.620   3.933   5.731
  253SOL    HW2 1659   1.582   4.051   5.836
  254SOL     OW 1660   4.944   3.682   6.125
  254SOL    HW1 1661   5.028   3.665   6.177
  254SOL    HW2 1662   4.896   3.760   6.164
  255SOL     OW 1663   3.351   1.845   2.442
  255SOL    HW1 1664   3.310   1.913   2.382
  255SOL    HW2 1665   3.361   1.759   2.393
  256SOL     OW 1666   6.725   5.419   1.810
  256SOL    HW1 1667   6.781   5.427   1.893
  256SOL    HW2 1668   6.748   5.334   1.763
  257SOL     OW 1669   3.131   5.135   6.768
  257SOL    HW1 1670   3.092   5.043   6.764
  257SOL    HW2 1671   3.119   5.181   6.680
  258SOL     OW 1672   4.758   4.237   3.831
  258SOL    HW1 1673   4.778   4.173   3.756
  258SOL    HW2 1674   4.838   4.295   3.847
  259SOL     OW 1675   0.982   2.411   3.703
  259SOL    HW1 1676   1.064   2.469   3.701
  259SOL    HW2 1677   0.938   2.413   3.614
  260SOL     OW 1678   6.828   6.659   5.643
  260SOL    HW1 1679   6.866   6.654   5.551
  260SOL    HW2 1680   6.736   6.622   5.644
  261SOL     OW 1681   0.238   1.311   3.228
  261SOL    HW1 1682   0.234   1.259   3.313
  261SOL    HW2 1683   0.147   1.342   3.203
  262SOL     OW 1684   2.094   4.626   2.573
  262SOL    HW1 1685   2.066   4.620   2.477
  262SOL    HW2 1686   2.192   4.648   2.578
  263SOL     OW 1687   6.677   2.849   5.180
  263SOL    HW1 1688   6.711   2.778   5.241
  263SOL    HW2 1689   6.671   2.936   5.230
  264SOL     OW 1690   3.205   3.733   6.414
  264SOL    HW1 1691   3.151   3.686   6.484
  264SOL    HW2 1692   3.146   3.798   6.365
  265SOL     OW 1693   4.952   5.216   4.681
  265SOL    HW1 1694   4.934   5.134   4.737
  265SOL    HW2 1695   4.937   5.297   4.737
  266SOL     OW 1696   3.645   3.090   6.649
  266SOL    HW1 1697   3.708   3.093   6.571
  266SOL    HW2 1698   3.565   3.146   6.629
  267SOL     OW 1699   2.169   1.453   6.607
  267SOL    HW1 1700   2.126   1.362   6.597
  267SOL    HW2 1701   2.098   1.523   6.604
  268SOL     OW 1702   3.070   4.897   3.825
  268SOL    HW1 1703   3.045   4.845   3.907
  268SOL    HW2 1704   3.165   4.878   3.801
  269SOL     OW 1705   1.579   1.230   4.810
  269SOL    HW1 1706   1.597   1.132   4.819
  269SOL    HW2 1707   1.516   1.244   4.734
  270SOL     OW 1708   4.910   6.754   4.451
  270SOL    HW1 1709   4.850   6.750   4.531
  270SOL    HW2 1710   4.857   6.734   4.369
  271SOL     OW 1711   1.762   1.503   0.710
  271SOL    HW1 1712   1.745   1.589   0.662
  271SOL    HW2 1713   1.708   1.501   0.794
  272SOL     OW 1714   4.396   5.963   1.583
  272SOL    HW1 1715   4.351   6.039   1.629
  272SOL    HW2 1716   4.487   5.949   1.621
  273SOL     OW 1717   2.443   6.599   4.599
  273SOL    HW1 1718   2.441   6.622   4.696
  273SOL    HW2 1719   2.433   6.500   4.588
  274SOL     OW 1720   5.843   1.596   0.807
  274SOL    HW1 1721   5.893   1.681   0.826
  274SOL    HW2 1722   5.827   1.589   0.708
  275SOL     OW 1723   5.946   5.825   5.641
  275SOL    HW1 1724   5.855   5.851   5.675
  275SOL    HW2 1725   5.943   5.814   5.542
  276SOL     OW 1726   6.920   6.756   4.504
  276SOL    HW1 1727   6.837   6.810   4.516
  276SOL    HW2 1728   6.900   6.660   4.520
  277SOL     OW 1729   4.651   2.546   5.367
  277SOL    HW1 1730   4.660   2.576   5.462
  277SOL    HW2 1731   4.558   2.563   5.335
  278SOL     OW 1732   5.907   3.895   3.317
  278SOL    HW1 1733   5.839   3.968   3.327
  278SOL    HW2 1734   5.880   3.833   3.244
  279SOL     OW 1735   6.917   3.719   3.802
  279SOL    HW1 1736   6.999   3.754   3.757
  279SOL    HW2 1737   6.875   3.791   3.857
  280SOL     OW 1738   3.870   0.950   3.733
  280SOL    HW1 1739   3.806   0.957   3.658
  280SOL    HW2 1740   3.936   1.025   3.728
  281SOL     OW 1741   4.763   6.090   5.070
  281SOL    HW1 1742   4.751   6.135   4.982
  281SOL    HW2 1743   4.768   6.158   5.143
  282SOL     OW 1744   1.328   2.686   0.515
  282SOL    HW1 1745   1.317   2.776   0.473
  282SOL    HW2 1746   1.408   2.687   0.575
  283SOL     OW 1747   5.328   3.735   4.285
  283SOL    HW1 1748   5.425   3.759   4.291
  283SOL    HW2 1749   5.289   3.731   4.377
  284SOL     OW 1750   5.111   6.065   2.525
  284SOL    HW1 1751   5.203   6.025   2.525
  284SOL    HW2 1752   5.061   6.034   2.445
  285SOL     OW 1753   3.979   0.799   5.718
  285SOL    HW1 1754   3.927   0.827   5.799
  285SOL    HW2 1755   4.076   0.807   5.737
  286SOL     OW 1756   2.443   4.961   5.530
  286SOL    HW1 1757   2.513   4.893   5.551
  286SOL    HW2 1758   2.432   5.023   5.608
  287SOL     OW 1759   3.994   0.067   0.126
  287SOL    HW1 1760   3.982   0.148   0.183
  287SOL    HW2 1761   3.911   0.051   0.071
  288SOL     OW 1762   5.053   2.011   0.384
  288SOL    HW1 1763   5.150   2.029   0.395
  288SOL    HW2 1764   5.023   2.041   0.293
  289SOL     OW 1765   6.130   5.670   4.016
  289SOL    HW1 1766   6.148   5.638   4.109
  289SOL    HW2 1767   6.155   5.598   3.951
  290SOL     OW 1768   3.527   0.833   6.107
  290SOL    HW1 1769   3.560   0.916   6.063
  290SOL    HW2 1770   3.475   0.857   6.189
  291SOL     OW 1771   3.876   0.153   5.554
  291SOL    HW1 1772   3.945   0.089   5.586
  291SOL    HW2 1773   3.889   0.172   5.457
  292SOL     OW 1774   3.816   0.256   3.902
  292SOL    HW1 1775   3.787   0.191   3.973
  292SOL    HW2 1776   3.760   0.242   3.820
  293SOL     OW 1777   5.470   6.167   2.691
  293SOL    HW1 1778   5.527   6.141   2.613
  293SOL    HW2 1779   5.414   6.246   2.666
  294SOL     OW 1780   6.610   1.227   6.391
  294SOL    HW1 1781   6.605   1.127   6.395
  294SOL    HW2 1782   6.686   1.253   6.331
  295SOL     OW 1783   1.193   0.335   4.544
  295SOL    HW1 1784   1.266   0.296   4.601
  295SOL    HW2 1785   1.138   0.398   4.599
  296SOL     OW 1786   0.637   2.110   2.041
  296SOL    HW1 1787   0.684   2.102   1.953
  296SOL    HW2 1788   0.559   2.173   2.031
  297SOL     OW 1789   5.359   3.345   3.346
  297SOL    HW1 1790   5.414   3.409   3.292
  297SOL    HW2 1791   5.419   3.292   3.407
  298SOL     OW 1792   4.234   0.759   5.783
  298SOL    HW1 1793   4.256   0.738   5.878
  298SOL    HW2 1794   4.315   0.796   5.738
  299SOL     OW 1795   1.019   0.782   6.698
  299SOL    HW1 1796   1.081   0.821   6.630
  299SOL    HW2 1797   1.072   0.730   6.766
  300SOL     OW 1798   4.428   0.059   3.234
  300SOL    HW1 1799   4.431   0.036   3.137
  300SOL    HW2 1800   4.416   6.997   3.287
  301SOL     OW 1801   6.577   5.585   6.626
  301SOL    HW1 1802   6.642   5.613   6.697
  301SOL    HW2 1803   6.541   5.665   6.579
  302SOL     OW 1804   6.582   6.130   2.408
  302SOL    HW1 1805   6.616   6.064   2.341
  302SOL    HW2 1806   6.638   6.125   2.491
  303SOL     OW 1807   5.747   6.002   3.689
  303SOL    HW1 1808   5.770   5.904   3.694
  303SOL    HW2 1809   5.732   6.038   3.781
  304SOL     OW 1810   2.574   6.037   4.752
  304SOL    HW1 1811   2.516   6.082   4.819
  304SOL    HW2 1812   2.593   6.100   4.676
  305SOL     OW 1813   0.929   2.543   1.951
  305SOL    HW1 1814   0.928   2.554   2.051
  305SOL    HW2 1815   0.930   2.446   1.928
  306SOL     OW 1816   0.069   6.567   3.321
  306SOL    HW1 1817   0.079   6.495   3.390
  306SOL    HW2 1818   7.016   6.628   3.347
  307SOL     OW 1819   3.460   3.194   4.023
  307SOL    HW1 1820   3.513   3.174   4.106
  307SOL    HW2 1821   3.370   3.230   4.050
  308SOL     OW 1822   6.355   2.011   2.691
  308SOL    HW1 1823   6.388   1.953   2.766
  308SOL    HW2 1824   6.420   2.085   2.676
  309SOL     OW 1825   1.876   5.636   6.458
  309SOL    HW1 1826   1.807   5.683   6.513
  309SOL    HW2 1827   1.886   5.684   6.370
  310SOL     OW 1828   5.778   6.459   4.925
  310SOL    HW1 1829   5.755   6.387   4.991
  310SOL    HW2 1830   5.735   6.545   4.954
  311SOL     OW 1831   2.007   5.911   2.201
  311SOL    HW1 1832   2.059   5.898   2.117
  311SOL    HW2 1833   2.068   5.942   2.274
  312SOL     OW 1834   3.256   0.322   3.929
  312SOL    HW1 1835   3.334   0.331   3.991
  312SOL    HW2 1836   3.182   0.382   3.959
  313SOL     OW 1837   2.874   3.336   2.727
  313SOL    HW1 1838   2.933   3.377   2.797
  313SOL    HW2 1839   2.779   3.360   2.746
  314SOL     OW 1840   3.049   5.328   6.155
  314SOL    HW1 1841   2.961   5.281   6.152
  314SOL    HW2 1842   3.051   5.391   6.233
  315SOL     OW 1843   5.749   0.919   4.605
  315SOL    HW1 1844   5.802   0.996   4.641
  315SOL    HW2 1845   5.788   0.888   4.519
  316SOL     OW 1846   4.132   1.014   5.987
  316SOL    HW1 1847   4.183   1.053   5.911
  316SOL    HW2 1848   4.195   0.995   6.063
  317SOL     OW 1849   0.889   2.017   1.090
  317SOL    HW1 1850   0.846   2.105   1.067
  317SOL    HW2 1851   0.868   1.993   1.184
  318SOL     OW 1852   0.820   0.129   5.568
  318SOL    HW1 1853   0.753   0.095   5.502
  318SOL    HW2 1854   0.856   0.052   5.622
  319SOL     OW 1855   6.796   0.639   3.775
  319SOL    HW1 1856   6.896   0.645   3.772
  319SOL    HW2 1857   6.760   0.702   3.844
  320SOL     OW 1858   5.552   2.061   6.510
  320SOL    HW1 1859   5.474   2.025   6.562
  320SOL    HW2 1860   5.555   2.161   6.519
  321SOL     OW 1861   5.217   2.900   0.663
  321SOL    HW1 1862   5.269   2.817   0.643
  321SOL    HW2 1863   5.167   2.888   0.749
  322SOL     OW 1864   3.250   2.644   6.477
  322SOL    HW1 1865   3.187   2.657   6.400
  322SOL    HW2 1866   3.233   2.714   6.547
  323SOL     OW 1867   1.928   3.873   2.981
  323SOL    HW1 1868   1.854   3.806   2.978
  323SOL    HW2 1869   1.993   3.855   2.907
  324SOL     OW 1870   0.443   0.007   2.540
  324SOL    HW1 1871   0.472   0.012   2.636
  324SOL    HW2 1872   0.462   6.938   2.504
  325SOL     OW 1873   0.150   4.185   0.600
  325SOL    HW1 1874   0.200   4.116   0.653
  325SOL    HW2 1875   0.180   4.181   0.505
  326SOL     OW 1876   0.806   6.262   6.834
  326SOL    HW1 1877   0.886   6.204   6.824
  326SOL    HW2 1878   0.799   6.293   6.929
  327SOL     OW 1879   4.741   5.239   5.004
  327SOL    HW1 1880   4.816   5.278   5.058
  327SOL    HW2 1881   4.660   5.229   5.062
  328SOL     OW 1882   1.345   4.779   3.437
  328SOL    HW1 1883   1.290   4.709   3.480
  328SOL    HW2 1884   1.437   4.780   3.477
  329SOL     OW 1885   2.838   3.214   1.577
  329SOL    HW1 1886   2.767   3.150   1.608
  329SOL    HW2 1887   2.883   3.177   1.496
  330SOL     OW 1888   3.220   3.545   0.659
  330SOL    HW1 1889   3.290   3.515   0.595
  330SOL    HW2 1890   3.183   3.633   0.628
  331SOL     OW 1891   5.766   5.034   5.334
  331SOL    HW1 1892   5.702   5.104   5.302
  331SOL    HW2 1893   5.714   4.956   5.370
  332SOL     OW 1894   5.719   2.423   2.917
  332SOL    HW1 1895   5.781   2.497   2.943
  332SOL    HW2 1896   5.760   2.370   2.843
  333SOL     OW 1897   3.713   0.400   4.679
  333SOL    HW1 1898   3.762   0.471   4.629
  333SOL    HW2 1899   3.626   0.436   4.713
  334SOL     OW 1900   3.613   3.871   3.259
  334SOL    HW1 1901   3.710   3.864   3.283
  334SOL    HW2 1902   3.578   3.961   3.288
  335SOL     OW 1903   4.119   1.498   0.942
  335SOL    HW1 1904   4.212   1.511   0.979
  335SOL    HW2 1905   4.125   1.457   0.851
  336SOL     OW 1906   3.439   1.663   4.590
  336SOL    HW1 1907   3.534   1.640   4.567
  336SOL    HW2 1908   3.381   1.646   4.510
  337SOL     OW 1909   0.562   0.844   5.512
  337SOL    HW1 1910   0.494   0.917   5.516
  337SOL    HW2 1911   0.617   0.852   5.429
  338SOL     OW 1912   4.397   1.460   1.042
  338SOL    HW1 1913   4.393   1.370   1.087
  338SOL    HW2 1914   4.491   1.482   1.019
  339SOL     OW 1915   3.990   5.501   6.022
  339SOL    HW1 1916   4.039   5.556   5.954
  339SOL    HW2 1917   4.002   5.404   6.000
  340SOL     OW 1918   5.039   2.224   3.931
  340SOL    HW1 1919   5.034   2.205   4.029
  340SOL    HW2 1920   5.061   2.320   3.916
  341SOL     OW 1921   6.701   6.298   2.949
  341SOL    HW1 1922   6.638   6.221   2.936
  341SOL    HW2 1923   6.690   6.362   2.874
  342SOL     OW 1924   4.827   1.876   2.251
  342SOL    HW1 1925   4.843   1.969   2.282
  342SOL    HW2 1926   4.866   1.812   2.316
  343SOL     OW 1927   6.819   6.711   2.126
  343SOL    HW1 1928   6.848   6.802   2.158
  343SOL    HW2 1929   6.803   6.714   2.028
  344SOL     OW 1930   0.459   2.085   1.201
  344SOL    HW1 1931   0.412   2.154   1.255
  344SOL    HW2 1932   0.496   2.015   1.262
  345SOL     OW 1933   6.561   2.411   4.497
  345SOL    HW1 1934   6.565   2.464   4.413
  345SOL    HW2 1935   6.517   2.465   4.569
  346SOL     OW 1936   2.374   6.375   3.861
  346SOL    HW1 1937   2.303   6.367   3.791
  346SOL    HW2 1938   2.348   6.321   3.941
  347SOL     OW 1939   2.283   4.515   0.593
  347SOL    HW1 1940   2.262   4.608   0.562
  347SOL    HW2 1941   2.200   4.472   0.629
  348SOL     OW 1942   4.050   5.232   1.281
  348SOL    HW1 1943   4.063   5.146   1.331
  348SOL    HW2 1944   4.106   5.304   1.323
  349SOL     OW 1945   5.850   4.219   1.181
  349SOL    HW1 1946   5.909   4.164   1.122
  349SOL    HW2 1947   5.788   4.273   1.124
  350SOL     OW 1948   3.412   2.381   0.149
  350SOL    HW1 1949   3.438   2.423   0.062
  350SOL    HW2 1950   3.353   2.444   0.199
  351SOL     OW 1951   3.273   4.458   1.032
  351SOL    HW1 1952   3.301   4.376   1.083
  351SOL    HW2 1953   3.240   4.527   1.097
  352SOL     OW 1954   4.678   0.402   2.750
  352SOL    HW1 1955   4.650   0.411   2.654
  352SOL    HW2 1956   4.777   0.416   2.757
  353SOL     OW 1957   1.400   0.400   6.915
  353SOL    HW1 1958   1.366   0.484   6.874
  353SOL    HW2 1959   1.470   0.422   6.983
  354SOL     OW 1960   0.193   2.402   0.240
  354SOL    HW1 1961   0.167   2.321   0.293
  354SOL    HW2 1962   0.253   2.460   0.295
  355SOL     OW 1963   0.817   2.425   3.006
  355SOL    HW1 1964   0.737   2.369   2.984
  355SOL    HW2 1965   0.883   2.369   3.056
  356SOL     OW 1966   1.923   1.053   5.571
  356SOL    HW1 1967   1.957   0.992   5.499
  356SOL    HW2 1968   1.880   0.998   5.643
  357SOL     OW 1969   5.354   6.735   4.959
  357SOL    HW1 1970   5.298   6.790   4.897
  357SOL    HW2 1971   5.296   6.692   5.028
  358SOL     OW 1972   3.260   5.997   6.452
  358SOL    HW1 1973   3.260   5.913   6.505
  358SOL    HW2 1974   3.295   5.978   6.360
  359SOL     OW 1975   1.691   2.359   2.567
  359SOL    HW1 1976   1.781   2.340   2.605
  359SOL    HW2 1977   1.667   2.289   2.500
  360SOL     OW 1978   0.933   4.653   4.244
  360SOL    HW1 1979   0.924   4.672   4.146
  360SOL    HW2 1980   1.030   4.643   4.267
  361SOL     OW 1981   6.521   1.771   2.471
  361SOL    HW1 1982   6.577   1.787   2.389
  361SOL    HW2 1983   6.579   1.744   2.547
  362SOL     OW 1984   3.739   3.804   0.755
  362SOL    HW1 1985   3.787   3.726   0.713
  362SOL    HW2 1986   3.742   3.796   0.854
  363SOL     OW 1987   5.560   5.467   1.721
  363SOL    HW1 1988   5.640   5.456   1.780
  363SOL    HW2 1989   5.519   5.557   1.735
  364SOL     OW 1990   0.978   6.638   6.592
  364SOL    HW1 1991   0.944   6.723   6.551
  364SOL    HW2 1992   1.059   6.658   6.647
  365SOL     OW 1993   5.268   1.476   3.688
  365SOL    HW1 1994   5.296   1.447   3.597
  365SOL    HW2 1995   5.170   1.495   3.688
  366SOL     OW 1996   5.697   1.706   6.730
  366SOL    HW1 1997   5.694   1.610   6.756
  366SOL    HW2 1998   5.781   1.748   6.766
  367SOL     OW 1999   5.929   1.375   6.379
  367SOL    HW1 2000   5.869   1.436   6.328
  367SOL    HW2 2001   5.877   1.329   6.451
  368SOL     OW 2002   0.359   2.401   5.541
  368SOL    HW1 2003   0.445   2.353   5.522
  368SOL    HW2 2004   0.322   2.370   5.629
  369SOL     OW 2005   6.814   3.847   1.487
  369SOL    HW1 2006   6.839   3.942   1.468
  369SOL    HW2 2007   6.843   3.789   1.411
  370SOL     OW 2008   1.572   2.942   4.061
  370SOL    HW1 2009   1.564   2.923   3.963
  370SOL    HW2 2010   1.527   3.029   4.081
  371SOL     OW 2011   0.492   4.810   6.714
  371SOL    HW1 2012   0.520   4.729   6.765
  371SOL    HW2 2013   0.393   4.822   6.722
  372SOL     OW 2014   3.933   6.370   6.274
  372SOL    HW1 2015   3.940   6.468   6.291
  372SOL    HW2 2016   3.909   6.323   6.359
  373SOL     OW 2017   6.038   5.245   3.551
  373SOL    HW1 2018   6.016   5.173   3.486
  373SOL    HW2 2019   5.978   5.237   3.631
  374SOL     OW 2020   2.548   0.790   2.920
  374SOL    HW1 2021   2.535   0.868   2.859
  374SOL    HW2 2022   2.555   0.822   3.014
  375SOL     OW 2023   1.073   5.170   4.519
  375SOL    HW1 2024   1.132   5.229   4.575
  375SOL    HW2 2025   0.987   5.153   4.567
  376SOL     OW 2026   3.175   0.913   3.615
  376SOL    HW1 2027   3.190   0.925   3.517
  376SOL    HW2 2028   3.078   0.897   3.632
  377SOL     OW 2029   1.702   1.849   0.033
  377SOL    HW1 2030   1.777   1.912   0.011
  377SOL    HW2 2031   1.627   1.863   6.990
  378SOL     OW 2032   4.191   1.608   2.055
  378SOL    HW1 2033   4.170   1.697   2.093
  378SOL    HW2 2034   4.131   1.590   1.977
  379SOL     OW 2035   5.185   1.896   6.002
  379SOL    HW1 2036   5.219   1.824   5.942
  379SOL    HW2 2037   5.177   1.861   6.095
  380SOL     OW 2038   4.284   2.498   0.066
  380SOL    HW1 2039   4.382   2.485   0.076
  380SOL    HW2 2040   4.249   2.547   0.146
  381SOL     OW 2041   1.871   3.947   3.242
  381SOL    HW1 2042   1.795   3.891   3.275
  381SOL    HW2 2043   1.882   3.935   3.144
  382SOL     OW 2044   4.608   0.732   6.354
  382SOL    HW1 2045   4.693   0.721   6.406
  382SOL    HW2 2046   4.541   0.665   6.386
  383SOL     OW 2047   5.334   1.995   0.760
  383SOL    HW1 2048   5.246   1.953   0.783
  383SOL    HW2 2049   5.339   2.086   0.800
  384SOL     OW 2050   6.051   3.839   4.749
  384SOL    HW1 2051   6.138   3.810   4.708
  384SOL    HW2 2052   6.032   3.934   4.724
  385SOL     OW 2053   4.320   3.333   0.006
  385SOL    HW1 2054   4.394   3.331   0.073
  385SOL    HW2 2055   4.352   3.293   6.942
  386SOL     OW 2056   3.976   5.980   4.104
  386SOL    HW1 2057   3.919   5.906   4.140
  386SOL    HW2 2058   4.065   5.979   4.150
  387SOL     OW 2059   3.126   6.639   3.885
  387SOL    HW1 2060   3.114   6.729   3.843
  387SOL    HW2 2061   3.036   6.596   3.898
  388SOL     OW 2062   1.412   4.529   6.685
  388SOL    HW1 2063   1.330   4.475   6.705
  388SOL    HW2 2064   1.402   4.620   6.727
  389SOL     OW 2065   3.022   3.378   2.477
  389SOL    HW1 2066   3.016   3.302   2.413
  389SOL    HW2 2067   2.962   3.359   2.556
  390SOL     OW 2068   2.511   1.362   4.112
  390SOL    HW1 2069   2.459   1.367   4.027
  390SOL    HW2 2070   2.449   1.373   4.190
  391SOL     OW 2071   0.557   2.868   6.368
  391SOL    HW1 2072   0.513   2.796   6.421
  391SOL    HW2 2073   0.596   2.829   6.284
  392SOL     OW 2074   3.048   5.561   3.309
  392SOL    HW1 2075   2.951   5.546   3.287
  392SOL    HW2 2076   3.061   5.555   3.408
  393SOL     OW 2077   6.163   4.356   5.442
  393SOL    HW1 2078   6.141   4.358   5.539
  393SOL    HW2 2079   6.191   4.448   5.412
  394SOL     OW 2080   2.603   0.200   6.814
  394SOL    HW1 2081   2.691   0.244   6.798
  394SOL    HW2 2082   2.616   0.118   6.869
  395SOL     OW 2083   6.412   3.516   0.964
  395SOL    HW1 2084   6.398   3.599   0.910
  395SOL    HW2 2085   6.493   3.527   1.022
  396SOL     OW 2086   3.282   3.175   4.498
  396SOL    HW1 2087   3.306   3.090   4.453
  396SOL    HW2 2088   3.309   3.171   4.594
  397SOL     OW 2089   4.342   2.200   6.473
  397SOL    HW1 2090   4.311   2.291   6.445
  397SOL    HW2 2091   4.290   2.130   6.422
  398SOL     OW 2092   1.339   5.083   2.296
  398SOL    HW1 2093   1.386   5.155   2.347
  398SOL    HW2 2094   1.293   5.122   2.217
  399SOL     OW 2095   5.264   5.082   2.226
  399SOL    HW1 2096   5.308   5.076   2.316
  399SOL    HW2 2097   5.334   5.073   2.154
  400SOL     OW 2098   1.477   5.416   5.331
  400SOL    HW1 2099   1.556   5.408   5.270
  400SOL    HW2 2100   1.458   5.328   5.373
  401SOL     OW 2101   5.529   1.350   6.519
  401SOL    HW1 2102   5.613   1.357   6.572
  401SOL    HW2 2103   5.456   1.401   6.565
  402SOL     OW 2104   5.781   4.928   1.244
  402SOL    HW1 2105   5.854   4.996   1.231
  402SOL    HW2 2106   5.819   4.836   1.234
  403SOL     OW 2107   5.602   3.819   6.542
  403SOL    HW1 2108   5.639   3.801   6.634
  403SOL    HW2 2109   5.634   3.909   6.511
  404SOL     OW 2110   0.372   6.906   4.621
  404SOL    HW1 2111   0.429   6.936   4.697
  404SOL    HW2 2112   0.277   6.902   4.650
  405SOL     OW 2113   0.750   2.307   0.524
  405SOL    HW1 2114   0.663   2.277   0.485
  405SOL    HW2 2115   0.784   2.386   0.473
  406SOL     OW 2116   1.436   3.360   3.512
  406SOL    HW1 2117   1.410   3.435   3.451
  406SOL    HW2 2118   1.440   3.275   3.460
  407SOL     OW 2119   2.690   0.803   3.875
  407SOL    HW1 2120   2.708   0.711   3.840
  407SOL    HW2 2121   2.708   0.805   3.973
  408SOL     OW 2122   1.754   0.074   3.301
  408SOL    HW1 2123   1.750   0.014   3.381
  408SOL    HW2 2124   1.732   0.021   3.219
  409SOL     OW 2125   6.064   3.362   3.702
  409SOL    HW1 2126   6.022   3.343   3.613
  409SOL    HW2 2127   6.158   3.329   3.702
  410SOL     OW 2128   2.741   1.375   6.466
  410SOL    HW1 2129   2.683   1.389   6.386
  410SOL    HW2 2130   2.728   1.450   6.531
  411SOL     OW 2131   6.655   4.099   5.007
  411SOL    HW1 2132   6.750   4.114   5.035
  411SOL    HW2 2133   6.646   4.006   4.971
  412SOL     OW 2134   3.538   0.232   2.628
  412SOL    HW1 2135   3.570   0.139   2.608
  412SOL    HW2 2136   3.605   0.279   2.685
  413SOL     OW 2137   2.326   0.414   0.972
  413SOL    HW1 2138   2.350   0.326   1.011
  413SOL    HW2 2139   2.342   0.413   0.873
  414SOL     OW 2140   4.231   3.716   0.461
  414SOL    HW1 2141   4.276   3.738   0.375
  414SOL    HW2 2142   4.288   3.746   0.537
  415SOL     OW 2143   2.938   6.578   1.974
  415SOL    HW1 2144   2.884   6.660   1.953
  415SOL    HW2 2145   3.011   6.568   1.906
  416SOL     OW 2146   3.591   5.981   5.504
  416SOL    HW1 2147   3.521   5.945   5.443
  416SOL    HW2 2148   3.632   5.906   5.556
  417SOL     OW 2149   4.908   6.239   1.039
  417SOL    HW1 2150   4.877   6.162   1.094
  417SOL    HW2 2151   4.854   6.320   1.061
  418SOL     OW 2152   5.414   4.935   0.861
  418SOL    HW1 2153   5.426   4.969   0.954
  418SOL    HW2 2154   5.502   4.937   0.813
  419SOL     OW 2155   6.031   6.347   0.889
  419SOL    HW1 2156   6.004   6.250   0.885
  419SOL    HW2 2157   6.031   6.385   0.796
  420SOL     OW 2158   4.266   3.901   0.020
  420SOL    HW1 2159   4.197   3.833   7.019
  420SOL    HW2 2160   4.337   3.902   6.971
  421SOL     OW 2161   1.791   6.469   6.566
  421SOL    HW1 2162   1.861   6.535   6.539
  421SOL    HW2 2163   1.761   6.489   6.659
  422SOL     OW 2164   5.910   3.372   6.782
  422SOL    HW1 2165   5.921   3.406   6.876
  422SOL    HW2 2166   5.895   3.273   6.784
  423SOL     OW 2167   0.526   2.649   6.507
  423SOL    HW1 2168   0.622   2.623   6.522
  423SOL    HW2 2169   0.477   2.571   6.466
  424SOL     OW 2170   2.086   3.685   0.117
  424SOL    HW1 2171   1.992   3.675   0.149
  424SOL    HW2 2172   2.140   3.735   0.185
  425SOL     OW 2173   3.015   1.194   0.624
  425SOL    HW1 2174   2.938   1.185   0.560
  425SOL    HW2 2175   2.980   1.216   0.715
  426SOL     OW 2176   5.671   3.962   5.289
  426SOL    HW1 2177   5.726   3.883   5.315
  426SOL    HW2 2178   5.656   3.961   5.190
  427SOL     OW 2179   5.228   4.019   0.915
  427SOL    HW1 2180   5.144   3.989   0.960
  427SOL    HW2 2181   5.306   3.973   0.955
  428SOL     OW 2182   3.725   1.037   4.929
  428SOL    HW1 2183   3.677   1.102   4.989
  428SOL    HW2 2184   3.671   1.022   4.846
  429SOL     OW 2185   2.051   5.176   6.420
  429SOL    HW1 2186   2.031   5.188   6.518
  429SOL    HW2 2187   1.993   5.237   6.367
  430SOL     OW 2188   1.172   0.102   5.015
  430SOL    HW1 2189   1.139   0.019   5.061
  430SOL    HW2 2190   1.239   0.148   5.072
  431SOL     OW 2191   3.844   1.960   0.567
  431SOL    HW1 2192   3.794   2.028   0.620
  431SOL    HW2 2193   3.829   1.869   0.607
  432SOL     OW 2194   0.197   1.941   1.340
  432SOL    HW1 2195   0.213   2.038   1.357
  432SOL    HW2 2196   0.285   1.894   1.331
  433SOL     OW 2197   3.617   6.350   5.328
  433SOL    HW1 2198   3.653   6.376   5.238
  433SOL    HW2 2199   3.613   6.251   5.335
  434SOL     OW 2200   0.356   3.502   1.400
  434SOL    HW1 2201   0.449   3.535   1.414
  434SOL    HW2 2202   0.331   3.508   1.304
  435SOL     OW 2203   3.620   4.089   0.356
  435SOL    HW1 2204   3.671   4.003   0.364
  435SOL    HW2 2205   3.546   4.078   0.290
  436SOL     OW 2206   2.330   1.027   6.971
  436SOL    HW1 2207   2.319   1.122   7.000
  436SOL    HW2 2208   2.321   1.022   6.871
  437SOL     OW 2209   6.983   6.915   6.946
  437SOL    HW1 2210   6.972   6.871   0.013
  437SOL    HW2 2211   6.898   6.961   6.921
  438SOL     OW 2212   1.562   2.852   1.890
  438SOL    HW1 2213   1.646   2.826   1.841
  438SOL    HW2 2214   1.580   2.855   1.988
  439SOL     OW 2215   6.972   5.245   3.105
  439SOL    HW1 2216   6.958   5.175   3.175
  439SOL    HW2 2217   6.927   5.330   3.132
  440SOL     OW 2218   1.102   2.953   4.013
  440SOL    HW1 2219   1.044   2.871   4.013
  440SOL    HW2 2220   1.198   2.926   4.011
  441SOL     OW 2221   0.300   1.167   3.772
  441SOL    HW1 2222   0.318   1.122   3.859
  441SOL    HW2 2223   0.312   1.102   3.697
  442SOL     OW 2224   6.966   4.206   0.208
  442SOL    HW1 2225   6.928   4.171   0.123
  442SOL    HW2 2226   7.017   4.134   0.254
  443SOL     OW 2227   0.313   4.563   5.669
  443SOL    HW1 2228   0.280   4.600   5.583
  443SOL    HW2 2229   0.352   4.472   5.654
  444SOL     OW 2230   4.208   3.259   6.286
  444SOL    HW1 2231   4.216   3.198   6.206
  444SOL    HW2 2232   4.112   3.273   6.307
  445SOL     OW 2233   2.231   4.742   3.049
  445SOL    HW1 2234   2.160   4.696   2.996
  445SOL    HW2 2235   2.191   4.783   3.131
  446SOL     OW 2236   4.716   4.713   3.548
  446SOL    HW1 2237   4.743   4.627   3.592
  446SOL    HW2 2238   4.666   4.770   3.612
  447SOL     OW 2239   6.549   5.637   0.706
  447SOL    HW1 2240   6.474   5.701   0.692
  447SOL    HW2 2241   6.530   5.581   0.787
  448SOL     OW 2242   4.419   0.092   5.360
  448SOL    HW1 2243   4.362   0.063   5.437
  448SOL    HW2 2244   4.497   0.030   5.351
  449SOL     OW 2245   5.437   0.049   4.641
  449SOL    HW1 2246   5.404   0.143   4.650
  449SOL    HW2 2247   5.426   0.019   4.547
  450SOL     OW 2248   6.859   6.286   3.801
  450SOL    HW1 2249   6.806   6.370   3.801
  450SOL    HW2 2250   6.933   6.293   3.867
  451SOL     OW 2251   0.417   2.604   3.021
  451SOL    HW1 2252   0.391   2.519   2.975
  451SOL    HW2 2253   0.475   2.581   3.100
  452SOL     OW 2254   0.001   4.854   6.473
  452SOL    HW1 2255   6.972   4.913   6.536
  452SOL    HW2 2256   0.092   4.893   6.456
  453SOL     OW 2257   2.643   0.980   6.014
  453SOL    HW1 2258   2.557   0.943   6.049
  453SOL    HW2 2259   2.684   1.040   6.083
  454SOL     OW 2260   0.969   6.084   0.096
  454SOL    HW1 2261   0.999   6.130   0.012
  454SOL    HW2 2262   1.049   6.046   0.143
  455SOL     OW 2263   5.345   0.855   6.023
  455SOL    HW1 2264   5.252   0.854   5.988
  455SOL    HW2 2265   5.409   0.861   5.946
  456SOL     OW 2266   4.389   5.556   6.168
  456SOL    HW1 2267   4.367   5.653   6.154
  456SOL    HW2 2268   4.304   5.504   6.178
  457SOL     OW 2269   1.981   4.817   2.748
  457SOL    HW1 2270   2.026   4.760   2.679
  457SOL    HW2 2271   2.002   4.783   2.839
  458SOL     OW 2272   6.573   5.643   6.125
  458SOL    HW1 2273   6.558   5.581   6.202
  458SOL    HW2 2274   6.505   5.624   6.053
  459SOL     OW 2275   1.703   0.439   2.709
  459SOL    HW1 2276   1.638   0.510   2.739
  459SOL    HW2 2277   1.710   0.441   2.610
  460SOL     OW 2278   6.299   2.123   3.056
  460SOL    HW1 2279   6.218   2.161   3.011
  460SOL    HW2 2280   6.379   2.179   3.032
  461SOL     OW 2281   4.843   6.204   5.479
  461SOL    HW1 2282   4.921   6.224   5.419
  461SOL    HW2 2283   4.777   6.278   5.473
  462SOL     OW 2284   3.012   2.959   6.462
  462SOL    HW1 2285   2.997   3.050   6.501
  462SOL    HW2 2286   3.098   2.957   6.412
  463SOL     OW 2287   6.775   5.143   2.231
  463SOL    HW1 2288   6.732   5.163   2.319
  463SOL    HW2 2289   6.868   5.179   2.231
  464SOL     OW 2290   2.114   1.325   5.401
  464SOL    HW1 2291   2.103   1.278   5.314
  464SOL    HW2 2292   2.175   1.272   5.460
  465SOL     OW 2293   6.538   2.572   4.214
  465SOL    HW1 2294   6.462   2.607   4.159
  465SOL    HW2 2295   6.544   2.472   4.203
  466SOL     OW 2296   1.078   6.975   3.729
  466SOL    HW1 2297   1.045   6.892   3.776
  466SOL    HW2 2298   1.142   6.949   3.656
  467SOL     OW 2299   1.558   0.493   5.213
  467SOL    HW1 2300   1.545   0.583   5.170
  467SOL    HW2 2301   1.552   0.502   5.312
  468SOL     OW 2302   3.650   4.898   1.137
  468SOL    HW1 2303   3.701   4.912   1.052
  468SOL    HW2 2304   3.614   4.805   1.139
  469SOL     OW 2305   1.904   5.662   6.811
  469SOL    HW1 2306   1.949   5.579   6.780
  469SOL    HW2 2307   1.826   5.639   6.869
  470SOL     OW 2308   3.775   0.347   2.764
  470SOL    HW1 2309   3.808   0.345   2.669
  470SOL    HW2 2310   3.854   0.355   2.826
  471SOL     OW 2311   2.208   2.403   4.672
  471SOL    HW1 2312   2.245   2.331   4.730
  471SOL    HW2 2313   2.262   2.486   4.684
  472SOL     OW 2314   4.020   4.689   5.741
  472SOL    HW1 2315   3.985   4.765   5.686
  472SOL    HW2 2316   4.120   4.692   5.741
  473SOL     OW 2317   1.156   3.493   2.860
  473SOL    HW1 2318   1.080   3.539   2.907
  473SOL    HW2 2319   1.241   3.512   2.908
  474SOL     OW 2320   4.385   5.270   4.396
  474SOL    HW1 2321   4.350   5.218   4.474
  474SOL    HW2 2322   4.379   5.368   4.416
  475SOL     OW 2323   0.527   6.741   6.182
  475SOL    HW1 2324   0.561   6.724   6.274
  475SOL    HW2 2325   0.429   6.760   6.185
  476SOL     OW 2326   0.012   4.457   2.303
  476SOL    HW1 2327   0.096   4.504   2.329
  476SOL    HW2 2328   0.024   4.358   2.313
  477SOL     OW 2329   1.903   5.267   3.711
  477SOL    HW1 2330   1.911   5.298   3.617
  477SOL    HW2 2331   1.831   5.320   3.757
  478SOL     OW 2332   2.742   5.034   3.474
  478SOL    HW1 2333   2.644   5.040   3.458
  478SOL    HW2 2334   2.768   4.938   3.489
  479SOL     OW 2335   3.706   2.396   0.583
  479SOL    HW1 2336   3.702   2.475   0.523
  479SOL    HW2 2337   3.745   2.423   0.671
  480SOL     OW 2338   0.866   6.698   2.428
  480SOL    HW1 2339   0.963   6.716   2.410
  480SOL    HW2 2340   0.811   6.774   2.395
  481SOL     OW 2341   4.100   0.226   1.343
  481SOL    HW1 2342   4.010   0.182   1.344
  481SOL    HW2 2343   4.170   0.159   1.367
  482SOL     OW 2344   5.291   4.173   2.037
  482SOL    HW1 2345   5.283   4.076   2.013
  482SOL    HW2 2346   5.257   4.187   2.131
  483SOL     OW 2347   5.548   1.870   1.675
  483SOL    HW1 2348   5.476   1.800   1.676
  483SOL    HW2 2349   5.618   1.844   1.609
  484SOL     OW 2350   0.031   2.398   4.331
  484SOL    HW1 2351   6.966   2.425   4.289
  484SOL    HW2 2352   0.083   2.342   4.267
  485SOL     OW 2353   3.672   4.965   2.064
  485SOL    HW1 2354   3.627   4.882   2.032
  485SOL    HW2 2355   3.604   5.037   2.076
  486SOL     OW 2356   0.354   0.344   0.819
  486SOL    HW1 2357   0.438   0.375   0.775
  486SOL    HW2 2358   0.303   0.286   0.756
  487SOL     OW 2359   0.113   2.355   6.816
  487SOL    HW1 2360   0.162   2.435   6.779
  487SOL    HW2 2361   0.100   2.367   6.914
  488SOL     OW 2362   0.167   2.167   2.229
  488SOL    HW1 2363   0.157   2.103   2.306
  488SOL    HW2 2364   0.159   2.260   2.263
  489SOL     OW 2365   3.274   5.769   6.601
  489SOL    HW1 2366   3.266   5.769   6.701
  489SOL    HW2 2367   3.282   5.674   6.569
  490SOL     OW 2368   5.630   6.361   4.679
  490SOL    HW1 2369   5.663   6.413   4.757
  490SOL    HW2 2370   5.548   6.311   4.704
  491SOL     OW 2371   0.639   2.625   2.538
  491SOL    HW1 2372   0.703   2.702   2.538
  491SOL    HW2 2373   0.636   2.585   2.446
  492SOL     OW 2374   2.184   0.318   5.497
  492SOL    HW1 2375   2.252   0.300   5.425
  492SOL    HW2 2376   2.105   0.259   5.482
  493SOL     OW 2377   6.753   4.477   5.242
  493SOL    HW1 2378   6.713   4.563   5.274
  493SOL    HW2 2379   6.787   4.489   5.149
  494SOL     OW 2380   6.886   0.389   0.800
  494SOL    HW1 2381   6.896   0.477   0.845
  494SOL    HW2 2382   6.797   0.349   0.823
  495SOL     OW 2383   4.727   4.460   1.561
  495SOL    HW1 2384   4.785   4.462   1.479
  495SOL    HW2 2385   4.743   4.542   1.615
  496SOL     OW 2386   6.155   3.229   3.260
  496SOL    HW1 2387   6.171   3.193   3.168
  496SOL    HW2 2388   6.069   3.280   3.262
  497SOL     OW 2389   3.809   0.752   4.878
  497SOL    HW1 2390   3.879   0.708   4.935
  497SOL    HW2 2391   3.788   0.842   4.915
  498SOL     OW 2392   0.671   2.940   2.671
  498SOL    HW1 2393   0.719   2.933   2.758
  498SOL    HW2 2394   0.722   2.891   2.600
  499SOL     OW 2395   3.391   0.830   5.021
  499SOL    HW1 2396   3.303   0.870   5.046
  499SOL    HW2 2397   3.429   0.879   4.943
  500SOL     OW 2398   0.858   3.947   2.527
  500SOL    HW1 2399   0.836   3.993   2.613
  500SOL    HW2 2400   0.894   3.856   2.546
  501SOL     OW 2401   1.358   3.166   6.769
  501SOL    HW1 2402   1.348   3.255   6.814
  501SOL    HW2 2403   1.295   3.160   6.692
  502SOL     OW 2404   3.782   5.094   7.006
  502SOL    HW1 2405   3.843   5.042   0.044
  502SOL    HW2 2406   3.719   5.032   6.959
  503SOL     OW 2407   5.874   5.022   5.650
  503SOL    HW1 2408   5.960   4.996   5.606
  503SOL    HW2 2409   5.864   5.121   5.647
  504SOL     OW 2410   2.236   6.224   4.370
  504SOL    HW1 2411   2.232   6.125   4.385
  504SOL    HW2 2412   2.264   6.269   4.455
  505SOL     OW 2413   4.104   0.298   5.955
  505SOL    HW1 2414   4.145   0.229   5.895
  505SOL    HW2 2415   4.175   0.335   6.016
  506SOL     OW 2416   2.201   4.145   6.041
  506SOL    HW1 2417   2.115   4.133   5.992
  506SOL    HW2 2418   2.183   4.165   6.137
  507SOL     OW 2419   3.419   1.362   4.231
  507SOL    HW1 2420   3.410   1.457   4.202
  507SOL    HW2 2421   3.503   1.323   4.193
  508SOL     OW 2422   6.762   3.883   3.610
  508SOL    HW1 2423   6.681   3.940   3.593
  508SOL    HW2 2424   6.736   3.802   3.662
  509SOL     OW 2425   4.553   1.849   1.750
  509SOL    HW1 2426   4.540   1.940   1.710
  509SOL    HW2 2427   4.506   1.781   1.694
  510SOL     OW 2428   0.143   4.217   4.621
  510SOL    HW1 2429   0.213   4.146   4.619
  510SOL    HW2 2430   0.059   4.180   4.659
  511SOL     OW 2431   0.644   0.027   0.647
  511SOL    HW1 2432   0.692   0.012   0.734
  511SOL    HW2 2433   0.632   6.961   0.601
  512SOL     OW 2434   0.890   3.649   6.177
  512SOL    HW1 2435   0.952   3.725   6.196
  512SOL    HW2 2436   0.844   3.622   6.262
  513SOL     OW 2437   5.980   6.208   5.079
  513SOL    HW1 2438   6.036   6.188   4.998
  513SOL    HW2 2439   6.002   6.300   5.113
  514SOL     OW 2440   5.808   1.726   3.770
  514SOL    HW1 2441   5.881   1.786   3.803
  514SOL    HW2 2442   5.800   1.736   3.671
  515SOL     OW 2443   2.134   6.332   6.706
  515SOL    HW1 2444   2.085   6.349   6.621
  515SOL    HW2 2445   2.070   6.334   6.783
  516SOL     OW 2446   2.106   5.203   1.904
  516SOL    HW1 2447   2.137   5.117   1.944
  516SOL    HW2 2448   2.172   5.233   1.835
  517SOL     OW 2449   4.509   6.987   0.530
  517SOL    HW1 2450   4.415   6.976   0.562
  517SOL    HW2 2451   4.571   6.994   0.608
  518SOL     OW 2452   2.868   2.502   1.221
  518SOL    HW1 2453   2.906   2.418   1.181
  518SOL    HW2 2454   2.772   2.510   1.197
  519SOL     OW 2455   1.013   6.493   7.008
  519SOL    HW1 2456   0.918   6.502   6.979
  519SOL    HW2 2457   1.055   6.414   6.963
  520SOL     OW 2458   5.614   4.583   5.518
  520SOL    HW1 2459   5.596   4.519   5.592
  520SOL    HW2 2460   5.670   4.539   5.447
  521SOL     OW 2461   6.693   1.302   0.702
  521SOL    HW1 2462   6.768   1.361   0.734
  521SOL    HW2 2463   6.728   1.241   0.631
  522SOL     OW 2464   3.974   3.516   4.212
  522SOL    HW1 2465   3.888   3.561   4.234
  522SOL    HW2 2466   3.977   3.425   4.255
  523SOL     OW 2467   6.896   6.854   4.873
  523SOL    HW1 2468   6.975   6.825   4.821
  523SOL    HW2 2469   6.814   6.807   4.840
  524SOL     OW 2470   2.534   0.454   5.614
  524SOL    HW1 2471   2.565   0.547   5.595
  524SOL    HW2 2472   2.497   0.450   5.707
  525SOL     OW 2473   2.502   3.393   6.894
  525SOL    HW1 2474   2.575   3.429   6.952
  525SOL    HW2 2475   2.468   3.465   6.834
  526SOL     OW 2476   3.279   5.892   4.857
  526SOL    HW1 2477   3.247   5.799   4.876
  526SOL    HW2 2478   3.344   5.920   4.927
  527SOL     OW 2479   0.257   1.010   6.530
  527SOL    HW1 2480   0.300   1.100   6.536
  527SOL    HW2 2481   0.313   0.943   6.579
  528SOL     OW 2482   2.298   0.970   5.289
  528SOL    HW1 2483   2.359   1.048   5.273
  528SOL    HW2 2484   2.235   0.962   5.212
  529SOL     OW 2485   0.236   5.239   4.011
  529SOL    HW1 2486   0.267   5.147   3.990
  529SOL    HW2 2487   0.315   5.299   4.022
  530SOL     OW 2488   2.216   3.003   5.335
  530SOL    HW1 2489   2.181   2.915   5.304
  530SOL    HW2 2490   2.299   3.026   5.283
  531SOL     OW 2491   0.651   0.473   1.233
  531SOL    HW1 2492   0.575   0.497   1.294
  531SOL    HW2 2493   0.711   0.552   1.223
  532SOL     OW 2494   1.358   1.164   5.783
  532SOL    HW1 2495   1.312   1.234   5.728
  532SOL    HW2 2496   1.290   1.106   5.827
  533SOL     OW 2497   5.751   0.402   4.433
  533SOL    HW1 2498   5.714   0.376   4.522
  533SOL    HW2 2499   5.851   0.393   4.434
  534SOL     OW 2500   4.364   5.154   2.232
  534SOL    HW1 2501   4.310   5.160   2.148
  534SOL    HW2 2502   4.437   5.222   2.229
  535SOL     OW 2503   0.404   3.862   3.384
  535SOL    HW1 2504   0.317   3.816   3.366
  535SOL    HW2 2505   0.394   3.920   3.466
  536SOL     OW 2506   1.399   5.551   1.131
  536SOL    HW1 2507   1.491   5.585   1.113
  536SOL    HW2 2508   1.339   5.571   1.054
  537SOL     OW 2509   2.478   6.930   2.277
  537SOL    HW1 2510   2.533   6.967   2.352
  537SOL    HW2 2511   2.419   6.857   2.312
  538SOL     OW 2512   0.848   6.104   3.615
  538SOL    HW1 2513   0.855   6.037   3.541
  538SOL    HW2 2514   0.907   6.182   3.594
  539SOL     OW 2515   1.713   4.797   1.871
  539SOL    HW1 2516   1.714   4.878   1.930
  539SOL    HW2 2517   1.678   4.821   1.781
  540SOL     OW 2518   1.325   2.235   2.337
  540SOL    HW1 2519   1.277   2.150   2.357
  540SOL    HW2 2520   1.285   2.309   2.392
  541SOL     OW 2521   2.937   5.610   5.884
  541SOL    HW1 2522   3.009   5.674   5.855
  541SOL    HW2 2523   2.936   5.531   5.823
  542SOL     OW 2524   5.822   5.478   6.552
  542SOL    HW1 2525   5.886   5.480   6.476
  542SOL    HW2 2526   5.873   5.468   6.638
  543SOL     OW 2527   0.505   5.548   0.160
  543SOL    HW1 2528   0.521   5.588   0.070
  543SOL    HW2 2529   0.432   5.597   0.206
  544SOL     OW 2530   1.209   5.053   0.898
  544SOL    HW1 2531   1.245   4.960   0.886
  544SOL    HW2 2532   1.119   5.049   0.940
  545SOL     OW 2533   3.872   1.697   2.896
  545SOL    HW1 2534   3.920   1.665   2.814
  545SOL    HW2 2535   3.827   1.784   2.876
  546SOL     OW 2536   1.016   4.138   0.088
  546SOL    HW1 2537   1.098   4.163   0.037
  546SOL    HW2 2538   0.980   4.051   0.054
  547SOL     OW 2539   2.954   3.095   0.165
  547SOL    HW1 2540   2.863   3.104   0.125
  547SOL    HW2 2541   3.016   3.160   0.122
  548SOL     OW 2542   3.671   2.895   3.760
  548SOL    HW1 2543   3.593   2.950   3.791
  548SOL    HW2 2544   3.673   2.892   3.660
  549SOL     OW 2545   6.171   3.499   1.640
  549SOL    HW1 2546   6.249   3.483   1.702
  549SOL    HW2 2547   6.121   3.580   1.671
  550SOL     OW 2548   0.820   4.132   2.159
  550SOL    HW1 2549   0.745   4.153   2.222
  550SOL    HW2 2550   0.797   4.166   2.068
  551SOL     OW 2551   6.680   2.489   0.333
  551SOL    HW1 2552   6.620   2.526   0.404
  551SOL    HW2 2553   6.630   2.417   0.283
  552SOL     OW 2554   4.112   5.941   0.174
  552SOL    HW1 2555   4.204   5.908   0.194
  552SOL    HW2 2556   4.049   5.910   0.246
  553SOL     OW 2557   1.781   1.750   1.871
  553SOL    HW1 2558   1.871   1.771   1.831
  553SOL    HW2 2559   1.781   1.777   1.967
  554SOL     OW 2560   5.086   6.316   5.075
  554SOL    HW1 2561   5.144   6.240   5.045
  554SOL    HW2 2562   5.132   6.367   5.148
  555SOL     OW 2563   1.357   4.509   4.803
  555SOL    HW1 2564   1.309   4.558   4.876
  555SOL    HW2 2565   1.431   4.456   4.842
  556SOL     OW 2566   4.953   3.242   4.004
  556SOL    HW1 2567   4.934   3.152   4.042
  556SOL    HW2 2568   4.953   3.310   4.078
  557SOL     OW 2569   0.421   6.192   6.155
  557SOL    HW1 2570   0.325   6.220   6.154
  557SOL    HW2 2571   0.477   6.265   6.114
  558SOL     OW 2572   3.851   4.223   5.122
  558SOL    HW1 2573   3.934   4.203   5.174
  558SOL    HW2 2574   3.790   4.280   5.177
  559SOL     OW 2575   6.144   5.934   6.315
  559SOL    HW1 2576   6.219   5.908   6.255
  559SOL    HW2 2577   6.154   5.889   6.403
  560SOL     OW 2578   4.227   6.494   0.171
  560SOL    HW1 2579   4.178   6.431   0.111
  560SOL    HW2 2580   4.186   6.491   0.263
  561SOL     OW 2581   5.627   6.812   0.745
  561SOL    HW1 2582   5.560   6.876   0.708
  561SOL    HW2 2583   5.588   6.765   0.824
  562SOL     OW 2584   5.950   1.794   5.454
  562SOL    HW1 2585   5.895   1.721   5.414
  562SOL    HW2 2586   5.906   1.882   5.438
  563SOL     OW 2587   3.201   6.412   4.056
  563SOL    HW1 2588   3.105   6.384   4.054
  563SOL    HW2 2589   3.218   6.476   3.981
  564SOL     OW 2590   1.082   0.915   6.268
  564SOL    HW1 2591   1.162   0.959   6.308
  564SOL    HW2 2592   1.082   0.818   6.291
  565SOL     OW 2593   4.858   3.938   4.909
  565SOL    HW1 2594   4.869   3.874   4.833
  565SOL    HW2 2595   4.824   4.026   4.875
  566SOL     OW 2596   5.232   4.792   2.854
  566SOL    HW1 2597   5.206   4.884   2.824
  566SOL    HW2 2598   5.158   4.753   2.908
  567SOL     OW 2599   3.608   3.006   4.498
  567SOL    HW1 2600   3.546   2.961   4.433
  567SOL    HW2 2601   3.568   3.003   4.590
  568SOL     OW 2602   2.577   1.796   0.116
  568SOL    HW1 2603   2.660   1.788   0.171
  568SOL    HW2 2604   2.509   1.731   0.149
  569SOL     OW 2605   2.495   2.740   0.473
  569SOL    HW1 2606   2.485   2.646   0.442
  569SOL    HW2 2607   2.405   2.782   0.484
  570SOL     OW 2608   6.564   6.014   1.175
  570SOL    HW1 2609   6.515   6.021   1.262
  570SOL    HW2 2610   6.623   5.933   1.177
  571SOL     OW 2611   4.134   5.360   3.376
  571SOL    HW1 2612   4.074   5.315   3.442
  571SOL    HW2 2613   4.223   5.378   3.418
  572SOL     OW 2614   1.837   3.867   5.024
  572SOL    HW1 2615   1.909   3.808   4.988
  572SOL    HW2 2616   1.748   3.834   4.993
  573SOL     OW 2617   3.943   2.081   6.234
  573SOL    HW1 2618   3.906   2.147   6.169
  573SOL    HW2 2619   3.868   2.042   6.289
  574SOL     OW 2620   2.503   1.708   4.307
  574SOL    HW1 2621   2.423   1.761   4.335
  574SOL    HW2 2622   2.475   1.615   4.282
  575SOL     OW 2623   5.750   2.546   6.984
  575SOL    HW1 2624   5.784   2.576   0.051
  575SOL    HW2 2625   5.664   2.497   6.996
  576SOL     OW 2626   0.515   1.942   2.701
  576SOL    HW1 2627   0.429   1.913   2.744
  576SOL    HW2 2628   0.498   1.966   2.606
  577SOL     OW 2629   3.148   1.850   3.336
  577SOL    HW1 2630   3.056   1.889   3.334
  577SOL    HW2 2631   3.209   1.907   3.281
  578SOL     OW 2632   0.040   3.412   3.740
  578SOL    HW1 2633   0.096   3.336   3.772
  578SOL    HW2 2634   6.975   3.413   3.790
  579SOL     OW 2635   4.465   3.179   6.775
  579SOL    HW1 2636   4.512   3.255   6.730
  579SOL    HW2 2637   4.528   3.132   6.836
  580SOL     OW 2638   0.664   5.911   0.332
  580SOL    HW1 2639   0.690   5.944   0.241
  580SOL    HW2 2640   0.720   5.958   0.401
  581SOL     OW 2641   3.924   3.935   2.541
  581SOL    HW1 2642   3.918   4.031   2.512
  581SOL    HW2 2643   3.863   3.920   2.619
  582SOL     OW 2644   6.179   3.806   1.982
  582SOL    HW1 2645   6.100   3.867   1.969
  582SOL    HW2 2646   6.264   3.857   1.972
  583SOL     OW 2647   1.857   4.819   0.079
  583SOL    HW1 2648   1.757   4.822   0.069
  583SOL    HW2 2649   1.895   4.909   0.060
  584SOL     OW 2650   0.248   5.346   4.553
  584SOL    HW1 2651   0.347   5.356   4.565
  584SOL    HW2 2652   0.209   5.303   4.634
  585SOL     OW 2653   0.119   1.398   6.719
  585SOL    HW1 2654   0.178   1.322   6.745
  585SOL    HW2 2655   0.142   1.479   6.773
  586SOL     OW 2656   2.620   6.467   0.876
  586SOL    HW1 2657   2.619   6.481   0.974
  586SOL    HW2 2658   2.678   6.388   0.854
  587SOL     OW 2659   1.115   2.960   5.187
  587SOL    HW1 2660   1.135   3.025   5.114
  587SOL    HW2 2661   1.161   2.873   5.169
  588SOL     OW 2662   3.362   6.994   1.485
  588SOL    HW1 2663   3.438   7.015   1.424
  588SOL    HW2 2664   3.387   7.015   1.580
  589SOL     OW 2665   4.639   5.302   2.603
  589SOL    HW1 2666   4.724   5.353   2.589
  589SOL    HW2 2667   4.599   5.327   2.691
  590SOL     OW 2668   6.681   2.440   1.761
  590SOL    HW1 2669   6.592   2.397   1.779
  590SOL    HW2 2670   6.751   2.394   1.815
  591SOL     OW 2671   3.627   6.710   2.958
  591SOL    HW1 2672   3.627   6.715   3.058
  591SOL    HW2 2673   3.684   6.632   2.930
  592SOL     OW 2674   5.441   0.912   6.948
  592SOL    HW1 2675   5.535   0.888   6.923
  592SOL    HW2 2676   5.442   0.968   0.009
  593SOL     OW 2677   5.408   1.728   3.610
  593SOL    HW1 2678   5.399   1.807   3.671
  593SOL    HW2 2679   5.334   1.663   3.629
  594SOL     OW 2680   4.623   2.823   1.052
  594SOL    HW1 2681   4.547   2.767   1.087
  594SOL    HW2 2682   4.681   2.853   1.128
  595SOL     OW 2683   3.420   6.644   3.857
  595SOL    HW1 2684   3.449   6.736   3.886
  595SOL    HW2 2685   3.321   6.640   3.854
  596SOL     OW 2686   1.266   4.969   2.679
  596SOL    HW1 2687   1.173   4.959   2.715
  596SOL    HW2 2688   1.273   4.921   2.591
  597SOL     OW 2689   3.871   1.961   5.657
  597SOL    HW1 2690   3.782   1.970   5.702
  597SOL    HW2 2691   3.938   1.926   5.721
  598SOL     OW 2692   3.169   4.285   0.795
  598SOL    HW1 2693   3.131   4.203   0.752
  598SOL    HW2 2694   3.268   4.276   0.803
  599SOL     OW 2695   6.715   6.369   2.466
  599SOL    HW1 2696   6.656   6.298   2.428
  599SOL    HW2 2697   6.786   6.392   2.399
  600SOL     OW 2698   2.629   0.387   0.386
  600SOL    HW1 2699   2.720   0.406   0.424
  600SOL    HW2 2700   2.559   0.415   0.452
  601SOL     OW 2701   2.889   5.263   3.528
  601SOL    HW1 2702   2.846   5.173   3.528
  601SOL    HW2 2703   2.986   5.254   3.509
  602SOL     OW 2704   1.376   1.200   1.479
  602SOL    HW1 2705   1.357   1.102   1.470
  602SOL    HW2 2706   1.462   1.222   1.433
  603SOL     OW 2707   3.927   2.095   3.234
  603SOL    HW1 2708   3.879   2.009   3.248
  603SOL    HW2 2709   3.954   2.104   3.138
  604SOL     OW 2710   0.370   4.088   5.804
  604SOL    HW1 2711   0.393   4.178   5.767
  604SOL    HW2 2712   0.284   4.095   5.855
  605SOL     OW 2713   5.719   0.611   4.690
  605SOL    HW1 2714   5.809   0.656   4.693
  605SOL    HW2 2715   5.691   0.600   4.595
  606SOL     OW 2716   3.512   0.189   3.323
  606SOL    HW1 2717   3.561   0.198   3.237
  606SOL    HW2 2718   3.578   0.190   3.399
  607SOL     OW 2719   4.618   0.883   4.211
  607SOL    HW1 2720   4.599   0.860   4.116
  607SOL    HW2 2721   4.617   0.800   4.266
  608SOL     OW 2722   4.630   1.426   1.288
  608SOL    HW1 2723   4.693   1.478   1.230
  608SOL    HW2 2724   4.540   1.468   1.285
  609SOL     OW 2725   3.211   3.866   4.436
  609SOL    HW1 2726   3.199   3.945   4.497
  609SOL    HW2 2727   3.269   3.798   4.481
  610SOL     OW 2728   5.025   2.223   4.561
  610SOL    HW1 2729   5.001   2.237   4.657
  610SOL    HW2 2730   4.942   2.206   4.509
  611SOL     OW 2731   0.494   0.050   1.098
  611SOL    HW1 2732   0.527   6.999   1.158
  611SOL    HW2 2733   0.437   0.113   1.150
  612SOL     OW 2734   3.586   5.735   5.603
  612SOL    HW1 2735   3.519   5.692   5.543
  612SOL    HW2 2736   3.548   5.745   5.695
  613SOL     OW 2737   3.579   2.347   6.728
  613SOL    HW1 2738   3.511   2.401   6.678
  613SOL    HW2 2739   3.662   2.339   6.673
  614SOL     OW 2740   4.869   4.461   1.316
  614SOL    HW1 2741   4.957   4.423   1.287
  614SOL    HW2 2742   4.848   4.541   1.261
  615SOL     OW 2743   6.191   6.466   1.113
  615SOL    HW1 2744   6.117   6.438   1.053
  615SOL    HW2 2745   6.212   6.391   1.176
  616SOL     OW 2746   5.809   1.402   5.033
  616SOL    HW1 2747   5.728   1.351   5.005
  616SOL    HW2 2748   5.891   1.355   5.001
  617SOL     OW 2749   6.975   5.139   5.667
  617SOL    HW1 2750   0.030   5.087   5.629
  617SOL    HW2 2751   6.954   5.106   5.759
  618SOL     OW 2752   6.387   3.775   0.862
  618SOL    HW1 2753   6.478   3.814   0.846
  618SOL    HW2 2754   6.337   3.831   0.927
  619SOL     OW 2755   2.879   0.534   6.003
  619SOL    HW1 2756   2.920   0.500   5.919
  619SOL    HW2 2757   2.790   0.491   6.018
  620SOL     OW 2758   6.150   1.601   2.244
  620SOL    HW1 2759   6.156   1.687   2.194
  620SOL    HW2 2760   6.176   1.615   2.339
  621SOL     OW 2761   2.906   1.018   6.701
  621SOL    HW1 2762   2.991   1.069   6.689
  621SOL    HW2 2763   2.840   1.076   6.749
  622SOL     OW 2764   1.178   1.975   5.003
  622SOL    HW1 2765   1.276   1.981   4.981
  622SOL    HW2 2766   1.126   2.034   4.941
  623SOL     OW 2767   6.015   0.345   3.633
  623SOL    HW1 2768   5.915   0.342   3.622
  623SOL    HW2 2769   6.041   0.428   3.683
  624SOL     OW 2770   6.872   0.510   6.415
  624SOL    HW1 2771   6.915   0.504   6.505
  624SOL    HW2 2772   6.778   0.542   6.425
  625SOL     OW 2773   2.522   1.836   0.717
  625SOL    HW1 2774   2.596   1.785   0.760
  625SOL    HW2 2775   2.555   1.926   0.690
  626SOL     OW 2776   6.878   5.644   4.047
  626SOL    HW1 2777   6.822   5.567   4.078
  626SOL    HW2 2778   6.819   5.712   4.003
  627SOL     OW 2779   6.555   0.578   0.232
  627SOL    HW1 2780   6.466   0.534   0.224
  627SOL    HW2 2781   6.545   0.665   0.281
  628SOL     OW 2782   4.189   4.400   6.000
  628SOL    HW1 2783   4.146   4.451   6.074
  628SOL    HW2 2784   4.286   4.386   6.022
  629SOL     OW 2785   1.362   6.771   6.615
  629SOL    HW1 2786   1.298   6.774   6.539
  629SOL    HW2 2787   1.450   6.735   6.583
  630SOL     OW 2788   6.244   1.372   1.471
  630SOL    HW1 2789   6.170   1.304   1.478
  630SOL    HW2 2790   6.332   1.325   1.478
  631SOL     OW 2791   1.625   2.903   3.676
  631SOL    HW1 2792   1.543   2.910   3.733
  631SOL    HW2 2793   1.602   2.855   3.591
  632SOL     OW 2794   3.763   4.061   6.714
  632SOL    HW1 2795   3.672   4.035   6.683
  632SOL    HW2 2796   3.793   4.143   6.665
  633SOL     OW 2797   1.707   6.207   1.417
  633SOL    HW1 2798   1.738   6.125   1.368
  633SOL    HW2 2799   1.631   6.183   1.478
  634SOL     OW 2800   3.241   3.238   4.799
  634SOL    HW1 2801   3.300   3.216   4.877
  634SOL    HW2 2802   3.238   3.337   4.786
  635SOL     OW 2803   5.477   0.463   6.611
  635SOL    HW1 2804   5.468   0.397   6.685
  635SOL    HW2 2805   5.465   0.556   6.647
  636SOL     OW 2806   2.748   0.322   5.682
  636SOL    HW1 2807   2.759   0.224   5.669
  636SOL    HW2 2808   2.663   0.352   5.638
  637SOL     OW 2809   6.593   0.387   2.743
  637SOL    HW1 2810   6.669   0.441   2.707
  637SOL    HW2 2811   6.629   0.314   2.802
  638SOL     OW 2812   0.092   3.436   4.568
  638SOL    HW1 2813   0.104   3.497   4.646
  638SOL    HW2 2814   0.104   3.341   4.596
  639SOL     OW 2815   5.372   4.464   2.089
  639SOL    HW1 2816   5.395   4.518   2.170
  639SOL    HW2 2817   5.433   4.385   2.083
  640SOL     OW 2818   0.348   2.515   1.838
  640SOL    HW1 2819   0.313   2.598   1.795
  640SOL    HW2 2820   0.345   2.525   1.937
  641SOL     OW 2821   2.032   4.891   4.433
  641SOL    HW1 2822   2.112   4.835   4.453
  641SOL    HW2 2823   2.005   4.941   4.516
  642SOL     OW 2824   0.763   4.200   4.888
  642SOL    HW1 2825   0.695   4.251   4.835
  642SOL    HW2 2826   0.847   4.191   4.835
  643SOL     OW 2827   4.823   5.288   0.785
  643SOL    HW1 2828   4.857   5.196   0.766
  643SOL    HW2 2829   4.861   5.321   0.872
  644SOL     OW 2830   0.015   0.038   5.391
  644SOL    HW1 2831   7.000   6.968   5.378
  644SOL    HW2 2832   6.983   0.086   5.461
  645SOL     OW 2833   4.028   5.199   2.140
  645SOL    HW1 2834   4.104   5.259   2.117
  645SOL    HW2 2835   3.969   5.244   2.206
  646SOL     OW 2836   3.862   2.114   4.571
  646SOL    HW1 2837   3.767   2.129   4.541
  646SOL    HW2 2838   3.864   2.107   4.670
  647SOL     OW 2839   3.993   2.479   5.823
  647SOL    HW1 2840   3.994   2.547   5.749
  647SOL    HW2 2841   3.919   2.414   5.807
  648SOL     OW 2842   6.292   1.184   3.110
  648SOL    HW1 2843   6.293   1.094   3.065
  648SOL    HW2 2844   6.355   1.245   3.062
  649SOL     OW 2845   1.929   5.558   0.515
  649SOL    HW1 2846   1.850   5.507   0.549
  649SOL    HW2 2847   2.002   5.556   0.584
  650SOL     OW 2848   0.404   3.835   0.975
  650SOL    HW1 2849   0.483   3.775   0.987
  650SOL    HW2 2850   0.395   3.894   1.055
  651SOL     OW 2851   1.232   0.469   4.309
  651SOL    HW1 2852   1.175   0.546   4.281
  651SOL    HW2 2853   1.205   0.440   4.401
  652SOL     OW 2854   3.823   6.420   1.924
  652SOL    HW1 2855   3.789   6.455   2.011
  652SOL    HW2 2856   3.759   6.353   1.888
  653SOL     OW 2857   1.127   0.471   2.223
  653SOL    HW1 2858   1.046   0.419   2.195
  653SOL    HW2 2859   1.175   0.421   2.296
  654SOL     OW 2860   0.247   6.906   5.039
  654SOL    HW1 2861   0.208   6.815   5.023
  654SOL    HW2 2862   0.249   6.957   4.953
  655SOL     OW 2863   0.356   4.147   2.007
  655SOL    HW1 2864   0.298   4.070   1.981
  655SOL    HW2 2865   0.448   4.134   1.969
  656SOL     OW 2866   3.605   6.091   0.136
  656SOL    HW1 2867   3.632   6.128   0.225
  656SOL    HW2 2868   3.506   6.077   0.134
  657SOL     OW 2869   3.708   3.319   2.887
  657SOL    HW1 2870   3.772   3.333   2.811
  657SOL    HW2 2871   3.755   3.275   2.963
  658SOL     OW 2872   1.690   1.575   5.151
  658SOL    HW1 2873   1.699   1.504   5.080
  658SOL    HW2 2874   1.700   1.533   5.241
  659SOL     OW 2875   1.728   5.961   6.193
  659SOL    HW1 2876   1.796   6.026   6.227
  659SOL    HW2 2877   1.637   5.988   6.223
  660SOL     OW 2878   4.786   4.635   2.990
  660SOL    HW1 2879   4.724   4.571   2.944
  660SOL    HW2 2880   4.743   4.725   2.997
  661SOL     OW 2881   4.833   4.147   4.536
  661SOL    HW1 2882   4.899   4.192   4.596
  661SOL    HW2 2883   4.740   4.174   4.562
  662SOL     OW 2884   5.215   3.384   6.552
  662SOL    HW1 2885   5.162   3.401   6.468
  662SOL    HW2 2886   5.188   3.296   6.591
  663SOL     OW 2887   6.870   4.065   6.990
  663SOL    HW1 2888   6.948   4.003   6.993
  663SOL    HW2 2889   6.790   4.016   6.958
  664SOL     OW 2890   1.796   6.819   6.693
  664SOL    HW1 2891   1.781   6.815   6.594
  664SOL    HW2 2892   1.894   6.820   6.713
  665SOL     OW 2893   3.457   5.002   1.300
  665SOL    HW1 2894   3.477   4.998   1.398
  665SOL    HW2 2895   3.540   4.984   1.248
  666SOL     OW 2896   3.039   0.723   0.515
  666SOL    HW1 2897   2.971   0.764   0.454
  666SOL    HW2 2898   3.117   0.691   0.461
  667SOL     OW 2899   1.116   3.485   3.243
  667SOL    HW1 2900   1.112   3.385   3.245
  667SOL    HW2 2901   1.191   3.516   3.302
  668SOL     OW 2902   5.401   6.981   0.617
  668SOL    HW1 2903   5.350   6.946   0.538
  668SOL    HW2 2904   5.337   7.021   0.682
  669SOL     OW 2905   2.162   6.169   2.807
  669SOL    HW1 2906   2.201   6.090   2.761
  669SOL    HW2 2907   2.063   6.169   2.797
  670SOL     OW 2908   3.547   3.036   3.252
  670SOL    HW1 2909   3.523   3.111   3.190
  670SOL    HW2 2910   3.644   3.014   3.241
  671SOL     OW 2911   1.113   0.128   6.390
  671SOL    HW1 2912   1.021   0.102   6.360
  671SOL    HW2 2913   1.116   0.127   6.490
  672SOL     OW 2914   2.600   1.875   3.580
  672SOL    HW1 2915   2.572   1.825   3.663
  672SOL    HW2 2916   2.680   1.830   3.540
  673SOL     OW 2917   5.699   6.395   0.476
  673SOL    HW1 2918   5.724   6.359   0.566
  673SOL    HW2 2919   5.706   6.495   0.477
  674SOL     OW 2920   6.639   1.984   3.345
  674SOL    HW1 2921   6.670   1.894   3.314
  674SOL    HW2 2922   6.654   1.992   3.444
  675SOL     OW 2923   5.876   1.149   4.683
  675SOL    HW1 2924   5.854   1.191   4.771
  675SOL    HW2 2925   5.852   1.211   4.609
  676SOL     OW 2926   2.184   4.906   4.931
  676SOL    HW1 2927   2.111   4.846   4.963
  676SOL    HW2 2928   2.255   4.852   4.885
  677SOL     OW 2929   4.962   6.965   1.137
  677SOL    HW1 2930   4.975   6.871   1.105
  677SOL    HW2 2931   4.867   6.977   1.166
  678SOL     OW 2932   2.189   1.393   6.011
  678SOL    HW1 2933   2.115   1.348   5.961
  678SOL    HW2 2934   2.164   1.489   6.027
  679SOL     OW 2935   5.596   6.764   2.852
  679SOL    HW1 2936   5.611   6.852   2.896
  679SOL    HW2 2937   5.504   6.730   2.873
  680SOL     OW 2938   5.440   3.889   5.011
  680SOL    HW1 2939   5.537   3.912   5.000
  680SOL    HW2 2940   5.431   3.791   5.027
  681SOL     OW 2941   2.044   6.879   1.967
  681SOL    HW1 2942   1.955   6.924   1.968
  681SOL    HW2 2943   2.068   6.855   1.873
  682SOL     OW 2944   1.344   6.208   0.029
  682SOL    HW1 2945   1.421   6.221   0.091
  682SOL    HW2 2946   1.308   6.115   0.040
  683SOL     OW 2947   5.412   1.920   0.211
  683SOL    HW1 2948   5.397   1.951   0.304
  683SOL    HW2 2949   5.493   1.862   0.207
  684SOL     OW 2950   0.394   6.109   6.641
  684SOL    HW1 2951   0.301   6.083   6.669
  684SOL    HW2 2952   0.440   6.154   6.718
  685SOL     OW 2953   6.002   1.118   5.789
  685SOL    HW1 2954   5.960   1.142   5.877
  685SOL    HW2 2955   5.953   1.165   5.715
  686SOL     OW 2956   5.546   4.562   3.120
  686SOL    HW1 2957   5.451   4.585   3.142
  686SOL    HW2 2958   5.607   4.603   3.188
  687SOL     OW 2959   5.971   2.531   4.696
  687SOL    HW1 2960   5.876   2.549   4.724
  687SOL    HW2 2961   6.029   2.606   4.727
  688SOL     OW 2962   0.427   3.561   4.681
  688SOL    HW1 2963   0.505   3.560   4.618
  688SOL    HW2 2964   0.405   3.468   4.709
  689SOL     OW 2965   6.097   4.386   5.711
  689SOL    HW1 2966   6.003   4.419   5.702
  689SOL    HW2 2967   6.119   4.373   5.808
  690SOL     OW 2968   0.785   2.649   3.611
  690SOL    HW1 2969   0.751   2.685   3.698
  690SOL    HW2 2970   0.880   2.677   3.598
  691SOL     OW 2971   0.389   3.148   0.020
  691SOL    HW1 2972   0.467   3.106   6.995
  691SOL    HW2 2973   0.375   3.103   0.108
  692SOL     OW 2974   1.789   6.934   3.540
  692SOL    HW1 2975   1.886   6.911   3.554
  692SOL    HW2 2976   1.732   6.876   3.598
  693SOL     OW 2977   6.671   0.673   2.366
  693SOL    HW1 2978   6.708   0.601   2.309
  693SOL    HW2 2979   6.708   0.761   2.337
  694SOL     OW 2980   1.808   0.426   2.156
  694SOL    HW1 2981   1.783   0.329   2.154
  694SOL    HW2 2982   1.735   0.480   2.114
  695SOL     OW 2983   4.288   5.847   6.088
  695SOL    HW1 2984   4.329   5.927   6.133
  695SOL    HW2 2985   4.212   5.813   6.143
  696SOL     OW 2986   4.554   5.604   2.520
  696SOL    HW1 2987   4.642   5.563   2.543
  696SOL    HW2 2988   4.490   5.590   2.596
  697SOL     OW 2989   1.366   3.792   4.064
  697SOL    HW1 2990   1.266   3.783   4.057
  697SOL    HW2 2991   1.389   3.832   4.153
  698SOL     OW 2992   3.763   6.562   3.850
  698SOL    HW1 2993   3.716   6.500   3.787
  698SOL    HW2 2994   3.850   6.521   3.879
  699SOL     OW 2995   1.865   4.622   6.864
  699SOL    HW1 2996   1.946   4.641   6.808
  699SOL    HW2 2997   1.850   4.699   6.926
  700SOL     OW 2998   2.324   1.030   3.899
  700SOL    HW1 2999   2.354   1.107   3.842
  700SOL    HW2 3000   2.403   0.982   3.936
  701SOL     OW 3001   0.716   4.928   6.125
  701SOL    HW1 3002   0.647   5.000   6.111
  701SOL    HW2 3003   0.725   4.910   6.223
  702SOL     OW 3004   5.476   5.325   5.026
  702SOL    HW1 3005   5.488   5.304   4.929
  702SOL    HW2 3006   5.485   5.423   5.040
  703SOL     OW 3007   4.461   3.708   0.239
  703SOL    HW1 3008   4.492   3.792   0.196
  703SOL    HW2 3009   4.397   3.660   0.179
  704SOL     OW 3010   2.440   0.384   0.683
  704SOL    HW1 3011   2.499   0.311   0.718
  704SOL    HW2 3012   2.351   0.346   0.657
  705SOL     OW 3013   6.032   2.863   3.033
  705SOL    HW1 3014   5.989   2.948   3.064
  705SOL    HW2 3015   6.126   2.859   3.067
  706SOL     OW 3016   4.438   2.025   3.887
  706SOL    HW1 3017   4.369   1.972   3.839
  706SOL    HW2 3018   4.491   2.079   3.822
  707SOL     OW 3019   4.939   1.570   1.464
  707SOL    HW1 3020   4.859   1.520   1.497
  707SOL    HW2 3021   4.948   1.656   1.515
  708SOL     OW 3022   4.020   1.020   1.692
  708SOL    HW1 3023   4.056   1.065   1.774
  708SOL    HW2 3024   3.985   1.088   1.628
  709SOL     OW 3025   1.085   4.991   0.015
  709SOL    HW1 3026   1.146   5.060   0.054
  709SOL    HW2 3027   1.037   5.030   6.957
  710SOL     OW 3028   2.959   3.697   2.447
  710SOL    HW1 3029   3.045   3.664   2.410
  710SOL    HW2 3030   2.884   3.671   2.385
  711SOL     OW 3031   0.854   0.456   3.943
  711SOL    HW1 3032   0.945   0.455   3.902
  711SOL    HW2 3033   0.823   0.362   3.957
  712SOL     OW 3034   1.450   4.000   1.556
  712SOL    HW1 3035   1.524   4.067   1.551
  712SOL    HW2 3036   1.467   3.927   1.490
  713SOL     OW 3037   4.053   3.243   3.350
  713SOL    HW1 3038   4.100   3.205   3.271
  713SOL    HW2 3039   3.956   3.254   3.329
  714SOL     OW 3040   4.814   5.192   5.400
  714SOL    HW1 3041   4.871   5.121   5.358
  714SOL    HW2 3042   4.830   5.279   5.353
  715SOL     OW 3043   4.282   0.422   6.156
  715SOL    HW1 3044   4.212   0.415   6.227
  715SOL    HW2 3045   4.366   0.377   6.188
  716SOL     OW 3046   6.839   4.797   1.978
  716SOL    HW1 3047   6.741   4.797   1.998
  716SOL    HW2 3048   6.868   4.889   1.952
  717SOL     OW 3049   5.960   3.004   0.307
  717SOL    HW1 3050   5.892   3.070   0.277
  717SOL    HW2 3051   6.038   3.005   0.244
  718SOL     OW 3052   3.572   3.910   6.576
  718SOL    HW1 3053   3.642   3.850   6.616
  718SOL    HW2 3054   3.522   3.859   6.506
  719SOL     OW 3055   5.121   4.458   0.107
  719SOL    HW1 3056   5.035   4.417   0.135
  719SOL    HW2 3057   5.104   4.547   0.064
  720SOL     OW 3058   2.083   0.381   6.161
  720SOL    HW1 3059   2.015   0.400   6.090
  720SOL    HW2 3060   2.037   0.364   6.248
  721SOL     OW 3061   1.588   6.874   5.925
  721SOL    HW1 3062   1.677   6.829   5.936
  721SOL    HW2 3063   1.518   6.804   5.912
  722SOL     OW 3064   4.717   0.090   5.707
  722SOL    HW1 3065   4.659   0.057   5.781
  722SOL    HW2 3066   4.799   0.034   5.701
  723SOL     OW 3067   1.489   3.090   2.345
  723SOL    HW1 3068   1.508   3.021   2.414
  723SOL    HW2 3069   1.570   3.147   2.330
  724SOL     OW 3070   6.622   1.022   4.544
  724SOL    HW1 3071   6.629   0.923   4.532
  724SOL    HW2 3072   6.646   1.067   4.458
  725SOL     OW 3073   2.135   5.519   0.711
  725SOL    HW1 3074   2.129   5.584   0.787
  725SOL    HW2 3075   2.132   5.426   0.747
  726SOL     OW 3076   4.052   0.105   6.647
  726SOL    HW1 3077   4.116   0.062   6.709
  726SOL    HW2 3078   4.085   0.196   6.622
  727SOL     OW 3079   2.760   4.870   4.261
  727SOL    HW1 3080   2.856   4.890   4.284
  727SOL    HW2 3081   2.728   4.793   4.316
  728SOL     OW 3082   6.875   3.599   4.809
  728SOL    HW1 3083   6.885   3.499   4.801
  728SOL    HW2 3084   6.965   3.639   4.828
  729SOL     OW 3085   3.111   0.254   1.164
  729SOL    HW1 3086   3.040   0.247   1.094
  729SOL    HW2 3087   3.129   0.164   1.203
  730SOL     OW 3088   6.365   0.075   4.511
  730SOL    HW1 3089   6.348   0.173   4.503
  730SOL    HW2 3090   6.463   0.057   4.498
  731SOL     OW 3091   6.127   3.534   3.441
  731SOL    HW1 3092   6.086   3.553   3.352
  731SOL    HW2 3093   6.082   3.590   3.511
  732SOL     OW 3094   0.132   2.949   2.286
  732SOL    HW1 3095   0.190   2.876   2.248
  732SOL    HW2 3096   0.069   2.910   2.354
  733SOL     OW 3097   4.738   4.190   3.548
  733SOL    HW1 3098   4.682   4.273   3.558
  733SOL    HW2 3099   4.711   4.142   3.465
  734SOL     OW 3100   6.858   4.733   0.925
  734SOL    HW1 3101   6.850   4.651   0.869
  734SOL    HW2 3102   6.928   4.793   0.887
  735SOL     OW 3103   1.063   4.545   6.523
  735SOL    HW1 3104   0.977   4.495   6.511
  735SOL    HW2 3105   1.042   4.637   6.557
  736SOL     OW 3106   6.076   1.188   3.267
  736SOL    HW1 3107   6.149   1.200   3.199
  736SOL    HW2 3108   6.037   1.097   3.259
  737SOL     OW 3109   5.608   3.542   0.284
  737SOL    HW1 3110   5.640   3.553   0.378
  737SOL    HW2 3111   5.512   3.571   0.279
  738SOL     OW 3112   0.423   4.106   4.015
  738SOL    HW1 3113   0.401   4.098   4.113
  738SOL    HW2 3114   0.353   4.057   3.962
  739SOL     OW 3115   5.025   5.999   0.178
  739SOL    HW1 3116   4.981   5.933   0.240
  739SOL    HW2 3117   5.043   6.084   0.228
  740SOL     OW 3118   5.613   6.613   1.139
  740SOL    HW1 3119   5.596   6.704   1.102
  740SOL    HW2 3120   5.530   6.557   1.128
  741SOL     OW 3121   2.224   1.148   3.212
  741SOL    HW1 3122   2.239   1.059   3.169
  741SOL    HW2 3123   2.200   1.216   3.143
  742SOL     OW 3124   1.233   0.199   3.304
  742SOL    HW1 3125   1.207   0.289   3.268
  742SOL    HW2 3126   1.205   0.192   3.400
  743SOL     OW 3127   1.488   3.873   4.328
  743SOL    HW1 3128   1.579   3.873   4.288
  743SOL    HW2 3129   1.460   3.967   4.350
  744SOL     OW 3130   0.537   6.059   1.066
  744SOL    HW1 3131   0.571   6.104   1.149
  744SOL    HW2 3132   0.576   6.104   0.986
  745SOL     OW 3133   1.622   5.764   2.671
  745SOL    HW1 3134   1.665   5.834   2.613
  745SOL    HW2 3135   1.673   5.678   2.664
  746SOL     OW 3136   1.844   0.515   4.617
  746SOL    HW1 3137   1.759   0.565   4.603
  746SOL    HW2 3138   1.843   0.471   4.707
  747SOL     OW 3139   5.479   4.976   2.608
  747SOL    HW1 3140   5.544   5.032   2.659
  747SOL    HW2 3141   5.404   5.034   2.575
  748SOL     OW 3142   4.307   3.284   1.557
  748SOL    HW1 3143   4.279   3.232   1.476
  748SOL    HW2 3144   4.252   3.256   1.635
  749SOL     OW 3145   6.930   1.709   5.329
  749SOL    HW1 3146   6.924   1.749   5.238
  749SOL    HW2 3147   0.004   1.683   5.348
  750SOL     OW 3148   2.358   4.125   0.617
  750SOL    HW1 3149   2.266   4.122   0.577
  750SOL    HW2 3150   2.359   4.189   0.693
  751SOL     OW 3151   4.922   0.900   0.565
  751SOL    HW1 3152   4.939   0.925   0.470
  751SOL    HW2 3153   5.002   0.853   0.602
  752SOL     OW 3154   5.141   1.641   1.966
  752SOL    HW1 3155   5.191   1.702   2.028
  752SOL    HW2 3156   5.043   1.662   1.970
  753SOL     OW 3157   2.026   2.712   3.546
  753SOL    HW1 3158   2.108   2.749   3.502
  753SOL    HW2 3159   1.996   2.630   3.497
  754SOL     OW 3160   4.716   5.423   7.008
  754SOL    HW1 3161   4.800   5.379   6.977
  754SOL    HW2 3162   4.673   5.470   6.931
  755SOL     OW 3163   0.384   6.652   1.284
  755SOL    HW1 3164   0.385   6.681   1.189
  755SOL    HW2 3165   0.323   6.573   1.294
  756SOL     OW 3166   4.433   0.199   3.737
  756SOL    HW1 3167   4.386   0.111   3.742
  756SOL    HW2 3168   4.411   0.243   3.650
  757SOL     OW 3169   0.628   0.583   3.611
  757SOL    HW1 3170   0.709   0.611   3.663
  757SOL    HW2 3171   0.643   0.492   3.572
  758SOL     OW 3172   4.140   2.612   1.094
  758SOL    HW1 3173   4.192   2.550   1.153
  758SOL    HW2 3174   4.042   2.596   1.107
  759SOL     OW 3175   1.702   1.481   0.343
  759SOL    HW1 3176   1.720   1.561   0.285
  759SOL    HW2 3177   1.707   1.508   0.439
  760SOL     OW 3178   4.656   1.779   6.367
  760SOL    HW1 3179   4.658   1.793   6.268
  760SOL    HW2 3180   4.569   1.735   6.392
  761SOL     OW 3181   6.239   2.534   6.605
  761SOL    HW1 3182   6.293   2.471   6.551
  761SOL    HW2 3183   6.293   2.616   6.625
  762SOL     OW 3184   2.313   5.530   3.651
  762SOL    HW1 3185   2.291   5.463   3.580
  762SOL    HW2 3186   2.237   5.595   3.660
  763SOL     OW 3187   4.787   6.057   6.750
  763SOL    HW1 3188   4.886   6.045   6.763
  763SOL    HW2 3189   4.741   5.969   6.759
  764SOL     OW 3190   4.288   1.031   2.204
  764SOL    HW1 3191   4.194   1.035   2.238
  764SOL    HW2 3192   4.326   0.940   2.221
  765SOL     OW 3193   0.201   6.876   3.339
  765SOL    HW1 3194   0.207   6.842   3.433
  765SOL    HW2 3195   0.282   6.847   3.288
  766SOL     OW 3196   0.129   6.350   6.984
  766SOL    HW1 3197   0.209   6.395   0.003
  766SOL    HW2 3198   0.047   6.404   7.004
  767SOL     OW 3199   5.676   6.952   2.261
  767SOL    HW1 3200   5.686   6.879   2.193
  767SOL    HW2 3201   5.664   0.018   2.214
  768SOL     OW 3202   3.217   6.616   3.556
  768SOL    HW1 3203   3.182   6.533   3.601
  768SOL    HW2 3204   3.197   6.611   3.458
  769SOL     OW 3205   3.852   0.974   5.877
  769SOL    HW1 3206   3.943   0.970   5.917
  769SOL    HW2 3207   3.817   1.068   5.884
  770SOL     OW 3208   3.317   4.909   4.148
  770SOL    HW1 3209   3.309   4.843   4.073
  770SOL    HW2 3210   3.233   4.908   4.202
  771SOL     OW 3211   0.783   5.678   3.941
  771SOL    HW1 3212   0.808   5.681   3.844
  771SOL    HW2 3213   0.703   5.736   3.956
  772SOL     OW 3214   6.614   4.465   5.988
  772SOL    HW1 3215   6.614   4.564   5.999
  772SOL    HW2 3216   6.571   4.441   5.901
  773SOL     OW 3217   0.236   4.325   2.535
  773SOL    HW1 3218   0.265   4.288   2.447
  773SOL    HW2 3219   0.165   4.267   2.574
  774SOL     OW 3220   1.459   1.184   1.998
  774SOL    HW1 3221   1.513   1.117   2.050
  774SOL    HW2 3222   1.521   1.239   1.941
  775SOL     OW 3223   2.042   1.878   4.587
  775SOL    HW1 3224   2.114   1.856   4.521
  775SOL    HW2 3225   1.980   1.800   4.596
  776SOL     OW 3226   1.908   0.590   5.992
  776SOL    HW1 3227   1.999   0.612   5.957
  776SOL    HW2 3228   1.910   0.591   6.092
  777SOL     OW 3229   4.086   0.949   0.623
  777SOL    HW1 3230   3.988   0.950   0.646
  777SOL    HW2 3231   4.102   1.006   0.543
  778SOL     OW 3232   4.135   6.804   4.393
  778SOL    HW1 3233   4.092   6.811   4.483
  778SOL    HW2 3234   4.141   6.895   4.352
  779SOL     OW 3235   0.945   1.329   2.464
  779SOL    HW1 3236   1.042   1.341   2.443
  779SOL    HW2 3237   0.927   1.355   2.559
  780SOL     OW 3238   5.684   3.199   5.022
  780SOL    HW1 3239   5.620   3.170   5.093
  780SOL    HW2 3240   5.653   3.285   4.982
  781SOL     OW 3241   0.243   1.569   5.618
  781SOL    HW1 3242   0.245   1.669   5.620
  781SOL    HW2 3243   0.149   1.538   5.630
  782SOL     OW 3244   0.456   3.018   0.673
  782SOL    HW1 3245   0.368   3.061   0.653
  782SOL    HW2 3246   0.443   2.949   0.745
  783SOL     OW 3247   3.344   4.532   0.256
  783SOL    HW1 3248   3.245   4.526   0.271
  783SOL    HW2 3249   3.367   4.622   0.220
  784SOL     OW 3250   4.858   0.401   4.921
  784SOL    HW1 3251   4.913   0.422   4.840
  784SOL    HW2 3252   4.791   0.474   4.936
  785SOL     OW 3253   6.448   2.706   3.280
  785SOL    HW1 3254   6.543   2.700   3.248
  785SOL    HW2 3255   6.447   2.700   3.380
  786SOL     OW 3256   6.926   6.779   0.140
  786SOL    HW1 3257   6.902   6.796   0.236
  786SOL    HW2 3258   6.863   6.711   0.102
  787SOL     OW 3259   3.066   1.808   6.021
  787SOL    HW1 3260   3.128   1.774   6.092
  787SOL    HW2 3261   2.998   1.869   6.063
  788SOL     OW 3262   1.305   4.176   3.950
  788SOL    HW1 3263   1.245   4.233   4.007
  788SOL    HW2 3264   1.275   4.180   3.855
  789SOL     OW 3265   5.473   3.966   1.005
  789SOL    HW1 3266   5.473   3.964   1.105
  789SOL    HW2 3267   5.541   4.032   0.973
  790SOL     OW 3268   3.302   1.499   3.551
  790SOL    HW1 3269   3.350   1.480   3.465
  790SOL    HW2 3270   3.282   1.597   3.557
  791SOL     OW 3271   3.528   1.641   4.147
  791SOL    HW1 3272   3.563   1.630   4.240
  791SOL    HW2 3273   3.452   1.706   4.148
  792SOL     OW 3274   6.182   0.476   3.234
  792SOL    HW1 3275   6.202   0.381   3.256
  792SOL    HW2 3276   6.153   0.483   3.139
  793SOL     OW 3277   6.289   0.515   6.958
  793SOL    HW1 3278   6.314   0.460   0.016
  793SOL    HW2 3279   6.222   0.584   6.985
  794SOL     OW 3280   2.182   5.241   5.584
  794SOL    HW1 3281   2.140   5.302   5.651
  794SOL    HW2 3282   2.278   5.228   5.606
  795SOL     OW 3283   4.787   4.937   6.033
  795SOL    HW1 3284   4.717   4.910   5.967
  795SOL    HW2 3285   4.865   4.874   6.027
  796SOL     OW 3286   0.435   2.288   6.222
  796SOL    HW1 3287   0.443   2.286   6.122
  796SOL    HW2 3288   0.452   2.197   6.259
  797SOL     OW 3289   5.849   2.736   3.945
  797SOL    HW1 3290   5.810   2.764   3.857
  797SOL    HW2 3291   5.799   2.779   4.019
  798SOL     OW 3292   6.016   0.881   6.102
  798SOL    HW1 3293   5.918   0.888   6.083
  798SOL    HW2 3294   6.068   0.905   6.019
  799SOL     OW 3295   7.003   3.362   3.219
  799SOL    HW1 3296   6.956   3.365   3.308
  799SOL    HW2 3297   0.044   3.284   3.217
  800SOL     OW 3298   6.013   1.391   1.855
  800SOL    HW1 3299   5.962   1.328   1.796
  800SOL    HW2 3300   6.110   1.391   1.828
  801SOL     OW 3301   6.996   2.564   3.055
  801SOL    HW1 3302   0.054   2.508   3.078
  801SOL    HW2 3303   7.014   2.659   3.078
  802SOL     OW 3304   5.709   1.029   0.725
  802SOL    HW1 3305   5.679   1.037   0.630
  802SOL    HW2 3306   5.670   1.105   0.778
  803SOL     OW 3307   6.671   6.987   5.060
  803SOL    HW1 3308   6.743   0.003   5.003
  803SOL    HW2 3309   6.688   7.009   5.156
  804SOL     OW 3310   0.059   0.247   0.675
  804SOL    HW1 3311   0.008   0.311   0.734
  804SOL    HW2 3312   0.060   0.157   0.717
  805SOL     OW 3313   2.910   3.431   6.230
  805SOL    HW1 3314   2.900   3.500   6.158
  805SOL    HW2 3315   3.006   3.403   6.236
  806SOL     OW 3316   5.328   1.043   0.940
  806SOL    HW1 3317   5.362   0.949   0.947
  806SOL    HW2 3318   5.246   1.044   0.883
  807SOL     OW 3319   1.427   6.932   3.598
  807SOL    HW1 3320   1.467   7.020   3.571
  807SOL    HW2 3321   1.333   6.926   3.565
  808SOL     OW 3322   5.187   3.603   5.281
  808SOL    HW1 3323   5.123   3.605   5.358
  808SOL    HW2 3324   5.142   3.563   5.202
  809SOL     OW 3325   6.944   4.671   6.002
  809SOL    HW1 3326   7.001   4.659   5.921
  809SOL    HW2 3327   6.856   4.710   5.975
  810SOL     OW 3328   5.875   4.709   6.931
  810SOL    HW1 3329   5.907   4.789   6.983
  810SOL    HW2 3330   5.952   4.647   6.916
  811SOL     OW 3331   5.222   4.903   4.299
  811SOL    HW1 3332   5.256   4.864   4.385
  811SOL    HW2 3333   5.122   4.910   4.304
  812SOL     OW 3334   0.154   6.787   2.216
  812SOL    HW1 3335   0.156   6.879   2.255
  812SOL    HW2 3336   0.105   6.788   2.129
  813SOL     OW 3337   5.152   5.713   2.399
  813SOL    HW1 3338   5.117   5.626   2.363
  813SOL    HW2 3339   5.091   5.745   2.472
  814SOL     OW 3340   5.054   6.181   1.360
  814SOL    HW1 3341   5.040   6.091   1.401
  814SOL    HW2 3342   4.970   6.235   1.365
  815SOL     OW 3343   7.020   2.532   0.778
  815SOL    HW1 3344   6.956   2.501   0.708
  815SOL    HW2 3345   6.973   2.536   0.867
  816SOL     OW 3346   6.338   0.377   0.964
  816SOL    HW1 3347   6.276   0.312   0.921
  816SOL    HW2 3348   6.289   0.431   1.032
  817SOL     OW 3349   1.855   2.445   2.946
  817SOL    HW1 3350   1.833   2.428   2.850
  817SOL    HW2 3351   1.953   2.434   2.960
  818SOL     OW 3352   6.665   1.647   0.987
  818SOL    HW1 3353   6.612   1.683   1.064
  818SOL    HW2 3354   6.753   1.613   1.020
  819SOL     OW 3355   0.055   3.763   4.118
  819SOL    HW1 3356   6.992   3.709   4.116
  819SOL    HW2 3357   0.041   3.847   4.065
  820SOL     OW 3358   1.177   3.005   4.782
  820SOL    HW1 3359   1.153   3.040   4.872
  820SOL    HW2 3360   1.217   3.078   4.727
  821SOL     OW 3361   1.323   3.383   6.923
  821SOL    HW1 3362   1.392   3.453   6.947
  821SOL    HW2 3363   1.241   3.428   6.889
  822SOL     OW 3364   1.550   3.843   4.843
  822SOL    HW1 3365   1.461   3.797   4.835
  822SOL    HW2 3366   1.607   3.818   4.765
  823SOL     OW 3367   3.266   3.933   0.886
  823SOL    HW1 3368   3.323   3.926   0.805
  823SOL    HW2 3369   3.212   4.017   0.882
  824SOL     OW 3370   5.544   1.791   5.649
  824SOL    HW1 3371   5.506   1.803   5.557
  824SOL    HW2 3372   5.509   1.706   5.688
  825SOL     OW 3373   2.086   4.319   2.232
  825SOL    HW1 3374   2.154   4.368   2.286
  825SOL    HW2 3375   2.007   4.297   2.289
  826SOL     OW 3376   0.531   3.879   5.756
  826SOL    HW1 3377   0.581   3.880   5.843
  826SOL    HW2 3378   0.474   3.960   5.749
  827SOL     OW 3379   3.989   5.935   6.945
  827SOL    HW1 3380   4.021   5.939   0.018
  827SOL    HW2 3381   3.890   5.923   6.943
  828SOL     OW 3382   6.340   6.940   5.797
  828SOL    HW1 3383   6.369   7.021   5.848
  828SOL    HW2 3384   6.268   6.892   5.848
  829SOL     OW 3385   3.501   3.008   4.755
  829SOL    HW1 3386   3.416   2.970   4.791
  829SOL    HW2 3387   3.578   2.978   4.812
  830SOL     OW 3388   4.424   3.923   5.306
  830SOL    HW1 3389   4.362   3.939   5.383
  830SOL    HW2 3390   4.446   3.826   5.300
  831SOL     OW 3391   6.653   0.946   5.162
  831SOL    HW1 3392   6.723   0.959   5.092
  831SOL    HW2 3393   6.562   0.953   5.121
  832SOL     OW 3394   2.184   1.670   5.975
  832SOL    HW1 3395   2.112   1.727   6.014
  832SOL    HW2 3396   2.160   1.646   5.881
  833SOL     OW 3397   0.196   6.931   6.071
  833SOL    HW1 3398   0.102   6.897   6.081
  833SOL    HW2 3399   0.227   6.915   5.977
  834SOL     OW 3400   3.349   4.212   5.260
  834SOL    HW1 3401   3.327   4.254   5.348
  834SOL    HW2 3402   3.406   4.274   5.206
  835SOL     OW 3403   3.944   0.337   3.513
  835SOL    HW1 3404   3.996   0.305   3.592
  835SOL    HW2 3405   4.004   0.389   3.452
  836SOL     OW 3406   2.365   1.435   0.582
  836SOL    HW1 3407   2.269   1.464   0.587
  836SOL    HW2 3408   2.370   1.341   0.548
  837SOL     OW 3409   4.422   0.893   5.628
  837SOL    HW1 3410   4.474   0.841   5.561
  837SOL    HW2 3411   4.477   0.968   5.662
  838SOL     OW 3412   2.296   5.132   3.086
  838SOL    HW1 3413   2.202   5.106   3.111
  838SOL    HW2 3414   2.310   5.113   2.989
  839SOL     OW 3415   2.826   1.555   2.481
  839SOL    HW1 3416   2.804   1.471   2.432
  839SOL    HW2 3417   2.779   1.632   2.437
  840SOL     OW 3418   0.892   1.332   6.542
  840SOL    HW1 3419   0.833   1.402   6.502
  840SOL    HW2 3420   0.837   1.271   6.599
  841SOL     OW 3421   0.769   3.718   6.878
  841SOL    HW1 3422   0.698   3.752   6.816
  841SOL    HW2 3423   0.859   3.749   6.847
  842SOL     OW 3424   3.622   5.546   3.814
  842SOL    HW1 3425   3.639   5.598   3.731
  842SOL    HW2 3426   3.691   5.475   3.825
  843SOL     OW 3427   6.433   2.319   1.739
  843SOL    HW1 3428   6.407   2.390   1.674
  843SOL    HW2 3429   6.361   2.307   1.807
  844SOL     OW 3430   5.642   5.296   0.528
  844SOL    HW1 3431   5.604   5.212   0.567
  844SOL    HW2 3432   5.623   5.299   0.430
  845SOL     OW 3433   0.747   4.319   5.230
  845SOL    HW1 3434   0.677   4.380   5.265
  845SOL    HW2 3435   0.706   4.257   5.163
  846SOL     OW 3436   5.990   1.748   6.575
  846SOL    HW1 3437   5.991   1.725   6.478
  846SOL    HW2 3438   6.033   1.837   6.590
  847SOL     OW 3439   4.927   3.479   2.001
  847SOL    HW1 3440   4.842   3.488   1.948
  847SOL    HW2 3441   4.973   3.395   1.975
  848SOL     OW 3442   6.179   0.383   5.693
  848SOL    HW1 3443   6.275   0.410   5.686
  848SOL    HW2 3444   6.133   0.440   5.761
  849SOL     OW 3445   0.296   5.160   4.337
  849SOL    HW1 3446   0.215   5.126   4.289
  849SOL    HW2 3447   0.267   5.222   4.410
  850SOL     OW 3448   3.623   0.524   2.906
  850SOL    HW1 3449   3.695   0.477   2.856
  850SOL    HW2 3450   3.569   0.579   2.843
  851SOL     OW 3451   0.819   0.780   6.421
  851SOL    HW1 3452   0.844   0.875   6.399
  851SOL    HW2 3453   0.901   0.730   6.447
  852SOL     OW 3454   2.177   4.249   6.289
  852SOL    HW1 3455   2.154   4.198   6.372
  852SOL    HW2 3456   2.172   4.347   6.308
  853SOL     OW 3457   1.850   3.742   1.374
  853SOL    HW1 3458   1.776   3.717   1.311
  853SOL    HW2 3459   1.865   3.841   1.371
  854SOL     OW 3460   5.680   5.102   1.816
  854SOL    HW1 3461   5.726   5.186   1.845
  854SOL    HW2 3462   5.684   5.035   1.890
  855SOL     OW 3463   5.589   0.046   1.628
  855SOL    HW1 3464   5.661   7.021   1.576
  855SOL    HW2 3465   5.500   0.024   1.587
  856SOL     OW 3466   1.648   0.001   5.102
  856SOL    HW1 3467   1.719   7.007   5.033
  856SOL    HW2 3468   1.599   6.937   5.120
  857SOL     OW 3469   6.869   3.552   2.218
  857SOL    HW1 3470   6.959   3.594   2.223
  857SOL    HW2 3471   6.812   3.587   2.292
  858SOL     OW 3472   3.096   4.093   1.048
  858SOL    HW1 3473   3.156   4.164   1.012
  858SOL    HW2 3474   3.092   4.100   1.148
  859SOL     OW 3475   6.482   4.879   6.987
  859SOL    HW1 3476   6.521   4.927   6.909
  859SOL    HW2 3477   6.406   4.821   6.956
  860SOL     OW 3478   1.957   4.578   1.515
  860SOL    HW1 3479   1.860   4.551   1.514
  860SOL    HW2 3480   1.964   4.675   1.538
  861SOL     OW 3481   3.371   5.577   5.525
  861SOL    HW1 3482   3.352   5.583   5.623
  861SOL    HW2 3483   3.394   5.483   5.500
  862SOL     OW 3484   4.427   4.618   4.582
  862SOL    HW1 3485   4.385   4.680   4.516
  862SOL    HW2 3486   4.387   4.633   4.672
  863SOL     OW 3487   6.016   1.233   1.235
  863SOL    HW1 3488   5.934   1.254   1.181
  863SOL    HW2 3489   6.091   1.208   1.174
  864SOL     OW 3490   6.074   4.666   2.764
  864SOL    HW1 3491   6.065   4.614   2.679
  864SOL    HW2 3492   6.123   4.611   2.832
  865SOL     OW 3493   1.342   7.008   4.339
  865SOL    HW1 3494   1.411   0.009   4.270
  865SOL    HW2 3495   1.260   0.041   4.325
  866SOL     OW 3496   3.703   1.697   1.229
  866SOL    HW1 3497   3.761   1.754   1.171
  866SOL    HW2 3498   3.608   1.722   1.217
  867SOL     OW 3499   1.406   2.720   5.996
  867SOL    HW1 3500   1.496   2.759   6.015
  867SOL    HW2 3501   1.390   2.718   5.897
  868SOL     OW 3502   5.316   2.521   3.160
  868SOL    HW1 3503   5.285   2.472   3.079
  868SOL    HW2 3504   5.256   2.498   3.238
  869SOL     OW 3505   6.749   4.833   2.783
  869SOL    HW1 3506   6.776   4.737   2.774
  869SOL    HW2 3507   6.800   4.888   2.716
  870SOL     OW 3508   6.897   2.619   1.059
  870SOL    HW1 3509   6.818   2.601   1.118
  870SOL    HW2 3510   6.976   2.642   1.116
  871SOL     OW 3511   6.224   3.372   0.629
  871SOL    HW1 3512   6.253   3.468   0.627
  871SOL    HW2 3513   6.222   3.336   0.536
  872SOL     OW 3514   5.922   2.720   2.664
  872SOL    HW1 3515   5.852   2.660   2.704
  872SOL    HW2 3516   6.008   2.669   2.654
  873SOL     OW 3517   4.686   6.768   5.587
  873SOL    HW1 3518   4.727   6.708   5.655
  873SOL    HW2 3519   4.586   6.762   5.592
  874SOL     OW 3520   0.369   3.642   6.222
  874SOL    HW1 3521   0.313   3.723   6.207
  874SOL    HW2 3522   0.419   3.619   6.139
  875SOL     OW 3523   6.098   4.723   6.593
  875SOL    HW1 3524   6.121   4.631   6.624
  875SOL    HW2 3525   6.114   4.788   6.667
  876SOL     OW 3526   1.121   3.275   1.754
  876SOL    HW1 3527   1.104   3.373   1.765
  876SOL    HW2 3528   1.093   3.227   1.836
  877SOL     OW 3529   5.559   5.750   0.514
  877SOL    HW1 3530   5.534   5.804   0.594
  877SOL    HW2 3531   5.658   5.739   0.510
  878SOL     OW 3532   2.762   3.807   0.226
  878SOL    HW1 3533   2.852   3.764   0.219
  878SOL    HW2 3534   2.740   3.851   0.139
  879SOL     OW 3535   4.479   2.039   2.167
  879SOL    HW1 3536   4.508   2.111   2.229
  879SOL    HW2 3537   4.449   1.959   2.219
  880SOL     OW 3538   3.968   5.699   0.801
  880SOL    HW1 3539   3.923   5.788   0.807
  880SOL    HW2 3540   4.067   5.711   0.814
  881SOL     OW 3541   4.145   5.215   4.879
  881SOL    HW1 3542   4.124   5.304   4.839
  881SOL    HW2 3543   4.087   5.199   4.958
  882SOL     OW 3544   0.837   1.279   4.679
  882SOL    HW1 3545   0.807   1.273   4.584
  882SOL    HW2 3546   0.937   1.272   4.683
  883SOL     OW 3547   3.113   5.050   6.458
  883SOL    HW1 3548   3.192   5.049   6.397
  883SOL    HW2 3549   3.136   5.001   6.543
  884SOL     OW 3550   4.854   4.045   1.702
  884SOL    HW1 3551   4.858   4.138   1.665
  884SOL    HW2 3552   4.759   4.016   1.711
  885SOL     OW 3553   4.483   6.119   0.149
  885SOL    HW1 3554   4.486   6.202   0.095
  885SOL    HW2 3555   4.573   6.103   0.191
  886SOL     OW 3556   4.811   1.488   6.415
  886SOL    HW1 3557   4.770   1.574   6.386
  886SOL    HW2 3558   4.789   1.416   6.349
  887SOL     OW 3559   4.976   0.522   6.405
  887SOL    HW1 3560   4.907   0.539   6.475
  887SOL    HW2 3561   4.998   0.424   6.403
  888SOL     OW 3562   6.135   6.333   3.314
  888SOL    HW1 3563   6.103   6.309   3.406
  888SOL    HW2 3564   6.060   6.374   3.262
  889SOL     OW 3565   0.858   6.630   4.718
  889SOL    HW1 3566   0.760   6.649   4.726
  889SOL    HW2 3567   0.903   6.705   4.669
  890SOL     OW 3568   2.493   4.889   1.915
  890SOL    HW1 3569   2.564   4.867   1.849
  890SOL    HW2 3570   2.504   4.832   1.997
  891SOL     OW 3571   5.990   3.203   6.125
  891SOL    HW1 3572   6.026   3.145   6.198
  891SOL    HW2 3573   6.022   3.169   6.037
  892SOL     OW 3574   2.761   5.141   1.705
  892SOL    HW1 3575   2.860   5.132   1.715
  892SOL    HW2 3576   2.739   5.234   1.676
  893SOL     OW 3577   1.981   0.425   0.554
  893SOL    HW1 3578   2.017   0.475   0.633
  893SOL    HW2 3579   1.968   0.489   0.478
  894SOL     OW 3580   1.012   5.583   3.469
  894SOL    HW1 3581   1.030   5.500   3.416
  894SOL    HW2 3582   1.091   5.643   3.466
  895SOL     OW 3583   1.818   0.174   4.761
  895SOL    HW1 3584   1.867   0.171   4.674
  895SOL    HW2 3585   1.768   0.260   4.769
  896SOL     OW 3586   5.516   6.820   3.336
  896SOL    HW1 3587   5.615   6.818   3.318
  896SOL    HW2 3588   5.497   6.881   3.412
  897SOL     OW 3589   5.394   2.906   5.919
  897SOL    HW1 3590   5.434   2.940   6.004
  897SOL    HW2 3591   5.351   2.982   5.869
  898SOL     OW 3592   6.254   6.581   4.157
  898SOL    HW1 3593   6.261   6.626   4.068
  898SOL    HW2 3594   6.266   6.482   4.146
  899SOL     OW 3595   0.768   4.866   6.766
  899SOL    HW1 3596   0.752   4.787   6.826
  899SOL    HW2 3597   0.681   4.897   6.728
  900SOL     OW 3598   0.914   6.086   3.972
  900SOL    HW1 3599   0.967   6.009   3.937
  900SOL    HW2 3600   0.870   6.135   3.896
  901SOL     OW 3601   5.568   2.517   3.484
  901SOL    HW1 3602   5.501   2.443   3.487
  901SOL    HW2 3603   5.656   2.483   3.518
  902SOL     OW 3604   0.043   6.083   0.092
  902SOL    HW1 3605   0.098   6.115   0.169
  902SOL    HW2 3606   0.043   6.152   0.020
  903SOL     OW 3607   0.547   4.478   0.353
  903SOL    HW1 3608   0.481   4.474   0.429
  903SOL    HW2 3609   0.610   4.555   0.368
  904SOL     OW 3610   1.659   1.571   3.337
  904SOL    HW1 3611   1.624   1.480   3.360
  904SOL    HW2 3612   1.597   1.640   3.374
  905SOL     OW 3613   5.651   1.763   5.196
  905SOL    HW1 3614   5.621   1.698   5.127
  905SOL    HW2 3615   5.737   1.731   5.237
  906SOL     OW 3616   6.168   4.014   5.181
  906SOL    HW1 3617   6.249   3.980   5.229
  906SOL    HW2 3618   6.122   4.083   5.238
  907SOL     OW 3619   6.726   3.390   1.464
  907SOL    HW1 3620   6.813   3.368   1.509
  907SOL    HW2 3621   6.683   3.467   1.511
  908SOL     OW 3622   1.382   0.816   3.318
  908SOL    HW1 3623   1.315   0.752   3.281
  908SOL    HW2 3624   1.394   0.800   3.415
  909SOL     OW 3625   4.097   0.355   1.070
  909SOL    HW1 3626   4.152   0.298   1.131
  909SOL    HW2 3627   4.008   0.374   1.112
  910SOL     OW 3628   2.321   1.772   1.643
  910SOL    HW1 3629   2.381   1.843   1.679
  910SOL    HW2 3630   2.373   1.711   1.583
  911SOL     OW 3631   0.199   4.175   0.976
  911SOL    HW1 3632   0.204   4.103   0.907
  911SOL    HW2 3633   0.290   4.213   0.993
  912SOL     OW 3634   0.708   0.535   6.229
  912SOL    HW1 3635   0.775   0.466   6.203
  912SOL    HW2 3636   0.743   0.626   6.205
  913SOL     OW 3637   2.330   1.244   1.696
  913SOL    HW1 3638   2.348   1.172   1.763
  913SOL    HW2 3639   2.321   1.332   1.744
  914SOL     OW 3640   3.023   6.757   3.310
  914SOL    HW1 3641   2.968   6.748   3.227
  914SOL    HW2 3642   3.104   6.811   3.290
  915SOL     OW 3643   1.037   2.168   6.782
  915SOL    HW1 3644   0.989   2.170   6.870
  915SOL    HW2 3645   1.045   2.073   6.751
  916SOL     OW 3646   1.416   3.237   3.138
  916SOL    HW1 3647   1.405   3.331   3.108
  916SOL    HW2 3648   1.400   3.175   3.061
  917SOL     OW 3649   3.282   2.412   6.622
  917SOL    HW1 3650   3.296   2.331   6.565
  917SOL    HW2 3651   3.260   2.491   6.564
  918SOL     OW 3652   1.344   0.789   5.381
  918SOL    HW1 3653   1.444   0.786   5.386
  918SOL    HW2 3654   1.310   0.863   5.438
  919SOL     OW 3655   2.354   6.900   1.167
  919SOL    HW1 3656   2.286   6.893   1.240
  919SOL    HW2 3657   2.339   6.984   1.115
  920SOL     OW 3658   2.285   0.610   4.386
  920SOL    HW1 3659   2.190   0.636   4.370
  920SOL    HW2 3660   2.341   0.637   4.307
  921SOL     OW 3661   5.376   5.170   6.661
  921SOL    HW1 3662   5.442   5.246   6.655
  921SOL    HW2 3663   5.288   5.200   6.624
  922SOL     OW 3664   1.984   3.799   6.286
  922SOL    HW1 3665   1.978   3.729   6.216
  922SOL    HW2 3666   1.938   3.882   6.255
  923SOL     OW 3667   4.126   1.049   6.713
  923SOL    HW1 3668   4.056   0.991   6.670
  923SOL    HW2 3669   4.144   1.015   6.805
  924SOL     OW 3670   6.549   3.928   3.203
  924SOL    HW1 3671   6.495   3.864   3.257
  924SOL    HW2 3672   6.546   4.019   3.245
  925SOL     OW 3673   6.037   2.261   3.172
  925SOL    HW1 3674   6.136   2.245   3.169
  925SOL    HW2 3675   5.989   2.173   3.175
  926SOL     OW 3676   5.396   6.363   0.765
  926SOL    HW1 3677   5.372   6.290   0.829
  926SOL    HW2 3678   5.495   6.364   0.751
  927SOL     OW 3679   4.319   5.176   4.645
  927SOL    HW1 3680   4.253   5.207   4.714
  927SOL    HW2 3681   4.412   5.183   4.682
  928SOL     OW 3682   0.730   1.195   1.322
  928SOL    HW1 3683   0.684   1.251   1.254
  928SOL    HW2 3684   0.692   1.102   1.322
  929SOL     OW 3685   0.777   2.372   2.594
  929SOL    HW1 3686   0.749   2.466   2.575
  929SOL    HW2 3687   0.718   2.334   2.666
  930SOL     OW 3688   4.831   6.130   3.150
  930SOL    HW1 3689   4.841   6.149   3.052
  930SOL    HW2 3690   4.853   6.212   3.202
  931SOL     OW 3691   1.959   2.806   2.191
  931SOL    HW1 3692   1.895   2.866   2.145
  931SOL    HW2 3693   1.926   2.711   2.186
  932SOL     OW 3694   4.543   6.645   1.221
  932SOL    HW1 3695   4.515   6.737   1.193
  932SOL    HW2 3696   4.464   6.596   1.258
  933SOL     OW 3697   1.745   6.247   3.415
  933SOL    HW1 3698   1.787   6.193   3.488
  933SOL    HW2 3699   1.712   6.186   3.343
  934SOL     OW 3700   3.064   1.305   5.434
  934SOL    HW1 3701   2.972   1.278   5.406
  934SOL    HW2 3702   3.064   1.400   5.464
  935SOL     OW 3703   2.440   3.020   6.431
  935SOL    HW1 3704   2.483   2.991   6.516
  935SOL    HW2 3705   2.496   3.091   6.387
  936SOL     OW 3706   0.045   1.613   1.765
  936SOL    HW1 3707   0.038   1.700   1.717
  936SOL    HW2 3708   0.013   1.539   1.705
  937SOL     OW 3709   4.747   2.307   3.827
  937SOL    HW1 3710   4.823   2.267   3.879
  937SOL    HW2 3711   4.695   2.235   3.783
  938SOL     OW 3712   6.749   2.091   0.267
  938SOL    HW1 3713   6.842   2.087   0.231
  938SOL    HW2 3714   6.688   2.037   0.210
  939SOL     OW 3715   6.332   0.907   6.085
  939SOL    HW1 3716   6.268   0.883   6.012
  939SOL    HW2 3717   6.423   0.923   6.045
  940SOL     OW 3718   0.581   0.969   4.370
  940SOL    HW1 3719   0.566   1.048   4.429
  940SOL    HW2 3720   0.540   0.888   4.413
  941SOL     OW 3721   5.418   2.904   5.131
  941SOL    HW1 3722   5.469   2.830   5.087
  941SOL    HW2 3723   5.364   2.867   5.206
  942SOL     OW 3724   5.061   0.148   5.344
  942SOL    HW1 3725   5.027   0.055   5.356
  942SOL    HW2 3726   5.011   0.192   5.270
  943SOL     OW 3727   5.969   1.992   6.833
  943SOL    HW1 3728   5.984   2.012   6.737
  943SOL    HW2 3729   6.044   1.935   6.868
  944SOL     OW 3730   5.942   4.091   4.750
  944SOL    HW1 3731   5.969   4.119   4.842
  944SOL    HW2 3732   5.978   4.156   4.683
  945SOL     OW 3733   5.425   3.783   5.335
  945SOL    HW1 3734   5.377   3.699   5.309
  945SOL    HW2 3735   5.441   3.839   5.254
  946SOL     OW 3736   5.997   2.943   5.740
  946SOL    HW1 3737   6.007   3.032   5.695
  946SOL    HW2 3738   5.941   2.883   5.683
  947SOL     OW 3739   1.492   2.905   5.603
  947SOL    HW1 3740   1.573   2.958   5.575
  947SOL    HW2 3741   1.425   2.906   5.530
  948SOL     OW 3742   3.978   1.927   0.348
  948SOL    HW1 3743   3.969   2.016   0.304
  948SOL    HW2 3744   3.926   1.926   0.433
  949SOL     OW 3745   6.027   5.624   6.362
  949SOL    HW1 3746   6.086   5.670   6.428
  949SOL    HW2 3747   5.965   5.690   6.320
  950SOL     OW 3748   4.311   5.238   0.815
  950SOL    HW1 3749   4.329   5.269   0.908
  950SOL    HW2 3750   4.376   5.166   0.791
  951SOL     OW 3751   0.909   2.442   3.420
  951SOL    HW1 3752   0.974   2.513   3.392
  951SOL    HW2 3753   0.820   2.483   3.436
  952SOL     OW 3754   5.322   1.398   1.455
  952SOL    HW1 3755   5.244   1.380   1.395
  952SOL    HW2 3756   5.295   1.385   1.550
  953SOL     OW 3757   3.622   7.007   6.171
  953SOL    HW1 3758   3.638   0.074   6.128
  953SOL    HW2 3759   3.533   6.971   6.140
  954SOL     OW 3760   0.505   6.431   1.079
  954SOL    HW1 3761   0.466   6.393   0.995
  954SOL    HW2 3762   0.462   6.520   1.099
  955SOL     OW 3763   6.359   6.649   2.089
  955SOL    HW1 3764   6.297   6.728   2.085
  955SOL    HW2 3765   6.305   6.565   2.086
  956SOL     OW 3766   0.614   2.420   0.229
  956SOL    HW1 3767   0.647   2.369   0.150
  956SOL    HW2 3768   0.560   2.499   0.198
  957SOL     OW 3769   2.612   6.267   5.514
  957SOL    HW1 3770   2.583   6.294   5.422
  957SOL    HW2 3771   2.554   6.191   5.546
  958SOL     OW 3772   4.894   2.399   0.270
  958SOL    HW1 3773   4.836   2.385   0.349
  958SOL    HW2 3774   4.951   2.318   0.256
  959SOL     OW 3775   1.643   4.397   2.319
  959SOL    HW1 3776   1.610   4.484   2.282
  959SOL    HW2 3777   1.595   4.378   2.405
  960SOL     OW 3778   1.704   5.714   5.320
  960SOL    HW1 3779   1.768   5.782   5.352
  960SOL    HW2 3780   1.677   5.654   5.396
  961SOL     OW 3781   3.736   0.099   1.615
  961SOL    HW1 3782   3.691   0.162   1.552
  961SOL    HW2 3783   3.780   0.152   1.689
  962SOL     OW 3784   1.636   6.576   4.064
  962SOL    HW1 3785   1.735   6.565   4.061
  962SOL    HW2 3786   1.607   6.641   3.994
  963SOL     OW 3787   5.896   0.678   1.727
  963SOL    HW1 3788   5.911   0.770   1.691
  963SOL    HW2 3789   5.828   0.681   1.800
  964SOL     OW 3790   5.032   3.846   1.327
  964SOL    HW1 3791   5.013   3.943   1.310
  964SOL    HW2 3792   4.992   3.790   1.255
  965SOL     OW 3793   1.270   2.245   0.889
  965SOL    HW1 3794   1.268   2.220   0.986
  965SOL    HW2 3795   1.211   2.325   0.875
  966SOL     OW 3796   0.029   1.848   1.652
  966SOL    HW1 3797   6.976   1.893   1.701
  966SOL    HW2 3798   0.083   1.916   1.604
  967SOL     OW 3799   0.709   5.919   2.332
  967SOL    HW1 3800   0.729   6.005   2.380
  967SOL    HW2 3801   0.769   5.911   2.252
  968SOL     OW 3802   6.194   4.311   2.327
  968SOL    HW1 3803   6.284   4.302   2.286
  968SOL    HW2 3804   6.123   4.303   2.256
  969SOL     OW 3805   4.441   6.196   6.504
  969SOL    HW1 3806   4.383   6.159   6.431
  969SOL    HW2 3807   4.402   6.172   6.593
  970SOL     OW 3808   4.395   2.361   5.377
  970SOL    HW1 3809   4.450   2.298   5.432
  970SOL    HW2 3810   4.435   2.370   5.286
  971SOL     OW 3811   0.438   2.309   1.662
  971SOL    HW1 3812   0.410   2.363   1.742
  971SOL    HW2 3813   0.399   2.218   1.669
  972SOL     OW 3814   6.789   5.651   1.700
  972SOL    HW1 3815   6.717   5.717   1.720
  972SOL    HW2 3816   6.769   5.564   1.746
  973SOL     OW 3817   6.173   3.960   5.598
  973SOL    HW1 3818   6.216   4.005   5.676
  973SOL    HW2 3819   6.162   4.026   5.523
  974SOL     OW 3820   2.838   1.437   4.084
  974SOL    HW1 3821   2.747   1.394   4.088
  974SOL    HW2 3822   2.860   1.475   4.174
  975SOL     OW 3823   4.010   6.953   5.657
  975SOL    HW1 3824   3.984   6.926   5.749
  975SOL    HW2 3825   4.009   6.874   5.597
  976SOL     OW 3826   0.256   5.843   3.729
  976SOL    HW1 3827   0.198   5.814   3.806
  976SOL    HW2 3828   0.330   5.777   3.717
  977SOL     OW 3829   1.363   2.372   3.272
  977SOL    HW1 3830   1.310   2.305   3.324
  977SOL    HW2 3831   1.329   2.376   3.178
  978SOL     OW 3832   5.871   3.317   4.732
  978SOL    HW1 3833   5.963   3.320   4.692
  978SOL    HW2 3834   5.839   3.410   4.749
  979SOL     OW 3835   5.210   0.796   3.328
  979SOL    HW1 3836   5.226   0.772   3.232
  979SOL    HW2 3837   5.256   0.730   3.387
  980SOL     OW 3838   6.268   0.832   4.785
  980SOL    HW1 3839   6.201   0.839   4.859
  980SOL    HW2 3840   6.236   0.885   4.706
  981SOL     OW 3841   6.922   3.354   5.463
  981SOL    HW1 3842   6.974   3.354   5.548
  981SOL    HW2 3843   6.966   3.415   5.397
  982SOL     OW 3844   1.465   3.032   1.702
  982SOL    HW1 3845   1.475   2.987   1.613
  982SOL    HW2 3846   1.505   2.975   1.773
  983SOL     OW 3847   5.462   1.638   3.088
  983SOL    HW1 3848   5.502   1.564   3.143
  983SOL    HW2 3849   5.483   1.623   2.992
  984SOL     OW 3850   4.623   1.134   4.659
  984SOL    HW1 3851   4.559   1.207   4.636
  984SOL    HW2 3852   4.647   1.083   4.576
  985SOL     OW 3853   3.190   5.093   0.067
  985SOL    HW1 3854   3.251   5.169   0.044
  985SOL    HW2 3855   3.214   5.013   0.013
  986SOL     OW 3856   4.413   5.311   6.439
  986SOL    HW1 3857   4.513   5.314   6.430
  986SOL    HW2 3858   4.389   5.256   6.519
  987SOL     OW 3859   3.347   6.866   2.472
  987SOL    HW1 3860   3.295   6.820   2.400
  987SOL    HW2 3861   3.437   6.823   2.482
  988SOL     OW 3862   3.444   4.197   1.866
  988SOL    HW1 3863   3.482   4.277   1.819
  988SOL    HW2 3864   3.495   4.181   1.951
  989SOL     OW 3865   1.102   0.073   4.766
  989SOL    HW1 3866   1.140   0.085   4.858
  989SOL    HW2 3867   1.175   0.053   4.701
  990SOL     OW 3868   4.791   6.111   3.834
  990SOL    HW1 3869   4.710   6.105   3.776
  990SOL    HW2 3870   4.763   6.110   3.930
  991SOL     OW 3871   6.564   1.394   4.987
  991SOL    HW1 3872   6.632   1.346   5.043
  991SOL    HW2 3873   6.528   1.331   4.918
  992SOL     OW 3874   0.469   3.428   0.755
  992SOL    HW1 3875   0.389   3.443   0.698
  992SOL    HW2 3876   0.446   3.363   0.828
  993SOL     OW 3877   3.592   4.877   3.862
  993SOL    HW1 3878   3.596   4.923   3.951
  993SOL    HW2 3879   3.674   4.898   3.810
  994SOL     OW 3880   2.926   3.518   2.226
  994SOL    HW1 3881   2.990   3.487   2.296
  994SOL    HW2 3882   2.903   3.441   2.166
  995SOL     OW 3883   1.073   1.343   5.020
  995SOL    HW1 3884   1.129   1.426   5.016
  995SOL    HW2 3885   0.985   1.360   4.976
  996SOL     OW 3886   1.342   3.832   2.077
  996SOL    HW1 3887   1.338   3.834   1.977
  996SOL    HW2 3888   1.406   3.762   2.106
  997SOL     OW 3889   6.538   1.034   1.654
  997SOL    HW1 3890   6.585   1.087   1.725
  997SOL    HW2 3891   6.496   0.953   1.694
  998SOL     OW 3892   5.053   0.358   3.201
  998SOL    HW1 3893   5.099   0.400   3.279
  998SOL    HW2 3894   4.970   0.409   3.179
  999SOL     OW 3895   0.090   5.725   1.161
  999SOL    HW1 3896   0.160   5.657   1.184
  999SOL    HW2 3897   0.059   5.710   1.067
 1000SOL     OW 3898   4.020   1.800   3.985
 1000SOL    HW1 3899   3.946   1.818   3.920
 1000SOL    HW2 3900   4.004   1.711   4.030
 1001SOL     OW 3901   4.576   0.025   5.925
 1001SOL    HW1 3902   4.487   0.011   5.882
 1001SOL    HW2 3903   4.565   0.079   6.008
 1002SOL     OW 3904   6.626   1.635   0.696
 1002SOL    HW1 3905   6.645   1.675   0.785
 1002SOL    HW2 3906   6.648   1.538   0.697
 1003SOL     OW 3907   4.267   5.039   2.491
 1003SOL    HW1 3908   4.185   4.982   2.494
 1003SOL    HW2 3909   4.274   5.082   2.400
 1004SOL     OW 3910   6.059   5.683   0.140
 1004SOL    HW1 3911   6.034   5.707   0.046
 1004SOL    HW2 3912   6.073   5.585   0.147
 1005SOL     OW 3913   6.668   6.195   3.990
 1005SOL    HW1 3914   6.716   6.196   3.902
 1005SOL    HW2 3915   6.726   6.236   4.060
 1006SOL     OW 3916   2.324   4.377   1.146
 1006SOL    HW1 3917   2.247   4.418   1.194
 1006SOL    HW2 3918   2.345   4.288   1.186
 1007SOL     OW 3919   0.484   0.782   3.431
 1007SOL    HW1 3920   0.534   0.832   3.360
 1007SOL    HW2 3921   0.504   0.684   3.423
 1008SOL     OW 3922   2.258   3.055   3.457
 1008SOL    HW1 3923   2.248   3.146   3.417
 1008SOL    HW2 3924   2.250   3.061   3.556
 1009SOL     OW 3925   1.681   5.812   4.882
 1009SOL    HW1 3926   1.662   5.770   4.793
 1009SOL    HW2 3927   1.611   5.880   4.903
 1010SOL     OW 3928   4.901   1.238   6.656
 1010SOL    HW1 3929   4.838   1.311   6.680
 1010SOL    HW2 3930   4.868   1.151   6.694
 1011SOL     OW 3931   3.636   6.052   3.638
 1011SOL    HW1 3932   3.647   6.107   3.555
 1011SOL    HW2 3933   3.540   6.053   3.666
 1012SOL     OW 3934   5.004   5.393   0.367
 1012SOL    HW1 3935   5.101   5.378   0.351
 1012SOL    HW2 3936   4.960   5.306   0.394
 1013SOL     OW 3937   0.492   1.362   1.443
 1013SOL    HW1 3938   0.575   1.409   1.472
 1013SOL    HW2 3939   0.487   1.273   1.488
 1014SOL     OW 3940   4.910   0.308   6.025
 1014SOL    HW1 3941   4.907   0.220   6.073
 1014SOL    HW2 3942   4.876   0.380   6.085
 1015SOL     OW 3943   3.239   5.992   4.344
 1015SOL    HW1 3944   3.248   6.000   4.443
 1015SOL    HW2 3945   3.315   6.041   4.300
 1016SOL     OW 3946   4.534   2.976   1.360
 1016SOL    HW1 3947   4.610   2.939   1.306
 1016SOL    HW2 3948   4.553   2.963   1.457
 1017SOL     OW 3949   4.299   1.967   6.635
 1017SOL    HW1 3950   4.252   1.906   6.571
 1017SOL    HW2 3951   4.299   2.060   6.599
 1018SOL     OW 3952   1.570   3.590   2.494
 1018SOL    HW1 3953   1.536   3.613   2.585
 1018SOL    HW2 3954   1.584   3.491   2.487
 1019SOL     OW 3955   6.153   1.004   0.607
 1019SOL    HW1 3956   6.104   0.946   0.542
 1019SOL    HW2 3957   6.251   0.999   0.588
 1020SOL     OW 3958   2.851   1.565   1.605
 1020SOL    HW1 3959   2.905   1.526   1.680
 1020SOL    HW2 3960   2.902   1.640   1.563
 1021SOL     OW 3961   6.912   1.556   1.082
 1021SOL    HW1 3962   6.946   1.482   1.024
 1021SOL    HW2 3963   6.885   1.518   1.171
 1022SOL     OW 3964   4.178   3.027   6.475
 1022SOL    HW1 3965   4.192   3.009   6.377
 1022SOL    HW2 3966   4.257   2.992   6.526
 1023SOL     OW 3967   5.037   1.261   3.896
 1023SOL    HW1 3968   4.979   1.285   3.974
 1023SOL    HW2 3969   5.074   1.344   3.855
 1024SOL     OW 3970   6.176   1.554   3.564
 1024SOL    HW1 3971   6.240   1.565   3.488
 1024SOL    HW2 3972   6.216   1.590   3.648
 1025SOL     OW 3973   2.991   4.582   0.890
 1025SOL    HW1 3974   2.930   4.508   0.861
 1025SOL    HW2 3975   2.973   4.605   0.986
 1026SOL     OW 3976   1.024   2.696   6.931
 1026SOL    HW1 3977   1.042   2.625   6.863
 1026SOL    HW2 3978   0.974   2.656   7.008
 1027SOL     OW 3979   2.627   4.930   2.555
 1027SOL    HW1 3980   2.585   4.967   2.472
 1027SOL    HW2 3981   2.706   4.874   2.531
 1028SOL     OW 3982   1.915   6.275   0.732
 1028SOL    HW1 3983   1.854   6.261   0.811
 1028SOL    HW2 3984   1.887   6.215   0.658
 1029SOL     OW 3985   2.765   1.113   6.249
 1029SOL    HW1 3986   2.864   1.115   6.237
 1029SOL    HW2 3987   2.743   1.099   6.345
 1030SOL     OW 3988   3.475   4.151   4.871
 1030SOL    HW1 3989   3.555   4.201   4.903
 1030SOL    HW2 3990   3.498   4.100   4.788
 1031SOL     OW 3991   2.082   5.043   1.053
 1031SOL    HW1 3992   2.013   5.036   1.125
 1031SOL    HW2 3993   2.079   5.135   1.013
 1032SOL     OW 3994   1.995   0.627   4.378
 1032SOL    HW1 3995   1.948   0.645   4.464
 1032SOL    HW2 3996   1.928   0.621   4.304
 1033SOL     OW 3997   1.875   5.844   3.338
 1033SOL    HW1 3998   1.924   5.865   3.254
 1033SOL    HW2 3999   1.776   5.841   3.319
 1034SOL     OW 4000   1.444   5.143   3.529
 1034SOL    HW1 4001   1.359   5.124   3.479
 1034SOL    HW2 4002   1.438   5.232   3.573
 1035SOL     OW 4003   2.362   1.459   4.311
 1035SOL    HW1 4004   2.264   1.451   4.326
 1035SOL    HW2 4005   2.411   1.414   4.385
 1036SOL     OW 4006   5.093   1.952   0.065
 1036SOL    HW1 4007   5.132   2.037   0.029
 1036SOL    HW2 4008   5.163   1.881   0.064
 1037SOL     OW 4009   2.862   2.202   6.780
 1037SOL    HW1 4010   2.905   2.174   6.866
 1037SOL    HW2 4011   2.874   2.130   6.712
 1038SOL     OW 4012   2.640   1.087   3.992
 1038SOL    HW1 4013   2.584   1.104   4.073
 1038SOL    HW2 4014   2.717   1.028   4.016
 1039SOL     OW 4015   3.924   1.312   3.260
 1039SOL    HW1 4016   3.994   1.384   3.265
 1039SOL    HW2 4017   3.862   1.320   3.338
 1040SOL     OW 4018   6.428   4.461   3.437
 1040SOL    HW1 4019   6.404   4.477   3.342
 1040SOL    HW2 4020   6.520   4.422   3.442
 1041SOL     OW 4021   0.736   6.795   4.409
 1041SOL    HW1 4022   0.786   6.878   4.434
 1041SOL    HW2 4023   0.752   6.774   4.313
 1042SOL     OW 4024   5.389   4.144   0.723
 1042SOL    HW1 4025   5.417   4.238   0.742
 1042SOL    HW2 4026   5.314   4.119   0.785
 1043SOL     OW 4027   3.006   1.214   6.485
 1043SOL    HW1 4028   2.924   1.267   6.501
 1043SOL    HW2 4029   2.999   1.167   6.397
 1044SOL     OW 4030   4.093   3.649   1.940
 1044SOL    HW1 4031   4.154   3.642   1.861
 1044SOL    HW2 4032   4.099   3.564   1.994
 1045SOL     OW 4033   3.483   1.530   3.349
 1045SOL    HW1 4034   3.428   1.573   3.278
 1045SOL    HW2 4035   3.579   1.555   3.338
 1046SOL     OW 4036   3.699   0.913   1.977
 1046SOL    HW1 4037   3.605   0.947   1.981
 1046SOL    HW2 4038   3.761   0.988   1.954
 1047SOL     OW 4039   0.883   5.195   2.002
 1047SOL    HW1 4040   0.915   5.108   2.040
 1047SOL    HW2 4041   0.788   5.186   1.974
 1048SOL     OW 4042   6.104   4.658   5.609
 1048SOL    HW1 4043   6.173   4.586   5.610
 1048SOL    HW2 4044   6.036   4.641   5.680
 1049SOL     OW 4045   0.742   3.321   5.078
 1049SOL    HW1 4046   0.798   3.311   4.996
 1049SOL    HW2 4047   0.801   3.331   5.158
 1050SOL     OW 4048   3.480   0.565   6.620
 1050SOL    HW1 4049   3.386   0.534   6.605
 1050SOL    HW2 4050   3.488   0.602   6.712
 1051SOL     OW 4051   4.409   4.887   1.831
 1051SOL    HW1 4052   4.486   4.865   1.770
 1051SOL    HW2 4053   4.372   4.803   1.870
 1052SOL     OW 4054   3.401   6.977   4.376
 1052SOL    HW1 4055   3.356   0.026   4.432
 1052SOL    HW2 4056   3.472   7.020   4.320
 1053SOL     OW 4057   4.328   4.855   3.080
 1053SOL    HW1 4058   4.344   4.953   3.093
 1053SOL    HW2 4059   4.286   4.817   3.163
 1054SOL     OW 4060   3.544   6.191   4.267
 1054SOL    HW1 4061   3.543   6.097   4.234
 1054SOL    HW2 4062   3.631   6.234   4.244
 1055SOL     OW 4063   4.634   5.166   4.508
 1055SOL    HW1 4064   4.546   5.170   4.460
 1055SOL    HW2 4065   4.619   5.179   4.606
 1056SOL     OW 4066   1.460   6.279   5.437
 1056SOL    HW1 4067   1.484   6.200   5.381
 1056SOL    HW2 4068   1.541   6.312   5.485
 1057SOL     OW 4069   3.660   3.993   1.916
 1057SOL    HW1 4070   3.699   3.903   1.897
 1057SOL    HW2 4071   3.706   4.033   1.996
 1058SOL     OW 4072   3.703   0.980   1.426
 1058SOL    HW1 4073   3.661   0.930   1.350
 1058SOL    HW2 4074   3.793   0.940   1.446
 1059SOL     OW 4075   3.458   1.797   1.172
 1059SOL    HW1 4076   3.447   1.896   1.166
 1059SOL    HW2 4077   3.371   1.756   1.201
 1060SOL     OW 4078   2.647   2.307   4.675
 1060SOL    HW1 4079   2.672   2.330   4.581
 1060SOL    HW2 4080   2.728   2.276   4.725
 1061SOL     OW 4081   3.270   6.191   1.431
 1061SOL    HW1 4082   3.178   6.198   1.393
 1061SOL    HW2 4083   3.333   6.245   1.375
 1062SOL     OW 4084   4.910   4.442   5.182
 1062SOL    HW1 4085   4.990   4.386   5.165
 1062SOL    HW2 4086   4.881   4.430   5.277
 1063SOL     OW 4087   2.492   2.589   5.942
 1063SOL    HW1 4088   2.575   2.638   5.969
 1063SOL    HW2 4089   2.502   2.492   5.961
 1064SOL     OW 4090   0.234   3.317   1.554
 1064SOL    HW1 4091   0.268   3.389   1.494
 1064SOL    HW2 4092   0.257   3.338   1.649
 1065SOL     OW 4093   5.769   5.967   5.287
 1065SOL    HW1 4094   5.831   5.903   5.333
 1065SOL    HW2 4095   5.808   6.060   5.291
 1066SOL     OW 4096   3.918   0.503   3.852
 1066SOL    HW1 4097   3.930   0.426   3.914
 1066SOL    HW2 4098   3.885   0.471   3.764
 1067SOL     OW 4099   1.690   3.426   1.604
 1067SOL    HW1 4100   1.729   3.516   1.627
 1067SOL    HW2 4101   1.643   3.389   1.684
 1068SOL     OW 4102   0.923   3.816   1.650
 1068SOL    HW1 4103   0.844   3.755   1.655
 1068SOL    HW2 4104   0.968   3.819   1.739
 1069SOL     OW 4105   3.648   3.858   1.577
 1069SOL    HW1 4106   3.648   3.797   1.656
 1069SOL    HW2 4107   3.573   3.923   1.586
 1070SOL     OW 4108   1.922   0.583   6.870
 1070SOL    HW1 4109   1.935   0.503   6.928
 1070SOL    HW2 4110   1.990   0.653   6.893
 1071SOL     OW 4111   3.888   6.567   3.562
 1071SOL    HW1 4112   3.805   6.594   3.612
 1071SOL    HW2 4113   3.919   6.478   3.596
 1072SOL     OW 4114   3.622   5.831   3.145
 1072SOL    HW1 4115   3.671   5.771   3.208
 1072SOL    HW2 4116   3.681   5.908   3.120
 1073SOL     OW 4117   2.955   4.908   2.754
 1073SOL    HW1 4118   2.926   4.910   2.849
 1073SOL    HW2 4119   2.919   4.988   2.706
 1074SOL     OW 4120   1.484   5.296   2.419
 1074SOL    HW1 4121   1.560   5.327   2.362
 1074SOL    HW2 4122   1.501   5.321   2.515
 1075SOL     OW 4123   0.197   4.193   2.894
 1075SOL    HW1 4124   0.215   4.106   2.941
 1075SOL    HW2 4125   0.282   4.245   2.886
 1076SOL     OW 4126   0.092   4.854   3.618
 1076SOL    HW1 4127   0.058   4.806   3.537
 1076SOL    HW2 4128   0.115   4.948   3.593
 1077SOL     OW 4129   4.397   0.432   0.866
 1077SOL    HW1 4130   4.426   0.372   0.940
 1077SOL    HW2 4131   4.299   0.420   0.849
 1078SOL     OW 4132   1.342   2.436   1.874
 1078SOL    HW1 4133   1.263   2.495   1.890
 1078SOL    HW2 4134   1.423   2.477   1.916
 1079SOL     OW 4135   2.401   5.144   2.623
 1079SOL    HW1 4136   2.490   5.140   2.669
 1079SOL    HW2 4137   2.411   5.112   2.529
 1080SOL     OW 4138   1.526   5.463   4.120
 1080SOL    HW1 4139   1.596   5.530   4.093
 1080SOL    HW2 4140   1.570   5.381   4.156
 1081SOL     OW 4141   1.360   1.063   0.346
 1081SOL    HW1 4142   1.282   1.086   0.288
 1081SOL    HW2 4143   1.433   1.129   0.332
 1082SOL     OW 4144   2.332   7.008   6.851
 1082SOL    HW1 4145   2.278   0.032   6.923
 1082SOL    HW2 4146   2.417   0.036   6.837
 1083SOL     OW 4147   3.653   3.004   1.327
 1083SOL    HW1 4148   3.566   2.986   1.373
 1083SOL    HW2 4149   3.697   2.917   1.305
 1084SOL     OW 4150   6.568   3.686   0.363
 1084SOL    HW1 4151   6.515   3.750   0.419
 1084SOL    HW2 4152   6.541   3.592   0.385
 1085SOL     OW 4153   2.257   4.045   3.803
 1085SOL    HW1 4154   2.342   4.093   3.782
 1085SOL    HW2 4155   2.195   4.051   3.725
 1086SOL     OW 4156   4.209   5.364   2.040
 1086SOL    HW1 4157   4.206   5.316   1.952
 1086SOL    HW2 4158   4.304   5.381   2.066
 1087SOL     OW 4159   4.101   3.018   5.446
 1087SOL    HW1 4160   4.035   2.965   5.393
 1087SOL    HW2 4161   4.139   3.090   5.388
 1088SOL     OW 4162   5.153   3.913   3.519
 1088SOL    HW1 4163   5.127   3.829   3.472
 1088SOL    HW2 4164   5.236   3.898   3.572
 1089SOL     OW 4165   6.020   0.144   2.922
 1089SOL    HW1 4166   5.954   0.114   2.854
 1089SOL    HW2 4167   5.972   0.181   3.001
 1090SOL     OW 4168   0.817   1.858   5.247
 1090SOL    HW1 4169   0.805   1.768   5.205
 1090SOL    HW2 4170   0.796   1.852   5.345
 1091SOL     OW 4171   1.364   2.309   4.845
 1091SOL    HW1 4172   1.379   2.314   4.746
 1091SOL    HW2 4173   1.438   2.256   4.887
 1092SOL     OW 4174   2.218   4.673   1.303
 1092SOL    HW1 4175   2.210   4.598   1.369
 1092SOL    HW2 4176   2.263   4.751   1.347
 1093SOL     OW 4177   0.101   1.473   2.863
 1093SOL    HW1 4178   0.081   1.570   2.846
 1093SOL    HW2 4179   0.027   1.417   2.828
 1094SOL     OW 4180   0.890   6.405   1.627
 1094SOL    HW1 4181   0.858   6.487   1.674
 1094SOL    HW2 4182   0.942   6.348   1.691
 1095SOL     OW 4183   6.177   3.574   5.880
 1095SOL    HW1 4184   6.196   3.569   5.978
 1095SOL    HW2 4185   6.204   3.664   5.846
 1096SOL     OW 4186   3.531   4.369   1.688
 1096SOL    HW1 4187   3.469   4.407   1.620
 1096SOL    HW2 4188   3.575   4.444   1.738
 1097SOL     OW 4189   1.900   4.315   5.453
 1097SOL    HW1 4190   1.990   4.296   5.415
 1097SOL    HW2 4191   1.866   4.235   5.503
 1098SOL     OW 4192   4.044   1.021   3.365
 1098SOL    HW1 4193   4.031   0.935   3.416
 1098SOL    HW2 4194   4.095   1.002   3.281
 1099SOL     OW 4195   3.704   1.553   2.593
 1099SOL    HW1 4196   3.675   1.502   2.512
 1099SOL    HW2 4197   3.755   1.634   2.564
 1100SOL     OW 4198   0.759   0.049   0.918
 1100SOL    HW1 4199   0.715   0.121   0.972
 1100SOL    HW2 4200   0.829   0.089   0.859
 1101SOL     OW 4201   5.985   2.459   0.777
 1101SOL    HW1 4202   5.903   2.412   0.747
 1101SOL    HW2 4203   5.960   2.536   0.836
 1102SOL     OW 4204   0.673   4.567   3.884
 1102SOL    HW1 4205   0.687   4.505   3.808
 1102SOL    HW2 4206   0.607   4.527   3.948
 1103SOL     OW 4207   0.823   3.142   1.542
 1103SOL    HW1 4208   0.842   3.220   1.483
 1103SOL    HW2 4209   0.887   3.068   1.521
 1104SOL     OW 4210   3.031   5.106   5.884
 1104SOL    HW1 4211   2.955   5.065   5.933
 1104SOL    HW2 4212   3.108   5.120   5.947
 1105SOL     OW 4213   4.362   5.889   0.258
 1105SOL    HW1 4214   4.427   5.823   0.297
 1105SOL    HW2 4215   4.413   5.958   0.207
 1106SOL     OW 4216   1.008   1.939   5.816
 1106SOL    HW1 4217   0.992   1.874   5.891
 1106SOL    HW2 4218   1.065   1.896   5.747
 1107SOL     OW 4219   1.178   0.566   1.511
 1107SOL    HW1 4220   1.218   0.630   1.445
 1107SOL    HW2 4221   1.238   0.558   1.590
 1108SOL     OW 4222   1.034   1.741   5.999
 1108SOL    HW1 4223   0.965   1.677   5.966
 1108SOL    HW2 4224   1.106   1.691   6.046
 1109SOL     OW 4225   4.522   1.056   3.787
 1109SOL    HW1 4226   4.599   1.119   3.784
 1109SOL    HW2 4227   4.502   1.024   3.694
 1110SOL     OW 4228   3.633   2.968   2.060
 1110SOL    HW1 4229   3.730   2.989   2.064
 1110SOL    HW2 4230   3.617   2.894   1.996
 1111SOL     OW 4231   5.488   0.020   0.046
 1111SOL    HW1 4232   5.550   0.086   0.003
 1111SOL    HW2 4233   5.536   6.955   0.060
 1112SOL     OW 4234   6.789   1.350   2.948
 1112SOL    HW1 4235   6.833   1.362   2.859
 1112SOL    HW2 4236   6.853   1.307   3.011
 1113SOL     OW 4237   6.298   3.729   1.449
 1113SOL    HW1 4238   6.268   3.685   1.533
 1113SOL    HW2 4239   6.293   3.664   1.373
 1114SOL     OW 4240   5.704   1.599   4.835
 1114SOL    HW1 4241   5.766   1.677   4.845
 1114SOL    HW2 4242   5.703   1.547   4.921
 1115SOL     OW 4243   2.417   3.175   0.495
 1115SOL    HW1 4244   2.343   3.128   0.543
 1115SOL    HW2 4245   2.397   3.273   0.490
 1116SOL     OW 4246   4.396   5.498   4.939
 1116SOL    HW1 4247   4.300   5.507   4.966
 1116SOL    HW2 4248   4.440   5.587   4.941
 1117SOL     OW 4249   2.513   3.244   1.230
 1117SOL    HW1 4250   2.564   3.196   1.159
 1117SOL    HW2 4251   2.415   3.227   1.218
 1118SOL     OW 4252   1.846   3.616   3.600
 1118SOL    HW1 4253   1.794   3.560   3.535
 1118SOL    HW2 4254   1.937   3.577   3.611
 1119SOL     OW 4255   3.276   4.020   2.226
 1119SOL    HW1 4256   3.332   3.943   2.257
 1119SOL    HW2 4257   3.193   3.984   2.181
 1120SOL     OW 4258   4.182   0.643   4.727
 1120SOL    HW1 4259   4.248   0.612   4.795
 1120SOL    HW2 4260   4.124   0.567   4.699
 1121SOL     OW 4261   5.421   3.407   2.299
 1121SOL    HW1 4262   5.365   3.423   2.381
 1121SOL    HW2 4263   5.373   3.443   2.219
 1122SOL     OW 4264   5.158   4.723   6.832
 1122SOL    HW1 4265   5.079   4.666   6.808
 1122SOL    HW2 4266   5.170   4.794   6.762
 1123SOL     OW 4267   3.742   0.727   1.759
 1123SOL    HW1 4268   3.720   0.738   1.662
 1123SOL    HW2 4269   3.702   0.802   1.811
 1124SOL     OW 4270   1.062   4.589   4.807
 1124SOL    HW1 4271   1.125   4.591   4.885
 1124SOL    HW2 4272   1.029   4.682   4.788
 1125SOL     OW 4273   3.971   3.279   5.087
 1125SOL    HW1 4274   3.923   3.199   5.124
 1125SOL    HW2 4275   3.981   3.270   4.988
 1126SOL     OW 4276   5.551   7.018   2.657
 1126SOL    HW1 4277   5.584   0.080   2.700
 1126SOL    HW2 4278   5.514   6.957   2.726
 1127SOL     OW 4279   1.358   4.740   6.880
 1127SOL    HW1 4280   1.390   4.732   6.974
 1127SOL    HW2 4281   1.266   4.781   6.878
 1128SOL     OW 4282   3.095   1.481   4.890
 1128SOL    HW1 4283   3.138   1.571   4.881
 1128SOL    HW2 4284   3.164   1.410   4.882
 1129SOL     OW 4285   5.239   0.218   6.778
 1129SOL    HW1 4286   5.163   0.191   6.837
 1129SOL    HW2 4287   5.261   0.314   6.794
 1130SOL     OW 4288   0.217   4.835   5.828
 1130SOL    HW1 4289   0.184   4.741   5.830
 1130SOL    HW2 4290   0.295   4.844   5.890
 1131SOL     OW 4291   0.521   5.086   6.065
 1131SOL    HW1 4292   0.536   5.132   5.977
 1131SOL    HW2 4293   0.513   5.155   6.137
 1132SOL     OW 4294   4.733   7.003   5.210
 1132SOL    HW1 4295   4.718   7.004   5.308
 1132SOL    HW2 4296   4.655   0.022   5.163
 1133SOL     OW 4297   0.966   2.570   0.742
 1133SOL    HW1 4298   0.950   2.477   0.709
 1133SOL    HW2 4299   1.032   2.569   0.817
 1134SOL     OW 4300   6.330   3.037   5.700
 1134SOL    HW1 4301   6.392   2.969   5.661
 1134SOL    HW2 4302   6.383   3.116   5.730
 1135SOL     OW 4303   5.084   1.728   3.197
 1135SOL    HW1 4304   5.116   1.796   3.263
 1135SOL    HW2 4305   5.115   1.637   3.226
 1136SOL     OW 4306   3.816   5.431   4.141
 1136SOL    HW1 4307   3.909   5.427   4.104
 1136SOL    HW2 4308   3.813   5.383   4.229
 1137SOL     OW 4309   1.704   1.505   5.422
 1137SOL    HW1 4310   1.739   1.415   5.449
 1137SOL    HW2 4311   1.728   1.572   5.492
 1138SOL     OW 4312   0.434   4.316   5.657
 1138SOL    HW1 4313   0.385   4.314   5.570
 1138SOL    HW2 4314   0.530   4.339   5.641
 1139SOL     OW 4315   1.204   6.666   1.783
 1139SOL    HW1 4316   1.116   6.696   1.821
 1139SOL    HW2 4317   1.258   6.746   1.756
 1140SOL     OW 4318   3.809   1.605   3.382
 1140SOL    HW1 4319   3.750   1.589   3.461
 1140SOL    HW2 4320   3.895   1.646   3.411
 1141SOL     OW 4321   6.667   5.881   5.800
 1141SOL    HW1 4322   6.730   5.853   5.872
 1141SOL    HW2 4323   6.573   5.860   5.827
 1142SOL     OW 4324   5.934   0.931   4.066
 1142SOL    HW1 4325   5.971   0.944   4.158
 1142SOL    HW2 4326   5.848   0.981   4.056
 1143SOL     OW 4327   4.099   1.352   2.495
 1143SOL    HW1 4328   4.189   1.339   2.452
 1143SOL    HW2 4329   4.091   1.293   2.575
 1144SOL     OW 4330   0.949   6.184   5.104
 1144SOL    HW1 4331   1.003   6.262   5.072
 1144SOL    HW2 4332   0.855   6.193   5.073
 1145SOL     OW 4333   1.363   4.994   5.502
 1145SOL    HW1 4334   1.404   5.080   5.534
 1145SOL    HW2 4335   1.280   5.015   5.450
 1146SOL     OW 4336   5.831   2.034   0.632
 1146SOL    HW1 4337   5.847   1.993   0.722
 1146SOL    HW2 4338   5.823   2.133   0.642
 1147SOL     OW 4339   6.222   2.709   1.831
 1147SOL    HW1 4340   6.160   2.772   1.878
 1147SOL    HW2 4341   6.190   2.695   1.737
 1148SOL     OW 4342   4.453   0.599   0.495
 1148SOL    HW1 4343   4.469   0.553   0.582
 1148SOL    HW2 4344   4.365   0.646   0.497
 1149SOL     OW 4345   0.439   3.401   2.544
 1149SOL    HW1 4346   0.403   3.491   2.568
 1149SOL    HW2 4347   0.362   3.337   2.533
 1150SOL     OW 4348   1.114   4.718   5.950
 1150SOL    HW1 4349   1.077   4.655   5.882
 1150SOL    HW2 4350   1.149   4.665   6.028
 1151SOL     OW 4351   4.576   5.509   0.193
 1151SOL    HW1 4352   4.527   5.425   0.214
 1151SOL    HW2 4353   4.646   5.491   0.123
 1152SOL     OW 4354   0.535   0.738   5.199
 1152SOL    HW1 4355   0.448   0.774   5.167
 1152SOL    HW2 4356   0.518   0.664   5.265
 1153SOL     OW 4357   2.157   5.236   2.720
 1153SOL    HW1 4358   2.117   5.289   2.645
 1153SOL    HW2 4359   2.250   5.209   2.696
 1154SOL     OW 4360   1.906   4.642   1.967
 1154SOL    HW1 4361   1.826   4.697   1.943
 1154SOL    HW2 4362   1.976   4.651   1.896
 1155SOL     OW 4363   2.984   5.591   1.922
 1155SOL    HW1 4364   3.064   5.652   1.925
 1155SOL    HW2 4365   2.972   5.548   2.011
 1156SOL     OW 4366   1.801   0.677   4.164
 1156SOL    HW1 4367   1.833   0.683   4.070
 1156SOL    HW2 4368   1.710   0.637   4.166
 1157SOL     OW 4369   1.539   1.820   4.139
 1157SOL    HW1 4370   1.630   1.848   4.168
 1157SOL    HW2 4371   1.547   1.756   4.063
 1158SOL     OW 4372   4.378   5.329   5.586
 1158SOL    HW1 4373   4.433   5.279   5.653
 1158SOL    HW2 4374   4.412   5.308   5.494
 1159SOL     OW 4375   5.383   5.373   3.309
 1159SOL    HW1 4376   5.482   5.375   3.325
 1159SOL    HW2 4377   5.354   5.279   3.291
 1160SOL     OW 4378   2.765   2.805   0.586
 1160SOL    HW1 4379   2.731   2.765   0.500
 1160SOL    HW2 4380   2.740   2.901   0.590
 1161SOL     OW 4381   4.133   0.039   4.375
 1161SOL    HW1 4382   4.049   0.086   4.345
 1161SOL    HW2 4383   4.155   0.066   4.468
 1162SOL     OW 4384   3.923   4.401   1.601
 1162SOL    HW1 4385   4.016   4.395   1.565
 1162SOL    HW2 4386   3.887   4.308   1.615
 1163SOL     OW 4387   4.580   2.215   2.372
 1163SOL    HW1 4388   4.678   2.229   2.382
 1163SOL    HW2 4389   4.532   2.303   2.380
 1164SOL     OW 4390   6.141   3.309   3.970
 1164SOL    HW1 4391   6.101   3.353   3.890
 1164SOL    HW2 4392   6.161   3.214   3.950
 1165SOL     OW 4393   1.560   4.913   2.157
 1165SOL    HW1 4394   1.602   4.977   2.093
 1165SOL    HW2 4395   1.484   4.959   2.204
 1166SOL     OW 4396   3.596   3.029   6.242
 1166SOL    HW1 4397   3.589   2.929   6.247
 1166SOL    HW2 4398   3.571   3.060   6.151
 1167SOL     OW 4399   4.475   1.544   4.371
 1167SOL    HW1 4400   4.525   1.505   4.294
 1167SOL    HW2 4401   4.514   1.633   4.395
 1168SOL     OW 4402   6.363   5.745   3.427
 1168SOL    HW1 4403   6.331   5.839   3.420
 1168SOL    HW2 4404   6.316   5.689   3.359
 1169SOL     OW 4405   1.152   3.410   1.476
 1169SOL    HW1 4406   1.158   3.342   1.549
 1169SOL    HW2 4407   1.066   3.399   1.427
 1170SOL     OW 4408   2.702   0.490   0.636
 1170SOL    HW1 4409   2.614   0.444   0.629
 1170SOL    HW2 4410   2.750   0.460   0.718
 1171SOL     OW 4411   2.212   0.287   0.588
 1171SOL    HW1 4412   2.120   0.313   0.559
 1171SOL    HW2 4413   2.258   0.239   0.513
 1172SOL     OW 4414   3.343   3.215   5.047
 1172SOL    HW1 4415   3.441   3.198   5.053
 1172SOL    HW2 4416   3.326   3.311   5.029
 1173SOL     OW 4417   4.815   0.917   6.073
 1173SOL    HW1 4418   4.771   1.006   6.086
 1173SOL    HW2 4419   4.844   0.880   6.161
 1174SOL     OW 4420   3.169   6.800   1.003
 1174SOL    HW1 4421   3.135   6.723   1.056
 1174SOL    HW2 4422   3.228   6.767   0.929
 1175SOL     OW 4423   6.768   4.926   5.002
 1175SOL    HW1 4424   6.803   4.916   5.095
 1175SOL    HW2 4425   6.796   5.015   4.965
 1176SOL     OW 4426   6.666   3.617   1.059
 1176SOL    HW1 4427   6.717   3.532   1.057
 1176SOL    HW2 4428   6.685   3.669   0.975
 1177SOL     OW 4429   6.249   3.532   0.197
 1177SOL    HW1 4430   6.345   3.508   0.184
 1177SOL    HW2 4431   6.235   3.628   0.175
 1178SOL     OW 4432   5.537   4.221   1.966
 1178SOL    HW1 4433   5.598   4.166   2.024
 1178SOL    HW2 4434   5.442   4.200   1.988
 1179SOL     OW 4435   2.448   5.783   6.710
 1179SOL    HW1 4436   2.378   5.850   6.735
 1179SOL    HW2 4437   2.409   5.691   6.712
 1180SOL     OW 4438   2.756   1.876   3.902
 1180SOL    HW1 4439   2.812   1.793   3.901
 1180SOL    HW2 4440   2.665   1.855   3.937
 1181SOL     OW 4441   2.424   4.332   3.347
 1181SOL    HW1 4442   2.506   4.389   3.347
 1181SOL    HW2 4443   2.343   4.389   3.335
 1182SOL     OW 4444   1.354   4.766   3.154
 1182SOL    HW1 4445   1.369   4.863   3.138
 1182SOL    HW2 4446   1.336   4.750   3.251
 1183SOL     OW 4447   4.802   5.253   1.243
 1183SOL    HW1 4448   4.726   5.196   1.210
 1183SOL    HW2 4449   4.869   5.195   1.289
 1184SOL     OW 4450   3.121   2.849   5.613
 1184SOL    HW1 4451   3.111   2.857   5.514
 1184SOL    HW2 4452   3.049   2.902   5.657
 1185SOL     OW 4453   2.129   1.987   0.179
 1185SOL    HW1 4454   2.206   1.995   0.116
 1185SOL    HW2 4455   2.145   2.044   0.259
 1186SOL     OW 4456   3.946   1.127   5.258
 1186SOL    HW1 4457   4.017   1.065   5.225
 1186SOL    HW2 4458   3.872   1.074   5.301
 1187SOL     OW 4459   6.944   1.194   5.492
 1187SOL    HW1 4460   6.892   1.186   5.407
 1187SOL    HW2 4461   0.013   1.153   5.480
 1188SOL     OW 4462   1.285   0.069   5.480
 1188SOL    HW1 4463   1.226   0.128   5.535
 1188SOL    HW2 4464   1.301   0.112   5.391
 1189SOL     OW 4465   6.729   0.934   1.482
 1189SOL    HW1 4466   6.711   0.920   1.385
 1189SOL    HW2 4467   6.650   0.976   1.526
 1190SOL     OW 4468   4.586   4.487   2.882
 1190SOL    HW1 4469   4.523   4.564   2.872
 1190SOL    HW2 4470   4.574   4.423   2.806
 1191SOL     OW 4471   3.757   4.663   6.819
 1191SOL    HW1 4472   3.681   4.650   6.756
 1191SOL    HW2 4473   3.731   4.634   6.911
 1192SOL     OW 4474   4.552   5.036   2.517
 1192SOL    HW1 4475   4.455   5.034   2.543
 1192SOL    HW2 4476   4.592   5.122   2.548
 1193SOL     OW 4477   4.160   6.632   3.811
 1193SOL    HW1 4478   4.096   6.556   3.806
 1193SOL    HW2 4479   4.116   6.710   3.857
 1194SOL     OW 4480   6.224   0.494   1.181
 1194SOL    HW1 4481   6.241   0.465   1.275
 1194SOL    HW2 4482   6.127   0.517   1.171
 1195SOL     OW 4483   4.182   0.644   6.793
 1195SOL    HW1 4484   4.258   0.580   6.786
 1195SOL    HW2 4485   4.164   0.685   6.704
 1196SOL     OW 4486   6.706   5.581   2.437
 1196SOL    HW1 4487   6.636   5.516   2.468
 1196SOL    HW2 4488   6.784   5.530   2.400
 1197SOL     OW 4489   3.016   5.585   6.329
 1197SOL    HW1 4490   3.050   5.516   6.394
 1197SOL    HW2 4491   2.916   5.589   6.335
 1198SOL     OW 4492   3.245   1.634   2.658
 1198SOL    HW1 4493   3.148   1.654   2.673
 1198SOL    HW2 4494   3.281   1.696   2.589
 1199SOL     OW 4495   3.457   4.120   3.802
 1199SOL    HW1 4496   3.435   4.211   3.768
 1199SOL    HW2 4497   3.451   4.119   3.902
 1200SOL     OW 4498   4.003   3.854   0.206
 1200SOL    HW1 4499   3.946   3.833   0.286
 1200SOL    HW2 4500   4.093   3.813   0.218
 1201SOL     OW 4501   1.291   0.719   4.568
 1201SOL    HW1 4502   1.334   0.756   4.651
 1201SOL    HW2 4503   1.255   0.628   4.588
 1202SOL     OW 4504   6.223   0.269   4.788
 1202SOL    HW1 4505   6.307   0.292   4.739
 1202SOL    HW2 4506   6.175   0.352   4.814
 1203SOL     OW 4507   5.845   6.700   1.799
 1203SOL    HW1 4508   5.932   6.652   1.800
 1203SOL    HW2 4509   5.779   6.649   1.744
 1204SOL     OW 4510   3.083   0.265   0.384
 1204SOL    HW1 4511   3.009   0.324   0.352
 1204SOL    HW2 4512   3.145   0.245   0.308
 1205SOL     OW 4513   0.593   2.210   5.261
 1205SOL    HW1 4514   0.630   2.152   5.189
 1205SOL    HW2 4515   0.557   2.294   5.220
 1206SOL     OW 4516   0.953   1.587   4.654
 1206SOL    HW1 4517   0.950   1.680   4.692
 1206SOL    HW2 4518   0.905   1.525   4.716
 1207SOL     OW 4519   5.738   6.081   6.664
 1207SOL    HW1 4520   5.731   6.016   6.588
 1207SOL    HW2 4521   5.650   6.087   6.711
 1208SOL     OW 4522   3.678   4.108   3.587
 1208SOL    HW1 4523   3.765   4.064   3.607
 1208SOL    HW2 4524   3.626   4.121   3.672
 1209SOL     OW 4525   6.477   4.878   4.692
 1209SOL    HW1 4526   6.448   4.808   4.758
 1209SOL    HW2 4527   6.508   4.834   4.608
 1210SOL     OW 4528   2.849   6.611   2.799
 1210SOL    HW1 4529   2.812   6.705   2.796
 1210SOL    HW2 4530   2.931   6.606   2.742
 1211SOL     OW 4531   1.134   3.534   4.413
 1211SOL    HW1 4532   1.057   3.594   4.389
 1211SOL    HW2 4533   1.217   3.588   4.425
 1212SOL     OW 4534   2.150   4.049   4.806
 1212SOL    HW1 4535   2.089   4.127   4.821
 1212SOL    HW2 4536   2.207   4.035   4.887
 1213SOL     OW 4537   5.722   2.943   5.504
 1213SOL    HW1 4538   5.752   2.878   5.573
 1213SOL    HW2 4539   5.641   2.992   5.536
 1214SOL     OW 4540   2.118   2.433   2.958
 1214SOL    HW1 4541   2.167   2.380   3.026
 1214SOL    HW2 4542   2.138   2.530   2.969
 1215SOL     OW 4543   0.636   5.292   2.123
 1215SOL    HW1 4544   0.620   5.386   2.094
 1215SOL    HW2 4545   0.686   5.292   2.210
 1216SOL     OW 4546   3.089   0.183   1.915
 1216SOL    HW1 4547   3.144   0.209   1.994
 1216SOL    HW2 4548   2.992   0.193   1.937
 1217SOL     OW 4549   1.431   1.482   2.842
 1217SOL    HW1 4550   1.453   1.501   2.747
 1217SOL    HW2 4551   1.352   1.420   2.848
 1218SOL     OW 4552   0.479   3.726   4.224
 1218SOL    HW1 4553   0.429   3.731   4.138
 1218SOL    HW2 4554   0.415   3.721   4.300
 1219SOL     OW 4555   2.377   5.995   3.272
 1219SOL    HW1 4556   2.444   5.921   3.274
 1219SOL    HW2 4557   2.351   6.013   3.177
 1220SOL     OW 4558   6.840   4.274   2.889
 1220SOL    HW1 4559   6.741   4.260   2.893
 1220SOL    HW2 4560   6.885   4.210   2.951
 1221SOL     OW 4561   4.843   3.383   7.013
 1221SOL    HW1 4562   4.755   3.425   0.015
 1221SOL    HW2 4563   4.872   3.322   0.065
 1222SOL     OW 4564   5.852   6.198   1.235
 1222SOL    HW1 4565   5.922   6.154   1.291
 1222SOL    HW2 4566   5.816   6.131   1.169
 1223SOL     OW 4567   5.802   5.690   5.163
 1223SOL    HW1 4568   5.891   5.718   5.198
 1223SOL    HW2 4569   5.754   5.636   5.232
 1224SOL     OW 4570   4.737   4.637   1.879
 1224SOL    HW1 4571   4.802   4.591   1.941
 1224SOL    HW2 4572   4.659   4.670   1.932
 1225SOL     OW 4573   4.767   1.204   0.173
 1225SOL    HW1 4574   4.826   1.152   0.112
 1225SOL    HW2 4575   4.678   1.217   0.130
 1226SOL     OW 4576   4.936   4.636   0.480
 1226SOL    HW1 4577   5.008   4.695   0.443
 1226SOL    HW2 4578   4.922   4.558   0.418
 1227SOL     OW 4579   5.172   4.899   6.636
 1227SOL    HW1 4580   5.272   4.895   6.629
 1227SOL    HW2 4581   5.144   4.993   6.657
 1228SOL     OW 4582   3.727   3.651   4.278
 1228SOL    HW1 4583   3.726   3.597   4.362
 1228SOL    HW2 4584   3.660   3.725   4.286
 1229SOL     OW 4585   1.907   5.560   2.806
 1229SOL    HW1 4586   1.893   5.618   2.886
 1229SOL    HW2 4587   1.991   5.587   2.759
 1230SOL     OW 4588   5.222   5.142   1.949
 1230SOL    HW1 4589   5.309   5.183   1.924
 1230SOL    HW2 4590   5.215   5.136   2.049
 1231SOL     OW 4591   1.864   2.214   6.814
 1231SOL    HW1 4592   1.827   2.245   6.726
 1231SOL    HW2 4593   1.940   2.274   6.841
 1232SOL     OW 4594   2.960   0.811   4.909
 1232SOL    HW1 4595   2.879   0.849   4.865
 1232SOL    HW2 4596   2.934   0.727   4.958
 1233SOL     OW 4597   6.836   5.338   5.550
 1233SOL    HW1 4598   6.880   5.256   5.586
 1233SOL    HW2 4599   6.806   5.321   5.456
 1234SOL     OW 4600   6.539   3.659   6.947
 1234SOL    HW1 4601   6.593   3.586   6.905
 1234SOL    HW2 4602   6.442   3.643   6.930
 1235SOL     OW 4603   6.099   4.917   1.303
 1235SOL    HW1 4604   6.096   4.846   1.374
 1235SOL    HW2 4605   6.162   4.889   1.231
 1236SOL     OW 4606   1.501   1.653   3.045
 1236SOL    HW1 4607   1.596   1.627   3.063
 1236SOL    HW2 4608   1.463   1.594   2.974
 1237SOL     OW 4609   0.804   6.850   4.949
 1237SOL    HW1 4610   0.733   6.900   4.999
 1237SOL    HW2 4611   0.765   6.766   4.910
 1238SOL     OW 4612   0.753   0.328   4.376
 1238SOL    HW1 4613   0.794   0.407   4.330
 1238SOL    HW2 4614   0.794   0.317   4.467
 1239SOL     OW 4615   5.075   4.938   3.967
 1239SOL    HW1 4616   5.044   4.949   4.062
 1239SOL    HW2 4617   5.172   4.915   3.966
 1240SOL     OW 4618   1.079   3.876   2.166
 1240SOL    HW1 4619   1.162   3.861   2.113
 1240SOL    HW2 4620   1.043   3.788   2.197
 1241SOL     OW 4621   4.251   5.329   5.259
 1241SOL    HW1 4622   4.199   5.260   5.310
 1241SOL    HW2 4623   4.340   5.291   5.233
 1242SOL     OW 4624   2.298   4.301   0.826
 1242SOL    HW1 4625   2.342   4.312   0.915
 1242SOL    HW2 4626   2.224   4.366   0.817
 1243SOL     OW 4627   0.689   3.938   4.326
 1243SOL    HW1 4628   0.696   3.993   4.243
 1243SOL    HW2 4629   0.605   3.884   4.322
 1244SOL     OW 4630   5.998   0.402   5.315
 1244SOL    HW1 4631   6.080   0.349   5.292
 1244SOL    HW2 4632   5.995   0.418   5.414
 1245SOL     OW 4633   4.679   6.009   1.377
 1245SOL    HW1 4634   4.615   6.081   1.348
 1245SOL    HW2 4635   4.724   6.037   1.462
 1246SOL     OW 4636   5.156   0.731   0.617
 1246SOL    HW1 4637   5.248   0.769   0.609
 1246SOL    HW2 4638   5.142   0.662   0.546
 1247SOL     OW 4639   6.755   6.924   2.804
 1247SOL    HW1 4640   6.710   6.850   2.753
 1247SOL    HW2 4641   6.851   6.901   2.819
 1248SOL     OW 4642   1.243   6.584   4.667
 1248SOL    HW1 4643   1.230   6.501   4.721
 1248SOL    HW2 4644   1.165   6.645   4.680
 1249SOL     OW 4645   5.851   5.789   6.225
 1249SOL    HW1 4646   5.820   5.820   6.135
 1249SOL    HW2 4647   5.794   5.831   6.296
 1250SOL     OW 4648   0.176   3.044   4.899
 1250SOL    HW1 4649   0.264   3.009   4.933
 1250SOL    HW2 4650   0.110   2.969   4.894
 1251SOL     OW 4651   2.796   1.081   2.764
 1251SOL    HW1 4652   2.699   1.062   2.779
 1251SOL    HW2 4653   2.851   1.013   2.812
 1252SOL     OW 4654   1.883   6.142   6.315
 1252SOL    HW1 4655   1.864   6.239   6.300
 1252SOL    HW2 4656   1.936   6.132   6.399
 1253SOL     OW 4657   3.302   6.981   0.151
 1253SOL    HW1 4658   3.232   6.954   0.217
 1253SOL    HW2 4659   3.275   6.952   0.060
 1254SOL     OW 4660   5.882   0.279   3.122
 1254SOL    HW1 4661   5.899   0.237   3.212
 1254SOL    HW2 4662   5.925   0.369   3.120
 1255SOL     OW 4663   5.453   1.073   5.377
 1255SOL    HW1 4664   5.420   1.148   5.320
 1255SOL    HW2 4665   5.375   1.017   5.406
 1256SOL     OW 4666   0.459   5.817   4.701
 1256SOL    HW1 4667   0.554   5.843   4.683
 1256SOL    HW2 4668   0.398   5.870   4.644
 1257SOL     OW 4669   0.705   6.399   3.604
 1257SOL    HW1 4670   0.698   6.384   3.505
 1257SOL    HW2 4671   0.800   6.387   3.632
 1258SOL     OW 4672   4.569   6.022   6.137
 1258SOL    HW1 4673   4.643   6.077   6.098
 1258SOL    HW2 4674   4.593   5.925   6.130
 1259SOL     OW 4675   5.694   0.167   5.388
 1259SOL    HW1 4676   5.664   0.155   5.483
 1259SOL    HW2 4677   5.739   0.083   5.357
 1260SOL     OW 4678   3.155   1.449   1.138
 1260SOL    HW1 4679   3.222   1.382   1.169
 1260SOL    HW2 4680   3.062   1.414   1.153
 1261SOL     OW 4681   6.605   4.358   5.527
 1261SOL    HW1 4682   6.692   4.364   5.478
 1261SOL    HW2 4683   6.556   4.277   5.497
 1262SOL     OW 4684   4.046   4.793   1.082
 1262SOL    HW1 4685   4.001   4.703   1.083
 1262SOL    HW2 4686   4.063   4.823   1.176
 1263SOL     OW 4687   6.411   2.262   0.932
 1263SOL    HW1 4688   6.438   2.169   0.905
 1263SOL    HW2 4689   6.473   2.296   1.003
 1264SOL     OW 4690   6.865   2.960   3.883
 1264SOL    HW1 4691   6.932   2.887   3.878
 1264SOL    HW2 4692   6.827   2.965   3.975
 1265SOL     OW 4693   7.010   5.955   4.812
 1265SOL    HW1 4694   6.922   5.936   4.768
 1265SOL    HW2 4695   0.063   5.929   4.750
 1266SOL     OW 4696   1.861   1.290   4.361
 1266SOL    HW1 4697   1.853   1.196   4.327
 1266SOL    HW2 4698   1.820   1.353   4.296
 1267SOL     OW 4699   6.307   5.000   2.165
 1267SOL    HW1 4700   6.261   5.014   2.253
 1267SOL    HW2 4701   6.266   5.059   2.096
 1268SOL     OW 4702   6.218   3.808   0.303
 1268SOL    HW1 4703   6.290   3.841   0.363
 1268SOL    HW2 4704   6.230   3.846   0.211
 1269SOL     OW 4705   6.849   5.625   6.138
 1269SOL    HW1 4706   6.901   5.656   6.059
 1269SOL    HW2 4707   6.752   5.639   6.123
 1270SOL     OW 4708   1.714   2.439   5.014
 1270SOL    HW1 4709   1.732   2.517   5.074
 1270SOL    HW2 4710   1.719   2.468   4.918
 1271SOL     OW 4711   5.148   1.963   2.998
 1271SOL    HW1 4712   5.123   2.048   3.044
 1271SOL    HW2 4713   5.112   1.885   3.050
 1272SOL     OW 4714   0.317   6.491   1.756
 1272SOL    HW1 4715   0.268   6.578   1.766
 1272SOL    HW2 4716   0.365   6.470   1.841
 1273SOL     OW 4717   2.666   6.614   6.710
 1273SOL    HW1 4718   2.756   6.613   6.666
 1273SOL    HW2 4719   2.596   6.592   6.643
 1274SOL     OW 4720   6.467   2.761   1.500
 1274SOL    HW1 4721   6.549   2.704   1.506
 1274SOL    HW2 4722   6.414   2.752   1.584
 1275SOL     OW 4723   3.755   1.506   4.010
 1275SOL    HW1 4724   3.694   1.582   4.033
 1275SOL    HW2 4725   3.850   1.535   4.025
 1276SOL     OW 4726   6.300   0.236   3.267
 1276SOL    HW1 4727   6.332   0.157   3.216
 1276SOL    HW2 4728   6.370   0.265   3.332
 1277SOL     OW 4729   0.431   1.115   5.063
 1277SOL    HW1 4730   0.439   1.203   5.016
 1277SOL    HW2 4731   0.457   1.041   5.000
 1278SOL     OW 4732   2.649   1.739   5.303
 1278SOL    HW1 4733   2.664   1.787   5.217
 1278SOL    HW2 4734   2.655   1.803   5.380
 1279SOL     OW 4735   2.496   5.581   0.016
 1279SOL    HW1 4736   2.570   5.577   0.083
 1279SOL    HW2 4737   2.532   5.612   6.950
 1280SOL     OW 4738   1.992   6.278   3.290
 1280SOL    HW1 4739   1.947   6.281   3.200
 1280SOL    HW2 4740   1.922   6.271   3.361
 1281SOL     OW 4741   0.761   6.936   3.663
 1281SOL    HW1 4742   0.811   6.852   3.687
 1281SOL    HW2 4743   0.670   6.912   3.630
 1282SOL     OW 4744   1.475   0.627   2.432
 1282SOL    HW1 4745   1.531   0.544   2.428
 1282SOL    HW2 4746   1.439   0.647   2.341
 1283SOL     OW 4747   5.233   5.324   5.870
 1283SOL    HW1 4748   5.304   5.366   5.927
 1283SOL    HW2 4749   5.143   5.341   5.910
 1284SOL     OW 4750   2.343   1.804   2.124
 1284SOL    HW1 4751   2.394   1.845   2.201
 1284SOL    HW2 4752   2.295   1.723   2.156
 1285SOL     OW 4753   4.931   2.274   5.634
 1285SOL    HW1 4754   4.911   2.235   5.724
 1285SOL    HW2 4755   4.980   2.361   5.646
 1286SOL     OW 4756   6.262   5.524   1.849
 1286SOL    HW1 4757   6.327   5.516   1.773
 1286SOL    HW2 4758   6.306   5.570   1.926
 1287SOL     OW 4759   6.444   4.781   6.222
 1287SOL    HW1 4760   6.383   4.730   6.282
 1287SOL    HW2 4761   6.468   4.869   6.265
 1288SOL     OW 4762   6.775   2.670   2.614
 1288SOL    HW1 4763   6.731   2.730   2.681
 1288SOL    HW2 4764   6.712   2.596   2.590
 1289SOL     OW 4765   6.258   6.028   2.796
 1289SOL    HW1 4766   6.174   6.082   2.808
 1289SOL    HW2 4767   6.272   6.010   2.699
 1290SOL     OW 4768   0.943   6.808   1.849
 1290SOL    HW1 4769   0.897   6.866   1.915
 1290SOL    HW2 4770   0.934   6.848   1.757
 1291SOL     OW 4771   2.324   6.825   0.453
 1291SOL    HW1 4772   2.413   6.827   0.499
 1291SOL    HW2 4773   2.262   6.889   0.497
 1292SOL     OW 4774   1.058   6.217   0.464
 1292SOL    HW1 4775   1.097   6.281   0.398
 1292SOL    HW2 4776   1.112   6.133   0.464
 1293SOL     OW 4777   0.266   2.895   5.806
 1293SOL    HW1 4778   0.184   2.929   5.851
 1293SOL    HW2 4779   0.345   2.948   5.836
 1294SOL     OW 4780   0.049   2.230   2.508
 1294SOL    HW1 4781   0.134   2.262   2.466
 1294SOL    HW2 4782   6.997   2.230   2.440
 1295SOL     OW 4783   6.213   3.139   1.753
 1295SOL    HW1 4784   6.222   3.097   1.662
 1295SOL    HW2 4785   6.293   3.115   1.809
 1296SOL     OW 4786   3.897   2.420   6.330
 1296SOL    HW1 4787   3.879   2.513   6.300
 1296SOL    HW2 4788   3.900   2.359   6.250
 1297SOL     OW 4789   6.827   1.645   6.052
 1297SOL    HW1 4790   6.831   1.717   5.982
 1297SOL    HW2 4791   6.874   1.563   6.019
 1298SOL     OW 4792   5.462   2.977   3.743
 1298SOL    HW1 4793   5.480   2.879   3.737
 1298SOL    HW2 4794   5.393   3.002   3.674
 1299SOL     OW 4795   0.825   3.929   3.964
 1299SOL    HW1 4796   0.785   3.844   3.998
 1299SOL    HW2 4797   0.776   4.007   4.002
 1300SOL     OW 4798   2.663   3.529   1.282
 1300SOL    HW1 4799   2.668   3.519   1.382
 1300SOL    HW2 4800   2.695   3.445   1.239
 1301SOL     OW 4801   0.176   0.424   3.124
 1301SOL    HW1 4802   0.222   0.339   3.098
 1301SOL    HW2 4803   0.243   0.499   3.122
 1302SOL     OW 4804   2.488   5.851   4.962
 1302SOL    HW1 4805   2.541   5.911   4.902
 1302SOL    HW2 4806   2.439   5.783   4.907
 1303SOL     OW 4807   3.964   1.404   1.296
 1303SOL    HW1 4808   3.872   1.373   1.320
 1303SOL    HW2 4809   4.018   1.327   1.264
 1304SOL     OW 4810   2.709   0.926   6.509
 1304SOL    HW1 4811   2.789   0.968   6.551
 1304SOL    HW2 4812   2.639   0.996   6.493
 1305SOL     OW 4813   4.738   6.762   4.676
 1305SOL    HW1 4814   4.706   6.672   4.703
 1305SOL    HW2 4815   4.798   6.800   4.746
 1306SOL     OW 4816   0.902   4.735   3.969
 1306SOL    HW1 4817   0.987   4.752   3.919
 1306SOL    HW2 4818   0.845   4.671   3.916
 1307SOL     OW 4819   1.969   1.607   4.434
 1307SOL    HW1 4820   2.039   1.660   4.388
 1307SOL    HW2 4821   1.913   1.559   4.367
 1308SOL     OW 4822   4.703   5.968   2.716
 1308SOL    HW1 4823   4.667   5.882   2.752
 1308SOL    HW2 4824   4.753   6.016   2.788
 1309SOL     OW 4825   5.555   2.786   4.643
 1309SOL    HW1 4826   5.461   2.764   4.621
 1309SOL    HW2 4827   5.557   2.851   4.720
 1310SOL     OW 4828   4.802   3.722   5.381
 1310SOL    HW1 4829   4.863   3.673   5.443
 1310SOL    HW2 4830   4.741   3.656   5.336
 1311SOL     OW 4831   4.966   5.606   5.445
 1311SOL    HW1 4832   5.010   5.696   5.441
 1311SOL    HW2 4833   5.013   5.543   5.384
 1312SOL     OW 4834   0.358   6.689   1.004
 1312SOL    HW1 4835   0.297   6.624   0.958
 1312SOL    HW2 4836   0.359   6.775   0.954
 1313SOL     OW 4837   3.275   5.503   5.106
 1313SOL    HW1 4838   3.238   5.413   5.126
 1313SOL    HW2 4839   3.367   5.494   5.068
 1314SOL     OW 4840   6.338   1.716   4.505
 1314SOL    HW1 4841   6.293   1.670   4.428
 1314SOL    HW2 4842   6.304   1.810   4.512
 1315SOL     OW 4843   2.047   0.822   2.859
 1315SOL    HW1 4844   2.003   0.860   2.777
 1315SOL    HW2 4845   1.978   0.783   2.919
 1316SOL     OW 4846   3.031   6.617   2.607
 1316SOL    HW1 4847   3.020   6.529   2.560
 1316SOL    HW2 4848   2.973   6.686   2.562
 1317SOL     OW 4849   0.121   5.723   3.955
 1317SOL    HW1 4850   0.050   5.789   3.981
 1317SOL    HW2 4851   0.078   5.639   3.922
 1318SOL     OW 4852   0.063   6.475   0.675
 1318SOL    HW1 4853   0.066   6.378   0.701
 1318SOL    HW2 4854   0.077   6.483   0.576
 1319SOL     OW 4855   6.332   1.159   7.016
 1319SOL    HW1 4856   6.309   1.126   6.925
 1319SOL    HW2 4857   6.430   1.147   0.010
 1320SOL     OW 4858   5.497   5.246   6.380
 1320SOL    HW1 4859   5.478   5.159   6.333
 1320SOL    HW2 4860   5.551   5.228   6.462
 1321SOL     OW 4861   3.928   2.399   6.818
 1321SOL    HW1 4862   3.901   2.381   6.912
 1321SOL    HW2 4863   4.015   2.353   6.798
 1322SOL     OW 4864   5.875   1.590   5.234
 1322SOL    HW1 4865   5.965   1.564   5.269
 1322SOL    HW2 4866   5.842   1.520   5.171
 1323SOL     OW 4867   6.590   1.723   4.644
 1323SOL    HW1 4868   6.578   1.792   4.716
 1323SOL    HW2 4869   6.509   1.721   4.586
 1324SOL     OW 4870   0.750   3.917   0.652
 1324SOL    HW1 4871   0.723   3.902   0.557
 1324SOL    HW2 4872   0.836   3.970   0.654
 1325SOL     OW 4873   3.452   5.962   2.921
 1325SOL    HW1 4874   3.521   5.992   2.855
 1325SOL    HW2 4875   3.497   5.920   3.000
 1326SOL     OW 4876   5.843   3.193   4.287
 1326SOL    HW1 4877   5.894   3.157   4.209
 1326SOL    HW2 4878   5.751   3.155   4.288
 1327SOL     OW 4879   3.162   5.265   3.520
 1327SOL    HW1 4880   3.249   5.310   3.542
 1327SOL    HW2 4881   3.168   5.168   3.541
 1328SOL     OW 4882   1.498   2.534   6.791
 1328SOL    HW1 4883   1.562   2.464   6.823
 1328SOL    HW2 4884   1.440   2.564   6.866
 1329SOL     OW 4885   1.045   0.455   0.950
 1329SOL    HW1 4886   1.115   0.504   0.897
 1329SOL    HW2 4887   1.069   0.459   1.047
 1330SOL     OW 4888   6.381   6.639   1.391
 1330SOL    HW1 4889   6.313   6.575   1.428
 1330SOL    HW2 4890   6.345   6.732   1.396
 1331SOL     OW 4891   5.811   0.483   2.006
 1331SOL    HW1 4892   5.822   0.451   1.912
 1331SOL    HW2 4893   5.760   0.415   2.058
 1332SOL     OW 4894   4.483   1.680   1.569
 1332SOL    HW1 4895   4.402   1.637   1.529
 1332SOL    HW2 4896   4.544   1.710   1.495
 1333SOL     OW 4897   3.892   4.462   5.401
 1333SOL    HW1 4898   3.943   4.378   5.381
 1333SOL    HW2 4899   3.873   4.467   5.499
 1334SOL     OW 4900   0.313   3.841   4.407
 1334SOL    HW1 4901   0.247   3.772   4.378
 1334SOL    HW2 4902   0.317   3.844   4.507
 1335SOL     OW 4903   2.647   4.948   3.045
 1335SOL    HW1 4904   2.598   4.969   3.129
 1335SOL    HW2 4905   2.745   4.943   3.064
 1336SOL     OW 4906   0.774   0.444   5.568
 1336SOL    HW1 4907   0.683   0.483   5.553
 1336SOL    HW2 4908   0.779   0.354   5.526
 1337SOL     OW 4909   2.417   1.269   6.050
 1337SOL    HW1 4910   2.392   1.189   5.995
 1337SOL    HW2 4911   2.345   1.338   6.045
 1338SOL     OW 4912   3.973   5.836   0.405
 1338SOL    HW1 4913   4.046   5.877   0.460
 1338SOL    HW2 4914   3.980   5.737   0.408
 1339SOL     OW 4915   0.255   4.387   4.226
 1339SOL    HW1 4916   0.269   4.405   4.324
 1339SOL    HW2 4917   0.216   4.296   4.215
 1340SOL     OW 4918   1.963   1.766   6.104
 1340SOL    HW1 4919   1.869   1.800   6.107
 1340SOL    HW2 4920   1.977   1.700   6.177
 1341SOL     OW 4921   4.112   1.684   3.504
 1341SOL    HW1 4922   4.075   1.775   3.521
 1341SOL    HW2 4923   4.179   1.661   3.574
 1342SOL     OW 4924   0.335   6.435   0.854
 1342SOL    HW1 4925   0.243   6.417   0.889
 1342SOL    HW2 4926   0.360   6.364   0.789
 1343SOL     OW 4927   4.052   4.923   2.800
 1343SOL    HW1 4928   3.974   4.912   2.737
 1343SOL    HW2 4929   4.122   4.855   2.778
 1344SOL     OW 4930   6.012   1.334   2.704
 1344SOL    HW1 4931   5.915   1.311   2.704
 1344SOL    HW2 4932   6.050   1.320   2.612
 1345SOL     OW 4933   0.939   6.766   3.484
 1345SOL    HW1 4934   0.866   6.834   3.487
 1345SOL    HW2 4935   0.908   6.685   3.434
 1346SOL     OW 4936   0.058   0.687   3.741
 1346SOL    HW1 4937   0.157   0.684   3.724
 1346SOL    HW2 4938   0.011   0.714   3.657
 1347SOL     OW 4939   6.130   0.499   2.971
 1347SOL    HW1 4940   6.195   0.437   2.926
 1347SOL    HW2 4941   6.095   0.565   2.904
 1348SOL     OW 4942   5.143   4.391   4.546
 1348SOL    HW1 4943   5.104   4.426   4.460
 1348SOL    HW2 4944   5.239   4.419   4.552
 1349SOL     OW 4945   4.827   2.734   6.976
 1349SOL    HW1 4946   4.814   2.702   0.049
 1349SOL    HW2 4947   4.739   2.762   6.937
 1350SOL     OW 4948   3.404   0.312   5.693
 1350SOL    HW1 4949   3.440   0.395   5.649
 1350SOL    HW2 4950   3.395   0.328   5.791
 1351SOL     OW 4951   0.763   0.633   4.328
 1351SOL    HW1 4952   0.705   0.682   4.393
 1351SOL    HW2 4953   0.840   0.690   4.302
 1352SOL     OW 4954   0.333   0.685   3.675
 1352SOL    HW1 4955   0.402   0.722   3.613
 1352SOL    HW2 4956   0.358   0.709   3.769
 1353SOL     OW 4957   1.488   4.466   3.781
 1353SOL    HW1 4958   1.570   4.522   3.783
 1353SOL    HW2 4959   1.447   4.470   3.689
 1354SOL     OW 4960   0.462   0.535   1.851
 1354SOL    HW1 4961   0.409   0.454   1.879
 1354SOL    HW2 4962   0.499   0.580   1.932
 1355SOL     OW 4963   5.036   3.039   6.425
 1355SOL    HW1 4964   4.936   3.039   6.424
 1355SOL    HW2 4965   5.070   2.991   6.344
 1356SOL     OW 4966   3.065   3.940   2.100
 1356SOL    HW1 4967   2.966   3.927   2.105
 1356SOL    HW2 4968   3.088   3.994   2.019
 1357SOL     OW 4969   2.934   2.573   5.736
 1357SOL    HW1 4970   2.956   2.528   5.650
 1357SOL    HW2 4971   2.846   2.540   5.770
 1358SOL     OW 4972   2.500   2.545   5.459
 1358SOL    HW1 4973   2.481   2.643   5.446
 1358SOL    HW2 4974   2.587   2.522   5.415
 1359SOL     OW 4975   6.811   1.128   0.540
 1359SOL    HW1 4976   6.825   1.186   0.460
 1359SOL    HW2 4977   6.757   1.049   0.514
 1360SOL     OW 4978   2.983   3.638   4.607
 1360SOL    HW1 4979   2.891   3.626   4.644
 1360SOL    HW2 4980   3.043   3.675   4.678
 1361SOL     OW 4981   1.106   6.031   0.747
 1361SOL    HW1 4982   1.150   6.058   0.661
 1361SOL    HW2 4983   1.074   6.112   0.795
 1362SOL     OW 4984   3.226   2.904   6.221
 1362SOL    HW1 4985   3.288   2.834   6.185
 1362SOL    HW2 4986   3.195   2.963   6.147
 1363SOL     OW 4987   5.582   6.466   2.349
 1363SOL    HW1 4988   5.596   6.436   2.443
 1363SOL    HW2 4989   5.628   6.403   2.286
 1364SOL     OW 4990   0.854   3.546   1.001
 1364SOL    HW1 4991   0.853   3.453   1.038
 1364SOL    HW2 4992   0.787   3.554   0.927
 1365SOL     OW 4993   0.175   3.780   5.552
 1365SOL    HW1 4994   0.269   3.749   5.540
 1365SOL    HW2 4995   0.153   3.850   5.484
 1366SOL     OW 4996   5.070   0.670   1.143
 1366SOL    HW1 4997   4.999   0.615   1.100
 1366SOL    HW2 4998   5.062   0.765   1.112
 1367SOL     OW 4999   0.712   6.401   4.471
 1367SOL    HW1 5000   0.747   6.308   4.472
 1367SOL    HW2 5001   0.779   6.463   4.511
 1368SOL     OW 5002   1.351   6.543   5.476
 1368SOL    HW1 5003   1.260   6.568   5.509
 1368SOL    HW2 5004   1.353   6.445   5.456
 1369SOL     OW 5005   2.885   6.566   3.449
 1369SOL    HW1 5006   2.936   6.636   3.398
 1369SOL    HW2 5007   2.893   6.478   3.402
 1370SOL     OW 5008   6.541   2.230   2.653
 1370SOL    HW1 5009   6.519   2.300   2.585
 1370SOL    HW2 5010   6.619   2.261   2.708
 1371SOL     OW 5011   6.028   2.056   5.726
 1371SOL    HW1 5012   5.982   2.063   5.815
 1371SOL    HW2 5013   6.076   1.969   5.720
 1372SOL     OW 5014   6.527   2.846   0.238
 1372SOL    HW1 5015   6.571   2.820   0.324
 1372SOL    HW2 5016   6.447   2.787   0.223
 1373SOL     OW 5017   5.230   2.374   1.887
 1373SOL    HW1 5018   5.311   2.332   1.928
 1373SOL    HW2 5019   5.148   2.346   1.937
 1374SOL     OW 5020   3.950   3.685   0.498
 1374SOL    HW1 5021   3.952   3.616   0.571
 1374SOL    HW2 5022   4.043   3.702   0.466
 1375SOL     OW 5023   5.418   5.546   3.994
 1375SOL    HW1 5024   5.377   5.570   4.082
 1375SOL    HW2 5025   5.366   5.470   3.953
 1376SOL     OW 5026   2.518   4.669   6.104
 1376SOL    HW1 5027   2.533   4.584   6.052
 1376SOL    HW2 5028   2.597   4.729   6.093
 1377SOL     OW 5029   1.442   1.110   2.995
 1377SOL    HW1 5030   1.381   1.155   2.930
 1377SOL    HW2 5031   1.441   1.012   2.979
 1378SOL     OW 5032   4.597   2.135   4.138
 1378SOL    HW1 5033   4.593   2.074   4.059
 1378SOL    HW2 5034   4.534   2.102   4.208
 1379SOL     OW 5035   5.054   5.609   1.113
 1379SOL    HW1 5036   5.144   5.582   1.146
 1379SOL    HW2 5037   5.061   5.695   1.061
 1380SOL     OW 5038   6.943   6.404   1.945
 1380SOL    HW1 5039   6.930   6.383   2.042
 1380SOL    HW2 5040   0.013   6.373   1.917
 1381SOL     OW 5041   6.514   2.365   5.498
 1381SOL    HW1 5042   6.493   2.361   5.596
 1381SOL    HW2 5043   6.609   2.393   5.486
 1382SOL     OW 5044   4.808   2.667   0.215
 1382SOL    HW1 5045   4.857   2.580   0.216
 1382SOL    HW2 5046   4.713   2.651   0.245
 1383SOL     OW 5047   0.786   1.643   1.989
 1383SOL    HW1 5048   0.727   1.696   2.050
 1383SOL    HW2 5049   0.838   1.576   2.042
 1384SOL     OW 5050   5.765   1.841   1.515
 1384SOL    HW1 5051   5.823   1.917   1.546
 1384SOL    HW2 5052   5.811   1.754   1.534
 1385SOL     OW 5053   0.803   5.944   1.699
 1385SOL    HW1 5054   0.881   5.937   1.637
 1385SOL    HW2 5055   0.738   6.011   1.663
 1386SOL     OW 5056   2.422   5.840   4.223
 1386SOL    HW1 5057   2.440   5.813   4.129
 1386SOL    HW2 5058   2.508   5.855   4.271
 1387SOL     OW 5059   2.752   5.651   2.123
 1387SOL    HW1 5060   2.844   5.668   2.088
 1387SOL    HW2 5061   2.746   5.558   2.159
 1388SOL     OW 5062   6.388   0.448   1.831
 1388SOL    HW1 5063   6.340   0.362   1.849
 1388SOL    HW2 5064   6.322   0.523   1.833
 1389SOL     OW 5065   6.290   0.997   2.898
 1389SOL    HW1 5066   6.352   0.957   2.830
 1389SOL    HW2 5067   6.207   0.942   2.902
 1390SOL     OW 5068   0.676   1.764   6.223
 1390SOL    HW1 5069   0.708   1.682   6.177
 1390SOL    HW2 5070   0.594   1.743   6.276
 1391SOL     OW 5071   0.410   2.927   2.895
 1391SOL    HW1 5072   0.461   2.854   2.851
 1391SOL    HW2 5073   0.339   2.888   2.953
 1392SOL     OW 5074   5.061   4.771   5.398
 1392SOL    HW1 5075   5.100   4.691   5.352
 1392SOL    HW2 5076   5.039   4.747   5.493
 1393SOL     OW 5077   3.841   6.582   5.771
 1393SOL    HW1 5078   3.808   6.676   5.767
 1393SOL    HW2 5079   3.893   6.569   5.856
 1394SOL     OW 5080   2.241   5.849   5.628
 1394SOL    HW1 5081   2.315   5.834   5.563
 1394SOL    HW2 5082   2.254   5.939   5.672
 1395SOL     OW 5083   3.412   4.689   5.666
 1395SOL    HW1 5084   3.443   4.661   5.576
 1395SOL    HW2 5085   3.438   4.784   5.682
 1396SOL     OW 5086   5.671   6.014   4.463
 1396SOL    HW1 5087   5.649   6.091   4.524
 1396SOL    HW2 5088   5.767   6.019   4.438
 1397SOL     OW 5089   4.308   6.234   4.786
 1397SOL    HW1 5090   4.359   6.153   4.817
 1397SOL    HW2 5091   4.211   6.210   4.778
 1398SOL     OW 5092   1.509   1.486   4.510
 1398SOL    HW1 5093   1.586   1.536   4.551
 1398SOL    HW2 5094   1.441   1.551   4.477
 1399SOL     OW 5095   3.041   6.562   1.628
 1399SOL    HW1 5096   3.047   6.608   1.539
 1399SOL    HW2 5097   2.947   6.531   1.643
 1400SOL     OW 5098   0.928   0.331   2.156
 1400SOL    HW1 5099   0.854   0.396   2.142
 1400SOL    HW2 5100   0.942   0.278   2.072
 1401SOL     OW 5101   6.945   1.152   4.734
 1401SOL    HW1 5102   6.923   1.149   4.636
 1401SOL    HW2 5103   6.939   1.246   4.767
 1402SOL     OW 5104   6.727   3.226   0.108
 1402SOL    HW1 5105   6.803   3.267   0.058
 1402SOL    HW2 5106   6.748   3.225   0.205
 1403SOL     OW 5107   2.535   0.288   2.174
 1403SOL    HW1 5108   2.588   0.344   2.111
 1403SOL    HW2 5109   2.466   0.237   2.123
 1404SOL     OW 5110   6.032   0.604   0.336
 1404SOL    HW1 5111   6.059   0.512   0.365
 1404SOL    HW2 5112   5.942   0.625   0.373
 1405SOL     OW 5113   2.078   3.704   1.072
 1405SOL    HW1 5114   2.163   3.722   1.023
 1405SOL    HW2 5115   2.061   3.778   1.137
 1406SOL     OW 5116   1.748   3.925   0.993
 1406SOL    HW1 5117   1.697   3.942   1.077
 1406SOL    HW2 5118   1.747   3.828   0.971
 1407SOL     OW 5119   6.452   2.044   2.328
 1407SOL    HW1 5120   6.413   2.125   2.372
 1407SOL    HW2 5121   6.498   1.988   2.396
 1408SOL     OW 5122   6.501   0.527   6.797
 1408SOL    HW1 5123   6.513   0.626   6.788
 1408SOL    HW2 5124   6.419   0.508   6.852
 1409SOL     OW 5125   0.467   0.751   4.496
 1409SOL    HW1 5126   0.424   0.671   4.453
 1409SOL    HW2 5127   0.537   0.720   4.560
 1410SOL     OW 5128   0.579   2.949   6.966
 1410SOL    HW1 5129   0.622   2.901   0.021
 1410SOL    HW2 5130   0.569   2.886   6.889
 1411SOL     OW 5131   1.279   6.919   1.793
 1411SOL    HW1 5132   1.376   6.897   1.779
 1411SOL    HW2 5133   1.247   6.978   1.720
 1412SOL     OW 5134   0.864   2.601   0.127
 1412SOL    HW1 5135   0.800   2.674   0.103
 1412SOL    HW2 5136   0.842   2.519   0.074
 1413SOL     OW 5137   2.356   0.608   3.879
 1413SOL    HW1 5138   2.330   0.672   3.806
 1413SOL    HW2 5139   2.389   0.523   3.838
 1414SOL     OW 5140   2.106   1.778   1.904
 1414SOL    HW1 5141   2.160   1.801   1.823
 1414SOL    HW2 5142   2.104   1.857   1.966
 1415SOL     OW 5143   4.083   6.177   5.849
 1415SOL    HW1 5144   4.068   6.222   5.761
 1415SOL    HW2 5145   4.071   6.078   5.838
 1416SOL     OW 5146   4.398   5.312   1.774
 1416SOL    HW1 5147   4.457   5.233   1.755
 1416SOL    HW2 5148   4.452   5.383   1.819
 1417SOL     OW 5149   2.864   1.901   6.368
 1417SOL    HW1 5150   2.800   1.925   6.441
 1417SOL    HW2 5151   2.814   1.887   6.283
 1418SOL     OW 5152   3.632   4.161   3.074
 1418SOL    HW1 5153   3.712   4.219   3.089
 1418SOL    HW2 5154   3.598   4.126   3.161
 1419SOL     OW 5155   4.108   6.418   5.072
 1419SOL    HW1 5156   4.167   6.479   5.017
 1419SOL    HW2 5157   4.166   6.358   5.128
 1420SOL     OW 5158   0.855   5.896   2.096
 1420SOL    HW1 5159   0.844   5.814   2.039
 1420SOL    HW2 5160   0.798   5.970   2.060
 1421SOL     OW 5161   3.303   1.654   2.271
 1421SOL    HW1 5162   3.230   1.592   2.299
 1421SOL    HW2 5163   3.308   1.656   2.171
 1422SOL     OW 5164   2.862   5.164   0.460
 1422SOL    HW1 5165   2.805   5.169   0.542
 1422SOL    HW2 5166   2.816   5.210   0.384
 1423SOL     OW 5167   4.954   0.105   2.534
 1423SOL    HW1 5168   5.026   0.131   2.598
 1423SOL    HW2 5169   4.929   0.184   2.478
 1424SOL     OW 5170   6.066   5.430   4.957
 1424SOL    HW1 5171   6.004   5.365   4.914
 1424SOL    HW2 5172   6.107   5.388   5.038
 1425SOL     OW 5173   2.384   6.811   4.135
 1425SOL    HW1 5174   2.300   6.856   4.106
 1425SOL    HW2 5175   2.365   6.756   4.217
 1426SOL     OW 5176   1.062   1.380   5.427
 1426SOL    HW1 5177   1.073   1.288   5.389
 1426SOL    HW2 5178   1.139   1.401   5.487
 1427SOL     OW 5179   5.787   0.713   4.009
 1427SOL    HW1 5180   5.865   0.773   4.027
 1427SOL    HW2 5181   5.820   0.624   3.977
 1428SOL     OW 5182   5.620   2.321   6.600
 1428SOL    HW1 5183   5.623   2.285   6.693
 1428SOL    HW2 5184   5.651   2.415   6.599
 1429SOL     OW 5185   0.162   0.778   0.537
 1429SOL    HW1 5186   0.246   0.751   0.491
 1429SOL    HW2 5187   0.132   0.867   0.503
 1430SOL     OW 5188   1.874   5.083   3.418
 1430SOL    HW1 5189   1.882   5.022   3.497
 1430SOL    HW2 5190   1.777   5.093   3.394
 1431SOL     OW 5191   2.048   0.885   1.092
 1431SOL    HW1 5192   1.974   0.930   1.041
 1431SOL    HW2 5193   2.127   0.872   1.032
 1432SOL     OW 5194   1.909   1.402   2.454
 1432SOL    HW1 5195   1.868   1.421   2.365
 1432SOL    HW2 5196   1.995   1.352   2.441
 1433SOL     OW 5197   4.052   0.657   4.409
 1433SOL    HW1 5198   4.149   0.640   4.390
 1433SOL    HW2 5199   4.019   0.730   4.350
 1434SOL     OW 5200   1.141   0.956   5.452
 1434SOL    HW1 5201   1.117   0.967   5.549
 1434SOL    HW2 5202   1.082   1.014   5.396
 1435SOL     OW 5203   6.170   1.889   2.564
 1435SOL    HW1 5204   6.205   1.800   2.533
 1435SOL    HW2 5205   6.245   1.943   2.602
 1436SOL     OW 5206   4.250   3.568   0.134
 1436SOL    HW1 5207   4.253   3.475   0.097
 1436SOL    HW2 5208   4.171   3.617   0.097
 1437SOL     OW 5209   3.292   0.704   2.025
 1437SOL    HW1 5210   3.250   0.773   2.084
 1437SOL    HW2 5211   3.347   0.750   1.955
 1438SOL     OW 5212   3.137   6.868   1.419
 1438SOL    HW1 5213   3.204   6.927   1.465
 1438SOL    HW2 5214   3.046   6.884   1.456
 1439SOL     OW 5215   0.466   5.842   2.407
 1439SOL    HW1 5216   0.555   5.886   2.394
 1439SOL    HW2 5217   0.444   5.840   2.505
 1440SOL     OW 5218   2.963   3.145   1.359
 1440SOL    HW1 5219   2.918   3.203   1.291
 1440SOL    HW2 5220   2.976   3.053   1.322
 1441SOL     OW 5221   5.769   6.454   0.912
 1441SOL    HW1 5222   5.865   6.428   0.910
 1441SOL    HW2 5223   5.761   6.548   0.948
 1442SOL     OW 5224   5.961   5.220   0.573
 1442SOL    HW1 5225   5.973   5.141   0.513
 1442SOL    HW2 5226   5.929   5.299   0.520
 1443SOL     OW 5227   0.923   2.650   2.958
 1443SOL    HW1 5228   0.870   2.565   2.957
 1443SOL    HW2 5229   0.966   2.662   3.047
 1444SOL     OW 5230   6.155   5.432   0.080
 1444SOL    HW1 5231   6.190   5.342   0.106
 1444SOL    HW2 5232   6.159   5.441   7.002
 1445SOL     OW 5233   1.245   3.529   2.543
 1445SOL    HW1 5234   1.311   3.576   2.601
 1445SOL    HW2 5235   1.293   3.478   2.472
 1446SOL     OW 5236   6.784   0.281   6.804
 1446SOL    HW1 5237   6.762   0.355   6.868
 1446SOL    HW2 5238   6.716   0.279   6.731
 1447SOL     OW 5239   6.008   4.964   4.502
 1447SOL    HW1 5240   6.092   4.942   4.453
 1447SOL    HW2 5241   5.988   5.062   4.490
 1448SOL     OW 5242   1.212   3.445   5.699
 1448SOL    HW1 5243   1.277   3.371   5.712
 1448SOL    HW2 5244   1.259   3.525   5.661
 1449SOL     OW 5245   1.943   4.188   4.421
 1449SOL    HW1 5246   1.929   4.149   4.331
 1449SOL    HW2 5247   1.965   4.285   4.413
 1450SOL     OW 5248   2.243   2.154   4.429
 1450SOL    HW1 5249   2.262   2.204   4.344
 1450SOL    HW2 5250   2.173   2.203   4.481
 1451SOL     OW 5251   2.341   0.158   1.953
 1451SOL    HW1 5252   2.388   0.232   1.906
 1451SOL    HW2 5253   2.245   0.183   1.966
 1452SOL     OW 5254   4.904   2.886   5.614
 1452SOL    HW1 5255   4.993   2.920   5.584
 1452SOL    HW2 5256   4.837   2.961   5.615
 1453SOL     OW 5257   0.798   4.998   5.223
 1453SOL    HW1 5258   0.840   4.932   5.160
 1453SOL    HW2 5259   0.783   4.954   5.311
 1454SOL     OW 5260   3.494   1.903   3.569
 1454SOL    HW1 5261   3.445   1.940   3.490
 1454SOL    HW2 5262   3.436   1.911   3.650
 1455SOL     OW 5263   1.178   5.796   1.948
 1455SOL    HW1 5264   1.208   5.723   2.010
 1455SOL    HW2 5265   1.247   5.811   1.878
 1456SOL     OW 5266   6.305   5.396   5.309
 1456SOL    HW1 5267   6.322   5.349   5.222
 1456SOL    HW2 5268   6.289   5.329   5.381
 1457SOL     OW 5269   0.394   4.460   6.179
 1457SOL    HW1 5270   0.373   4.522   6.103
 1457SOL    HW2 5271   0.466   4.500   6.236
 1458SOL     OW 5272   4.932   4.981   5.287
 1458SOL    HW1 5273   4.863   4.965   5.217
 1458SOL    HW2 5274   4.965   4.893   5.322
 1459SOL     OW 5275   5.205   6.465   5.298
 1459SOL    HW1 5276   5.146   6.544   5.314
 1459SOL    HW2 5277   5.299   6.488   5.323
 1460SOL     OW 5278   1.699   6.372   5.545
 1460SOL    HW1 5279   1.781   6.388   5.490
 1460SOL    HW2 5280   1.693   6.442   5.616
 1461SOL     OW 5281   0.528   3.195   3.241
 1461SOL    HW1 5282   0.472   3.113   3.226
 1461SOL    HW2 5283   0.624   3.173   3.225
 1462SOL     OW 5284   0.936   0.447   0.632
 1462SOL    HW1 5285   0.885   0.461   0.716
 1462SOL    HW2 5286   0.933   0.530   0.577
 1463SOL     OW 5287   2.026   5.470   6.651
 1463SOL    HW1 5288   1.992   5.376   6.646
 1463SOL    HW2 5289   2.024   5.511   6.560
 1464SOL     OW 5290   0.565   4.373   4.390
 1464SOL    HW1 5291   0.519   4.303   4.335
 1464SOL    HW2 5292   0.497   4.433   4.431
 1465SOL     OW 5293   1.137   2.242   3.379
 1465SOL    HW1 5294   1.056   2.301   3.385
 1465SOL    HW2 5295   1.172   2.224   3.470
 1466SOL     OW 5296   4.524   2.121   1.327
 1466SOL    HW1 5297   4.480   2.197   1.373
 1466SOL    HW2 5298   4.515   2.132   1.228
 1467SOL     OW 5299   1.234   0.902   4.333
 1467SOL    HW1 5300   1.219   0.850   4.417
 1467SOL    HW2 5301   1.223   1.000   4.353
 1468SOL     OW 5302   2.640   6.070   2.393
 1468SOL    HW1 5303   2.621   5.997   2.328
 1468SOL    HW2 5304   2.569   6.072   2.463
 1469SOL     OW 5305   6.340   4.810   3.362
 1469SOL    HW1 5306   6.339   4.784   3.266
 1469SOL    HW2 5307   6.307   4.904   3.373
 1470SOL     OW 5308   6.381   2.002   0.675
 1470SOL    HW1 5309   6.392   2.091   0.632
 1470SOL    HW2 5310   6.423   1.932   0.617
 1471SOL     OW 5311   5.147   6.773   1.344
 1471SOL    HW1 5312   5.183   6.818   1.262
 1471SOL    HW2 5313   5.067   6.823   1.377
 1472SOL     OW 5314   1.565   0.096   6.415
 1472SOL    HW1 5315   1.665   0.090   6.420
 1472SOL    HW2 5316   1.539   0.164   6.347
 1473SOL     OW 5317   2.677   5.359   4.527
 1473SOL    HW1 5318   2.622   5.284   4.564
 1473SOL    HW2 5319   2.673   5.357   4.427
 1474SOL     OW 5320   3.684   5.247   0.948
 1474SOL    HW1 5321   3.599   5.196   0.956
 1474SOL    HW2 5322   3.728   5.253   1.038
 1475SOL     OW 5323   5.101   0.311   0.293
 1475SOL    HW1 5324   5.186   0.259   0.283
 1475SOL    HW2 5325   5.062   0.329   0.203
 1476SOL     OW 5326   4.536   0.900   1.284
 1476SOL    HW1 5327   4.579   0.853   1.361
 1476SOL    HW2 5328   4.579   0.989   1.270
 1477SOL     OW 5329   4.076   4.952   1.325
 1477SOL    HW1 5330   3.991   4.940   1.377
 1477SOL    HW2 5331   4.150   4.903   1.370
 1478SOL     OW 5332   5.223   5.705   6.147
 1478SOL    HW1 5333   5.133   5.742   6.122
 1478SOL    HW2 5334   5.226   5.607   6.126
 1479SOL     OW 5335   3.735   4.007   1.356
 1479SOL    HW1 5336   3.708   3.947   1.430
 1479SOL    HW2 5337   3.746   4.101   1.391
 1480SOL     OW 5338   3.139   0.238   4.920
 1480SOL    HW1 5339   3.047   0.199   4.915
 1480SOL    HW2 5340   3.195   0.184   4.983
 1481SOL     OW 5341   5.441   2.350   6.003
 1481SOL    HW1 5342   5.463   2.252   5.995
 1481SOL    HW2 5343   5.366   2.372   5.941
 1482SOL     OW 5344   4.515   1.058   0.292
 1482SOL    HW1 5345   4.541   1.103   0.377
 1482SOL    HW2 5346   4.448   1.114   0.244
 1483SOL     OW 5347   5.436   1.243   5.800
 1483SOL    HW1 5348   5.395   1.266   5.888
 1483SOL    HW2 5349   5.393   1.159   5.764
 1484SOL     OW 5350   3.153   5.743   5.214
 1484SOL    HW1 5351   3.203   5.662   5.183
 1484SOL    HW2 5352   3.109   5.787   5.135
 1485SOL     OW 5353   5.263   2.311   2.956
 1485SOL    HW1 5354   5.201   2.276   2.886
 1485SOL    HW2 5355   5.347   2.345   2.913
 1486SOL     OW 5356   5.174   0.019   3.998
 1486SOL    HW1 5357   5.174   6.966   3.931
 1486SOL    HW2 5358   5.149   0.105   3.952
 1487SOL     OW 5359   6.735   0.238   1.049
 1487SOL    HW1 5360   6.737   0.267   1.144
 1487SOL    HW2 5361   6.652   0.271   1.005
 1488SOL     OW 5362   6.049   0.875   2.865
 1488SOL    HW1 5363   6.030   0.791   2.814
 1488SOL    HW2 5364   5.966   0.929   2.872
 1489SOL     OW 5365   3.672   4.485   6.575
 1489SOL    HW1 5366   3.596   4.427   6.605
 1489SOL    HW2 5367   3.757   4.453   6.617
 1490SOL     OW 5368   0.207   2.055   2.699
 1490SOL    HW1 5369   0.271   2.131   2.704
 1490SOL    HW2 5370   0.138   2.073   2.629
 1491SOL     OW 5371   6.772   2.993   2.852
 1491SOL    HW1 5372   6.758   3.089   2.827
 1491SOL    HW2 5373   6.705   2.936   2.803
 1492SOL     OW 5374   5.848   1.726   2.998
 1492SOL    HW1 5375   5.932   1.770   2.968
 1492SOL    HW2 5376   5.867   1.662   3.072
 1493SOL     OW 5377   4.727   2.671   5.593
 1493SOL    HW1 5378   4.807   2.731   5.584
 1493SOL    HW2 5379   4.713   2.648   5.689
 1494SOL     OW 5380   6.367   4.562   5.480
 1494SOL    HW1 5381   6.399   4.621   5.554
 1494SOL    HW2 5382   6.434   4.564   5.406
 1495SOL     OW 5383   6.241   4.333   4.493
 1495SOL    HW1 5384   6.157   4.282   4.514
 1495SOL    HW2 5385   6.229   4.429   4.518
 1496SOL     OW 5386   6.186   5.773   6.570
 1496SOL    HW1 5387   6.217   5.849   6.627
 1496SOL    HW2 5388   6.211   5.687   6.614
 1497SOL     OW 5389   6.054   3.407   2.926
 1497SOL    HW1 5390   6.016   3.324   2.887
 1497SOL    HW2 5391   6.152   3.396   2.940
 1498SOL     OW 5392   3.401   4.497   0.671
 1498SOL    HW1 5393   3.392   4.439   0.591
 1498SOL    HW2 5394   3.472   4.567   0.654
 1499SOL     OW 5395   0.678   3.997   5.313
 1499SOL    HW1 5396   0.694   4.066   5.384
 1499SOL    HW2 5397   0.581   3.976   5.307
 1500SOL     OW 5398   0.832   5.503   1.847
 1500SOL    HW1 5399   0.787   5.591   1.860
 1500SOL    HW2 5400   0.784   5.451   1.776
 1501SOL     OW 5401   5.859   1.663   7.011
 1501SOL    HW1 5402   5.923   1.613   6.952
 1501SOL    HW2 5403   5.910   1.708   0.063
 1502SOL     OW 5404   6.427   6.968   6.727
 1502SOL    HW1 5405   6.516   7.011   6.710
 1502SOL    HW2 5406   6.390   7.001   6.814
 1503SOL     OW 5407   0.628   4.409   1.836
 1503SOL    HW1 5408   0.654   4.378   1.745
 1503SOL    HW2 5409   0.710   4.434   1.887
 1504SOL     OW 5410   0.624   0.475   2.411
 1504SOL    HW1 5411   0.582   0.533   2.480
 1504SOL    HW2 5412   0.633   0.382   2.446
 1505SOL     OW 5413   5.075   5.771   5.128
 1505SOL    HW1 5414   5.071   5.870   5.140
 1505SOL    HW2 5415   5.092   5.749   5.032
 1506SOL     OW 5416   0.429   1.427   0.874
 1506SOL    HW1 5417   0.463   1.518   0.849
 1506SOL    HW2 5418   0.370   1.392   0.802
 1507SOL     OW 5419   1.854   2.255   4.365
 1507SOL    HW1 5420   1.796   2.333   4.388
 1507SOL    HW2 5421   1.886   2.212   4.449
 1508SOL     OW 5422   1.340   0.836   0.664
 1508SOL    HW1 5423   1.439   0.822   0.666
 1508SOL    HW2 5424   1.320   0.928   0.631
 1509SOL     OW 5425   4.948   0.766   4.017
 1509SOL    HW1 5426   5.048   0.765   4.014
 1509SOL    HW2 5427   4.914   0.673   4.021
 1510SOL     OW 5428   3.471   5.713   3.962
 1510SOL    HW1 5429   3.374   5.718   3.938
 1510SOL    HW2 5430   3.518   5.655   3.895
 1511SOL     OW 5431   3.581   3.577   4.619
 1511SOL    HW1 5432   3.529   3.508   4.568
 1511SOL    HW2 5433   3.528   3.662   4.624
 1512SOL     OW 5434   6.618   6.267   1.112
 1512SOL    HW1 5435   6.599   6.323   1.193
 1512SOL    HW2 5436   6.593   6.172   1.131
 1513SOL     OW 5437   3.069   0.263   6.243
 1513SOL    HW1 5438   3.166   0.272   6.266
 1513SOL    HW2 5439   3.060   0.235   6.148
 1514SOL     OW 5440   3.342   2.111   5.689
 1514SOL    HW1 5441   3.250   2.106   5.652
 1514SOL    HW2 5442   3.345   2.183   5.759
 1515SOL     OW 5443   5.948   1.936   1.952
 1515SOL    HW1 5444   5.949   1.836   1.945
 1515SOL    HW2 5445   5.858   1.971   1.926
 1516SOL     OW 5446   6.037   0.134   4.642
 1516SOL    HW1 5447   6.008   0.040   4.658
 1516SOL    HW2 5448   6.115   0.156   4.701
 1517SOL     OW 5449   4.032   6.201   3.932
 1517SOL    HW1 5450   4.089   6.120   3.917
 1517SOL    HW2 5451   3.944   6.173   3.971
 1518SOL     OW 5452   0.444   2.621   0.056
 1518SOL    HW1 5453   0.374   2.692   0.054
 1518SOL    HW2 5454   0.421   2.549   7.013
 1519SOL     OW 5455   6.649   4.290   6.811
 1519SOL    HW1 5456   6.719   4.229   6.849
 1519SOL    HW2 5457   6.596   4.241   6.742
 1520SOL     OW 5458   6.769   5.994   2.267
 1520SOL    HW1 5459   6.830   6.039   2.333
 1520SOL    HW2 5460   6.776   5.895   2.277
 1521SOL     OW 5461   1.690   4.947   6.204
 1521SOL    HW1 5462   1.783   4.980   6.188
 1521SOL    HW2 5463   1.649   4.917   6.118
 1522SOL     OW 5464   4.883   5.213   4.198
 1522SOL    HW1 5465   4.814   5.142   4.215
 1522SOL    HW2 5466   4.932   5.231   4.283
 1523SOL     OW 5467   3.711   5.892   7.003
 1523SOL    HW1 5468   3.695   5.978   0.029
 1523SOL    HW2 5469   3.660   5.892   6.916
 1524SOL     OW 5470   2.173   1.660   2.295
 1524SOL    HW1 5471   2.208   1.647   2.388
 1524SOL    HW2 5472   2.181   1.575   2.245
 1525SOL     OW 5473   5.963   2.582   6.812
 1525SOL    HW1 5474   5.901   2.592   6.890
 1525SOL    HW2 5475   6.051   2.545   6.843
 1526SOL     OW 5476   0.924   1.078   0.558
 1526SOL    HW1 5477   0.978   1.100   0.639
 1526SOL    HW2 5478   0.884   1.162   0.520
 1527SOL     OW 5479   3.874   1.045   3.997
 1527SOL    HW1 5480   3.879   1.004   3.906
 1527SOL    HW2 5481   3.780   1.071   4.017
 1528SOL     OW 5482   4.508   3.649   1.282
 1528SOL    HW1 5483   4.582   3.630   1.347
 1528SOL    HW2 5484   4.450   3.723   1.318
 1529SOL     OW 5485   5.014   1.180   5.633
 1529SOL    HW1 5486   4.984   1.165   5.728
 1529SOL    HW2 5487   5.044   1.275   5.623
 1530SOL     OW 5488   3.394   6.301   1.889
 1530SOL    HW1 5489   3.484   6.282   1.851
 1530SOL    HW2 5490   3.401   6.372   1.958
 1531SOL     OW 5491   3.412   6.725   4.525
 1531SOL    HW1 5492   3.425   6.814   4.482
 1531SOL    HW2 5493   3.328   6.682   4.490
 1532SOL     OW 5494   2.578   5.330   6.327
 1532SOL    HW1 5495   2.581   5.394   6.404
 1532SOL    HW2 5496   2.484   5.300   6.312
 1533SOL     OW 5497   5.908   5.311   1.423
 1533SOL    HW1 5498   5.927   5.404   1.392
 1533SOL    HW2 5499   5.809   5.294   1.419
 1534SOL     OW 5500   3.505   5.108   6.436
 1534SOL    HW1 5501   3.528   5.199   6.472
 1534SOL    HW2 5502   3.511   5.109   6.336
 1535SOL     OW 5503   5.917   6.936   4.695
 1535SOL    HW1 5504   5.823   6.904   4.682
 1535SOL    HW2 5505   5.951   6.901   4.783
 1536SOL     OW 5506   4.423   3.925   6.811
 1536SOL    HW1 5507   4.337   3.945   6.764
 1536SOL    HW2 5508   4.474   3.857   6.759
 1537SOL     OW 5509   3.031   5.162   3.842
 1537SOL    HW1 5510   2.932   5.177   3.835
 1537SOL    HW2 5511   3.050   5.064   3.845
 1538SOL     OW 5512   2.972   1.418   6.804
 1538SOL    HW1 5513   2.981   1.407   6.903
 1538SOL    HW2 5514   2.876   1.438   6.782
 1539SOL     OW 5515   5.773   3.419   0.809
 1539SOL    HW1 5516   5.861   3.374   0.789
 1539SOL    HW2 5517   5.701   3.349   0.813
 1540SOL     OW 5518   3.240   0.066   5.106
 1540SOL    HW1 5519   3.328   0.044   5.149
 1540SOL    HW2 5520   3.184   0.117   5.171
 1541SOL     OW 5521   3.706   3.434   4.824
 1541SOL    HW1 5522   3.644   3.485   4.764
 1541SOL    HW2 5523   3.652   3.382   4.890
 1542SOL     OW 5524   6.731   0.152   2.912
 1542SOL    HW1 5525   6.785   0.146   2.996
 1542SOL    HW2 5526   6.735   0.065   2.864
 1543SOL     OW 5527   2.946   4.668   6.915
 1543SOL    HW1 5528   2.988   4.712   6.995
 1543SOL    HW2 5529   2.931   4.736   6.844
 1544SOL     OW 5530   4.070   3.265   4.282
 1544SOL    HW1 5531   4.009   3.213   4.222
 1544SOL    HW2 5532   4.141   3.205   4.318
 1545SOL     OW 5533   5.922   6.528   2.534
 1545SOL    HW1 5534   5.885   6.579   2.457
 1545SOL    HW2 5535   6.020   6.514   2.520
 1546SOL     OW 5536   5.339   6.454   6.017
 1546SOL    HW1 5537   5.266   6.504   6.063
 1546SOL    HW2 5538   5.418   6.447   6.078
 1547SOL     OW 5539   1.656   3.475   6.907
 1547SOL    HW1 5540   1.622   3.435   6.822
 1547SOL    HW2 5541   1.720   3.412   6.950
 1548SOL     OW 5542   6.038   2.278   6.650
 1548SOL    HW1 5543   6.083   2.359   6.612
 1548SOL    HW2 5544   6.017   2.294   6.746
 1549SOL     OW 5545   4.340   1.091   5.349
 1549SOL    HW1 5546   4.389   1.104   5.263
 1549SOL    HW2 5547   4.402   1.055   5.418
 1550SOL     OW 5548   3.314   2.966   2.966
 1550SOL    HW1 5549   3.338   2.951   3.062
 1550SOL    HW2 5550   3.224   3.008   2.960
 1551SOL     OW 5551   0.101   5.033   6.196
 1551SOL    HW1 5552   0.070   5.111   6.250
 1551SOL    HW2 5553   0.119   4.955   6.257
 1552SOL     OW 5554   2.421   4.342   2.025
 1552SOL    HW1 5555   2.375   4.267   2.073
 1552SOL    HW2 5556   2.476   4.306   1.950
 1553SOL     OW 5557   0.535   1.866   5.784
 1553SOL    HW1 5558   0.603   1.883   5.855
 1553SOL    HW2 5559   0.468   1.939   5.784
 1554SOL     OW 5560   2.796   1.727   3.464
 1554SOL    HW1 5561   2.845   1.646   3.495
 1554SOL    HW2 5562   2.722   1.700   3.402
 1555SOL     OW 5563   6.999   3.384   6.441
 1555SOL    HW1 5564   0.057   3.386   6.380
 1555SOL    HW2 5565   6.984   3.291   6.474
 1556SOL     OW 5566   1.934   1.154   5.825
 1556SOL    HW1 5567   1.933   1.253   5.813
 1556SOL    HW2 5568   1.945   1.110   5.735
 1557SOL     OW 5569   0.293   3.236   6.776
 1557SOL    HW1 5570   0.319   3.250   6.872
 1557SOL    HW2 5571   0.375   3.220   6.721
 1558SOL     OW 5572   6.663   0.284   4.826
 1558SOL    HW1 5573   6.727   0.207   4.828
 1558SOL    HW2 5574   6.639   0.309   4.920
 1559SOL     OW 5575   0.576   2.248   5.981
 1559SOL    HW1 5576   0.482   2.213   5.971
 1559SOL    HW2 5577   0.640   2.179   5.949
 1560SOL     OW 5578   0.106   0.692   6.578
 1560SOL    HW1 5579   0.181   0.674   6.514
 1560SOL    HW2 5580   0.130   0.657   6.669
 1561SOL     OW 5581   5.634   5.790   2.986
 1561SOL    HW1 5582   5.587   5.825   2.905
 1561SOL    HW2 5583   5.591   5.705   3.014
 1562SOL     OW 5584   5.607   0.772   3.388
 1562SOL    HW1 5585   5.651   0.763   3.299
 1562SOL    HW2 5586   5.657   0.838   3.444
 1563SOL     OW 5587   3.342   0.960   5.751
 1563SOL    HW1 5588   3.306   0.867   5.740
 1563SOL    HW2 5589   3.436   0.955   5.785
 1564SOL     OW 5590   1.552   2.264   2.912
 1564SOL    HW1 5591   1.602   2.324   2.850
 1564SOL    HW2 5592   1.465   2.306   2.936
 1565SOL     OW 5593   5.186   3.620   1.974
 1565SOL    HW1 5594   5.210   3.636   1.879
 1565SOL    HW2 5595   5.110   3.556   1.979
 1566SOL     OW 5596   5.438   4.135   3.621
 1566SOL    HW1 5597   5.517   4.164   3.675
 1566SOL    HW2 5598   5.354   4.165   3.666
 1567SOL     OW 5599   6.926   5.733   5.862
 1567SOL    HW1 5600   6.988   5.663   5.825
 1567SOL    HW2 5601   6.977   5.817   5.877
 1568SOL     OW 5602   0.343   0.434   1.083
 1568SOL    HW1 5603   0.417   0.414   1.147
 1568SOL    HW2 5604   0.348   0.373   1.004
 1569SOL     OW 5605   3.498   6.153   5.685
 1569SOL    HW1 5606   3.536   6.084   5.623
 1569SOL    HW2 5607   3.561   6.230   5.691
 1570SOL     OW 5608   3.517   1.940   1.537
 1570SOL    HW1 5609   3.610   1.904   1.540
 1570SOL    HW2 5610   3.455   1.870   1.501
 1571SOL     OW 5611   6.945   4.108   1.272
 1571SOL    HW1 5612   6.891   4.141   1.195
 1571SOL    HW2 5613   6.941   4.174   1.347
 1572SOL     OW 5614   1.549   6.859   2.142
 1572SOL    HW1 5615   1.471   6.797   2.142
 1572SOL    HW2 5616   1.629   6.813   2.181
 1573SOL     OW 5617   4.106   0.367   1.569
 1573SOL    HW1 5618   4.106   0.288   1.507
 1573SOL    HW2 5619   4.055   0.442   1.528
 1574SOL     OW 5620   6.576   2.392   2.099
 1574SOL    HW1 5621   6.552   2.303   2.060
 1574SOL    HW2 5622   6.671   2.414   2.075
 1575SOL     OW 5623   2.036   2.274   0.563
 1575SOL    HW1 5624   2.005   2.218   0.640
 1575SOL    HW2 5625   2.080   2.357   0.598
 1576SOL     OW 5626   6.272   6.291   4.105
 1576SOL    HW1 5627   6.218   6.211   4.129
 1576SOL    HW2 5628   6.326   6.271   4.022
 1577SOL     OW 5629   2.726   0.196   6.330
 1577SOL    HW1 5630   2.713   0.158   6.238
 1577SOL    HW2 5631   2.750   0.293   6.322
 1578SOL     OW 5632   5.976   4.619   5.015
 1578SOL    HW1 5633   5.980   4.590   5.111
 1578SOL    HW2 5634   5.885   4.599   4.978
 1579SOL     OW 5635   1.204   0.724   3.715
 1579SOL    HW1 5636   1.263   0.701   3.637
 1579SOL    HW2 5637   1.243   0.800   3.766
 1580SOL     OW 5638   3.298   4.372   5.491
 1580SOL    HW1 5639   3.318   4.331   5.580
 1580SOL    HW2 5640   3.201   4.396   5.486
 1581SOL     OW 5641   6.535   4.323   4.363
 1581SOL    HW1 5642   6.456   4.340   4.421
 1581SOL    HW2 5643   6.504   4.308   4.269
 1582SOL     OW 5644   6.310   5.210   4.774
 1582SOL    HW1 5645   6.340   5.172   4.687
 1582SOL    HW2 5646   6.258   5.294   4.757
 1583SOL     OW 5647   1.543   2.893   2.897
 1583SOL    HW1 5648   1.475   2.966   2.909
 1583SOL    HW2 5649   1.633   2.929   2.922
 1584SOL     OW 5650   2.369   7.015   6.275
 1584SOL    HW1 5651   2.430   0.017   6.200
 1584SOL    HW2 5652   2.416   6.952   6.337
 1585SOL     OW 5653   5.304   1.598   4.906
 1585SOL    HW1 5654   5.246   1.671   4.941
 1585SOL    HW2 5655   5.249   1.515   4.894
 1586SOL     OW 5656   3.500   3.896   2.993
 1586SOL    HW1 5657   3.560   3.907   3.073
 1586SOL    HW2 5658   3.444   3.979   2.983
 1587SOL     OW 5659   3.400   6.609   6.677
 1587SOL    HW1 5660   3.377   6.562   6.592
 1587SOL    HW2 5661   3.344   6.692   6.685
 1588SOL     OW 5662   5.731   3.214   1.871
 1588SOL    HW1 5663   5.716   3.134   1.813
 1588SOL    HW2 5664   5.822   3.252   1.852
 1589SOL     OW 5665   5.887   3.990   3.797
 1589SOL    HW1 5666   5.970   3.990   3.741
 1589SOL    HW2 5667   5.907   3.948   3.885
 1590SOL     OW 5668   1.538   0.947   5.852
 1590SOL    HW1 5669   1.529   0.916   5.946
 1590SOL    HW2 5670   1.519   1.046   5.847
 1591SOL     OW 5671   1.349   4.706   1.757
 1591SOL    HW1 5672   1.352   4.607   1.773
 1591SOL    HW2 5673   1.436   4.736   1.719
 1592SOL     OW 5674   3.218   3.402   2.684
 1592SOL    HW1 5675   3.171   3.439   2.764
 1592SOL    HW2 5676   3.153   3.396   2.608
 1593SOL     OW 5677   1.050   5.526   5.436
 1593SOL    HW1 5678   1.057   5.462   5.512
 1593SOL    HW2 5679   1.140   5.565   5.417
 1594SOL     OW 5680   6.526   5.034   2.764
 1594SOL    HW1 5681   6.449   5.043   2.700
 1594SOL    HW2 5682   6.582   4.956   2.738
 1595SOL     OW 5683   6.520   5.040   6.266
 1595SOL    HW1 5684   6.606   5.089   6.282
 1595SOL    HW2 5685   6.475   5.078   6.185
 1596SOL     OW 5686   2.989   4.885   6.234
 1596SOL    HW1 5687   3.019   4.810   6.294
 1596SOL    HW2 5688   3.069   4.933   6.198
 1597SOL     OW 5689   2.564   6.920   1.364
 1597SOL    HW1 5690   2.527   6.827   1.363
 1597SOL    HW2 5691   2.589   6.945   1.458
 1598SOL     OW 5692   7.021   5.455   1.376
 1598SOL    HW1 5693   0.050   5.520   1.433
 1598SOL    HW2 5694   0.048   5.441   1.290
 1599SOL     OW 5695   3.856   4.876   0.136
 1599SOL    HW1 5696   3.914   4.809   0.091
 1599SOL    HW2 5697   3.896   4.902   0.224
 1600SOL     OW 5698   3.640   1.589   4.401
 1600SOL    HW1 5699   3.656   1.491   4.385
 1600SOL    HW2 5700   3.728   1.637   4.403
 1601SOL     OW 5701   0.516   5.003   3.649
 1601SOL    HW1 5702   0.545   5.073   3.714
 1601SOL    HW2 5703   0.542   4.913   3.682
 1602SOL     OW 5704   1.173   4.796   3.826
 1602SOL    HW1 5705   1.222   4.809   3.912
 1602SOL    HW2 5706   1.170   4.882   3.775
 1603SOL     OW 5707   6.862   6.741   1.372
 1603SOL    HW1 5708   6.864   6.646   1.341
 1603SOL    HW2 5709   6.940   6.790   1.333
 1604SOL     OW 5710   0.651   5.510   6.577
 1604SOL    HW1 5711   0.658   5.438   6.647
 1604SOL    HW2 5712   0.585   5.482   6.507
 1605SOL     OW 5713   4.953   6.379   3.230
 1605SOL    HW1 5714   4.939   6.472   3.194
 1605SOL    HW2 5715   5.017   6.331   3.170
 1606SOL     OW 5716   5.096   6.750   6.471
 1606SOL    HW1 5717   5.196   6.756   6.475
 1606SOL    HW2 5718   5.056   6.836   6.500
 1607SOL     OW 5719   4.171   1.818   0.789
 1607SOL    HW1 5720   4.213   1.769   0.712
 1607SOL    HW2 5721   4.089   1.769   0.819
 1608SOL     OW 5722   2.600   0.203   0.812
 1608SOL    HW1 5723   2.668   0.148   0.764
 1608SOL    HW2 5724   2.616   0.198   0.911
 1609SOL     OW 5725   4.956   2.068   5.470
 1609SOL    HW1 5726   4.945   2.127   5.551
 1609SOL    HW2 5727   5.052   2.048   5.456
 1610SOL     OW 5728   6.182   5.439   4.712
 1610SOL    HW1 5729   6.180   5.536   4.690
 1610SOL    HW2 5730   6.132   5.423   4.797
 1611SOL     OW 5731   2.729   3.463   1.542
 1611SOL    HW1 5732   2.767   3.371   1.550
 1611SOL    HW2 5733   2.802   3.531   1.554
 1612SOL     OW 5734   2.908   0.723   4.468
 1612SOL    HW1 5735   3.008   0.727   4.478
 1612SOL    HW2 5736   2.872   0.815   4.457
 1613SOL     OW 5737   2.503   5.860   0.599
 1613SOL    HW1 5738   2.568   5.805   0.651
 1613SOL    HW2 5739   2.541   5.879   0.508
 1614SOL     OW 5740   6.335   2.513   6.964
 1614SOL    HW1 5741   6.261   2.472   7.016
 1614SOL    HW2 5742   6.355   2.456   6.884
 1615SOL     OW 5743   6.666   5.009   6.783
 1615SOL    HW1 5744   6.738   4.999   6.715
 1615SOL    HW2 5745   6.688   5.085   6.844
 1616SOL     OW 5746   2.968   2.038   5.659
 1616SOL    HW1 5747   2.894   2.005   5.601
 1616SOL    HW2 5748   3.018   2.110   5.610
 1617SOL     OW 5749   4.361   6.935   3.735
 1617SOL    HW1 5750   4.262   6.925   3.724
 1617SOL    HW2 5751   4.391   6.883   3.815
 1618SOL     OW 5752   5.656   2.566   0.859
 1618SOL    HW1 5753   5.741   2.617   0.842
 1618SOL    HW2 5754   5.615   2.597   0.945
 1619SOL     OW 5755   1.657   3.185   4.513
 1619SOL    HW1 5756   1.662   3.269   4.459
 1619SOL    HW2 5757   1.746   3.139   4.512
 1620SOL     OW 5758   3.378   5.463   0.999
 1620SOL    HW1 5759   3.383   5.371   0.959
 1620SOL    HW2 5760   3.423   5.464   1.088
 1621SOL     OW 5761   1.716   1.079   1.676
 1621SOL    HW1 5762   1.706   1.002   1.739
 1621SOL    HW2 5763   1.809   1.081   1.640
 1622SOL     OW 5764   2.140   1.790   4.318
 1622SOL    HW1 5765   2.129   1.840   4.232
 1622SOL    HW2 5766   2.222   1.821   4.365
 1623SOL     OW 5767   2.743   2.145   5.412
 1623SOL    HW1 5768   2.802   2.214   5.371
 1623SOL    HW2 5769   2.662   2.132   5.354
 1624SOL     OW 5770   1.988   1.301   0.415
 1624SOL    HW1 5771   2.039   1.384   0.437
 1624SOL    HW2 5772   1.974   1.296   0.316
 1625SOL     OW 5773   0.544   4.828   1.951
 1625SOL    HW1 5774   0.564   4.911   1.898
 1625SOL    HW2 5775   0.597   4.830   2.036
 1626SOL     OW 5776   1.779   1.976   6.687
 1626SOL    HW1 5777   1.792   2.044   6.759
 1626SOL    HW2 5778   1.867   1.936   6.663
 1627SOL     OW 5779   5.538   2.992   4.020
 1627SOL    HW1 5780   5.461   2.985   3.956
 1627SOL    HW2 5781   5.618   3.029   3.972
 1628SOL     OW 5782   3.039   3.612   0.209
 1628SOL    HW1 5783   3.011   3.572   0.123
 1628SOL    HW2 5784   3.119   3.671   0.195
 1629SOL     OW 5785   4.293   2.226   3.585
 1629SOL    HW1 5786   4.201   2.211   3.551
 1629SOL    HW2 5787   4.290   2.266   3.677
 1630SOL     OW 5788   0.045   4.614   4.323
 1630SOL    HW1 5789   0.016   4.686   4.261
 1630SOL    HW2 5790   0.144   4.606   4.322
 1631SOL     OW 5791   0.617   6.975   5.482
 1631SOL    HW1 5792   0.517   6.968   5.480
 1631SOL    HW2 5793   0.654   6.898   5.534
 1632SOL     OW 5794   5.892   0.565   1.426
 1632SOL    HW1 5795   5.961   0.549   1.496
 1632SOL    HW2 5796   5.836   0.643   1.452
 1633SOL     OW 5797   5.161   2.884   3.956
 1633SOL    HW1 5798   5.145   2.848   4.048
 1633SOL    HW2 5799   5.161   2.984   3.959
 1634SOL     OW 5800   3.474   1.076   6.700
 1634SOL    HW1 5801   3.417   1.000   6.731
 1634SOL    HW2 5802   3.430   1.163   6.723
 1635SOL     OW 5803   0.306   5.605   4.143
 1635SOL    HW1 5804   0.282   5.657   4.060
 1635SOL    HW2 5805   0.350   5.520   4.116
 1636SOL     OW 5806   2.037   6.070   1.104
 1636SOL    HW1 5807   2.082   6.028   1.183
 1636SOL    HW2 5808   2.101   6.128   1.055
 1637SOL     OW 5809   6.963   3.310   1.899
 1637SOL    HW1 5810   0.033   3.271   1.908
 1637SOL    HW2 5811   6.933   3.343   1.989
 1638SOL     OW 5812   1.313   2.786   4.805
 1638SOL    HW1 5813   1.252   2.865   4.805
 1638SOL    HW2 5814   1.383   2.798   4.876
 1639SOL     OW 5815   4.995   4.847   2.022
 1639SOL    HW1 5816   4.924   4.914   1.999
 1639SOL    HW2 5817   5.027   4.863   2.115
 1640SOL     OW 5818   5.763   0.100   1.367
 1640SOL    HW1 5819   5.671   0.138   1.359
 1640SOL    HW2 5820   5.827   0.174   1.391
 1641SOL     OW 5821   6.253   2.451   5.349
 1641SOL    HW1 5822   6.188   2.428   5.277
 1641SOL    HW2 5823   6.220   2.533   5.398
 1642SOL     OW 5824   0.049   2.566   1.964
 1642SOL    HW1 5825   0.144   2.538   1.977
 1642SOL    HW2 5826   0.046   2.663   1.943
 1643SOL     OW 5827   4.191   0.431   5.372
 1643SOL    HW1 5828   4.104   0.480   5.365
 1643SOL    HW2 5829   4.246   0.473   5.444
 1644SOL     OW 5830   3.272   0.559   0.982
 1644SOL    HW1 5831   3.328   0.488   1.023
 1644SOL    HW2 5832   3.223   0.608   1.055
 1645SOL     OW 5833   2.260   0.155   6.521
 1645SOL    HW1 5834   2.256   0.110   6.610
 1645SOL    HW2 5835   2.272   0.087   6.449
 1646SOL     OW 5836   1.198   3.686   1.147
 1646SOL    HW1 5837   1.185   3.684   1.048
 1646SOL    HW2 5838   1.268   3.619   1.173
 1647SOL     OW 5839   5.902   3.241   3.450
 1647SOL    HW1 5840   5.935   3.148   3.432
 1647SOL    HW2 5841   5.802   3.239   3.461
 1648SOL     OW 5842   4.434   0.205   2.360
 1648SOL    HW1 5843   4.359   0.151   2.399
 1648SOL    HW2 5844   4.484   0.250   2.434
 1649SOL     OW 5845   3.019   0.630   3.014
 1649SOL    HW1 5846   2.929   0.610   2.975
 1649SOL    HW2 5847   3.008   0.664   3.108
 1650SOL     OW 5848   2.578   6.131   3.539
 1650SOL    HW1 5849   2.529   6.048   3.566
 1650SOL    HW2 5850   2.645   6.154   3.610
 1651SOL     OW 5851   1.811   6.845   0.874
 1651SOL    HW1 5852   1.746   6.785   0.919
 1651SOL    HW2 5853   1.804   6.834   0.775
 1652SOL     OW 5854   3.111   2.600   1.239
 1652SOL    HW1 5855   3.011   2.598   1.251
 1652SOL    HW2 5856   3.151   2.522   1.287
 1653SOL     OW 5857   0.809   6.135   1.326
 1653SOL    HW1 5858   0.719   6.178   1.312
 1653SOL    HW2 5859   0.844   6.102   1.239
 1654SOL     OW 5860   0.513   3.497   2.843
 1654SOL    HW1 5861   0.422   3.479   2.881
 1654SOL    HW2 5862   0.528   3.439   2.763
 1655SOL     OW 5863   4.713   5.004   6.312
 1655SOL    HW1 5864   4.755   5.012   6.222
 1655SOL    HW2 5865   4.777   4.958   6.374
 1656SOL     OW 5866   0.223   5.056   3.292
 1656SOL    HW1 5867   0.164   5.087   3.367
 1656SOL    HW2 5868   0.183   4.975   3.250
 1657SOL     OW 5869   1.270   0.547   5.255
 1657SOL    HW1 5870   1.317   0.542   5.167
 1657SOL    HW2 5871   1.289   0.636   5.297
 1658SOL     OW 5872   6.010   6.136   2.813
 1658SOL    HW1 5873   6.007   6.224   2.861
 1658SOL    HW2 5874   5.946   6.073   2.856
 1659SOL     OW 5875   4.095   2.121   5.696
 1659SOL    HW1 5876   4.081   2.157   5.789
 1659SOL    HW2 5877   4.010   2.080   5.664
 1660SOL     OW 5878   1.342   5.494   3.391
 1660SOL    HW1 5879   1.252   5.456   3.373
 1660SOL    HW2 5880   1.371   5.550   3.313
 1661SOL     OW 5881   3.079   0.193   2.480
 1661SOL    HW1 5882   3.175   0.215   2.461
 1661SOL    HW2 5883   3.022   0.272   2.456
 1662SOL     OW 5884   0.406   0.659   3.133
 1662SOL    HW1 5885   0.368   0.744   3.095
 1662SOL    HW2 5886   0.393   0.657   3.232
 1663SOL     OW 5887   2.839   6.974   3.463
 1663SOL    HW1 5888   2.876   6.993   3.554
 1663SOL    HW2 5889   2.913   6.947   3.402
 1664SOL     OW 5890   2.161   5.696   4.650
 1664SOL    HW1 5891   2.076   5.748   4.649
 1664SOL    HW2 5892   2.237   5.755   4.620
 1665SOL     OW 5893   0.035   0.187   4.155
 1665SOL    HW1 5894   0.084   0.108   4.117
 1665SOL    HW2 5895   0.098   0.263   4.167
 1666SOL     OW 5896   6.139   2.414   5.750
 1666SOL    HW1 5897   6.081   2.384   5.826
 1666SOL    HW2 5898   6.183   2.334   5.708
 1667SOL     OW 5899   6.643   0.662   6.356
 1667SOL    HW1 5900   6.550   0.699   6.361
 1667SOL    HW2 5901   6.691   0.701   6.277
 1668SOL     OW 5902   3.559   0.962   5.204
 1668SOL    HW1 5903   3.597   1.044   5.161
 1668SOL    HW2 5904   3.498   0.916   5.140
 1669SOL     OW 5905   5.964   6.958   6.714
 1669SOL    HW1 5906   5.933   6.902   6.791
 1669SOL    HW2 5907   5.908   0.019   6.707
 1670SOL     OW 5908   5.809   4.409   5.698
 1670SOL    HW1 5909   5.838   4.501   5.722
 1670SOL    HW2 5910   5.710   4.404   5.697
 1671SOL     OW 5911   5.647   3.878   0.229
 1671SOL    HW1 5912   5.663   3.904   0.324
 1671SOL    HW2 5913   5.729   3.832   0.193
 1672SOL     OW 5914   1.775   5.232   2.522
 1672SOL    HW1 5915   1.773   5.135   2.499
 1672SOL    HW2 5916   1.870   5.265   2.521
 1673SOL     OW 5917   6.671   2.039   4.169
 1673SOL    HW1 5918   6.651   1.996   4.082
 1673SOL    HW2 5919   6.767   2.068   4.171
 1674SOL     OW 5920   0.441   4.432   6.610
 1674SOL    HW1 5921   0.387   4.511   6.581
 1674SOL    HW2 5922   0.418   4.353   6.553
 1675SOL     OW 5923   4.824   2.220   6.912
 1675SOL    HW1 5924   4.917   2.188   6.927
 1675SOL    HW2 5925   4.797   2.283   6.985
 1676SOL     OW 5926   1.532   0.323   3.099
 1676SOL    HW1 5927   1.631   0.308   3.102
 1676SOL    HW2 5928   1.491   0.292   3.185
 1677SOL     OW 5929   6.088   1.470   5.354
 1677SOL    HW1 5930   6.091   1.490   5.452
 1677SOL    HW2 5931   6.138   1.385   5.336
 1678SOL     OW 5932   5.380   6.989   1.509
 1678SOL    HW1 5933   5.365   6.893   1.532
 1678SOL    HW2 5934   5.321   7.014   1.432
 1679SOL     OW 5935   0.151   3.548   6.885
 1679SOL    HW1 5936   0.083   3.576   6.954
 1679SOL    HW2 5937   0.230   3.508   6.931
 1680SOL     OW 5938   1.215   1.483   4.250
 1680SOL    HW1 5939   1.231   1.579   4.274
 1680SOL    HW2 5940   1.148   1.444   4.314
 1681SOL     OW 5941   6.431   5.492   0.935
 1681SOL    HW1 5942   6.464   5.406   0.974
 1681SOL    HW2 5943   6.370   5.538   1.000
 1682SOL     OW 5944   6.438   3.434   5.596
 1682SOL    HW1 5945   6.366   3.499   5.621
 1682SOL    HW2 5946   6.470   3.388   5.679
 1683SOL     OW 5947   5.615   5.524   0.698
 1683SOL    HW1 5948   5.569   5.597   0.647
 1683SOL    HW2 5949   5.609   5.439   0.646
 1684SOL     OW 5950   0.640   5.921   5.121
 1684SOL    HW1 5951   0.543   5.910   5.139
 1684SOL    HW2 5952   0.688   5.835   5.140
 1685SOL     OW 5953   1.133   1.534   0.145
 1685SOL    HW1 5954   1.228   1.533   0.175
 1685SOL    HW2 5955   1.128   1.571   0.052
 1686SOL     OW 5956   1.949   0.036   0.199
 1686SOL    HW1 5957   1.943   0.022   0.101
 1686SOL    HW2 5958   2.013   6.991   0.238
 1687SOL     OW 5959   1.602   0.047   1.663
 1687SOL    HW1 5960   1.529   0.116   1.655
 1687SOL    HW2 5961   1.560   6.977   1.669
 1688SOL     OW 5962   0.663   2.146   3.471
 1688SOL    HW1 5963   0.731   2.216   3.447
 1688SOL    HW2 5964   0.586   2.152   3.408
 1689SOL     OW 5965   1.911   1.311   3.117
 1689SOL    HW1 5966   1.861   1.240   3.167
 1689SOL    HW2 5967   1.858   1.395   3.117
 1690SOL     OW 5968   1.074   1.725   1.218
 1690SOL    HW1 5969   1.154   1.665   1.215
 1690SOL    HW2 5970   1.064   1.773   1.131
 1691SOL     OW 5971   5.195   4.297   2.268
 1691SOL    HW1 5972   5.104   4.302   2.307
 1691SOL    HW2 5973   5.227   4.390   2.246
 1692SOL     OW 5974   1.432   0.711   3.559
 1692SOL    HW1 5975   1.492   0.771   3.611
 1692SOL    HW2 5976   1.486   0.642   3.511
 1693SOL     OW 5977   3.008   2.204   3.446
 1693SOL    HW1 5978   2.951   2.285   3.457
 1693SOL    HW2 5979   2.950   2.124   3.432
 1694SOL     OW 5980   4.643   5.937   5.261
 1694SOL    HW1 5981   4.693   5.942   5.347
 1694SOL    HW2 5982   4.702   5.970   5.187
 1695SOL     OW 5983   2.707   2.147   5.819
 1695SOL    HW1 5984   2.765   2.173   5.741
 1695SOL    HW2 5985   2.765   2.120   5.896
 1696SOL     OW 5986   3.592   5.638   0.565
 1696SOL    HW1 5987   3.566   5.639   0.468
 1696SOL    HW2 5988   3.559   5.554   0.607
 1697SOL     OW 5989   0.614   1.040   2.055
 1697SOL    HW1 5990   0.683   0.993   1.999
 1697SOL    HW2 5991   0.642   1.038   2.151
 1698SOL     OW 5992   4.769   1.997   1.311
 1698SOL    HW1 5993   4.727   2.087   1.311
 1698SOL    HW2 5994   4.774   1.962   1.218
 1699SOL     OW 5995   1.889   3.485   1.066
 1699SOL    HW1 5996   1.938   3.397   1.067
 1699SOL    HW2 5997   1.952   3.558   1.091
 1700SOL     OW 5998   6.345   3.361   3.703
 1700SOL    HW1 5999   6.376   3.279   3.655
 1700SOL    HW2 6000   6.394   3.370   3.789
 1701SOL     OW 6001   5.796   3.086   4.608
 1701SOL    HW1 6002   5.761   3.126   4.523
 1701SOL    HW2 6003   5.838   3.157   4.663
 1702SOL     OW 6004   5.009   2.994   0.458
 1702SOL    HW1 6005   4.981   3.090   0.453
 1702SOL    HW2 6006   5.070   2.980   0.536
 1703SOL     OW 6007   1.780   3.599   0.156
 1703SOL    HW1 6008   1.733   3.684   0.135
 1703SOL    HW2 6009   1.712   3.526   0.171
 1704SOL     OW 6010   0.945   1.208   2.037
 1704SOL    HW1 6011   0.891   1.125   2.021
 1704SOL    HW2 6012   1.037   1.182   2.067
 1705SOL     OW 6013   4.149   3.154   1.754
 1705SOL    HW1 6014   4.144   3.178   1.851
 1705SOL    HW2 6015   4.164   3.056   1.745
 1706SOL     OW 6016   2.608   1.236   0.055
 1706SOL    HW1 6017   2.617   1.323   0.104
 1706SOL    HW2 6018   2.618   1.160   0.119
 1707SOL     OW 6019   5.663   1.834   3.182
 1707SOL    HW1 6020   5.577   1.793   3.150
 1707SOL    HW2 6021   5.737   1.806   3.121
 1708SOL     OW 6022   6.873   4.991   2.976
 1708SOL    HW1 6023   6.849   5.087   2.992
 1708SOL    HW2 6024   6.790   4.937   2.966
 1709SOL     OW 6025   2.867   6.012   3.202
 1709SOL    HW1 6026   2.782   6.052   3.234
 1709SOL    HW2 6027   2.907   5.955   3.274
 1710SOL     OW 6028   0.295   6.399   3.524
 1710SOL    HW1 6029   0.241   6.445   3.595
 1710SOL    HW2 6030   0.237   6.333   3.476
 1711SOL     OW 6031   1.719   4.421   5.747
 1711SOL    HW1 6032   1.700   4.519   5.747
 1711SOL    HW2 6033   1.743   4.391   5.654
 1712SOL     OW 6034   0.665   4.910   0.592
 1712SOL    HW1 6035   0.685   4.815   0.569
 1712SOL    HW2 6036   0.572   4.917   0.627
 1713SOL     OW 6037   1.220   3.146   0.899
 1713SOL    HW1 6038   1.212   3.112   0.992
 1713SOL    HW2 6039   1.280   3.085   0.847
 1714SOL     OW 6040   3.254   1.775   0.550
 1714SOL    HW1 6041   3.207   1.724   0.622
 1714SOL    HW2 6042   3.352   1.753   0.553
 1715SOL     OW 6043   0.442   3.398   3.707
 1715SOL    HW1 6044   0.369   3.461   3.679
 1715SOL    HW2 6045   0.469   3.343   3.628
 1716SOL     OW 6046   0.327   6.655   0.250
 1716SOL    HW1 6047   0.418   6.688   0.274
 1716SOL    HW2 6048   0.292   6.706   0.172
 1717SOL     OW 6049   3.404   0.357   6.957
 1717SOL    HW1 6050   3.407   0.318   0.028
 1717SOL    HW2 6051   3.408   0.284   6.890
 1718SOL     OW 6052   1.053   4.610   5.707
 1718SOL    HW1 6053   1.106   4.694   5.697
 1718SOL    HW2 6054   1.114   4.532   5.707
 1719SOL     OW 6055   2.130   3.559   1.671
 1719SOL    HW1 6056   2.084   3.470   1.679
 1719SOL    HW2 6057   2.154   3.592   1.762
 1720SOL     OW 6058   6.751   1.485   1.328
 1720SOL    HW1 6059   6.661   1.506   1.291
 1720SOL    HW2 6060   6.785   1.564   1.380
 1721SOL     OW 6061   1.649   6.171   3.844
 1721SOL    HW1 6062   1.654   6.256   3.897
 1721SOL    HW2 6063   1.559   6.129   3.856
 1722SOL     OW 6064   5.936   6.394   2.117
 1722SOL    HW1 6065   5.836   6.388   2.110
 1722SOL    HW2 6066   5.961   6.443   2.200
 1723SOL     OW 6067   6.056   1.354   2.162
 1723SOL    HW1 6068   6.096   1.444   2.175
 1723SOL    HW2 6069   6.022   1.346   2.068
 1724SOL     OW 6070   4.876   0.789   0.106
 1724SOL    HW1 6071   4.848   0.850   0.180
 1724SOL    HW2 6072   4.970   0.761   0.120
 1725SOL     OW 6073   3.967   4.649   1.387
 1725SOL    HW1 6074   4.062   4.640   1.416
 1725SOL    HW2 6075   3.933   4.560   1.356
 1726SOL     OW 6076   0.750   5.026   4.547
 1726SOL    HW1 6077   0.724   5.110   4.500
 1726SOL    HW2 6078   0.715   5.028   4.641
 1727SOL     OW 6079   3.380   3.815   5.467
 1727SOL    HW1 6080   3.311   3.761   5.516
 1727SOL    HW2 6081   3.341   3.848   5.381
 1728SOL     OW 6082   4.674   4.250   3.082
 1728SOL    HW1 6083   4.628   4.329   3.041
 1728SOL    HW2 6084   4.752   4.224   3.025
 1729SOL     OW 6085   2.026   3.521   3.272
 1729SOL    HW1 6086   2.058   3.488   3.183
 1729SOL    HW2 6087   2.041   3.619   3.279
 1730SOL     OW 6088   5.870   2.736   4.964
 1730SOL    HW1 6089   5.926   2.740   5.046
 1730SOL    HW2 6090   5.850   2.830   4.933
 1731SOL     OW 6091   1.831   5.307   0.539
 1731SOL    HW1 6092   1.864   5.213   0.538
 1731SOL    HW2 6093   1.731   5.308   0.531
 1732SOL     OW 6094   0.343   4.889   0.174
 1732SOL    HW1 6095   0.415   4.910   0.241
 1732SOL    HW2 6096   0.382   4.843   0.095
 1733SOL     OW 6097   1.468   3.942   0.675
 1733SOL    HW1 6098   1.428   3.939   0.766
 1733SOL    HW2 6099   1.530   3.864   0.663
 1734SOL     OW 6100   4.832   2.868   0.647
 1734SOL    HW1 6101   4.877   2.899   0.563
 1734SOL    HW2 6102   4.896   2.876   0.723
 1735SOL     OW 6103   5.991   5.083   1.602
 1735SOL    HW1 6104   6.080   5.065   1.560
 1735SOL    HW2 6105   5.932   5.132   1.537
 1736SOL     OW 6106   3.848   3.500   0.688
 1736SOL    HW1 6107   3.770   3.463   0.738
 1736SOL    HW2 6108   3.889   3.427   0.633
 1737SOL     OW 6109   1.584   6.740   3.697
 1737SOL    HW1 6110   1.528   6.816   3.664
 1737SOL    HW2 6111   1.539   6.698   3.776
 1738SOL     OW 6112   1.723   2.604   2.425
 1738SOL    HW1 6113   1.704   2.638   2.517
 1738SOL    HW2 6114   1.747   2.507   2.429
 1739SOL     OW 6115   4.249   1.822   5.309
 1739SOL    HW1 6116   4.172   1.830   5.373
 1739SOL    HW2 6117   4.227   1.753   5.240
 1740SOL     OW 6118   0.540   1.354   5.765
 1740SOL    HW1 6119   0.569   1.302   5.845
 1740SOL    HW2 6120   0.538   1.451   5.787
 1741SOL     OW 6121   1.390   0.008   2.718
 1741SOL    HW1 6122   1.432   6.938   2.725
 1741SOL    HW2 6123   1.333   0.024   2.798
 1742SOL     OW 6124   5.964   0.659   4.537
 1742SOL    HW1 6125   5.972   0.656   4.438
 1742SOL    HW2 6126   6.017   0.736   4.572
 1743SOL     OW 6127   4.153   0.887   0.931
 1743SOL    HW1 6128   4.135   0.889   0.833
 1743SOL    HW2 6129   4.249   0.913   0.948
 1744SOL     OW 6130   2.574   0.519   1.050
 1744SOL    HW1 6131   2.483   0.561   1.042
 1744SOL    HW2 6132   2.603   0.487   0.961
 1745SOL     OW 6133   6.703   2.403   3.773
 1745SOL    HW1 6134   6.734   2.406   3.868
 1745SOL    HW2 6135   6.745   2.478   3.722
 1746SOL     OW 6136   2.990   0.777   5.877
 1746SOL    HW1 6137   3.027   0.709   5.941
 1746SOL    HW2 6138   2.892   0.763   5.867
 1747SOL     OW 6139   3.591   0.454   1.627
 1747SOL    HW1 6140   3.619   0.523   1.693
 1747SOL    HW2 6141   3.531   0.387   1.671
 1748SOL     OW 6142   5.771   2.340   2.057
 1748SOL    HW1 6143   5.683   2.306   2.091
 1748SOL    HW2 6144   5.772   2.440   2.063
 1749SOL     OW 6145   4.172   6.708   6.403
 1749SOL    HW1 6146   4.109   6.682   6.329
 1749SOL    HW2 6147   4.171   6.636   6.473
 1750SOL     OW 6148   4.965   0.500   4.089
 1750SOL    HW1 6149   5.008   0.424   4.041
 1750SOL    HW2 6150   5.034   0.549   4.143
 1751SOL     OW 6151   1.888   5.586   3.562
 1751SOL    HW1 6152   1.935   5.650   3.500
 1751SOL    HW2 6153   1.905   5.493   3.531
 1752SOL     OW 6154   6.135   2.163   0.355
 1752SOL    HW1 6155   6.147   2.067   0.330
 1752SOL    HW2 6156   6.090   2.170   0.444
 1753SOL     OW 6157   2.124   0.306   2.052
 1753SOL    HW1 6158   2.063   0.269   2.123
 1753SOL    HW2 6159   2.179   0.380   2.091
 1754SOL     OW 6160   4.087   3.029   1.145
 1754SOL    HW1 6161   3.999   2.996   1.179
 1754SOL    HW2 6162   4.128   2.960   1.084
 1755SOL     OW 6163   5.319   3.731   0.555
 1755SOL    HW1 6164   5.370   3.744   0.640
 1755SOL    HW2 6165   5.248   3.801   0.547
 1756SOL     OW 6166   6.638   5.799   4.449
 1756SOL    HW1 6167   6.637   5.713   4.398
 1756SOL    HW2 6168   6.609   5.782   4.543
 1757SOL     OW 6169   2.981   6.712   4.552
 1757SOL    HW1 6170   2.885   6.691   4.531
 1757SOL    HW2 6171   3.040   6.642   4.514
 1758SOL     OW 6172   1.883   0.577   3.032
 1758SOL    HW1 6173   1.851   0.629   3.111
 1758SOL    HW2 6174   1.805   0.544   2.980
 1759SOL     OW 6175   1.100   5.676   6.643
 1759SOL    HW1 6176   1.039   5.598   6.630
 1759SOL    HW2 6177   1.180   5.667   6.584
 1760SOL     OW 6178   5.935   0.536   2.382
 1760SOL    HW1 6179   5.959   0.450   2.338
 1760SOL    HW2 6180   6.017   0.588   2.404
 1761SOL     OW 6181   6.685   2.573   1.240
 1761SOL    HW1 6182   6.644   2.664   1.241
 1761SOL    HW2 6183   6.711   2.547   1.333
 1762SOL     OW 6184   6.265   1.618   6.104
 1762SOL    HW1 6185   6.365   1.623   6.106
 1762SOL    HW2 6186   6.236   1.523   6.111
 1763SOL     OW 6187   2.229   4.396   4.133
 1763SOL    HW1 6188   2.281   4.387   4.048
 1763SOL    HW2 6189   2.165   4.319   4.141
 1764SOL     OW 6190   6.584   2.976   3.849
 1764SOL    HW1 6191   6.532   2.936   3.925
 1764SOL    HW2 6192   6.680   2.985   3.876
 1765SOL     OW 6193   3.049   2.697   6.311
 1765SOL    HW1 6194   3.087   2.785   6.283
 1765SOL    HW2 6195   2.955   2.710   6.343
 1766SOL     OW 6196   5.521   3.141   5.214
 1766SOL    HW1 6197   5.500   3.052   5.175
 1766SOL    HW2 6198   5.460   3.159   5.291
 1767SOL     OW 6199   6.024   3.364   2.515
 1767SOL    HW1 6200   6.035   3.267   2.491
 1767SOL    HW2 6201   5.956   3.406   2.455
 1768SOL     OW 6202   5.744   6.825   4.392
 1768SOL    HW1 6203   5.690   6.756   4.344
 1768SOL    HW2 6204   5.765   6.901   4.330
 1769SOL     OW 6205   4.392   1.516   2.221
 1769SOL    HW1 6206   4.320   1.550   2.162
 1769SOL    HW2 6207   4.362   1.430   2.263
 1770SOL     OW 6208   2.114   5.609   5.537
 1770SOL    HW1 6209   2.191   5.569   5.488
 1770SOL    HW2 6210   2.147   5.677   5.602
 1771SOL     OW 6211   5.122   6.073   6.689
 1771SOL    HW1 6212   5.187   6.029   6.752
 1771SOL    HW2 6213   5.125   6.026   6.601
 1772SOL     OW 6214   3.406   6.590   2.698
 1772SOL    HW1 6215   3.368   6.606   2.790
 1772SOL    HW2 6216   3.482   6.653   2.682
 1773SOL     OW 6217   1.146   5.085   6.657
 1773SOL    HW1 6218   1.219   5.122   6.716
 1773SOL    HW2 6219   1.058   5.097   6.702
 1774SOL     OW 6220   4.105   5.242   1.708
 1774SOL    HW1 6221   4.204   5.244   1.697
 1774SOL    HW2 6222   4.064   5.323   1.665
 1775SOL     OW 6223   0.945   4.341   2.358
 1775SOL    HW1 6224   0.906   4.259   2.317
 1775SOL    HW2 6225   1.045   4.338   2.351
 1776SOL     OW 6226   3.070   5.996   5.103
 1776SOL    HW1 6227   3.081   5.990   5.004
 1776SOL    HW2 6228   3.009   6.072   5.125
 1777SOL     OW 6229   4.545   5.894   0.538
 1777SOL    HW1 6230   4.473   5.937   0.592
 1777SOL    HW2 6231   4.553   5.798   0.564
 1778SOL     OW 6232   5.650   3.685   5.908
 1778SOL    HW1 6233   5.682   3.754   5.843
 1778SOL    HW2 6234   5.614   3.606   5.859
 1779SOL     OW 6235   3.383   6.565   5.047
 1779SOL    HW1 6236   3.346   6.481   5.007
 1779SOL    HW2 6237   3.374   6.561   5.147
 1780SOL     OW 6238   3.183   3.309   6.332
 1780SOL    HW1 6239   3.282   3.294   6.330
 1780SOL    HW2 6240   3.148   3.291   6.424
 1781SOL     OW 6241   3.514   5.580   3.070
 1781SOL    HW1 6242   3.506   5.546   3.164
 1781SOL    HW2 6243   3.560   5.668   3.070
 1782SOL     OW 6244   3.227   1.755   3.582
 1782SOL    HW1 6245   3.201   1.784   3.490
 1782SOL    HW2 6246   3.216   1.832   3.645
 1783SOL     OW 6247   1.926   5.912   6.681
 1783SOL    HW1 6248   1.912   5.980   6.753
 1783SOL    HW2 6249   1.922   5.820   6.721
 1784SOL     OW 6250   3.525   6.791   5.581
 1784SOL    HW1 6251   3.548   6.807   5.677
 1784SOL    HW2 6252   3.530   6.693   5.562
 1785SOL     OW 6253   6.608   4.187   2.429
 1785SOL    HW1 6254   6.531   4.141   2.473
 1785SOL    HW2 6255   6.690   4.131   2.440
 1786SOL     OW 6256   3.406   2.319   1.008
 1786SOL    HW1 6257   3.500   2.349   0.992
 1786SOL    HW2 6258   3.344   2.397   0.998
 1787SOL     OW 6259   3.160   0.838   6.180
 1787SOL    HW1 6260   3.206   0.875   6.098
 1787SOL    HW2 6261   3.218   0.853   6.260
 1788SOL     OW 6262   1.725   5.255   5.672
 1788SOL    HW1 6263   1.765   5.267   5.581
 1788SOL    HW2 6264   1.715   5.157   5.692
 1789SOL     OW 6265   6.715   1.709   0.188
 1789SOL    HW1 6266   6.699   1.791   0.134
 1789SOL    HW2 6267   6.686   1.723   0.282
 1790SOL     OW 6268   3.524   6.947   3.670
 1790SOL    HW1 6269   3.523   0.024   3.689
 1790SOL    HW2 6270   3.508   6.931   3.573
 1791SOL     OW 6271   6.581   6.720   2.693
 1791SOL    HW1 6272   6.571   6.758   2.601
 1791SOL    HW2 6273   6.492   6.689   2.725
 1792SOL     OW 6274   1.195   3.161   5.025
 1792SOL    HW1 6275   1.294   3.156   5.013
 1792SOL    HW2 6276   1.165   3.257   5.016
 1793SOL     OW 6277   6.778   6.865   3.939
 1793SOL    HW1 6278   6.791   6.862   3.840
 1793SOL    HW2 6279   6.788   6.959   3.972
 1794SOL     OW 6280   4.528   5.092   6.118
 1794SOL    HW1 6281   4.569   5.042   6.041
 1794SOL    HW2 6282   4.578   5.069   6.202
 1795SOL     OW 6283   0.788   2.764   0.754
 1795SOL    HW1 6284   0.862   2.698   0.737
 1795SOL    HW2 6285   0.701   2.721   0.730
 1796SOL     OW 6286   2.929   0.684   6.225
 1796SOL    HW1 6287   3.025   0.712   6.217
 1796SOL    HW2 6288   2.901   0.636   6.142
 1797SOL     OW 6289   1.152   6.723   0.461
 1797SOL    HW1 6290   1.109   6.691   0.376
 1797SOL    HW2 6291   1.179   6.644   0.516
 1798SOL     OW 6292   4.702   2.476   2.685
 1798SOL    HW1 6293   4.680   2.454   2.780
 1798SOL    HW2 6294   4.701   2.576   2.673
 1799SOL     OW 6295   1.221   2.198   6.515
 1799SOL    HW1 6296   1.248   2.283   6.470
 1799SOL    HW2 6297   1.144   2.215   6.577
 1800SOL     OW 6298   4.062   4.925   1.660
 1800SOL    HW1 6299   4.005   4.941   1.579
 1800SOL    HW2 6300   4.005   4.924   1.742
 1801SOL     OW 6301   6.724   6.709   1.865
 1801SOL    HW1 6302   6.721   6.610   1.854
 1801SOL    HW2 6303   6.634   6.748   1.842
 1802SOL     OW 6304   5.714   5.536   4.963
 1802SOL    HW1 6305   5.733   5.438   4.970
 1802SOL    HW2 6306   5.760   5.585   5.038
 1803SOL     OW 6307   0.189   5.948   0.868
 1803SOL    HW1 6308   0.229   5.914   0.953
 1803SOL    HW2 6309   0.261   5.963   0.801
 1804SOL     OW 6310   3.060   3.507   5.252
 1804SOL    HW1 6311   3.099   3.507   5.160
 1804SOL    HW2 6312   2.996   3.430   5.261
 1805SOL     OW 6313   4.884   3.213   6.164
 1805SOL    HW1 6314   4.807   3.162   6.127
 1805SOL    HW2 6315   4.966   3.156   6.162
 1806SOL     OW 6316   0.997   0.019   1.219
 1806SOL    HW1 6317   1.003   6.968   1.289
 1806SOL    HW2 6318   0.923   0.082   1.242
 1807SOL     OW 6319   6.060   1.661   4.782
 1807SOL    HW1 6320   6.142   1.657   4.839
 1807SOL    HW2 6321   6.037   1.568   4.751
 1808SOL     OW 6322   1.418   4.799   3.982
 1808SOL    HW1 6323   1.436   4.718   4.038
 1808SOL    HW2 6324   1.445   4.881   4.032
 1809SOL     OW 6325   3.358   1.641   5.789
 1809SOL    HW1 6326   3.383   1.626   5.693
 1809SOL    HW2 6327   3.267   1.683   5.793
 1810SOL     OW 6328   2.743   6.364   2.984
 1810SOL    HW1 6329   2.816   6.297   2.995
 1810SOL    HW2 6330   2.779   6.446   2.941
 1811SOL     OW 6331   5.985   5.484   3.393
 1811SOL    HW1 6332   5.902   5.473   3.339
 1811SOL    HW2 6333   6.009   5.397   3.436
 1812SOL     OW 6334   4.156   5.654   6.526
 1812SOL    HW1 6335   4.108   5.576   6.567
 1812SOL    HW2 6336   4.139   5.736   6.581
 1813SOL     OW 6337   6.291   4.717   6.886
 1813SOL    HW1 6338   6.315   4.641   6.826
 1813SOL    HW2 6339   6.239   4.785   6.835
 1814SOL     OW 6340   4.555   6.679   2.673
 1814SOL    HW1 6341   4.526   6.744   2.744
 1814SOL    HW2 6342   4.625   6.722   2.616
 1815SOL     OW 6343   0.018   0.093   2.991
 1815SOL    HW1 6344   6.958   0.139   3.026
 1815SOL    HW2 6345   0.055   0.145   2.914
 1816SOL     OW 6346   1.378   4.255   0.397
 1816SOL    HW1 6347   1.403   4.276   0.492
 1816SOL    HW2 6348   1.404   4.160   0.377
 1817SOL     OW 6349   2.130   5.457   2.027
 1817SOL    HW1 6350   2.222   5.478   1.994
 1817SOL    HW2 6351   2.105   5.365   1.998
 1818SOL     OW 6352   1.658   1.019   3.340
 1818SOL    HW1 6353   1.579   1.080   3.330
 1818SOL    HW2 6354   1.738   1.072   3.366
 1819SOL     OW 6355   1.618   4.891   1.600
 1819SOL    HW1 6356   1.571   4.918   1.517
 1819SOL    HW2 6357   1.698   4.950   1.614
 1820SOL     OW 6358   4.947   0.516   2.686
 1820SOL    HW1 6359   4.984   0.463   2.762
 1820SOL    HW2 6360   5.006   0.595   2.669
 1821SOL     OW 6361   2.947   2.028   2.591
 1821SOL    HW1 6362   2.982   2.073   2.674
 1821SOL    HW2 6363   2.847   2.031   2.591
 1822SOL     OW 6364   3.202   3.174   1.484
 1822SOL    HW1 6365   3.107   3.163   1.455
 1822SOL    HW2 6366   3.211   3.143   1.579
 1823SOL     OW 6367   4.082   6.743   2.183
 1823SOL    HW1 6368   4.097   6.644   2.174
 1823SOL    HW2 6369   4.170   6.789   2.193
 1824SOL     OW 6370   4.821   2.651   1.244
 1824SOL    HW1 6371   4.814   2.626   1.340
 1824SOL    HW2 6372   4.821   2.751   1.236
 1825SOL     OW 6373   1.437   0.778   2.015
 1825SOL    HW1 6374   1.355   0.728   1.989
 1825SOL    HW2 6375   1.435   0.869   1.972
 1826SOL     OW 6376   3.433   6.824   6.849
 1826SOL    HW1 6377   3.476   6.733   6.851
 1826SOL    HW2 6378   3.504   6.894   6.836
 1827SOL     OW 6379   0.144   6.306   1.826
 1827SOL    HW1 6380   0.173   6.241   1.896
 1827SOL    HW2 6381   0.216   6.374   1.811
 1828SOL     OW 6382   0.798   2.453   6.352
 1828SOL    HW1 6383   0.842   2.525   6.406
 1828SOL    HW2 6384   0.772   2.491   6.263
 1829SOL     OW 6385   5.410   5.850   2.802
 1829SOL    HW1 6386   5.355   5.849   2.719
 1829SOL    HW2 6387   5.386   5.771   2.859
 1830SOL     OW 6388   4.502   6.204   3.418
 1830SOL    HW1 6389   4.558   6.286   3.426
 1830SOL    HW2 6390   4.536   6.149   3.341
 1831SOL     OW 6391   5.009   6.693   1.969
 1831SOL    HW1 6392   5.056   6.670   1.884
 1831SOL    HW2 6393   5.067   6.751   2.026
 1832SOL     OW 6394   4.571   3.086   0.960
 1832SOL    HW1 6395   4.572   2.989   0.985
 1832SOL    HW2 6396   4.637   3.136   1.018
 1833SOL     OW 6397   4.984   1.044   5.113
 1833SOL    HW1 6398   4.971   0.946   5.126
 1833SOL    HW2 6399   5.019   1.061   5.021
 1834SOL     OW 6400   3.071   3.349   1.068
 1834SOL    HW1 6401   3.120   3.436   1.076
 1834SOL    HW2 6402   3.072   3.319   0.973
 1835SOL     OW 6403   1.535   5.142   1.157
 1835SOL    HW1 6404   1.439   5.171   1.162
 1835SOL    HW2 6405   1.547   5.082   1.077
 1836SOL     OW 6406   0.748   6.685   0.855
 1836SOL    HW1 6407   0.755   6.590   0.885
 1836SOL    HW2 6408   0.806   6.742   0.912
 1837SOL     OW 6409   1.058   2.171   4.859
 1837SOL    HW1 6410   1.023   2.115   4.784
 1837SOL    HW2 6411   1.106   2.251   4.821
 1838SOL     OW 6412   6.794   2.526   4.286
 1838SOL    HW1 6413   6.710   2.556   4.242
 1838SOL    HW2 6414   6.772   2.482   4.374
 1839SOL     OW 6415   7.020   2.470   5.616
 1839SOL    HW1 6416   0.011   2.555   5.565
 1839SOL    HW2 6417   0.078   2.411   5.603
 1840SOL     OW 6418   2.497   6.122   0.702
 1840SOL    HW1 6419   2.584   6.163   0.674
 1840SOL    HW2 6420   2.494   6.027   0.674
 1841SOL     OW 6421   2.292   2.877   3.166
 1841SOL    HW1 6422   2.201   2.871   3.207
 1841SOL    HW2 6423   2.342   2.953   3.207
 1842SOL     OW 6424   0.823   5.010   0.342
 1842SOL    HW1 6425   0.779   4.979   0.427
 1842SOL    HW2 6426   0.841   5.108   0.347
 1843SOL     OW 6427   2.817   1.824   4.780
 1843SOL    HW1 6428   2.821   1.833   4.879
 1843SOL    HW2 6429   2.841   1.731   4.754
 1844SOL     OW 6430   4.351   2.321   3.874
 1844SOL    HW1 6431   4.417   2.396   3.876
 1844SOL    HW2 6432   4.382   2.248   3.934
 1845SOL     OW 6433   4.596   0.464   0.279
 1845SOL    HW1 6434   4.566   0.521   0.356
 1845SOL    HW2 6435   4.580   0.368   0.302
 1846SOL     OW 6436   3.057   1.580   5.562
 1846SOL    HW1 6437   3.080   1.646   5.634
 1846SOL    HW2 6438   3.091   1.613   5.474
 1847SOL     OW 6439   0.151   0.573   0.942
 1847SOL    HW1 6440   0.221   0.507   0.967
 1847SOL    HW2 6441   0.143   0.577   0.842
 1848SOL     OW 6442   2.803   6.820   1.904
 1848SOL    HW1 6443   2.881   6.864   1.947
 1848SOL    HW2 6444   2.726   6.817   1.968
 1849SOL     OW 6445   3.214   1.681   6.213
 1849SOL    HW1 6446   3.156   1.600   6.209
 1849SOL    HW2 6447   3.234   1.703   6.309
 1850SOL     OW 6448   6.270   2.615   2.589
 1850SOL    HW1 6449   6.187   2.559   2.583
 1850SOL    HW2 6450   6.279   2.670   2.506
 1851SOL     OW 6451   0.188   2.728   2.613
 1851SOL    HW1 6452   0.281   2.709   2.644
 1851SOL    HW2 6453   0.128   2.652   2.636
 1852SOL     OW 6454   4.656   3.090   0.260
 1852SOL    HW1 6455   4.730   3.047   0.208
 1852SOL    HW2 6456   4.670   3.075   0.358
 1853SOL     OW 6457   0.838   4.702   0.961
 1853SOL    HW1 6458   0.876   4.739   1.046
 1853SOL    HW2 6459   0.898   4.726   0.884
 1854SOL     OW 6460   2.562   5.508   5.183
 1854SOL    HW1 6461   2.565   5.425   5.239
 1854SOL    HW2 6462   2.493   5.571   5.219
 1855SOL     OW 6463   5.149   5.045   0.904
 1855SOL    HW1 6464   5.231   4.993   0.881
 1855SOL    HW2 6465   5.170   5.143   0.903
 1856SOL     OW 6466   5.423   2.474   4.922
 1856SOL    HW1 6467   5.463   2.418   4.995
 1856SOL    HW2 6468   5.323   2.473   4.930
 1857SOL     OW 6469   4.297   0.850   3.348
 1857SOL    HW1 6470   4.311   0.860   3.250
 1857SOL    HW2 6471   4.203   0.820   3.366
 1858SOL     OW 6472   4.879   3.393   3.789
 1858SOL    HW1 6473   4.913   3.439   3.871
 1858SOL    HW2 6474   4.883   3.294   3.803
 1859SOL     OW 6475   5.082   2.183   3.133
 1859SOL    HW1 6476   5.156   2.239   3.095
 1859SOL    HW2 6477   4.996   2.207   3.088
 1860SOL     OW 6478   5.506   0.998   4.682
 1860SOL    HW1 6479   5.579   0.957   4.628
 1860SOL    HW2 6480   5.435   0.930   4.700
 1861SOL     OW 6481   5.110   6.332   2.970
 1861SOL    HW1 6482   5.133   6.244   2.927
 1861SOL    HW2 6483   5.040   6.378   2.916
 1862SOL     OW 6484   1.924   1.701   0.470
 1862SOL    HW1 6485   1.834   1.718   0.512
 1862SOL    HW2 6486   1.920   1.724   0.373
 1863SOL     OW 6487   3.264   2.898   1.149
 1863SOL    HW1 6488   3.243   2.934   1.058
 1863SOL    HW2 6489   3.287   2.801   1.141
 1864SOL     OW 6490   1.525   6.791   4.368
 1864SOL    HW1 6491   1.497   6.746   4.452
 1864SOL    HW2 6492   1.452   6.853   4.338
 1865SOL     OW 6493   4.808   2.482   6.336
 1865SOL    HW1 6494   4.714   2.518   6.329
 1865SOL    HW2 6495   4.804   2.382   6.345
 1866SOL     OW 6496   4.775   4.719   2.421
 1866SOL    HW1 6497   4.758   4.768   2.507
 1866SOL    HW2 6498   4.687   4.700   2.376
 1867SOL     OW 6499   0.748   4.188   7.020
 1867SOL    HW1 6500   0.829   4.228   0.041
 1867SOL    HW2 6501   0.668   4.244   0.019
 1868SOL     OW 6502   5.938   4.640   5.826
 1868SOL    HW1 6503   6.010   4.658   5.893
 1868SOL    HW2 6504   5.849   4.659   5.867
 1869SOL     OW 6505   6.312   0.939   5.200
 1869SOL    HW1 6506   6.368   0.872   5.248
 1869SOL    HW2 6507   6.246   0.979   5.263
 1870SOL     OW 6508   1.510   5.827   4.110
 1870SOL    HW1 6509   1.560   5.755   4.062
 1870SOL    HW2 6510   1.564   5.859   4.188
 1871SOL     OW 6511   2.042   0.489   0.896
 1871SOL    HW1 6512   2.132   0.445   0.894
 1871SOL    HW2 6513   1.985   0.446   0.966
 1872SOL     OW 6514   2.209   4.400   0.087
 1872SOL    HW1 6515   2.284   4.465   0.095
 1872SOL    HW2 6516   2.197   4.374   7.013
 1873SOL     OW 6517   4.998   1.596   6.594
 1873SOL    HW1 6518   4.943   1.564   6.517
 1873SOL    HW2 6519   4.943   1.656   6.652
 1874SOL     OW 6520   1.022   1.982   2.635
 1874SOL    HW1 6521   1.022   1.890   2.674
 1874SOL    HW2 6522   1.015   2.050   2.708
 1875SOL     OW 6523   1.306   6.350   6.668
 1875SOL    HW1 6524   1.266   6.362   6.577
 1875SOL    HW2 6525   1.304   6.253   6.692
 1876SOL     OW 6526   2.949   0.103   4.207
 1876SOL    HW1 6527   2.993   0.058   4.284
 1876SOL    HW2 6528   3.009   0.097   4.127
 1877SOL     OW 6529   0.374   0.215   3.140
 1877SOL    HW1 6530   0.363   0.137   3.078
 1877SOL    HW2 6531   0.354   0.186   3.234
 1878SOL     OW 6532   6.345   2.477   4.854
 1878SOL    HW1 6533   6.338   2.383   4.886
 1878SOL    HW2 6534   6.299   2.538   4.919
 1879SOL     OW 6535   1.395   3.783   5.406
 1879SOL    HW1 6536   1.385   3.708   5.341
 1879SOL    HW2 6537   1.339   3.861   5.377
 1880SOL     OW 6538   5.882   0.652   5.763
 1880SOL    HW1 6539   5.837   0.596   5.693
 1880SOL    HW2 6540   5.855   0.748   5.751
 1881SOL     OW 6541   6.478   2.279   0.642
 1881SOL    HW1 6542   6.407   2.314   0.703
 1881SOL    HW2 6543   6.568   2.294   0.683
 1882SOL     OW 6544   0.650   3.950   6.176
 1882SOL    HW1 6545   0.633   3.858   6.140
 1882SOL    HW2 6546   0.742   3.979   6.151
 1883SOL     OW 6547   0.068   2.294   3.687
 1883SOL    HW1 6548   0.027   2.302   3.777
 1883SOL    HW2 6549   0.160   2.256   3.695
 1884SOL     OW 6550   0.321   2.509   1.471
 1884SOL    HW1 6551   0.352   2.449   1.545
 1884SOL    HW2 6552   0.316   2.603   1.505
 1885SOL     OW 6553   2.305   1.840   5.267
 1885SOL    HW1 6554   2.298   1.741   5.282
 1885SOL    HW2 6555   2.214   1.877   5.250
 1886SOL     OW 6556   1.002   6.381   3.109
 1886SOL    HW1 6557   0.941   6.318   3.062
 1886SOL    HW2 6558   1.038   6.336   3.192
 1887SOL     OW 6559   1.356   5.851   6.783
 1887SOL    HW1 6560   1.309   5.837   6.870
 1887SOL    HW2 6561   1.445   5.804   6.785
 1888SOL     OW 6562   2.564   0.792   1.602
 1888SOL    HW1 6563   2.641   0.852   1.627
 1888SOL    HW2 6564   2.583   0.749   1.514
 1889SOL     OW 6565   1.133   3.361   3.563
 1889SOL    HW1 6566   1.187   3.319   3.636
 1889SOL    HW2 6567   1.112   3.455   3.587
 1890SOL     OW 6568   0.529   6.109   3.349
 1890SOL    HW1 6569   0.458   6.119   3.280
 1890SOL    HW2 6570   0.487   6.109   3.440
 1891SOL     OW 6571   4.119   3.758   2.703
 1891SOL    HW1 6572   4.057   3.730   2.777
 1891SOL    HW2 6573   4.114   3.857   2.691
 1892SOL     OW 6574   0.535   0.681   2.086
 1892SOL    HW1 6575   0.538   0.780   2.101
 1892SOL    HW2 6576   0.469   0.640   2.150
 1893SOL     OW 6577   3.407   3.386   3.641
 1893SOL    HW1 6578   3.438   3.464   3.695
 1893SOL    HW2 6579   3.387   3.416   3.548
 1894SOL     OW 6580   3.479   4.043   4.565
 1894SOL    HW1 6581   3.526   4.070   4.480
 1894SOL    HW2 6582   3.384   4.074   4.561
 1895SOL     OW 6583   3.041   6.353   0.018
 1895SOL    HW1 6584   3.095   6.437   0.015
 1895SOL    HW2 6585   2.978   6.352   6.962
 1896SOL     OW 6586   5.464   2.354   1.201
 1896SOL    HW1 6587   5.463   2.335   1.300
 1896SOL    HW2 6588   5.469   2.268   1.151
 1897SOL     OW 6589   1.846   5.070   3.887
 1897SOL    HW1 6590   1.875   5.132   3.814
 1897SOL    HW2 6591   1.894   5.093   3.971
 1898SOL     OW 6592   1.403   5.994   3.606
 1898SOL    HW1 6593   1.499   5.968   3.611
 1898SOL    HW2 6594   1.395   6.091   3.586
 1899SOL     OW 6595   0.115   0.190   2.081
 1899SOL    HW1 6596   0.037   0.185   2.018
 1899SOL    HW2 6597   0.087   0.235   2.166
 1900SOL     OW 6598   2.812   6.810   0.315
 1900SOL    HW1 6599   2.820   6.748   0.236
 1900SOL    HW2 6600   2.896   6.807   0.369
 1901SOL     OW 6601   2.694   3.786   1.260
 1901SOL    HW1 6602   2.693   3.818   1.355
 1901SOL    HW2 6603   2.684   3.687   1.259
 1902SOL     OW 6604   1.300   6.372   4.456
 1902SOL    HW1 6605   1.386   6.387   4.407
 1902SOL    HW2 6606   1.276   6.454   4.508
 1903SOL     OW 6607   1.640   2.288   4.695
 1903SOL    HW1 6608   1.664   2.346   4.617
 1903SOL    HW2 6609   1.642   2.343   4.779
 1904SOL     OW 6610   5.218   5.418   2.544
 1904SOL    HW1 6611   5.306   5.466   2.548
 1904SOL    HW2 6612   5.144   5.483   2.563
 1905SOL     OW 6613   6.707   0.381   3.706
 1905SOL    HW1 6614   6.730   0.478   3.707
 1905SOL    HW2 6615   6.608   0.370   3.700
 1906SOL     OW 6616   2.333   0.129   5.277
 1906SOL    HW1 6617   2.371   0.221   5.261
 1906SOL    HW2 6618   2.393   0.079   5.339
 1907SOL     OW 6619   5.346   2.697   0.356
 1907SOL    HW1 6620   5.312   2.645   0.435
 1907SOL    HW2 6621   5.442   2.720   0.370
 1908SOL     OW 6622   3.570   1.223   1.101
 1908SOL    HW1 6623   3.540   1.317   1.084
 1908SOL    HW2 6624   3.492   1.168   1.130
 1909SOL     OW 6625   6.867   4.432   4.979
 1909SOL    HW1 6626   6.791   4.386   4.932
 1909SOL    HW2 6627   6.924   4.479   4.912
 1910SOL     OW 6628   6.573   6.571   5.583
 1910SOL    HW1 6629   6.546   6.518   5.662
 1910SOL    HW2 6630   6.493   6.617   5.543
 1911SOL     OW 6631   6.412   4.903   3.980
 1911SOL    HW1 6632   6.328   4.863   4.019
 1911SOL    HW2 6633   6.443   4.977   4.040
 1912SOL     OW 6634   2.795   5.312   2.522
 1912SOL    HW1 6635   2.756   5.294   2.612
 1912SOL    HW2 6636   2.867   5.245   2.502
 1913SOL     OW 6637   2.839   4.425   5.413
 1913SOL    HW1 6638   2.806   4.514   5.443
 1913SOL    HW2 6639   2.882   4.434   5.323
 1914SOL     OW 6640   2.576   4.211   6.281
 1914SOL    HW1 6641   2.576   4.269   6.199
 1914SOL    HW2 6642   2.506   4.140   6.272
 1915SOL     OW 6643   4.492   2.250   6.188
 1915SOL    HW1 6644   4.438   2.324   6.147
 1915SOL    HW2 6645   4.446   2.216   6.270
 1916SOL     OW 6646   3.722   0.694   2.140
 1916SOL    HW1 6647   3.699   0.775   2.086
 1916SOL    HW2 6648   3.774   0.722   2.221
 1917SOL     OW 6649   2.476   3.997   1.663
 1917SOL    HW1 6650   2.505   4.079   1.712
 1917SOL    HW2 6651   2.404   4.020   1.597
 1918SOL     OW 6652   5.789   2.505   4.045
 1918SOL    HW1 6653   5.817   2.570   3.974
 1918SOL    HW2 6654   5.831   2.530   4.132
 1919SOL     OW 6655   0.560   1.839   0.958
 1919SOL    HW1 6656   0.569   1.929   1.001
 1919SOL    HW2 6657   0.610   1.771   1.013
 1920SOL     OW 6658   5.354   2.320   0.614
 1920SOL    HW1 6659   5.291   2.386   0.572
 1920SOL    HW2 6660   5.343   2.322   0.713
 1921SOL     OW 6661   1.876   2.804   0.269
 1921SOL    HW1 6662   1.829   2.749   0.199
 1921SOL    HW2 6663   1.933   2.873   0.224
 1922SOL     OW 6664   3.386   3.339   2.433
 1922SOL    HW1 6665   3.363   3.307   2.341
 1922SOL    HW2 6666   3.332   3.288   2.501
 1923SOL     OW 6667   3.868   0.271   5.313
 1923SOL    HW1 6668   3.896   0.367   5.303
 1923SOL    HW2 6669   3.845   0.234   5.223
 1924SOL     OW 6670   4.093   0.443   0.481
 1924SOL    HW1 6671   4.021   0.437   0.549
 1924SOL    HW2 6672   4.139   0.532   0.489
 1925SOL     OW 6673   1.473   4.382   1.111
 1925SOL    HW1 6674   1.387   4.427   1.131
 1925SOL    HW2 6675   1.501   4.325   1.189
 1926SOL     OW 6676   3.412   0.079   2.095
 1926SOL    HW1 6677   3.417   0.147   2.022
 1926SOL    HW2 6678   3.496   0.084   2.150
 1927SOL     OW 6679   2.278   5.216   1.593
 1927SOL    HW1 6680   2.316   5.184   1.506
 1927SOL    HW2 6681   2.265   5.138   1.654
 1928SOL     OW 6682   5.520   4.235   2.882
 1928SOL    HW1 6683   5.531   4.220   2.981
 1928SOL    HW2 6684   5.445   4.300   2.866
 1929SOL     OW 6685   3.129   6.923   2.917
 1929SOL    HW1 6686   3.218   6.887   2.944
 1929SOL    HW2 6687   3.126   6.933   2.817
 1930SOL     OW 6688   4.649   3.362   6.650
 1930SOL    HW1 6689   4.674   3.386   6.556
 1930SOL    HW2 6690   4.727   3.319   6.695
 1931SOL     OW 6691   0.436   1.709   4.295
 1931SOL    HW1 6692   0.488   1.793   4.303
 1931SOL    HW2 6693   0.474   1.652   4.222
 1932SOL     OW 6694   4.492   2.429   2.010
 1932SOL    HW1 6695   4.550   2.505   1.980
 1932SOL    HW2 6696   4.527   2.343   1.972
 1933SOL     OW 6697   1.339   1.650   1.109
 1933SOL    HW1 6698   1.315   1.658   1.012
 1933SOL    HW2 6699   1.436   1.627   1.118
 1934SOL     OW 6700   0.270   0.243   6.357
 1934SOL    HW1 6701   0.214   0.266   6.437
 1934SOL    HW2 6702   0.346   0.307   6.350
 1935SOL     OW 6703   6.705   5.444   3.905
 1935SOL    HW1 6704   6.711   5.378   3.830
 1935SOL    HW2 6705   6.641   5.410   3.974
 1936SOL     OW 6706   4.657   2.897   5.429
 1936SOL    HW1 6707   4.656   2.802   5.459
 1936SOL    HW2 6708   4.655   2.957   5.509
 1937SOL     OW 6709   5.564   5.402   6.617
 1937SOL    HW1 6710   5.550   5.442   6.708
 1937SOL    HW2 6711   5.659   5.414   6.590
 1938SOL     OW 6712   0.318   3.169   6.420
 1938SOL    HW1 6713   0.278   3.261   6.416
 1938SOL    HW2 6714   0.359   3.148   6.331
 1939SOL     OW 6715   0.863   0.312   4.624
 1939SOL    HW1 6716   0.936   0.376   4.647
 1939SOL    HW2 6717   0.877   0.227   4.675
 1940SOL     OW 6718   6.694   4.928   0.575
 1940SOL    HW1 6719   6.753   5.007   0.589
 1940SOL    HW2 6720   6.625   4.924   0.648
 1941SOL     OW 6721   6.246   1.935   4.190
 1941SOL    HW1 6722   6.293   1.996   4.126
 1941SOL    HW2 6723   6.260   1.968   4.283
 1942SOL     OW 6724   6.348   3.696   2.657
 1942SOL    HW1 6725   6.414   3.707   2.732
 1942SOL    HW2 6726   6.274   3.762   2.670
 1943SOL     OW 6727   0.802   1.599   2.913
 1943SOL    HW1 6728   0.845   1.579   3.001
 1943SOL    HW2 6729   0.817   1.695   2.890
 1944SOL     OW 6730   0.012   2.785   3.184
 1944SOL    HW1 6731   6.991   2.875   3.179
 1944SOL    HW2 6732   7.018   2.746   3.275
 1945SOL     OW 6733   4.548   1.309   2.102
 1945SOL    HW1 6734   4.604   1.314   2.019
 1945SOL    HW2 6735   4.498   1.395   2.115
 1946SOL     OW 6736   5.998   5.147   1.179
 1946SOL    HW1 6737   6.056   5.080   1.225
 1946SOL    HW2 6738   5.954   5.205   1.247
 1947SOL     OW 6739   5.923   4.774   3.624
 1947SOL    HW1 6740   5.977   4.703   3.669
 1947SOL    HW2 6741   5.834   4.782   3.668
 1948SOL     OW 6742   4.995   3.469   3.092
 1948SOL    HW1 6743   4.931   3.485   3.017
 1948SOL    HW2 6744   4.992   3.546   3.155
 1949SOL     OW 6745   3.982   4.322   0.056
 1949SOL    HW1 6746   3.977   4.245   0.119
 1949SOL    HW2 6747   3.895   4.373   0.059
 1950SOL     OW 6748   2.939   3.789   3.432
 1950SOL    HW1 6749   2.906   3.711   3.485
 1950SOL    HW2 6750   2.971   3.860   3.494
 1951SOL     OW 6751   6.218   5.212   5.540
 1951SOL    HW1 6752   6.176   5.299   5.567
 1951SOL    HW2 6753   6.181   5.139   5.597
 1952SOL     OW 6754   5.988   5.028   0.394
 1952SOL    HW1 6755   6.078   4.987   0.378
 1952SOL    HW2 6756   5.918   4.974   0.349
 1953SOL     OW 6757   0.690   1.154   6.661
 1953SOL    HW1 6758   0.738   1.066   6.655
 1953SOL    HW2 6759   0.596   1.142   6.628
 1954SOL     OW 6760   3.944   6.843   1.973
 1954SOL    HW1 6761   3.959   6.794   2.059
 1954SOL    HW2 6762   3.875   6.914   1.987
 1955SOL     OW 6763   0.146   2.382   3.186
 1955SOL    HW1 6764   0.177   2.403   3.279
 1955SOL    HW2 6765   0.082   2.305   3.189
 1956SOL     OW 6766   5.856   0.376   1.751
 1956SOL    HW1 6767   5.879   0.460   1.702
 1956SOL    HW2 6768   5.763   0.348   1.726
 1957SOL     OW 6769   5.548   2.119   4.519
 1957SOL    HW1 6770   5.584   2.210   4.497
 1957SOL    HW2 6771   5.611   2.049   4.487
 1958SOL     OW 6772   4.492   1.989   0.674
 1958SOL    HW1 6773   4.491   2.074   0.621
 1958SOL    HW2 6774   4.548   1.921   0.626
 1959SOL     OW 6775   0.484   0.661   4.922
 1959SOL    HW1 6776   0.512   0.740   4.868
 1959SOL    HW2 6777   0.496   0.682   5.019
 1960SOL     OW 6778   6.127   4.330   3.976
 1960SOL    HW1 6779   6.091   4.242   4.007
 1960SOL    HW2 6780   6.155   4.322   3.880
 1961SOL     OW 6781   6.862   3.965   4.217
 1961SOL    HW1 6782   6.805   4.017   4.281
 1961SOL    HW2 6783   6.942   3.930   4.265
 1962SOL     OW 6784   0.939   0.561   2.441
 1962SOL    HW1 6785   0.991   0.588   2.360
 1962SOL    HW2 6786   0.844   0.543   2.416
 1963SOL     OW 6787   0.499   2.687   1.128
 1963SOL    HW1 6788   0.457   2.770   1.166
 1963SOL    HW2 6789   0.512   2.620   1.201
 1964SOL     OW 6790   6.030   3.668   1.103
 1964SOL    HW1 6791   6.057   3.576   1.074
 1964SOL    HW2 6792   5.964   3.705   1.037
 1965SOL     OW 6793   6.755   4.398   4.120
 1965SOL    HW1 6794   6.854   4.404   4.127
 1965SOL    HW2 6795   6.729   4.383   4.025
 1966SOL     OW 6796   1.515   5.075   0.339
 1966SOL    HW1 6797   1.487   5.001   0.400
 1966SOL    HW2 6798   1.569   5.142   0.390
 1967SOL     OW 6799   6.365   3.630   3.616
 1967SOL    HW1 6800   6.380   3.540   3.657
 1967SOL    HW2 6801   6.267   3.640   3.596
 1968SOL     OW 6802   2.741   1.183   4.888
 1968SOL    HW1 6803   2.826   1.182   4.941
 1968SOL    HW2 6804   2.664   1.193   4.951
 1969SOL     OW 6805   2.728   6.738   6.937
 1969SOL    HW1 6806   2.827   6.729   6.927
 1969SOL    HW2 6807   2.684   6.717   6.850
 1970SOL     OW 6808   5.975   5.263   5.181
 1970SOL    HW1 6809   5.951   5.283   5.276
 1970SOL    HW2 6810   5.895   5.226   5.133
 1971SOL     OW 6811   1.978   5.482   4.866
 1971SOL    HW1 6812   2.029   5.540   4.802
 1971SOL    HW2 6813   2.025   5.482   4.954
 1972SOL     OW 6814   6.132   3.024   2.739
 1972SOL    HW1 6815   6.034   3.020   2.758
 1972SOL    HW2 6816   6.147   3.029   2.641
 1973SOL     OW 6817   2.488   3.095   0.202
 1973SOL    HW1 6818   2.499   2.999   0.227
 1973SOL    HW2 6819   2.473   3.150   0.284
 1974SOL     OW 6820   2.942   6.530   5.035
 1974SOL    HW1 6821   2.998   6.610   5.013
 1974SOL    HW2 6822   2.996   6.466   5.090
 1975SOL     OW 6823   1.888   2.944   3.566
 1975SOL    HW1 6824   1.802   2.920   3.612
 1975SOL    HW2 6825   1.947   2.864   3.561
 1976SOL     OW 6826   0.382   0.037   6.267
 1976SOL    HW1 6827   0.385   0.032   6.167
 1976SOL    HW2 6828   0.328   0.117   6.294
 1977SOL     OW 6829   2.211   4.166   5.660
 1977SOL    HW1 6830   2.303   4.133   5.682
 1977SOL    HW2 6831   2.198   4.257   5.700
 1978SOL     OW 6832   2.454   0.155   1.329
 1978SOL    HW1 6833   2.508   0.071   1.342
 1978SOL    HW2 6834   2.427   0.162   1.233
 1979SOL     OW 6835   0.087   4.696   6.212
 1979SOL    HW1 6836   0.043   4.685   6.301
 1979SOL    HW2 6837   0.024   4.668   6.139
 1980SOL     OW 6838   3.515   1.788   0.312
 1980SOL    HW1 6839   3.608   1.815   0.288
 1980SOL    HW2 6840   3.455   1.803   0.233
 1981SOL     OW 6841   3.119   2.193   2.728
 1981SOL    HW1 6842   3.193   2.129   2.708
 1981SOL    HW2 6843   3.114   2.262   2.656
 1982SOL     OW 6844   0.876   2.746   5.225
 1982SOL    HW1 6845   0.799   2.806   5.202
 1982SOL    HW2 6846   0.913   2.772   5.314
 1983SOL     OW 6847   0.026   0.515   2.360
 1983SOL    HW1 6848   0.012   0.582   2.432
 1983SOL    HW2 6849   0.000   0.555   2.272
 1984SOL     OW 6850   4.653   2.853   5.858
 1984SOL    HW1 6851   4.715   2.810   5.923
 1984SOL    HW2 6852   4.559   2.825   5.878
 1985SOL     OW 6853   6.313   3.770   2.368
 1985SOL    HW1 6854   6.221   3.763   2.330
 1985SOL    HW2 6855   6.316   3.726   2.458
 1986SOL     OW 6856   4.237   2.877   1.708
 1986SOL    HW1 6857   4.198   2.879   1.616
 1986SOL    HW2 6858   4.313   2.812   1.710
 1987SOL     OW 6859   2.942   1.259   1.170
 1987SOL    HW1 6860   2.913   1.243   1.264
 1987SOL    HW2 6861   2.862   1.264   1.110
 1988SOL     OW 6862   0.122   2.219   1.779
 1988SOL    HW1 6863   0.085   2.306   1.746
 1988SOL    HW2 6864   0.084   2.198   1.868
 1989SOL     OW 6865   2.599   4.836   4.570
 1989SOL    HW1 6866   2.679   4.892   4.590
 1989SOL    HW2 6867   2.526   4.894   4.533
 1990SOL     OW 6868   3.773   0.045   0.384
 1990SOL    HW1 6869   3.690   0.046   0.327
 1990SOL    HW2 6870   3.840   0.108   0.347
 1991SOL     OW 6871   2.542   5.112   0.927
 1991SOL    HW1 6872   2.602   5.032   0.929
 1991SOL    HW2 6873   2.480   5.109   1.006
 1992SOL     OW 6874   0.485   6.544   1.515
 1992SOL    HW1 6875   0.445   6.592   1.437
 1992SOL    HW2 6876   0.413   6.521   1.580
 1993SOL     OW 6877   2.530   2.521   3.501
 1993SOL    HW1 6878   2.506   2.566   3.415
 1993SOL    HW2 6879   2.511   2.581   3.578
 1994SOL     OW 6880   3.373   2.686   0.690
 1994SOL    HW1 6881   3.371   2.783   0.665
 1994SOL    HW2 6882   3.288   2.661   0.735
 1995SOL     OW 6883   5.925   2.110   3.931
 1995SOL    HW1 6884   5.973   2.104   4.019
 1995SOL    HW2 6885   5.835   2.151   3.945
 1996SOL     OW 6886   3.683   1.524   0.873
 1996SOL    HW1 6887   3.664   1.437   0.827
 1996SOL    HW2 6888   3.610   1.542   0.940
 1997SOL     OW 6889   3.905   0.186   4.324
 1997SOL    HW1 6890   3.908   0.286   4.323
 1997SOL    HW2 6891   3.813   0.156   4.349
 1998SOL     OW 6892   2.041   3.952   1.642
 1998SOL    HW1 6893   2.093   3.967   1.726
 1998SOL    HW2 6894   1.945   3.936   1.664
 1999SOL     OW 6895   1.469   0.176   0.206
 1999SOL    HW1 6896   1.538   0.127   0.152
 1999SOL    HW2 6897   1.475   0.150   0.302
 2000SOL     OW 6898   3.689   4.315   5.816
 2000SOL    HW1 6899   3.756   4.250   5.851
 2000SOL    HW2 6900   3.734   4.381   5.756
 2001SOL     OW 6901   2.026   2.040   0.756
 2001SOL    HW1 6902   1.929   2.016   0.760
 2001SOL    HW2 6903   2.079   1.972   0.807
 2002SOL     OW 6904   0.147   5.044   0.644
 2002SOL    HW1 6905   0.048   5.061   0.641
 2002SOL    HW2 6906   0.195   5.116   0.595
 2003SOL     OW 6907   6.559   4.804   2.987
 2003SOL    HW1 6908   6.617   4.844   2.916
 2003SOL    HW2 6909   6.519   4.719   2.952
 2004SOL     OW 6910   3.462   6.932   3.360
 2004SOL    HW1 6911   3.378   6.926   3.306
 2004SOL    HW2 6912   3.498   0.003   3.356
 2005SOL     OW 6913   1.688   6.492   0.471
 2005SOL    HW1 6914   1.771   6.439   0.453
 2005SOL    HW2 6915   1.628   6.488   0.391
 2006SOL     OW 6916   5.663   6.087   2.467
 2006SOL    HW1 6917   5.676   5.996   2.505
 2006SOL    HW2 6918   5.736   6.148   2.499
 2007SOL     OW 6919   5.619   4.712   6.860
 2007SOL    HW1 6920   5.582   4.621   6.841
 2007SOL    HW2 6921   5.714   4.703   6.891
 2008SOL     OW 6922   1.673   3.650   4.091
 2008SOL    HW1 6923   1.691   3.739   4.133
 2008SOL    HW2 6924   1.589   3.611   4.129
 2009SOL     OW 6925   6.274   0.270   2.872
 2009SOL    HW1 6926   6.294   0.268   2.774
 2009SOL    HW2 6927   6.192   0.216   2.890
 2010SOL     OW 6928   1.179   2.036   1.394
 2010SOL    HW1 6929   1.146   2.130   1.388
 2010SOL    HW2 6930   1.112   1.980   1.444
 2011SOL     OW 6931   0.908   6.620   5.565
 2011SOL    HW1 6932   0.986   6.683   5.559
 2011SOL    HW2 6933   0.894   6.593   5.660
 2012SOL     OW 6934   1.650   3.179   1.954
 2012SOL    HW1 6935   1.578   3.160   1.888
 2012SOL    HW2 6936   1.640   3.273   1.988
 2013SOL     OW 6937   0.907   3.443   2.214
 2013SOL    HW1 6938   0.954   3.396   2.289
 2013SOL    HW2 6939   0.809   3.428   2.220
 2014SOL     OW 6940   3.873   0.623   4.628
 2014SOL    HW1 6941   3.865   0.680   4.710
 2014SOL    HW2 6942   3.951   0.656   4.573
 2015SOL     OW 6943   4.393   0.774   2.274
 2015SOL    HW1 6944   4.455   0.789   2.351
 2015SOL    HW2 6945   4.353   0.683   2.281
 2016SOL     OW 6946   1.746   0.684   5.015
 2016SOL    HW1 6947   1.796   0.698   5.100
 2016SOL    HW2 6948   1.648   0.684   5.034
 2017SOL     OW 6949   3.869   6.488   3.183
 2017SOL    HW1 6950   3.797   6.419   3.173
 2017SOL    HW2 6951   3.917   6.498   3.096
 2018SOL     OW 6952   1.290   0.930   3.855
 2018SOL    HW1 6953   1.367   0.982   3.818
 2018SOL    HW2 6954   1.241   0.985   3.922
 2019SOL     OW 6955   5.782   5.193   6.238
 2019SOL    HW1 6956   5.859   5.129   6.231
 2019SOL    HW2 6957   5.759   5.208   6.334
 2020SOL     OW 6958   1.843   6.119   6.849
 2020SOL    HW1 6959   1.912   6.188   6.868
 2020SOL    HW2 6960   1.756   6.146   6.890
 2021SOL     OW 6961   6.850   5.847   4.262
 2021SOL    HW1 6962   6.784   5.831   4.334
 2021SOL    HW2 6963   6.870   5.762   4.214
 2022SOL     OW 6964   1.979   4.277   4.864
 2022SOL    HW1 6965   1.901   4.219   4.841
 2022SOL    HW2 6966   1.979   4.358   4.804
 2023SOL     OW 6967   6.608   6.722   0.530
 2023SOL    HW1 6968   6.630   6.624   0.535
 2023SOL    HW2 6969   6.545   6.745   0.605
 2024SOL     OW 6970   0.432   6.157   4.724
 2024SOL    HW1 6971   0.410   6.141   4.820
 2024SOL    HW2 6972   0.531   6.163   4.713
 2025SOL     OW 6973   1.489   6.479   4.284
 2025SOL    HW1 6974   1.516   6.476   4.188
 2025SOL    HW2 6975   1.570   6.489   4.342
 2026SOL     OW 6976   6.953   0.082   6.202
 2026SOL    HW1 6977   6.906   0.169   6.188
 2026SOL    HW2 6978   0.030   0.095   6.192
 2027SOL     OW 6979   6.581   5.944   2.031
 2027SOL    HW1 6980   6.588   5.922   2.128
 2027SOL    HW2 6981   6.618   6.036   2.015
 2028SOL     OW 6982   2.981   5.485   4.174
 2028SOL    HW1 6983   3.024   5.395   4.161
 2028SOL    HW2 6984   2.931   5.511   4.091
 2029SOL     OW 6985   6.573   2.436   6.553
 2029SOL    HW1 6986   6.557   2.477   6.463
 2029SOL    HW2 6987   6.663   2.462   6.586
 2030SOL     OW 6988   2.162   6.843   1.709
 2030SOL    HW1 6989   2.203   6.934   1.705
 2030SOL    HW2 6990   2.109   6.826   1.626
 2031SOL     OW 6991   0.025   6.060   4.291
 2031SOL    HW1 6992   0.114   6.015   4.301
 2031SOL    HW2 6993   6.975   5.990   4.289
 2032SOL     OW 6994   2.437   1.969   6.008
 2032SOL    HW1 6995   2.444   1.871   6.028
 2032SOL    HW2 6996   2.478   2.021   6.083
 2033SOL     OW 6997   2.512   2.087   0.928
 2033SOL    HW1 6998   2.519   2.081   0.829
 2033SOL    HW2 6999   2.453   2.014   0.962
 2034SOL     OW 7000   6.924   4.075   4.616
 2034SOL    HW1 7001   6.906   4.105   4.523
 2034SOL    HW2 7002   6.841   4.038   4.657
 2035SOL     OW 7003   5.267   0.106   2.792
 2035SOL    HW1 7004   5.255   0.205   2.791
 2035SOL    HW2 7005   5.295   0.075   2.702
 2036SOL     OW 7006   0.791   4.466   0.674
 2036SOL    HW1 7007   0.877   4.505   0.706
 2036SOL    HW2 7008   0.716   4.497   0.733
 2037SOL     OW 7009   0.703   1.934   6.622
 2037SOL    HW1 7010   0.643   2.007   6.589
 2037SOL    HW2 7011   0.785   1.973   6.664
 2038SOL     OW 7012   1.537   1.000   6.600
 2038SOL    HW1 7013   1.600   1.076   6.612
 2038SOL    HW2 7014   1.482   0.988   6.682
 2039SOL     OW 7015   5.459   6.238   2.962
 2039SOL    HW1 7016   5.549   6.281   2.975
 2039SOL    HW2 7017   5.448   6.214   2.865
 2040SOL     OW 7018   1.659   2.426   0.998
 2040SOL    HW1 7019   1.595   2.484   0.949
 2040SOL    HW2 7020   1.609   2.369   1.063
 2041SOL     OW 7021   2.252   0.533   6.840
 2041SOL    HW1 7022   2.298   0.472   6.905
 2041SOL    HW2 7023   2.225   0.480   6.760
 2042SOL     OW 7024   5.628   1.174   5.576
 2042SOL    HW1 7025   5.581   1.133   5.498
 2042SOL    HW2 7026   5.561   1.208   5.642
 2043SOL     OW 7027   0.585   4.003   1.215
 2043SOL    HW1 7028   0.665   3.947   1.192
 2043SOL    HW2 7029   0.572   4.003   1.314
 2044SOL     OW 7030   3.983   0.903   1.297
 2044SOL    HW1 7031   4.083   0.900   1.299
 2044SOL    HW2 7032   3.951   0.870   1.209
 2045SOL     OW 7033   1.230   6.381   5.071
 2045SOL    HW1 7034   1.238   6.293   5.119
 2045SOL    HW2 7035   1.252   6.455   5.134
 2046SOL     OW 7036   0.973   1.971   4.646
 2046SOL    HW1 7037   0.973   2.057   4.595
 2046SOL    HW2 7038   0.989   1.895   4.583
 2047SOL     OW 7039   0.491   1.109   0.627
 2047SOL    HW1 7040   0.492   1.157   0.539
 2047SOL    HW2 7041   0.568   1.045   0.632
 2048SOL     OW 7042   1.006   2.206   4.267
 2048SOL    HW1 7043   0.951   2.173   4.191
 2048SOL    HW2 7044   1.098   2.228   4.235
 2049SOL     OW 7045   4.707   1.958   5.082
 2049SOL    HW1 7046   4.757   2.028   5.031
 2049SOL    HW2 7047   4.750   1.945   5.171
 2050SOL     OW 7048   0.406   1.062   3.997
 2050SOL    HW1 7049   0.344   1.046   4.074
 2050SOL    HW2 7050   0.467   0.984   3.986
 2051SOL     OW 7051   2.991   6.660   6.868
 2051SOL    HW1 7052   3.003   6.737   6.805
 2051SOL    HW2 7053   3.027   6.577   6.826
 2052SOL     OW 7054   1.478   4.278   6.524
 2052SOL    HW1 7055   1.523   4.330   6.596
 2052SOL    HW2 7056   1.545   4.223   6.474
 2053SOL     OW 7057   7.004   6.104   3.228
 2053SOL    HW1 7058   6.995   6.183   3.167
 2053SOL    HW2 7059   0.045   6.038   3.187
 2054SOL     OW 7060   2.902   3.633   3.159
 2054SOL    HW1 7061   2.891   3.679   3.247
 2054SOL    HW2 7062   2.951   3.693   3.096
 2055SOL     OW 7063   3.427   2.576   5.582
 2055SOL    HW1 7064   3.527   2.575   5.590
 2055SOL    HW2 7065   3.387   2.627   5.658
 2056SOL     OW 7066   3.891   4.583   1.080
 2056SOL    HW1 7067   3.801   4.581   1.036
 2056SOL    HW2 7068   3.909   4.495   1.123
 2057SOL     OW 7069   4.975   2.646   4.576
 2057SOL    HW1 7070   4.908   2.699   4.628
 2057SOL    HW2 7071   5.068   2.672   4.605
 2058SOL     OW 7072   7.010   6.867   2.861
 2058SOL    HW1 7073   0.009   6.955   2.904
 2058SOL    HW2 7074   6.971   6.805   2.929
 2059SOL     OW 7075   1.009   0.746   5.274
 2059SOL    HW1 7076   0.943   0.671   5.283
 2059SOL    HW2 7077   1.094   0.721   5.320
 2060SOL     OW 7078   1.484   2.809   0.067
 2060SOL    HW1 7079   1.579   2.825   0.039
 2060SOL    HW2 7080   1.482   2.751   0.148
 2061SOL     OW 7081   2.081   2.600   2.520
 2061SOL    HW1 7082   2.176   2.594   2.552
 2061SOL    HW2 7083   2.079   2.581   2.421
 2062SOL     OW 7084   0.227   5.027   5.055
 2062SOL    HW1 7085   0.210   4.937   5.014
 2062SOL    HW2 7086   0.201   5.025   5.151
 2063SOL     OW 7087   1.187   1.556   4.543
 2063SOL    HW1 7088   1.114   1.577   4.609
 2063SOL    HW2 7089   1.272   1.596   4.575
 2064SOL     OW 7090   0.872   3.582   3.821
 2064SOL    HW1 7091   0.969   3.598   3.803
 2064SOL    HW2 7092   0.862   3.509   3.889
 2065SOL     OW 7093   4.165   3.750   5.613
 2065SOL    HW1 7094   4.250   3.784   5.571
 2065SOL    HW2 7095   4.172   3.651   5.627
 2066SOL     OW 7096   0.996   3.250   5.883
 2066SOL    HW1 7097   0.908   3.292   5.904
 2066SOL    HW2 7098   1.046   3.308   5.818
 2067SOL     OW 7099   6.287   5.138   1.616
 2067SOL    HW1 7100   6.362   5.126   1.681
 2067SOL    HW2 7101   6.292   5.230   1.576
 2068SOL     OW 7102   4.273   0.687   5.174
 2068SOL    HW1 7103   4.294   0.621   5.246
 2068SOL    HW2 7104   4.359   0.724   5.137
 2069SOL     OW 7105   0.136   1.493   3.626
 2069SOL    HW1 7106   0.224   1.448   3.639
 2069SOL    HW2 7107   0.135   1.540   3.537
 2070SOL     OW 7108   0.973   4.843   1.178
 2070SOL    HW1 7109   0.989   4.934   1.139
 2070SOL    HW2 7110   0.967   4.850   1.277
 2071SOL     OW 7111   0.217   1.848   5.612
 2071SOL    HW1 7112   0.283   1.923   5.608
 2071SOL    HW2 7113   0.157   1.851   5.532
 2072SOL     OW 7114   5.032   4.401   5.612
 2072SOL    HW1 7115   5.060   4.473   5.677
 2072SOL    HW2 7116   5.107   4.336   5.602
 2073SOL     OW 7117   2.748   5.413   6.803
 2073SOL    HW1 7118   2.717   5.493   6.856
 2073SOL    HW2 7119   2.830   5.375   6.846
 2074SOL     OW 7120   1.640   4.318   6.151
 2074SOL    HW1 7121   1.583   4.265   6.089
 2074SOL    HW2 7122   1.658   4.408   6.110
 2075SOL     OW 7123   6.424   2.731   1.245
 2075SOL    HW1 7124   6.350   2.667   1.228
 2075SOL    HW2 7125   6.451   2.725   1.342
 2076SOL     OW 7126   6.168   6.668   4.664
 2076SOL    HW1 7127   6.107   6.683   4.586
 2076SOL    HW2 7128   6.113   6.646   4.745
 2077SOL     OW 7129   6.159   4.735   1.060
 2077SOL    HW1 7130   6.211   4.682   1.127
 2077SOL    HW2 7131   6.068   4.694   1.049
 2078SOL     OW 7132   0.612   3.304   5.489
 2078SOL    HW1 7133   0.564   3.366   5.427
 2078SOL    HW2 7134   0.548   3.236   5.526
 2079SOL     OW 7135   5.234   1.095   2.498
 2079SOL    HW1 7136   5.295   1.040   2.441
 2079SOL    HW2 7137   5.153   1.119   2.445
 2080SOL     OW 7138   2.702   3.266   6.288
 2080SOL    HW1 7139   2.747   3.341   6.238
 2080SOL    HW2 7140   2.704   3.285   6.386
 2081SOL     OW 7141   6.150   5.606   2.200
 2081SOL    HW1 7142   6.122   5.660   2.280
 2081SOL    HW2 7143   6.249   5.612   2.188
 2082SOL     OW 7144   6.532   6.452   4.507
 2082SOL    HW1 7145   6.478   6.527   4.472
 2082SOL    HW2 7146   6.527   6.375   4.443
 2083SOL     OW 7147   0.226   6.841   3.641
 2083SOL    HW1 7148   0.146   6.807   3.692
 2083SOL    HW2 7149   0.303   6.779   3.656
 2084SOL     OW 7150   6.293   2.553   0.362
 2084SOL    HW1 7151   6.322   2.461   0.337
 2084SOL    HW2 7152   6.209   2.547   0.416
 2085SOL     OW 7153   5.761   5.633   1.092
 2085SOL    HW1 7154   5.675   5.584   1.079
 2085SOL    HW2 7155   5.813   5.591   1.166
 2086SOL     OW 7156   4.959   1.066   0.031
 2086SOL    HW1 7157   4.942   0.968   0.044
 2086SOL    HW2 7158   5.035   1.078   6.988
 2087SOL     OW 7159   4.064   1.350   6.742
 2087SOL    HW1 7160   4.139   1.380   6.801
 2087SOL    HW2 7161   4.081   1.256   6.712
 2088SOL     OW 7162   0.850   5.516   5.735
 2088SOL    HW1 7163   0.838   5.488   5.830
 2088SOL    HW2 7164   0.817   5.610   5.724
 2089SOL     OW 7165   2.327   3.235   0.018
 2089SOL    HW1 7166   2.380   3.308   6.995
 2089SOL    HW2 7167   2.386   3.185   0.081
 2090SOL     OW 7168   5.394   2.818   5.652
 2090SOL    HW1 7169   5.430   2.763   5.576
 2090SOL    HW2 7170   5.415   2.772   5.738
 2091SOL     OW 7171   5.343   6.454   1.177
 2091SOL    HW1 7172   5.298   6.507   1.105
 2091SOL    HW2 7173   5.302   6.363   1.182
 2092SOL     OW 7174   3.903   3.800   1.545
 2092SOL    HW1 7175   3.805   3.814   1.535
 2092SOL    HW2 7176   3.920   3.707   1.578
 2093SOL     OW 7177   4.228   1.223   1.312
 2093SOL    HW1 7178   4.189   1.219   1.220
 2093SOL    HW2 7179   4.278   1.138   1.330
 2094SOL     OW 7180   5.457   2.092   5.998
 2094SOL    HW1 7181   5.366   2.053   6.010
 2094SOL    HW2 7182   5.518   2.023   5.959
 2095SOL     OW 7183   5.159   5.942   4.045
 2095SOL    HW1 7184   5.099   5.923   3.967
 2095SOL    HW2 7185   5.246   5.977   4.012
 2096SOL     OW 7186   3.819   6.665   1.792
 2096SOL    HW1 7187   3.827   6.577   1.839
 2096SOL    HW2 7188   3.884   6.730   1.832
 2097SOL     OW 7189   0.912   5.918   6.077
 2097SOL    HW1 7190   0.854   5.933   6.157
 2097SOL    HW2 7191   0.880   5.976   6.002
 2098SOL     OW 7192   2.832   5.742   3.545
 2098SOL    HW1 7193   2.884   5.656   3.547
 2098SOL    HW2 7194   2.734   5.722   3.542
 2099SOL     OW 7195   4.911   1.813   6.386
 2099SOL    HW1 7196   4.811   1.808   6.394
 2099SOL    HW2 7197   4.948   1.864   6.464
 2100SOL     OW 7198   5.092   6.926   1.713
 2100SOL    HW1 7199   5.156   6.857   1.745
 2100SOL    HW2 7200   5.037   6.888   1.639
 2101SOL     OW 7201   0.512   0.544   2.675
 2101SOL    HW1 7202   0.540   0.469   2.735
 2101SOL    HW2 7203   0.453   0.508   2.602
 2102SOL     OW 7204   4.183   2.290   1.041
 2102SOL    HW1 7205   4.119   2.219   1.069
 2102SOL    HW2 7206   4.236   2.321   1.121
 2103SOL     OW 7207   2.305   6.377   0.461
 2103SOL    HW1 7208   2.311   6.420   0.551
 2103SOL    HW2 7209   2.215   6.395   0.421
 2104SOL     OW 7210   1.591   4.147   3.452
 2104SOL    HW1 7211   1.586   4.082   3.528
 2104SOL    HW2 7212   1.502   4.191   3.440
 2105SOL     OW 7213   5.253   6.087   5.028
 2105SOL    HW1 7214   5.342   6.062   4.989
 2105SOL    HW2 7215   5.202   6.004   5.051
 2106SOL     OW 7216   4.363   3.236   0.852
 2106SOL    HW1 7217   4.284   3.232   0.914
 2106SOL    HW2 7218   4.442   3.193   0.895
 2107SOL     OW 7219   5.469   4.653   4.988
 2107SOL    HW1 7220   5.413   4.732   5.013
 2107SOL    HW2 7221   5.485   4.597   5.069
 2108SOL     OW 7222   4.578   0.112   5.043
 2108SOL    HW1 7223   4.540   0.034   4.994
 2108SOL    HW2 7224   4.549   0.197   4.999
 2109SOL     OW 7225   2.677   6.420   2.059
 2109SOL    HW1 7226   2.743   6.458   1.994
 2109SOL    HW2 7227   2.607   6.368   2.009
 2110SOL     OW 7228   3.665   6.712   0.020
 2110SOL    HW1 7229   3.660   6.663   6.955
 2110SOL    HW2 7230   3.581   6.699   0.071
 2111SOL     OW 7231   1.250   2.409   5.678
 2111SOL    HW1 7232   1.187   2.336   5.653
 2111SOL    HW2 7233   1.341   2.390   5.639
 2112SOL     OW 7234   1.061   0.628   0.034
 2112SOL    HW1 7235   0.982   0.641   0.095
 2112SOL    HW2 7236   1.082   0.531   0.027
 2113SOL     OW 7237   6.919   1.075   4.476
 2113SOL    HW1 7238   6.889   1.129   4.397
 2113SOL    HW2 7239   6.909   0.978   4.456
 2114SOL     OW 7240   1.621   1.469   6.360
 2114SOL    HW1 7241   1.578   1.511   6.280
 2114SOL    HW2 7242   1.710   1.431   6.335
 2115SOL     OW 7243   6.325   6.231   3.106
 2115SOL    HW1 7244   6.302   6.206   3.012
 2115SOL    HW2 7245   6.259   6.298   3.141
 2116SOL     OW 7246   1.439   1.877   6.913
 2116SOL    HW1 7247   1.370   1.949   6.913
 2116SOL    HW2 7248   1.472   1.862   6.820
 2117SOL     OW 7249   6.313   1.622   2.484
 2117SOL    HW1 7250   6.309   1.562   2.564
 2117SOL    HW2 7251   6.378   1.696   2.500
 2118SOL     OW 7252   6.734   2.465   3.049
 2118SOL    HW1 7253   6.702   2.540   3.106
 2118SOL    HW2 7254   6.833   2.471   3.039
 2119SOL     OW 7255   1.308   1.376   0.517
 2119SOL    HW1 7256   1.350   1.288   0.499
 2119SOL    HW2 7257   1.217   1.380   0.474
 2120SOL     OW 7258   6.053   1.650   1.128
 2120SOL    HW1 7259   6.075   1.747   1.132
 2120SOL    HW2 7260   6.131   1.597   1.163
 2121SOL     OW 7261   1.653   0.614   6.786
 2121SOL    HW1 7262   1.661   0.571   6.695
 2121SOL    HW2 7263   1.731   0.587   6.842
 2122SOL     OW 7264   6.239   1.055   4.473
 2122SOL    HW1 7265   6.218   1.139   4.523
 2122SOL    HW2 7266   6.314   1.071   4.410
 2123SOL     OW 7267   1.349   5.219   2.707
 2123SOL    HW1 7268   1.328   5.126   2.680
 2123SOL    HW2 7269   1.446   5.225   2.733
 2124SOL     OW 7270   4.063   3.746   6.283
 2124SOL    HW1 7271   3.989   3.785   6.337
 2124SOL    HW2 7272   4.122   3.691   6.343
 2125SOL     OW 7273   1.590   5.856   4.421
 2125SOL    HW1 7274   1.680   5.899   4.411
 2125SOL    HW2 7275   1.524   5.924   4.454
 2126SOL     OW 7276   2.578   3.987   6.669
 2126SOL    HW1 7277   2.640   3.945   6.602
 2126SOL    HW2 7278   2.585   3.937   6.756
 2127SOL     OW 7279   0.998   2.504   4.575
 2127SOL    HW1 7280   1.092   2.533   4.597
 2127SOL    HW2 7281   0.982   2.516   4.477
 2128SOL     OW 7282   5.177   3.330   1.546
 2128SOL    HW1 7283   5.220   3.257   1.599
 2128SOL    HW2 7284   5.196   3.317   1.449
 2129SOL     OW 7285   5.752   4.103   4.358
 2129SOL    HW1 7286   5.725   4.197   4.376
 2129SOL    HW2 7287   5.809   4.069   4.433
 2130SOL     OW 7288   3.379   1.026   1.175
 2130SOL    HW1 7289   3.288   1.049   1.141
 2130SOL    HW2 7290   3.373   0.948   1.237
 2131SOL     OW 7291   5.137   0.434   5.322
 2131SOL    HW1 7292   5.101   0.419   5.229
 2131SOL    HW2 7293   5.062   0.441   5.386
 2132SOL     OW 7294   2.249   2.282   0.140
 2132SOL    HW1 7295   2.305   2.365   0.137
 2132SOL    HW2 7296   2.303   2.204   0.107
 2133SOL     OW 7297   3.298   2.498   1.580
 2133SOL    HW1 7298   3.328   2.413   1.622
 2133SOL    HW2 7299   3.289   2.486   1.481
 2134SOL     OW 7300   2.231   6.553   5.432
 2134SOL    HW1 7301   2.279   6.639   5.415
 2134SOL    HW2 7302   2.164   6.565   5.505
 2135SOL     OW 7303   0.772   6.555   4.218
 2135SOL    HW1 7304   0.864   6.595   4.224
 2135SOL    HW2 7305   0.760   6.487   4.290
 2136SOL     OW 7306   1.240   4.494   3.569
 2136SOL    HW1 7307   1.155   4.532   3.533
 2136SOL    HW2 7308   1.219   4.436   3.648
 2137SOL     OW 7309   1.111   1.312   4.621
 2137SOL    HW1 7310   1.135   1.404   4.588
 2137SOL    HW2 7311   1.175   1.284   4.692
 2138SOL     OW 7312   1.042   2.776   6.299
 2138SOL    HW1 7313   1.095   2.771   6.214
 2138SOL    HW2 7314   1.094   2.733   6.373
 2139SOL     OW 7315   2.159   0.915   4.487
 2139SOL    HW1 7316   2.099   0.843   4.523
 2139SOL    HW2 7317   2.134   1.003   4.529
 2140SOL     OW 7318   1.658   5.845   3.605
 2140SOL    HW1 7319   1.752   5.859   3.573
 2140SOL    HW2 7320   1.649   5.754   3.644
 2141SOL     OW 7321   6.824   1.316   0.304
 2141SOL    HW1 7322   6.727   1.338   0.300
 2141SOL    HW2 7323   6.852   1.272   0.218
 2142SOL     OW 7324   2.580   1.568   3.343
 2142SOL    HW1 7325   2.578   1.473   3.373
 2142SOL    HW2 7326   2.539   1.575   3.252
 2143SOL     OW 7327   3.865   6.229   6.494
 2143SOL    HW1 7328   3.874   6.216   6.592
 2143SOL    HW2 7329   3.795   6.168   6.458
 2144SOL     OW 7330   0.072   0.864   2.471
 2144SOL    HW1 7331   0.102   0.831   2.561
 2144SOL    HW2 7332   0.144   0.921   2.431
 2145SOL     OW 7333   3.909   5.575   2.952
 2145SOL    HW1 7334   4.003   5.545   2.932
 2145SOL    HW2 7335   3.885   5.548   3.045
 2146SOL     OW 7336   3.864   2.595   1.045
 2146SOL    HW1 7337   3.879   2.578   0.947
 2146SOL    HW2 7338   3.767   2.586   1.066
 2147SOL     OW 7339   6.896   0.922   5.289
 2147SOL    HW1 7340   6.946   0.995   5.242
 2147SOL    HW2 7341   6.797   0.940   5.283
 2148SOL     OW 7342   5.006   2.868   2.631
 2148SOL    HW1 7343   5.073   2.859   2.705
 2148SOL    HW2 7344   4.914   2.875   2.670
 2149SOL     OW 7345   3.467   0.640   3.117
 2149SOL    HW1 7346   3.542   0.590   3.074
 2149SOL    HW2 7347   3.432   0.709   3.053
 2150SOL     OW 7348   3.717   1.205   2.185
 2150SOL    HW1 7349   3.779   1.186   2.261
 2150SOL    HW2 7350   3.695   1.303   2.183
 2151SOL     OW 7351   3.738   2.922   5.887
 2151SOL    HW1 7352   3.763   2.950   5.795
 2151SOL    HW2 7353   3.640   2.904   5.891
 2152SOL     OW 7354   5.934   6.163   1.979
 2152SOL    HW1 7355   5.939   6.250   2.028
 2152SOL    HW2 7356   5.849   6.116   2.003
 2153SOL     OW 7357   4.827   2.389   2.439
 2153SOL    HW1 7358   4.799   2.426   2.527
 2153SOL    HW2 7359   4.874   2.459   2.386
 2154SOL     OW 7360   4.387   5.890   5.176
 2154SOL    HW1 7361   4.479   5.917   5.203
 2154SOL    HW2 7362   4.388   5.856   5.082
 2155SOL     OW 7363   5.714   4.072   6.497
 2155SOL    HW1 7364   5.753   4.141   6.559
 2155SOL    HW2 7365   5.686   4.116   6.411
 2156SOL     OW 7366   0.811   1.082   1.648
 2156SOL    HW1 7367   0.861   1.166   1.627
 2156SOL    HW2 7368   0.818   1.019   1.572
 2157SOL     OW 7369   0.216   1.030   4.564
 2157SOL    HW1 7370   0.133   1.080   4.541
 2157SOL    HW2 7371   0.192   0.937   4.595
 2158SOL     OW 7372   4.451   6.399   2.448
 2158SOL    HW1 7373   4.511   6.337   2.499
 2158SOL    HW2 7374   4.507   6.467   2.400
 2159SOL     OW 7375   1.680   6.583   5.323
 2159SOL    HW1 7376   1.655   6.546   5.412
 2159SOL    HW2 7377   1.770   6.626   5.329
 2160SOL     OW 7378   2.764   3.233   0.811
 2160SOL    HW1 7379   2.755   3.333   0.809
 2160SOL    HW2 7380   2.721   3.197   0.893
 2161SOL     OW 7381   4.904   1.978   3.842
 2161SOL    HW1 7382   4.923   2.075   3.835
 2161SOL    HW2 7383   4.970   1.934   3.902
 2162SOL     OW 7384   1.426   1.308   6.746
 2162SOL    HW1 7385   1.420   1.247   6.825
 2162SOL    HW2 7386   1.477   1.390   6.770
 2163SOL     OW 7387   2.813   2.267   0.579
 2163SOL    HW1 7388   2.844   2.336   0.645
 2163SOL    HW2 7389   2.874   2.267   0.500
 2164SOL     OW 7390   0.884   0.304   1.323
 2164SOL    HW1 7391   0.842   0.332   1.236
 2164SOL    HW2 7392   0.830   0.232   1.365
 2165SOL     OW 7393   2.892   6.932   1.538
 2165SOL    HW1 7394   2.928   7.020   1.569
 2165SOL    HW2 7395   2.794   6.928   1.554
 2166SOL     OW 7396   6.115   2.397   6.150
 2166SOL    HW1 7397   6.065   2.395   6.236
 2166SOL    HW2 7398   6.157   2.487   6.138
 2167SOL     OW 7399   2.708   0.358   1.957
 2167SOL    HW1 7400   2.762   0.274   1.952
 2167SOL    HW2 7401   2.614   0.338   1.926
 2168SOL     OW 7402   6.015   5.689   4.901
 2168SOL    HW1 7403   6.026   5.743   4.984
 2168SOL    HW2 7404   6.041   5.594   4.919
 2169SOL     OW 7405   5.970   2.060   5.038
 2169SOL    HW1 7406   6.032   2.044   5.115
 2169SOL    HW2 7407   5.877   2.072   5.072
 2170SOL     OW 7408   5.609   5.236   4.286
 2170SOL    HW1 7409   5.510   5.236   4.273
 2170SOL    HW2 7410   5.633   5.304   4.355
 2171SOL     OW 7411   6.508   3.047   0.580
 2171SOL    HW1 7412   6.585   3.019   0.638
 2171SOL    HW2 7413   6.541   3.061   0.487
 2172SOL     OW 7414   2.309   0.661   0.688
 2172SOL    HW1 7415   2.394   0.708   0.713
 2172SOL    HW2 7416   2.331   0.578   0.637
 2173SOL     OW 7417   5.312   1.988   4.953
 2173SOL    HW1 7418   5.392   1.978   4.894
 2173SOL    HW2 7419   5.240   1.926   4.922
 2174SOL     OW 7420   1.329   5.079   4.629
 2174SOL    HW1 7421   1.354   5.169   4.593
 2174SOL    HW2 7422   1.258   5.090   4.699
 2175SOL     OW 7423   1.925   6.401   5.378
 2175SOL    HW1 7424   1.982   6.331   5.423
 2175SOL    HW2 7425   1.976   6.487   5.373
 2176SOL     OW 7426   2.175   2.264   2.125
 2176SOL    HW1 7427   2.228   2.264   2.210
 2176SOL    HW2 7428   2.077   2.268   2.147
 2177SOL     OW 7429   6.875   0.925   2.336
 2177SOL    HW1 7430   6.889   0.919   2.237
 2177SOL    HW2 7431   6.954   0.889   2.384
 2178SOL     OW 7432   0.848   5.361   1.086
 2178SOL    HW1 7433   0.787   5.282   1.086
 2178SOL    HW2 7434   0.807   5.436   1.033
 2179SOL     OW 7435   1.201   4.683   4.264
 2179SOL    HW1 7436   1.206   4.670   4.363
 2179SOL    HW2 7437   1.214   4.779   4.242
 2180SOL     OW 7438   4.135   3.197   2.014
 2180SOL    HW1 7439   4.092   3.279   2.054
 2180SOL    HW2 7440   4.219   3.176   2.063
 2181SOL     OW 7441   4.495   6.308   0.636
 2181SOL    HW1 7442   4.532   6.240   0.573
 2181SOL    HW2 7443   4.404   6.280   0.667
 2182SOL     OW 7444   5.415   1.893   0.498
 2182SOL    HW1 7445   5.509   1.860   0.503
 2182SOL    HW2 7446   5.395   1.950   0.578
 2183SOL     OW 7447   2.453   2.691   0.871
 2183SOL    HW1 7448   2.428   2.609   0.923
 2183SOL    HW2 7449   2.388   2.703   0.795
 2184SOL     OW 7450   4.190   2.904   5.916
 2184SOL    HW1 7451   4.261   2.846   5.876
 2184SOL    HW2 7452   4.190   2.993   5.871
 2185SOL     OW 7453   1.210   0.733   1.285
 2185SOL    HW1 7454   1.290   0.677   1.262
 2185SOL    HW2 7455   1.181   0.784   1.204
 2186SOL     OW 7456   6.965   4.981   2.720
 2186SOL    HW1 7457   0.036   5.007   2.693
 2186SOL    HW2 7458   6.953   4.999   2.817
 2187SOL     OW 7459   0.708   1.485   6.413
 2187SOL    HW1 7460   0.630   1.464   6.471
 2187SOL    HW2 7461   0.676   1.509   6.321
 2188SOL     OW 7462   5.372   1.162   3.492
 2188SOL    HW1 7463   5.369   1.260   3.475
 2188SOL    HW2 7464   5.279   1.126   3.497
 2189SOL     OW 7465   3.069   0.328   7.006
 2189SOL    HW1 7466   3.040   0.251   0.042
 2189SOL    HW2 7467   3.083   0.408   0.042
 2190SOL     OW 7468   5.021   1.749   1.240
 2190SOL    HW1 7469   4.929   1.716   1.263
 2190SOL    HW2 7470   5.089   1.699   1.294
 2191SOL     OW 7471   2.953   1.762   6.998
 2191SOL    HW1 7472   2.859   1.740   0.005
 2191SOL    HW2 7473   2.956   1.771   6.898
 2192SOL     OW 7474   3.969   5.279   3.573
 2192SOL    HW1 7475   3.888   5.220   3.580
 2192SOL    HW2 7476   4.002   5.300   3.665
 2193SOL     OW 7477   0.133   5.329   5.853
 2193SOL    HW1 7478   0.168   5.281   5.773
 2193SOL    HW2 7479   0.082   5.266   5.911
 2194SOL     OW 7480   3.427   0.119   1.139
 2194SOL    HW1 7481   3.440   0.209   1.181
 2194SOL    HW2 7482   3.332   0.089   1.153
 2195SOL     OW 7483   1.297   4.849   2.411
 2195SOL    HW1 7484   1.378   4.804   2.450
 2195SOL    HW2 7485   1.322   4.940   2.378
 2196SOL     OW 7486   4.395   2.971   6.623
 2196SOL    HW1 7487   4.423   2.888   6.672
 2196SOL    HW2 7488   4.428   3.052   6.672
 2197SOL     OW 7489   4.346   4.046   0.207
 2197SOL    HW1 7490   4.298   3.996   0.135
 2197SOL    HW2 7491   4.444   4.040   0.193
 2198SOL     OW 7492   6.058   4.453   0.345
 2198SOL    HW1 7493   6.131   4.385   0.356
 2198SOL    HW2 7494   6.087   4.540   0.384
 2199SOL     OW 7495   4.535   0.430   2.111
 2199SOL    HW1 7496   4.531   0.373   2.193
 2199SOL    HW2 7497   4.453   0.487   2.107
 2200SOL     OW 7498   2.163   6.981   4.495
 2200SOL    HW1 7499   2.188   6.885   4.485
 2200SOL    HW2 7500   2.182   0.007   4.409
 2201SOL     OW 7501   4.745   4.084   2.776
 2201SOL    HW1 7502   4.668   4.064   2.836
 2201SOL    HW2 7503   4.802   4.155   2.816
 2202SOL     OW 7504   5.013   5.948   3.784
 2202SOL    HW1 7505   4.982   5.853   3.781
 2202SOL    HW2 7506   4.936   6.007   3.811
 2203SOL     OW 7507   3.531   2.138   2.504
 2203SOL    HW1 7508   3.516   2.235   2.522
 2203SOL    HW2 7509   3.540   2.123   2.405
 2204SOL     OW 7510   2.845   2.990   1.077
 2204SOL    HW1 7511   2.903   2.945   1.146
 2204SOL    HW2 7512   2.889   2.983   0.987
 2205SOL     OW 7513   2.270   0.859   1.270
 2205SOL    HW1 7514   2.315   0.786   1.218
 2205SOL    HW2 7515   2.187   0.888   1.221
 2206SOL     OW 7516   2.038   3.096   0.449
 2206SOL    HW1 7517   1.968   3.121   0.516
 2206SOL    HW2 7518   2.069   3.178   0.400
 2207SOL     OW 7519   0.362   4.524   4.471
 2207SOL    HW1 7520   0.391   4.619   4.456
 2207SOL    HW2 7521   0.340   4.511   4.567
 2208SOL     OW 7522   6.649   4.456   1.765
 2208SOL    HW1 7523   6.560   4.470   1.722
 2208SOL    HW2 7524   6.715   4.522   1.727
 2209SOL     OW 7525   1.353   6.793   1.393
 2209SOL    HW1 7526   1.389   6.873   1.345
 2209SOL    HW2 7527   1.367   6.711   1.338
 2210SOL     OW 7528   1.657   5.300   3.837
 2210SOL    HW1 7529   1.619   5.212   3.808
 2210SOL    HW2 7530   1.676   5.297   3.935
 2211SOL     OW 7531   0.240   1.345   5.433
 2211SOL    HW1 7532   0.223   1.249   5.457
 2211SOL    HW2 7533   0.234   1.402   5.515
 2212SOL     OW 7534   2.023   0.003   6.692
 2212SOL    HW1 7535   1.987   6.978   6.611
 2212SOL    HW2 7536   2.095   6.969   6.734
 2213SOL     OW 7537   3.463   1.256   3.291
 2213SOL    HW1 7538   3.434   1.352   3.289
 2213SOL    HW2 7539   3.409   1.204   3.224
 2214SOL     OW 7540   4.272   0.030   5.567
 2214SOL    HW1 7541   4.179   7.017   5.582
 2214SOL    HW2 7542   4.276   0.127   5.591
 2215SOL     OW 7543   5.639   2.663   5.216
 2215SOL    HW1 7544   5.618   2.670   5.118
 2215SOL    HW2 7545   5.681   2.574   5.234
 2216SOL     OW 7546   2.231   0.503   2.217
 2216SOL    HW1 7547   2.309   0.527   2.160
 2216SOL    HW2 7548   2.155   0.565   2.198
 2217SOL     OW 7549   4.077   0.992   1.975
 2217SOL    HW1 7550   3.989   1.033   1.953
 2217SOL    HW2 7551   4.096   1.002   2.073
 2218SOL     OW 7552   1.371   6.391   2.658
 2218SOL    HW1 7553   1.366   6.478   2.708
 2218SOL    HW2 7554   1.283   6.344   2.665
 2219SOL     OW 7555   1.361   1.879   2.756
 2219SOL    HW1 7556   1.394   1.860   2.663
 2219SOL    HW2 7557   1.434   1.922   2.809
 2220SOL     OW 7558   0.795   0.466   0.866
 2220SOL    HW1 7559   0.888   0.444   0.897
 2220SOL    HW2 7560   0.733   0.391   0.892
 2221SOL     OW 7561   0.668   1.492   7.000
 2221SOL    HW1 7562   0.760   1.494   6.961
 2221SOL    HW2 7563   0.671   1.527   0.072
 2222SOL     OW 7564   6.007   5.781   3.195
 2222SOL    HW1 7565   6.089   5.733   3.225
 2222SOL    HW2 7566   5.941   5.784   3.270
 2223SOL     OW 7567   5.915   5.569   1.324
 2223SOL    HW1 7568   5.997   5.615   1.290
 2223SOL    HW2 7569   5.859   5.634   1.376
 2224SOL     OW 7570   0.946   4.983   2.198
 2224SOL    HW1 7571   1.041   4.955   2.182
 2224SOL    HW2 7572   0.944   5.068   2.250
 2225SOL     OW 7573   0.331   4.606   1.263
 2225SOL    HW1 7574   0.270   4.625   1.340
 2225SOL    HW2 7575   0.336   4.686   1.204
 2226SOL     OW 7576   4.110   3.800   1.375
 2226SOL    HW1 7577   4.038   3.818   1.442
 2226SOL    HW2 7578   4.171   3.730   1.411
 2227SOL     OW 7579   0.453   2.895   4.482
 2227SOL    HW1 7580   0.421   2.927   4.393
 2227SOL    HW2 7581   0.377   2.857   4.534
 2228SOL     OW 7582   2.805   4.978   4.707
 2228SOL    HW1 7583   2.770   4.897   4.753
 2228SOL    HW2 7584   2.749   5.058   4.731
 2229SOL     OW 7585   5.450   0.074   3.003
 2229SOL    HW1 7586   5.422   0.028   3.087
 2229SOL    HW2 7587   5.369   0.095   2.947
 2230SOL     OW 7588   2.746   5.212   0.688
 2230SOL    HW1 7589   2.649   5.198   0.709
 2230SOL    HW2 7590   2.783   5.283   0.748
 2231SOL     OW 7591   2.366   5.647   0.976
 2231SOL    HW1 7592   2.334   5.715   0.910
 2231SOL    HW2 7593   2.399   5.566   0.927
 2232SOL     OW 7594   6.217   3.065   3.879
 2232SOL    HW1 7595   6.193   2.974   3.844
 2232SOL    HW2 7596   6.247   3.058   3.974
 2233SOL     OW 7597   3.016   2.133   6.292
 2233SOL    HW1 7598   3.003   2.065   6.365
 2233SOL    HW2 7599   2.940   2.127   6.227
 2234SOL     OW 7600   3.524   2.148   1.349
 2234SOL    HW1 7601   3.515   2.083   1.424
 2234SOL    HW2 7602   3.541   2.240   1.385
 2235SOL     OW 7603   2.353   1.213   1.233
 2235SOL    HW1 7604   2.364   1.210   1.133
 2235SOL    HW2 7605   2.383   1.127   1.273
 2236SOL     OW 7606   0.098   4.037   5.905
 2236SOL    HW1 7607   0.114   3.949   5.862
 2236SOL    HW2 7608   0.061   4.023   5.997
 2237SOL     OW 7609   6.236   3.088   4.184
 2237SOL    HW1 7610   6.177   3.045   4.253
 2237SOL    HW2 7611   6.251   3.184   4.209
 2238SOL     OW 7612   6.699   6.326   1.553
 2238SOL    HW1 7613   6.796   6.347   1.541
 2238SOL    HW2 7614   6.650   6.345   1.467
 2239SOL     OW 7615   5.239   5.647   2.937
 2239SOL    HW1 7616   5.182   5.727   2.916
 2239SOL    HW2 7617   5.237   5.631   3.036
 2240SOL     OW 7618   5.861   3.560   1.997
 2240SOL    HW1 7619   5.953   3.547   2.035
 2240SOL    HW2 7620   5.862   3.540   1.900
 2241SOL     OW 7621   0.886   0.049   2.441
 2241SOL    HW1 7622   0.968   7.016   2.426
 2241SOL    HW2 7623   0.832   0.053   2.357
 2242SOL     OW 7624   4.380   1.820   2.582
 2242SOL    HW1 7625   4.474   1.837   2.611
 2242SOL    HW2 7626   4.331   1.771   2.654
 2243SOL     OW 7627   2.846   6.150   5.428
 2243SOL    HW1 7628   2.874   6.089   5.502
 2243SOL    HW2 7629   2.766   6.203   5.457
 2244SOL     OW 7630   2.938   0.632   5.138
 2244SOL    HW1 7631   2.981   0.718   5.165
 2244SOL    HW2 7632   3.008   0.569   5.103
 2245SOL     OW 7633   6.938   2.203   2.006
 2245SOL    HW1 7634   6.918   2.292   2.048
 2245SOL    HW2 7635   6.983   2.144   2.074
 2246SOL     OW 7636   1.702   4.729   4.939
 2246SOL    HW1 7637   1.754   4.652   4.975
 2246SOL    HW2 7638   1.621   4.745   4.996
 2247SOL     OW 7639   2.068   1.586   5.035
 2247SOL    HW1 7640   2.036   1.680   5.046
 2247SOL    HW2 7641   2.167   1.587   5.018
 2248SOL     OW 7642   4.484   4.307   5.294
 2248SOL    HW1 7643   4.557   4.291   5.228
 2248SOL    HW2 7644   4.411   4.240   5.280
 2249SOL     OW 7645   4.085   5.435   4.750
 2249SOL    HW1 7646   3.991   5.405   4.768
 2249SOL    HW2 7647   4.097   5.528   4.783
 2250SOL     OW 7648   5.257   5.296   0.894
 2250SOL    HW1 7649   5.233   5.391   0.876
 2250SOL    HW2 7650   5.356   5.285   0.891
 2251SOL     OW 7651   0.115   0.312   6.139
 2251SOL    HW1 7652   0.168   0.279   6.218
 2251SOL    HW2 7653   0.090   0.408   6.153
 2252SOL     OW 7654   3.625   1.284   5.838
 2252SOL    HW1 7655   3.593   1.364   5.786
 2252SOL    HW2 7656   3.725   1.283   5.839
 2253SOL     OW 7657   1.357   2.655   6.269
 2253SOL    HW1 7658   1.348   2.742   6.318
 2253SOL    HW2 7659   1.381   2.674   6.174
 2254SOL     OW 7660   1.551   3.479   5.787
 2254SOL    HW1 7661   1.650   3.467   5.788
 2254SOL    HW2 7662   1.507   3.397   5.750
 2255SOL     OW 7663   5.206   3.471   0.536
 2255SOL    HW1 7664   5.143   3.502   0.607
 2255SOL    HW2 7665   5.263   3.547   0.505
 2256SOL     OW 7666   3.344   4.864   2.078
 2256SOL    HW1 7667   3.388   4.952   2.089
 2256SOL    HW2 7668   3.410   4.798   2.041
 2257SOL     OW 7669   2.131   3.795   3.885
 2257SOL    HW1 7670   2.195   3.869   3.865
 2257SOL    HW2 7671   2.133   3.775   3.983
 2258SOL     OW 7672   2.031   4.768   5.502
 2258SOL    HW1 7673   1.943   4.722   5.509
 2258SOL    HW2 7674   2.037   4.816   5.414
 2259SOL     OW 7675   6.607   2.925   6.309
 2259SOL    HW1 7676   6.570   3.012   6.276
 2259SOL    HW2 7677   6.649   2.938   6.399
 2260SOL     OW 7678   4.644   3.993   0.958
 2260SOL    HW1 7679   4.709   4.026   1.027
 2260SOL    HW2 7680   4.598   3.911   0.992
 2261SOL     OW 7681   3.691   6.532   4.922
 2261SOL    HW1 7682   3.719   6.457   4.982
 2261SOL    HW2 7683   3.596   6.521   4.896
 2262SOL     OW 7684   3.388   1.699   3.107
 2262SOL    HW1 7685   3.471   1.658   3.068
 2262SOL    HW2 7686   3.408   1.791   3.140
 2263SOL     OW 7687   0.078   4.250   5.478
 2263SOL    HW1 7688   7.015   4.299   5.461
 2263SOL    HW2 7689   0.067   4.153   5.456
 2264SOL     OW 7690   3.050   3.975   3.601
 2264SOL    HW1 7691   2.967   4.031   3.603
 2264SOL    HW2 7692   3.051   3.915   3.680
 2265SOL     OW 7693   0.718   6.918   2.791
 2265SOL    HW1 7694   0.626   6.952   2.813
 2265SOL    HW2 7695   0.785   6.965   2.848
 2266SOL     OW 7696   6.190   0.257   6.856
 2266SOL    HW1 7697   6.162   0.229   6.764
 2266SOL    HW2 7698   6.237   0.346   6.851
 2267SOL     OW 7699   5.428   1.496   5.351
 2267SOL    HW1 7700   5.427   1.577   5.410
 2267SOL    HW2 7701   5.493   1.509   5.277
 2268SOL     OW 7702   6.306   4.966   0.153
 2268SOL    HW1 7703   6.384   4.925   0.106
 2268SOL    HW2 7704   6.276   4.905   0.226
 2269SOL     OW 7705   0.421   6.074   3.594
 2269SOL    HW1 7706   0.386   5.982   3.608
 2269SOL    HW2 7707   0.345   6.140   3.598
 2270SOL     OW 7708   4.141   3.447   2.769
 2270SOL    HW1 7709   4.161   3.407   2.680
 2270SOL    HW2 7710   4.106   3.540   2.757
 2271SOL     OW 7711   0.547   4.320   2.617
 2271SOL    HW1 7712   0.478   4.389   2.596
 2271SOL    HW2 7713   0.569   4.268   2.535
 2272SOL     OW 7714   5.191   2.233   6.061
 2272SOL    HW1 7715   5.160   2.328   6.057
 2272SOL    HW2 7716   5.271   2.226   6.121
 2273SOL     OW 7717   0.793   0.690   3.817
 2273SOL    HW1 7718   0.882   0.735   3.830
 2273SOL    HW2 7719   0.789   0.607   3.873
 2274SOL     OW 7720   1.446   3.916   2.991
 2274SOL    HW1 7721   1.517   3.913   2.921
 2274SOL    HW2 7722   1.359   3.942   2.948
 2275SOL     OW 7723   4.633   6.589   3.256
 2275SOL    HW1 7724   4.721   6.633   3.240
 2275SOL    HW2 7725   4.636   6.538   3.342
 2276SOL     OW 7726   3.518   5.409   1.529
 2276SOL    HW1 7727   3.563   5.409   1.618
 2276SOL    HW2 7728   3.498   5.503   1.501
 2277SOL     OW 7729   3.590   3.610   1.214
 2277SOL    HW1 7730   3.541   3.548   1.152
 2277SOL    HW2 7731   3.527   3.641   1.285
 2278SOL     OW 7732   5.005   6.688   1.093
 2278SOL    HW1 7733   5.078   6.630   1.056
 2278SOL    HW2 7734   4.924   6.632   1.110
 2279SOL     OW 7735   5.278   4.087   5.137
 2279SOL    HW1 7736   5.203   4.120   5.080
 2279SOL    HW2 7737   5.344   4.037   5.081
 2280SOL     OW 7738   5.781   6.989   5.846
 2280SOL    HW1 7739   5.806   0.052   5.893
 2280SOL    HW2 7740   5.825   6.911   5.891
 2281SOL     OW 7741   3.478   2.645   0.326
 2281SOL    HW1 7742   3.409   2.652   0.254
 2281SOL    HW2 7743   3.435   2.662   0.415
 2282SOL     OW 7744   4.433   5.794   1.960
 2282SOL    HW1 7745   4.418   5.811   2.057
 2282SOL    HW2 7746   4.346   5.800   1.911
 2283SOL     OW 7747   0.236   3.907   1.955
 2283SOL    HW1 7748   0.270   3.813   1.953
 2283SOL    HW2 7749   0.147   3.911   1.909
 2284SOL     OW 7750   2.633   2.365   2.190
 2284SOL    HW1 7751   2.574   2.289   2.163
 2284SOL    HW2 7752   2.727   2.346   2.163
 2285SOL     OW 7753   1.857   3.633   6.466
 2285SOL    HW1 7754   1.762   3.649   6.493
 2285SOL    HW2 7755   1.883   3.701   6.398
 2286SOL     OW 7756   5.392   6.944   4.417
 2286SOL    HW1 7757   5.420   6.984   4.330
 2286SOL    HW2 7758   5.293   6.955   4.428
 2287SOL     OW 7759   2.322   2.302   1.334
 2287SOL    HW1 7760   2.256   2.251   1.391
 2287SOL    HW2 7761   2.346   2.388   1.379
 2288SOL     OW 7762   1.896   5.621   4.494
 2288SOL    HW1 7763   1.929   5.666   4.411
 2288SOL    HW2 7764   1.895   5.687   4.569
 2289SOL     OW 7765   4.622   1.571   0.041
 2289SOL    HW1 7766   4.589   1.477   0.054
 2289SOL    HW2 7767   4.544   1.631   0.020
 2290SOL     OW 7768   3.278   3.344   3.171
 2290SOL    HW1 7769   3.331   3.376   3.249
 2290SOL    HW2 7770   3.180   3.347   3.193
 2291SOL     OW 7771   1.187   3.159   6.575
 2291SOL    HW1 7772   1.110   3.223   6.569
 2291SOL    HW2 7773   1.202   3.116   6.486
 2292SOL     OW 7774   4.872   1.833   2.596
 2292SOL    HW1 7775   4.781   1.868   2.578
 2292SOL    HW2 7776   4.937   1.909   2.599
 2293SOL     OW 7777   0.598   0.745   0.288
 2293SOL    HW1 7778   0.565   0.732   0.195
 2293SOL    HW2 7779   0.676   0.684   0.304
 2294SOL     OW 7780   6.819   0.967   5.653
 2294SOL    HW1 7781   6.870   1.026   5.591
 2294SOL    HW2 7782   6.779   0.890   5.602
 2295SOL     OW 7783   6.293   5.999   1.018
 2295SOL    HW1 7784   6.220   6.019   0.954
 2295SOL    HW2 7785   6.380   6.035   0.982
 2296SOL     OW 7786   3.592   4.970   4.126
 2296SOL    HW1 7787   3.592   5.054   4.180
 2296SOL    HW2 7788   3.498   4.934   4.120
 2297SOL     OW 7789   5.259   3.989   5.458
 2297SOL    HW1 7790   5.304   3.908   5.420
 2297SOL    HW2 7791   5.222   4.044   5.383
 2298SOL     OW 7792   3.619   4.116   4.332
 2298SOL    HW1 7793   3.703   4.111   4.386
 2298SOL    HW2 7794   3.641   4.140   4.238
 2299SOL     OW 7795   5.749   2.872   4.151
 2299SOL    HW1 7796   5.666   2.924   4.134
 2299SOL    HW2 7797   5.746   2.834   4.244
 2300SOL     OW 7798   5.039   6.880   2.310
 2300SOL    HW1 7799   5.029   6.808   2.378
 2300SOL    HW2 7800   4.955   6.934   2.306
 2301SOL     OW 7801   3.818   3.022   5.156
 2301SOL    HW1 7802   3.867   2.952   5.208
 2301SOL    HW2 7803   3.770   3.084   5.219
 2302SOL     OW 7804   6.354   2.838   5.911
 2302SOL    HW1 7805   6.362   2.740   5.928
 2302SOL    HW2 7806   6.338   2.854   5.813
 2303SOL     OW 7807   2.953   2.732   0.172
 2303SOL    HW1 7808   3.046   2.768   0.181
 2303SOL    HW2 7809   2.949   2.669   0.094
 2304SOL     OW 7810   6.300   6.317   2.356
 2304SOL    HW1 7811   6.271   6.339   2.263
 2304SOL    HW2 7812   6.398   6.298   2.357
 2305SOL     OW 7813   2.896   0.125   4.928
 2305SOL    HW1 7814   2.800   0.132   4.956
 2305SOL    HW2 7815   2.906   0.047   4.865
 2306SOL     OW 7816   1.519   4.949   4.766
 2306SOL    HW1 7817   1.453   4.994   4.706
 2306SOL    HW2 7818   1.532   4.855   4.736
 2307SOL     OW 7819   6.417   3.226   5.441
 2307SOL    HW1 7820   6.336   3.246   5.386
 2307SOL    HW2 7821   6.435   3.303   5.502
 2308SOL     OW 7822   1.329   5.055   1.817
 2308SOL    HW1 7823   1.378   5.088   1.736
 2308SOL    HW2 7824   1.339   4.955   1.824
 2309SOL     OW 7825   2.041   0.116   4.931
 2309SOL    HW1 7826   2.099   0.152   4.858
 2309SOL    HW2 7827   1.947   0.111   4.898
 2310SOL     OW 7828   4.352   0.052   1.020
 2310SOL    HW1 7829   4.342   0.067   0.921
 2310SOL    HW2 7830   4.368   0.140   1.065
 2311SOL     OW 7831   2.363   5.028   1.113
 2311SOL    HW1 7832   2.366   4.929   1.129
 2311SOL    HW2 7833   2.272   5.054   1.083
 2312SOL     OW 7834   3.523   4.980   1.581
 2312SOL    HW1 7835   3.500   4.893   1.623
 2312SOL    HW2 7836   3.527   5.051   1.652
 2313SOL     OW 7837   5.367   5.547   1.201
 2313SOL    HW1 7838   5.316   5.462   1.212
 2313SOL    HW2 7839   5.452   5.529   1.152
 2314SOL     OW 7840   1.986   4.966   4.713
 2314SOL    HW1 7841   2.058   4.933   4.774
 2314SOL    HW2 7842   1.979   5.065   4.721
 2315SOL     OW 7843   4.530   2.569   6.307
 2315SOL    HW1 7844   4.452   2.622   6.273
 2315SOL    HW2 7845   4.497   2.494   6.364
 2316SOL     OW 7846   5.744   3.835   2.047
 2316SOL    HW1 7847   5.791   3.753   2.014
 2316SOL    HW2 7848   5.705   3.817   2.137
 2317SOL     OW 7849   0.328   6.048   3.167
 2317SOL    HW1 7850   0.301   5.976   3.230
 2317SOL    HW2 7851   0.249   6.104   3.144
 2318SOL     OW 7852   6.686   0.783   3.994
 2318SOL    HW1 7853   6.722   0.826   4.077
 2318SOL    HW2 7854   6.596   0.821   3.973
 2319SOL     OW 7855   0.926   5.585   2.614
 2319SOL    HW1 7856   0.856   5.623   2.554
 2319SOL    HW2 7857   0.899   5.494   2.644
 2320SOL     OW 7858   6.686   5.301   5.333
 2320SOL    HW1 7859   6.662   5.305   5.236
 2320SOL    HW2 7860   6.641   5.222   5.375
 2321SOL     OW 7861   3.894   5.015   4.945
 2321SOL    HW1 7862   3.795   5.016   4.961
 2321SOL    HW2 7863   3.919   5.093   4.886
 2322SOL     OW 7864   3.111   0.592   5.554
 2322SOL    HW1 7865   3.061   0.677   5.536
 2322SOL    HW2 7866   3.087   0.525   5.484
 2323SOL     OW 7867   5.429   3.697   2.053
 2323SOL    HW1 7868   5.505   3.633   2.058
 2323SOL    HW2 7869   5.345   3.649   2.027
 2324SOL     OW 7870   6.972   5.153   3.368
 2324SOL    HW1 7871   6.887   5.198   3.397
 2324SOL    HW2 7872   0.011   5.144   3.447
 2325SOL     OW 7873   0.589   2.564   0.723
 2325SOL    HW1 7874   0.605   2.473   0.761
 2325SOL    HW2 7875   0.584   2.558   0.623
 2326SOL     OW 7876   1.455   4.222   0.650
 2326SOL    HW1 7877   1.454   4.122   0.653
 2326SOL    HW2 7878   1.422   4.258   0.737
 2327SOL     OW 7879   5.440   1.950   3.802
 2327SOL    HW1 7880   5.464   1.991   3.714
 2327SOL    HW2 7881   5.523   1.913   3.844
 2328SOL     OW 7882   6.145   6.728   3.745
 2328SOL    HW1 7883   6.130   6.633   3.719
 2328SOL    HW2 7884   6.228   6.735   3.801
 2329SOL     OW 7885   6.763   5.659   3.366
 2329SOL    HW1 7886   6.698   5.599   3.413
 2329SOL    HW2 7887   6.719   5.747   3.347
 2330SOL     OW 7888   0.524   3.395   1.728
 2330SOL    HW1 7889   0.446   3.454   1.706
 2330SOL    HW2 7890   0.492   3.312   1.773
 2331SOL     OW 7891   0.961   4.936   5.984
 2331SOL    HW1 7892   0.885   4.918   6.047
 2331SOL    HW2 7893   1.009   4.850   5.964
 2332SOL     OW 7894   5.268   2.417   4.563
 2332SOL    HW1 7895   5.273   2.354   4.640
 2332SOL    HW2 7896   5.182   2.405   4.515
 2333SOL     OW 7897   2.484   4.555   3.798
 2333SOL    HW1 7898   2.432   4.470   3.790
 2333SOL    HW2 7899   2.475   4.608   3.713
 2334SOL     OW 7900   3.047   0.169   0.642
 2334SOL    HW1 7901   3.043   0.212   0.551
 2334SOL    HW2 7902   3.140   0.140   0.661
 2335SOL     OW 7903   4.564   5.361   4.004
 2335SOL    HW1 7904   4.613   5.433   4.054
 2335SOL    HW2 7905   4.541   5.287   4.067
 2336SOL     OW 7906   4.350   2.267   5.795
 2336SOL    HW1 7907   4.370   2.232   5.703
 2336SOL    HW2 7908   4.252   2.263   5.811
 2337SOL     OW 7909   5.891   0.484   3.912
 2337SOL    HW1 7910   5.914   0.402   3.964
 2337SOL    HW2 7911   5.967   0.508   3.852
 2338SOL     OW 7912   1.196   0.390   6.363
 2338SOL    HW1 7913   1.244   0.380   6.450
 2338SOL    HW2 7914   1.165   0.301   6.331
 2339SOL     OW 7915   4.574   4.721   6.101
 2339SOL    HW1 7916   4.646   4.779   6.139
 2339SOL    HW2 7917   4.579   4.631   6.143
 2340SOL     OW 7918   4.050   5.071   3.093
 2340SOL    HW1 7919   4.060   5.001   3.023
 2340SOL    HW2 7920   4.000   5.033   3.172
 2341SOL     OW 7921   6.067   4.973   6.079
 2341SOL    HW1 7922   6.127   4.969   5.999
 2341SOL    HW2 7923   6.119   5.005   6.159
 2342SOL     OW 7924   6.318   0.147   5.384
 2342SOL    HW1 7925   6.227   0.137   5.424
 2342SOL    HW2 7926   6.387   0.125   5.453
 2343SOL     OW 7927   1.087   6.940   0.592
 2343SOL    HW1 7928   1.116   6.861   0.538
 2343SOL    HW2 7929   1.019   6.993   0.542
 2344SOL     OW 7930   2.442   1.522   3.074
 2344SOL    HW1 7931   2.353   1.566   3.089
 2344SOL    HW2 7932   2.435   1.425   3.096
 2345SOL     OW 7933   1.129   1.585   3.318
 2345SOL    HW1 7934   1.173   1.670   3.289
 2345SOL    HW2 7935   1.144   1.515   3.248
 2346SOL     OW 7936   5.359   3.176   5.429
 2346SOL    HW1 7937   5.440   3.176   5.488
 2346SOL    HW2 7938   5.283   3.218   5.478
 2347SOL     OW 7939   1.223   3.643   0.882
 2347SOL    HW1 7940   1.143   3.626   0.825
 2347SOL    HW2 7941   1.281   3.562   0.883
 2348SOL     OW 7942   2.722   5.422   1.653
 2348SOL    HW1 7943   2.627   5.417   1.622
 2348SOL    HW2 7944   2.774   5.480   1.591
 2349SOL     OW 7945   4.324   4.750   6.002
 2349SOL    HW1 7946   4.262   4.758   6.080
 2349SOL    HW2 7947   4.418   4.747   6.034
 2350SOL     OW 7948   1.819   5.573   5.557
 2350SOL    HW1 7949   1.906   5.605   5.519
 2350SOL    HW2 7950   1.803   5.479   5.529
 2351SOL     OW 7951   2.408   5.490   3.120
 2351SOL    HW1 7952   2.392   5.589   3.119
 2351SOL    HW2 7953   2.323   5.442   3.141
 2352SOL     OW 7954   6.047   3.990   1.689
 2352SOL    HW1 7955   6.116   4.014   1.621
 2352SOL    HW2 7956   5.958   4.025   1.660
 2353SOL     OW 7957   2.758   3.904   6.486
 2353SOL    HW1 7958   2.735   3.807   6.477
 2353SOL    HW2 7959   2.782   3.941   6.396
 2354SOL     OW 7960   3.893   2.420   1.648
 2354SOL    HW1 7961   3.820   2.462   1.703
 2354SOL    HW2 7962   3.931   2.342   1.698
 2355SOL     OW 7963   6.782   1.215   1.352
 2355SOL    HW1 7964   6.779   1.313   1.334
 2355SOL    HW2 7965   6.835   1.170   1.281
 2356SOL     OW 7966   2.541   5.112   3.693
 2356SOL    HW1 7967   2.568   5.019   3.670
 2356SOL    HW2 7968   2.548   5.170   3.612
 2357SOL     OW 7969   6.652   4.427   0.945
 2357SOL    HW1 7970   6.722   4.375   0.995
 2357SOL    HW2 7971   6.681   4.440   0.851
 2358SOL     OW 7972   3.683   1.967   5.380
 2358SOL    HW1 7973   3.725   2.029   5.447
 2358SOL    HW2 7974   3.601   1.926   5.420
 2359SOL     OW 7975   1.713   1.887   5.741
 2359SOL    HW1 7976   1.691   1.891   5.644
 2359SOL    HW2 7977   1.804   1.926   5.756
 2360SOL     OW 7978   3.466   4.771   6.988
 2360SOL    HW1 7979   3.508   4.745   0.053
 2360SOL    HW2 7980   3.520   4.844   6.946
 2361SOL     OW 7981   3.879   5.611   1.698
 2361SOL    HW1 7982   3.861   5.668   1.778
 2361SOL    HW2 7983   3.976   5.612   1.677
 2362SOL     OW 7984   3.763   5.102   3.573
 2362SOL    HW1 7985   3.663   5.111   3.572
 2362SOL    HW2 7986   3.792   5.063   3.660
 2363SOL     OW 7987   1.830   4.013   0.181
 2363SOL    HW1 7988   1.793   4.093   0.227
 2363SOL    HW2 7989   1.884   3.959   0.246
 2364SOL     OW 7990   3.563   1.208   2.811
 2364SOL    HW1 7991   3.613   1.237   2.892
 2364SOL    HW2 7992   3.553   1.285   2.748
 2365SOL     OW 7993   4.971   4.362   3.422
 2365SOL    HW1 7994   5.062   4.342   3.386
 2365SOL    HW2 7995   4.901   4.318   3.364
 2366SOL     OW 7996   2.883   4.733   5.364
 2366SOL    HW1 7997   2.970   4.781   5.361
 2366SOL    HW2 7998   2.890   4.647   5.314
 2367SOL     OW 7999   5.753   5.262   5.983
 2367SOL    HW1 8000   5.832   5.323   5.984
 2367SOL    HW2 8001   5.741   5.222   6.074
 2368SOL     OW 8002   6.149   6.903   4.467
 2368SOL    HW1 8003   6.083   6.931   4.537
 2368SOL    HW2 8004   6.234   6.955   4.478
 2369SOL     OW 8005   3.410   1.904   4.212
 2369SOL    HW1 8006   3.504   1.904   4.248
 2369SOL    HW2 8007   3.345   1.903   4.288
 2370SOL     OW 8008   5.550   2.541   1.810
 2370SOL    HW1 8009   5.492   2.591   1.746
 2370SOL    HW2 8010   5.643   2.576   1.804
 2371SOL     OW 8011   0.797   6.136   2.475
 2371SOL    HW1 8012   0.861   6.092   2.538
 2371SOL    HW2 8013   0.847   6.184   2.404
 2372SOL     OW 8014   6.319   6.423   6.627
 2372SOL    HW1 8015   6.373   6.440   6.710
 2372SOL    HW2 8016   6.246   6.491   6.621
 2373SOL     OW 8017   6.665   5.311   6.536
 2373SOL    HW1 8018   6.690   5.393   6.588
 2373SOL    HW2 8019   6.568   5.292   6.549
 2374SOL     OW 8020   5.758   6.328   2.610
 2374SOL    HW1 8021   5.783   6.286   2.697
 2374SOL    HW2 8022   5.815   6.409   2.594
 2375SOL     OW 8023   1.581   0.407   4.355
 2375SOL    HW1 8024   1.578   0.499   4.394
 2375SOL    HW2 8025   1.543   0.342   4.421
 2376SOL     OW 8026   5.240   1.996   2.727
 2376SOL    HW1 8027   5.324   2.046   2.705
 2376SOL    HW2 8028   5.232   1.987   2.827
 2377SOL     OW 8029   4.860   4.115   5.799
 2377SOL    HW1 8030   4.958   4.094   5.793
 2377SOL    HW2 8031   4.810   4.059   5.733
 2378SOL     OW 8032   0.113   1.092   0.131
 2378SOL    HW1 8033   0.039   1.144   0.089
 2378SOL    HW2 8034   0.198   1.108   0.081
 2379SOL     OW 8035   6.472   5.405   2.442
 2379SOL    HW1 8036   6.527   5.323   2.429
 2379SOL    HW2 8037   6.436   5.407   2.535
 2380SOL     OW 8038   4.941   5.715   6.037
 2380SOL    HW1 8039   4.891   5.791   5.994
 2380SOL    HW2 8040   4.909   5.628   6.000
 2381SOL     OW 8041   2.237   4.750   4.517
 2381SOL    HW1 8042   2.271   4.658   4.540
 2381SOL    HW2 8043   2.306   4.818   4.543
 2382SOL     OW 8044   6.990   5.614   2.791
 2382SOL    HW1 8045   6.991   5.515   2.781
 2382SOL    HW2 8046   6.917   5.653   2.734
 2383SOL     OW 8047   4.968   4.750   5.707
 2383SOL    HW1 8048   5.059   4.788   5.728
 2383SOL    HW2 8049   4.907   4.765   5.784
 2384SOL     OW 8050   0.048   1.859   3.084
 2384SOL    HW1 8051   0.062   1.760   3.083
 2384SOL    HW2 8052   6.977   1.880   3.054
 2385SOL     OW 8053   0.676   1.374   0.974
 2385SOL    HW1 8054   0.696   1.279   0.998
 2385SOL    HW2 8055   0.591   1.378   0.922
 2386SOL     OW 8056   6.128   6.102   4.875
 2386SOL    HW1 8057   6.149   6.176   4.811
 2386SOL    HW2 8058   6.211   6.077   4.925
 2387SOL     OW 8059   0.661   1.320   3.791
 2387SOL    HW1 8060   0.718   1.255   3.740
 2387SOL    HW2 8061   0.713   1.405   3.805
 2388SOL     OW 8062   0.287   2.872   5.525
 2388SOL    HW1 8063   0.287   2.860   5.624
 2388SOL    HW2 8064   0.241   2.958   5.502
 2389SOL     OW 8065   4.087   4.950   3.688
 2389SOL    HW1 8066   4.111   4.929   3.593
 2389SOL    HW2 8067   4.130   5.036   3.715
 2390SOL     OW 8068   5.085   2.979   6.151
 2390SOL    HW1 8069   5.137   3.002   6.069
 2390SOL    HW2 8070   5.065   2.881   6.151
 2391SOL     OW 8071   3.319   4.026   6.046
 2391SOL    HW1 8072   3.294   4.122   6.059
 2391SOL    HW2 8073   3.296   3.998   5.952
 2392SOL     OW 8074   4.615   4.183   5.524
 2392SOL    HW1 8075   4.582   4.227   5.608
 2392SOL    HW2 8076   4.585   4.236   5.445
 2393SOL     OW 8077   4.288   4.340   1.273
 2393SOL    HW1 8078   4.370   4.397   1.265
 2393SOL    HW2 8079   4.293   4.265   1.207
 2394SOL     OW 8080   0.315   2.123   3.624
 2394SOL    HW1 8081   0.276   2.118   3.533
 2394SOL    HW2 8082   0.311   2.033   3.667
 2395SOL     OW 8083   1.250   2.598   4.600
 2395SOL    HW1 8084   1.311   2.573   4.525
 2395SOL    HW2 8085   1.289   2.674   4.651
 2396SOL     OW 8086   0.731   0.634   5.919
 2396SOL    HW1 8087   0.792   0.632   5.839
 2396SOL    HW2 8088   0.663   0.561   5.910
 2397SOL     OW 8089   0.142   3.935   4.673
 2397SOL    HW1 8090   0.055   3.983   4.664
 2397SOL    HW2 8091   0.125   3.838   4.693
 2398SOL     OW 8092   3.686   6.726   4.079
 2398SOL    HW1 8093   3.720   6.668   4.006
 2398SOL    HW2 8094   3.593   6.755   4.058
 2399SOL     OW 8095   3.398   2.036   3.345
 2399SOL    HW1 8096   3.481   2.052   3.291
 2399SOL    HW2 8097   3.323   2.093   3.309
 2400SOL     OW 8098   1.735   4.202   0.607
 2400SOL    HW1 8099   1.637   4.221   0.615
 2400SOL    HW2 8100   1.766   4.150   0.686
 2401SOL     OW 8101   1.344   0.339   6.570
 2401SOL    HW1 8102   1.303   0.357   6.659
 2401SOL    HW2 8103   1.404   0.259   6.576
 2402SOL     OW 8104   1.126   4.206   2.090
 2402SOL    HW1 8105   1.191   4.173   2.159
 2402SOL    HW2 8106   1.035   4.167   2.109
 2403SOL     OW 8107   4.011   3.834   4.291
 2403SOL    HW1 8108   3.923   3.792   4.266
 2403SOL    HW2 8109   4.076   3.762   4.314
 2404SOL     OW 8110   6.208   1.205   1.030
 2404SOL    HW1 8111   6.168   1.244   0.947
 2404SOL    HW2 8112   6.273   1.133   1.006
 2405SOL     OW 8113   1.661   3.271   0.746
 2405SOL    HW1 8114   1.708   3.358   0.728
 2405SOL    HW2 8115   1.639   3.264   0.843
 2406SOL     OW 8116   2.619   6.191   4.550
 2406SOL    HW1 8117   2.641   6.171   4.454
 2406SOL    HW2 8118   2.690   6.249   4.589
 2407SOL     OW 8119   2.506   0.988   3.164
 2407SOL    HW1 8120   2.469   0.973   3.255
 2407SOL    HW2 8121   2.600   0.953   3.160
 2408SOL     OW 8122   3.065   6.322   5.565
 2408SOL    HW1 8123   2.996   6.290   5.500
 2408SOL    HW2 8124   3.021   6.380   5.633
 2409SOL     OW 8125   0.975   3.571   0.233
 2409SOL    HW1 8126   1.017   3.488   0.196
 2409SOL    HW2 8127   0.973   3.642   0.163
 2410SOL     OW 8128   0.654   2.705   4.428
 2410SOL    HW1 8129   0.611   2.791   4.458
 2410SOL    HW2 8130   0.586   2.633   4.425
 2411SOL     OW 8131   3.368   2.025   0.087
 2411SOL    HW1 8132   3.314   1.975   0.154
 2411SOL    HW2 8133   3.417   2.100   0.132
 2412SOL     OW 8134   3.054   1.758   5.747
 2412SOL    HW1 8135   3.015   1.836   5.699
 2412SOL    HW2 8136   3.041   1.768   5.845
 2413SOL     OW 8137   0.224   3.206   0.302
 2413SOL    HW1 8138   0.152   3.146   0.335
 2413SOL    HW2 8139   0.304   3.199   0.362
 2414SOL     OW 8140   6.370   1.858   5.110
 2414SOL    HW1 8141   6.459   1.820   5.138
 2414SOL    HW2 8142   6.384   1.924   5.036
 2415SOL     OW 8143   2.677   5.126   6.612
 2415SOL    HW1 8144   2.748   5.186   6.576
 2415SOL    HW2 8145   2.670   5.137   6.711
 2416SOL     OW 8146   0.077   3.279   2.748
 2416SOL    HW1 8147   0.037   3.188   2.753
 2416SOL    HW2 8148   0.029   3.333   2.680
 2417SOL     OW 8149   3.077   2.599   1.717
 2417SOL    HW1 8150   3.150   2.567   1.655
 2417SOL    HW2 8151   3.023   2.520   1.747
 2418SOL     OW 8152   5.041   3.943   6.804
 2418SOL    HW1 8153   5.109   3.954   6.731
 2418SOL    HW2 8154   5.070   3.995   6.884
 2419SOL     OW 8155   2.773   0.296   3.570
 2419SOL    HW1 8156   2.748   0.306   3.474
 2419SOL    HW2 8157   2.872   0.303   3.580
 2420SOL     OW 8158   1.560   4.131   2.556
 2420SOL    HW1 8159   1.591   4.213   2.605
 2420SOL    HW2 8160   1.632   4.062   2.558
 2421SOL     OW 8161   3.238   6.922   3.206
 2421SOL    HW1 8162   3.173   6.994   3.183
 2421SOL    HW2 8163   3.289   6.895   3.124
 2422SOL     OW 8164   4.529   5.445   1.068
 2422SOL    HW1 8165   4.435   5.479   1.075
 2422SOL    HW2 8166   4.593   5.518   1.093
 2423SOL     OW 8167   2.134   5.732   2.766
 2423SOL    HW1 8168   2.233   5.714   2.763
 2423SOL    HW2 8169   2.119   5.829   2.782
 2424SOL     OW 8170   5.340   6.943   6.569
 2424SOL    HW1 8171   5.272   6.941   6.643
 2424SOL    HW2 8172   5.430   6.963   6.607
 2425SOL     OW 8173   4.850   5.620   4.602
 2425SOL    HW1 8174   4.871   5.580   4.692
 2425SOL    HW2 8175   4.864   5.719   4.606
 2426SOL     OW 8176   1.968   2.868   5.512
 2426SOL    HW1 8177   2.025   2.886   5.432
 2426SOL    HW2 8178   2.002   2.787   5.560
 2427SOL     OW 8179   5.745   0.712   0.427
 2427SOL    HW1 8180   5.786   0.803   0.435
 2427SOL    HW2 8181   5.664   0.707   0.486
 2428SOL     OW 8182   0.622   0.962   3.267
 2428SOL    HW1 8183   0.691   0.929   3.203
 2428SOL    HW2 8184   0.666   1.012   3.341
 2429SOL     OW 8185   5.376   4.814   1.332
 2429SOL    HW1 8186   5.383   4.891   1.397
 2429SOL    HW2 8187   5.408   4.730   1.376
 2430SOL     OW 8188   6.294   0.768   6.575
 2430SOL    HW1 8189   6.234   0.817   6.639
 2430SOL    HW2 8190   6.282   0.669   6.587
 2431SOL     OW 8191   0.788   3.337   1.722
 2431SOL    HW1 8192   0.694   3.369   1.729
 2431SOL    HW2 8193   0.792   3.256   1.663
 2432SOL     OW 8194   2.517   5.165   1.845
 2432SOL    HW1 8195   2.604   5.165   1.795
 2432SOL    HW2 8196   2.497   5.073   1.879
 2433SOL     OW 8197   6.831   4.199   5.622
 2433SOL    HW1 8198   6.827   4.170   5.527
 2433SOL    HW2 8199   6.740   4.191   5.663
 2434SOL     OW 8200   4.261   0.516   2.251
 2434SOL    HW1 8201   4.182   0.573   2.228
 2434SOL    HW2 8202   4.243   0.421   2.224
 2435SOL     OW 8203   6.236   7.019   6.942
 2435SOL    HW1 8204   6.205   0.092   6.940
 2435SOL    HW2 8205   6.157   6.958   6.943
 2436SOL     OW 8206   1.412   2.060   1.592
 2436SOL    HW1 8207   1.427   2.130   1.662
 2436SOL    HW2 8208   1.331   2.084   1.538
 2437SOL     OW 8209   0.075   4.329   3.177
 2437SOL    HW1 8210   0.148   4.396   3.180
 2437SOL    HW2 8211   0.079   4.279   3.091
 2438SOL     OW 8212   3.411   1.168   4.548
 2438SOL    HW1 8213   3.330   1.223   4.527
 2438SOL    HW2 8214   3.419   1.094   4.482
 2439SOL     OW 8215   1.485   6.157   1.545
 2439SOL    HW1 8216   1.387   6.149   1.562
 2439SOL    HW2 8217   1.535   6.106   1.615
 2440SOL     OW 8218   5.632   0.939   5.217
 2440SOL    HW1 8219   5.582   0.857   5.191
 2440SOL    HW2 8220   5.584   0.986   5.291
 2441SOL     OW 8221   6.321   0.386   0.185
 2441SOL    HW1 8222   6.345   0.292   0.163
 2441SOL    HW2 8223   6.241   0.388   0.245
 2442SOL     OW 8224   5.462   3.178   1.255
 2442SOL    HW1 8225   5.516   3.147   1.333
 2442SOL    HW2 8226   5.475   3.116   1.178
 2443SOL     OW 8227   1.219   3.111   2.293
 2443SOL    HW1 8228   1.183   3.198   2.328
 2443SOL    HW2 8229   1.317   3.106   2.314
 2444SOL     OW 8230   3.131   5.735   2.358
 2444SOL    HW1 8231   3.089   5.645   2.352
 2444SOL    HW2 8232   3.068   5.804   2.321
 2445SOL     OW 8233   0.568   2.863   1.487
 2445SOL    HW1 8234   0.523   2.869   1.576
 2445SOL    HW2 8235   0.666   2.847   1.500
 2446SOL     OW 8236   1.358   5.391   1.804
 2446SOL    HW1 8237   1.261   5.413   1.795
 2446SOL    HW2 8238   1.374   5.341   1.889
 2447SOL     OW 8239   2.279   6.784   7.008
 2447SOL    HW1 8240   2.328   6.697   6.994
 2447SOL    HW2 8241   2.335   6.859   6.973
 2448SOL     OW 8242   5.341   1.301   4.343
 2448SOL    HW1 8243   5.358   1.300   4.441
 2448SOL    HW2 8244   5.274   1.230   4.320
 2449SOL     OW 8245   1.476   4.128   1.900
 2449SOL    HW1 8246   1.553   4.068   1.878
 2449SOL    HW2 8247   1.466   4.135   1.999
 2450SOL     OW 8248   1.266   6.679   5.968
 2450SOL    HW1 8249   1.271   6.613   6.043
 2450SOL    HW2 8250   1.199   6.750   5.991
 2451SOL     OW 8251   0.682   6.186   5.008
 2451SOL    HW1 8252   0.710   6.142   4.923
 2451SOL    HW2 8253   0.613   6.131   5.054
 2452SOL     OW 8254   2.013   2.289   3.488
 2452SOL    HW1 8255   2.098   2.249   3.524
 2452SOL    HW2 8256   1.989   2.245   3.402
 2453SOL     OW 8257   0.464   0.746   5.876
 2453SOL    HW1 8258   0.529   0.673   5.896
 2453SOL    HW2 8259   0.512   0.825   5.837
 2454SOL     OW 8260   3.704   5.610   1.036
 2454SOL    HW1 8261   3.790   5.570   1.004
 2454SOL    HW2 8262   3.658   5.654   0.959
 2455SOL     OW 8263   4.080   2.572   0.614
 2455SOL    HW1 8264   4.153   2.634   0.643
 2455SOL    HW2 8265   4.118   2.482   0.594
 2456SOL     OW 8266   0.633   3.975   6.682
 2456SOL    HW1 8267   0.620   3.935   6.591
 2456SOL    HW2 8268   0.628   4.074   6.675
 2457SOL     OW 8269   4.828   2.132   4.896
 2457SOL    HW1 8270   4.911   2.182   4.872
 2457SOL    HW2 8271   4.765   2.193   4.943
 2458SOL     OW 8272   0.727   0.510   2.122
 2458SOL    HW1 8273   0.666   0.582   2.090
 2458SOL    HW2 8274   0.703   0.486   2.216
 2459SOL     OW 8275   2.957   0.082   0.088
 2459SOL    HW1 8276   3.012   0.003   0.118
 2459SOL    HW2 8277   2.861   0.057   0.085
 2460SOL     OW 8278   1.291   0.896   4.851
 2460SOL    HW1 8279   1.281   0.992   4.825
 2460SOL    HW2 8280   1.224   0.873   4.921
 2461SOL     OW 8281   4.462   6.876   3.434
 2461SOL    HW1 8282   4.450   6.895   3.531
 2461SOL    HW2 8283   4.411   6.793   3.410
 2462SOL     OW 8284   0.065   3.991   0.335
 2462SOL    HW1 8285   7.006   3.939   0.365
 2462SOL    HW2 8286   0.148   3.944   0.365
 2463SOL     OW 8287   0.195   0.438   0.281
 2463SOL    HW1 8288   0.290   0.425   0.255
 2463SOL    HW2 8289   0.163   0.528   0.251
 2464SOL     OW 8290   0.862   3.049   3.729
 2464SOL    HW1 8291   0.851   3.130   3.787
 2464SOL    HW2 8292   0.956   3.045   3.694
 2465SOL     OW 8293   0.238   6.467   5.869
 2465SOL    HW1 8294   0.212   6.507   5.957
 2465SOL    HW2 8295   0.295   6.531   5.818
 2466SOL     OW 8296   0.373   2.201   2.058
 2466SOL    HW1 8297   0.296   2.188   2.120
 2466SOL    HW2 8298   0.372   2.294   2.022
 2467SOL     OW 8299   5.836   2.052   5.419
 2467SOL    HW1 8300   5.771   2.072   5.493
 2467SOL    HW2 8301   5.790   2.063   5.331
 2468SOL     OW 8302   3.284   6.562   5.371
 2468SOL    HW1 8303   3.360   6.546   5.434
 2468SOL    HW2 8304   3.237   6.647   5.397
 2469SOL     OW 8305   3.531   2.107   5.944
 2469SOL    HW1 8306   3.536   2.202   5.975
 2469SOL    HW2 8307   3.556   2.047   6.019
 2470SOL     OW 8308   2.938   4.399   6.141
 2470SOL    HW1 8309   2.844   4.427   6.166
 2470SOL    HW2 8310   2.991   4.481   6.118
 2471SOL     OW 8311   2.946   5.934   2.312
 2471SOL    HW1 8312   2.981   6.005   2.250
 2471SOL    HW2 8313   2.850   5.917   2.291
 2472SOL     OW 8314   4.554   1.425   3.611
 2472SOL    HW1 8315   4.593   1.517   3.609
 2472SOL    HW2 8316   4.548   1.389   3.517
 2473SOL     OW 8317   0.536   4.118   5.038
 2473SOL    HW1 8318   0.491   4.029   5.036
 2473SOL    HW2 8319   0.627   4.111   4.997
 2474SOL     OW 8320   1.591   6.023   1.817
 2474SOL    HW1 8321   1.655   6.093   1.848
 2474SOL    HW2 8322   1.641   5.945   1.781
 2475SOL     OW 8323   5.145   1.074   1.149
 2475SOL    HW1 8324   5.070   1.115   1.097
 2475SOL    HW2 8325   5.229   1.075   1.094
 2476SOL     OW 8326   5.375   0.635   6.933
 2476SOL    HW1 8327   5.368   0.662   6.837
 2476SOL    HW2 8328   5.399   0.715   6.988
 2477SOL     OW 8329   3.698   0.198   3.539
 2477SOL    HW1 8330   3.763   0.271   3.518
 2477SOL    HW2 8331   3.748   0.111   3.547
 2478SOL     OW 8332   4.279   0.046   4.040
 2478SOL    HW1 8333   4.186   0.017   4.064
 2478SOL    HW2 8334   4.330   6.990   4.005
 2479SOL     OW 8335   6.162   3.093   6.835
 2479SOL    HW1 8336   6.170   3.175   6.892
 2479SOL    HW2 8337   6.091   3.108   6.766
 2480SOL     OW 8338   3.410   2.675   1.758
 2480SOL    HW1 8339   3.434   2.764   1.721
 2480SOL    HW2 8340   3.361   2.622   1.688
 2481SOL     OW 8341   3.592   0.431   0.967
 2481SOL    HW1 8342   3.680   0.391   0.942
 2481SOL    HW2 8343   3.520   0.363   0.957
 2482SOL     OW 8344   5.839   3.134   6.441
 2482SOL    HW1 8345   5.819   3.062   6.374
 2482SOL    HW2 8346   5.905   3.198   6.401
 2483SOL     OW 8347   0.862   2.546   0.406
 2483SOL    HW1 8348   0.853   2.551   0.306
 2483SOL    HW2 8349   0.943   2.597   0.434
 2484SOL     OW 8350   5.044   1.376   1.310
 2484SOL    HW1 8351   5.009   1.293   1.354
 2484SOL    HW2 8352   5.008   1.457   1.356
 2485SOL     OW 8353   6.513   2.173   6.016
 2485SOL    HW1 8354   6.461   2.092   5.989
 2485SOL    HW2 8355   6.462   2.225   6.085
 2486SOL     OW 8356   6.806   4.083   5.386
 2486SOL    HW1 8357   6.743   4.010   5.361
 2486SOL    HW2 8358   6.825   4.139   5.305
 2487SOL     OW 8359   4.893   5.826   6.967
 2487SOL    HW1 8360   4.939   5.882   0.015
 2487SOL    HW2 8361   4.936   5.736   6.964
 2488SOL     OW 8362   6.905   3.823   1.207
 2488SOL    HW1 8363   6.947   3.913   1.210
 2488SOL    HW2 8364   6.805   3.832   1.215
 2489SOL     OW 8365   0.268   6.508   4.159
 2489SOL    HW1 8366   0.195   6.571   4.185
 2489SOL    HW2 8367   0.353   6.535   4.205
 2490SOL     OW 8368   2.804   6.267   2.249
 2490SOL    HW1 8369   2.746   6.201   2.296
 2490SOL    HW2 8370   2.753   6.309   2.174
 2491SOL     OW 8371   3.634   4.671   1.521
 2491SOL    HW1 8372   3.584   4.627   1.446
 2491SOL    HW2 8373   3.569   4.712   1.585
 2492SOL     OW 8374   6.939   4.426   1.155
 2492SOL    HW1 8375   0.010   4.420   1.192
 2492SOL    HW2 8376   6.936   4.388   1.063
 2493SOL     OW 8377   6.611   6.677   1.563
 2493SOL    HW1 8378   6.518   6.655   1.533
 2493SOL    HW2 8379   6.675   6.652   1.490
 2494SOL     OW 8380   6.166   3.567   2.100
 2494SOL    HW1 8381   6.248   3.511   2.097
 2494SOL    HW2 8382   6.178   3.648   2.043
 2495SOL     OW 8383   6.256   4.876   4.390
 2495SOL    HW1 8384   6.349   4.858   4.420
 2495SOL    HW2 8385   6.245   4.845   4.295
 2496SOL     OW 8386   6.262   5.120   6.510
 2496SOL    HW1 8387   6.324   5.057   6.558
 2496SOL    HW2 8388   6.266   5.210   6.554
 2497SOL     OW 8389   0.351   0.016   2.096
 2497SOL    HW1 8390   0.330   0.034   2.193
 2497SOL    HW2 8391   0.270   0.033   2.041
 2498SOL     OW 8392   1.819   3.487   5.787
 2498SOL    HW1 8393   1.863   3.561   5.838
 2498SOL    HW2 8394   1.862   3.400   5.811
 2499SOL     OW 8395   6.995   3.319   1.612
 2499SOL    HW1 8396   7.005   3.346   1.708
 2499SOL    HW2 8397   0.062   3.326   1.566
 2500SOL     OW 8398   4.035   4.154   6.850
 2500SOL    HW1 8399   4.055   4.236   6.903
 2500SOL    HW2 8400   3.967   4.098   6.899
 2501SOL     OW 8401   6.107   5.913   0.289
 2501SOL    HW1 8402   6.088   5.832   0.232
 2501SOL    HW2 8403   6.115   5.994   0.230
 2502SOL     OW 8404   2.843   5.531   4.645
 2502SOL    HW1 8405   2.762   5.483   4.612
 2502SOL    HW2 8406   2.814   5.617   4.688
 2503SOL     OW 8407   2.416   6.467   5.858
 2503SOL    HW1 8408   2.450   6.494   5.768
 2503SOL    HW2 8409   2.412   6.367   5.864
 2504SOL     OW 8410   3.233   5.489   2.653
 2504SOL    HW1 8411   3.153   5.433   2.633
 2504SOL    HW2 8412   3.207   5.586   2.653
 2505SOL     OW 8413   0.165   5.787   2.847
 2505SOL    HW1 8414   0.260   5.758   2.854
 2505SOL    HW2 8415   0.107   5.708   2.828
 2506SOL     OW 8416   5.002   5.526   5.734
 2506SOL    HW1 8417   4.929   5.523   5.803
 2506SOL    HW2 8418   4.962   5.547   5.645
 2507SOL     OW 8419   6.989   3.576   0.410
 2507SOL    HW1 8420   6.985   3.520   0.492
 2507SOL    HW2 8421   6.997   3.517   0.330
 2508SOL     OW 8422   4.194   1.947   3.784
 2508SOL    HW1 8423   4.139   1.914   3.861
 2508SOL    HW2 8424   4.147   1.927   3.699
 2509SOL     OW 8425   0.117   3.765   5.820
 2509SOL    HW1 8426   0.120   3.766   5.720
 2509SOL    HW2 8427   0.024   3.745   5.851
 2510SOL     OW 8428   3.187   4.073   1.887
 2510SOL    HW1 8429   3.262   4.138   1.878
 2510SOL    HW2 8430   3.153   4.048   1.797
 2511SOL     OW 8431   2.196   0.700   5.123
 2511SOL    HW1 8432   2.267   0.674   5.188
 2511SOL    HW2 8433   2.223   0.672   5.031
 2512SOL     OW 8434   3.716   4.923   4.732
 2512SOL    HW1 8435   3.751   4.837   4.768
 2512SOL    HW2 8436   3.791   4.988   4.719
 2513SOL     OW 8437   2.195   6.141   6.100
 2513SOL    HW1 8438   2.268   6.076   6.075
 2513SOL    HW2 8439   2.138   6.101   6.171
 2514SOL     OW 8440   1.044   2.997   3.318
 2514SOL    HW1 8441   1.084   3.088   3.322
 2514SOL    HW2 8442   1.040   2.959   3.411
 2515SOL     OW 8443   1.658   1.542   1.573
 2515SOL    HW1 8444   1.724   1.578   1.639
 2515SOL    HW2 8445   1.598   1.475   1.618
 2516SOL     OW 8446   5.601   1.635   3.460
 2516SOL    HW1 8447   5.528   1.662   3.522
 2516SOL    HW2 8448   5.636   1.544   3.487
 2517SOL     OW 8449   1.146   1.151   4.408
 2517SOL    HW1 8450   1.169   1.218   4.338
 2517SOL    HW2 8451   1.142   1.195   4.498
 2518SOL     OW 8452   2.836   4.353   0.831
 2518SOL    HW1 8453   2.891   4.275   0.804
 2518SOL    HW2 8454   2.744   4.323   0.856
 2519SOL     OW 8455   1.850   1.255   0.657
 2519SOL    HW1 8456   1.911   1.244   0.578
 2519SOL    HW2 8457   1.836   1.353   0.675
 2520SOL     OW 8458   3.608   2.562   1.132
 2520SOL    HW1 8459   3.642   2.469   1.141
 2520SOL    HW2 8460   3.609   2.608   1.221
 2521SOL     OW 8461   4.607   1.619   5.374
 2521SOL    HW1 8462   4.583   1.713   5.398
 2521SOL    HW2 8463   4.658   1.619   5.288
 2522SOL     OW 8464   0.482   1.836   5.389
 2522SOL    HW1 8465   0.507   1.925   5.427
 2522SOL    HW2 8466   0.495   1.765   5.458
 2523SOL     OW 8467   1.587   4.899   0.077
 2523SOL    HW1 8468   1.611   4.971   0.142
 2523SOL    HW2 8469   1.510   4.846   0.113
 2524SOL     OW 8470   1.404   6.634   3.871
 2524SOL    HW1 8471   1.325   6.671   3.919
 2524SOL    HW2 8472   1.374   6.567   3.803
 2525SOL     OW 8473   0.138   2.240   4.083
 2525SOL    HW1 8474   0.235   2.221   4.066
 2525SOL    HW2 8475   0.103   2.302   4.013
 2526SOL     OW 8476   1.180   6.460   0.567
 2526SOL    HW1 8477   1.124   6.387   0.528
 2526SOL    HW2 8478   1.274   6.428   0.577
 2527SOL     OW 8479   5.252   5.536   6.720
 2527SOL    HW1 8480   5.249   5.506   6.624
 2527SOL    HW2 8481   5.341   5.514   6.759
 2528SOL     OW 8482   4.830   5.050   6.736
 2528SOL    HW1 8483   4.840   4.985   6.661
 2528SOL    HW2 8484   4.752   5.023   6.793
 2529SOL     OW 8485   0.564   0.142   6.037
 2529SOL    HW1 8486   0.605   0.125   6.126
 2529SOL    HW2 8487   0.569   0.058   5.982
 2530SOL     OW 8488   2.410   6.062   5.492
 2530SOL    HW1 8489   2.399   6.117   5.409
 2530SOL    HW2 8490   2.459   5.978   5.470
 2531SOL     OW 8491   6.426   5.265   6.091
 2531SOL    HW1 8492   6.520   5.287   6.117
 2531SOL    HW2 8493   6.418   5.267   5.991
 2532SOL     OW 8494   0.390   6.934   0.882
 2532SOL    HW1 8495   0.450   6.938   0.802
 2532SOL    HW2 8496   0.433   6.982   0.958
 2533SOL     OW 8497   5.322   0.739   3.058
 2533SOL    HW1 8498   5.302   0.651   3.101
 2533SOL    HW2 8499   5.415   0.738   3.020
 2534SOL     OW 8500   4.869   1.718   2.047
 2534SOL    HW1 8501   4.857   1.785   2.120
 2534SOL    HW2 8502   4.789   1.659   2.041
 2535SOL     OW 8503   3.640   2.730   6.300
 2535SOL    HW1 8504   3.606   2.732   6.394
 2535SOL    HW2 8505   3.733   2.693   6.299
 2536SOL     OW 8506   1.385   0.647   6.831
 2536SOL    HW1 8507   1.347   0.698   6.908
 2536SOL    HW2 8508   1.482   0.668   6.822
 2537SOL     OW 8509   4.282   1.248   0.189
 2537SOL    HW1 8510   4.216   1.260   0.264
 2537SOL    HW2 8511   4.247   1.180   0.125
 2538SOL     OW 8512   6.831   3.459   3.911
 2538SOL    HW1 8513   6.862   3.552   3.891
 2538SOL    HW2 8514   6.827   3.446   4.010
 2539SOL     OW 8515   5.206   1.333   4.809
 2539SOL    HW1 8516   5.115   1.350   4.772
 2539SOL    HW2 8517   5.273   1.333   4.735
 2540SOL     OW 8518   3.616   1.486   2.330
 2540SOL    HW1 8519   3.572   1.576   2.333
 2540SOL    HW2 8520   3.553   1.419   2.292
 2541SOL     OW 8521   3.754   6.116   5.315
 2541SOL    HW1 8522   3.831   6.149   5.368
 2541SOL    HW2 8523   3.699   6.053   5.370
 2542SOL     OW 8524   1.121   4.715   0.096
 2542SOL    HW1 8525   1.088   4.805   0.068
 2542SOL    HW2 8526   1.214   4.723   0.131
 2543SOL     OW 8527   1.395   1.689   4.341
 2543SOL    HW1 8528   1.361   1.760   4.403
 2543SOL    HW2 8529   1.421   1.732   4.254
 2544SOL     OW 8530   0.967   5.478   0.633
 2544SOL    HW1 8531   1.023   5.406   0.673
 2544SOL    HW2 8532   1.005   5.567   0.658
 2545SOL     OW 8533   2.079   5.961   3.137
 2545SOL    HW1 8534   1.995   5.966   3.084
 2545SOL    HW2 8535   2.120   6.053   3.143
 2546SOL     OW 8536   6.166   1.925   1.078
 2546SOL    HW1 8537   6.201   1.959   1.166
 2546SOL    HW2 8538   6.098   1.990   1.043
 2547SOL     OW 8539   0.130   3.983   5.322
 2547SOL    HW1 8540   0.118   4.072   5.278
 2547SOL    HW2 8541   0.050   3.926   5.304
 2548SOL     OW 8542   0.332   6.561   3.862
 2548SOL    HW1 8543   0.425   6.564   3.826
 2548SOL    HW2 8544   0.313   6.645   3.913
 2549SOL     OW 8545   0.514   1.123   1.594
 2549SOL    HW1 8546   0.587   1.069   1.636
 2549SOL    HW2 8547   0.427   1.100   1.636
 2550SOL     OW 8548   6.252   6.276   0.504
 2550SOL    HW1 8549   6.305   6.265   0.420
 2550SOL    HW2 8550   6.301   6.339   0.565
 2551SOL     OW 8551   2.075   4.136   6.520
 2551SOL    HW1 8552   2.111   4.186   6.599
 2551SOL    HW2 8553   1.977   4.119   6.533
 2552SOL     OW 8554   2.632   5.375   3.162
 2552SOL    HW1 8555   2.548   5.424   3.140
 2552SOL    HW2 8556   2.685   5.428   3.228
 2553SOL     OW 8557   3.776   3.538   6.308
 2553SOL    HW1 8558   3.844   3.601   6.271
 2553SOL    HW2 8559   3.692   3.545   6.255
 2554SOL     OW 8560   1.314   1.575   0.811
 2554SOL    HW1 8561   1.289   1.482   0.783
 2554SOL    HW2 8562   1.251   1.640   0.768
 2555SOL     OW 8563   5.654   2.519   6.031
 2555SOL    HW1 8564   5.676   2.497   6.126
 2555SOL    HW2 8565   5.575   2.465   6.002
 2556SOL     OW 8566   3.603   5.751   0.826
 2556SOL    HW1 8567   3.509   5.765   0.858
 2556SOL    HW2 8568   3.601   5.702   0.738
 2557SOL     OW 8569   1.873   4.009   6.164
 2557SOL    HW1 8570   1.876   4.107   6.183
 2557SOL    HW2 8571   1.908   3.992   6.072
 2558SOL     OW 8572   4.607   1.085   5.688
 2558SOL    HW1 8573   4.608   1.133   5.601
 2558SOL    HW2 8574   4.636   1.147   5.761
 2559SOL     OW 8575   0.292   4.623   5.400
 2559SOL    HW1 8576   0.331   4.531   5.400
 2559SOL    HW2 8577   0.318   4.670   5.315
 2560SOL     OW 8578   6.134   1.577   5.861
 2560SOL    HW1 8579   6.062   1.527   5.909
 2560SOL    HW2 8580   6.185   1.632   5.928
 2561SOL     OW 8581   2.726   5.541   4.906
 2561SOL    HW1 8582   2.788   5.486   4.850
 2561SOL    HW2 8583   2.674   5.480   4.966
 2562SOL     OW 8584   1.900   3.686   0.428
 2562SOL    HW1 8585   1.857   3.667   0.340
 2562SOL    HW2 8586   1.932   3.600   0.468
 2563SOL     OW 8587   2.289   1.282   0.058
 2563SOL    HW1 8588   2.211   1.344   0.071
 2563SOL    HW2 8589   2.374   1.333   0.069
 2564SOL     OW 8590   1.834   5.046   1.578
 2564SOL    HW1 8591   1.845   5.111   1.654
 2564SOL    HW2 8592   1.861   5.091   1.493
 2565SOL     OW 8593   1.408   0.643   1.701
 2565SOL    HW1 8594   1.421   0.725   1.757
 2565SOL    HW2 8595   1.495   0.594   1.693
 2566SOL     OW 8596   2.042   6.774   6.813
 2566SOL    HW1 8597   2.087   6.699   6.764
 2566SOL    HW2 8598   2.090   6.788   6.900
 2567SOL     OW 8599   1.848   6.543   0.725
 2567SOL    HW1 8600   1.867   6.446   0.709
 2567SOL    HW2 8601   1.750   6.556   0.741
 2568SOL     OW 8602   4.302   2.229   6.843
 2568SOL    HW1 8603   4.398   2.210   6.863
 2568SOL    HW2 8604   4.246   2.205   6.922
 2569SOL     OW 8605   3.575   0.486   3.936
 2569SOL    HW1 8606   3.555   0.584   3.939
 2569SOL    HW2 8607   3.558   0.452   3.844
 2570SOL     OW 8608   5.339   1.607   6.333
 2570SOL    HW1 8609   5.409   1.616   6.403
 2570SOL    HW2 8610   5.268   1.543   6.364
 2571SOL     OW 8611   1.491   5.038   3.799
 2571SOL    HW1 8612   1.459   5.066   3.709
 2571SOL    HW2 8613   1.462   4.944   3.817
 2572SOL     OW 8614   2.452   4.982   3.249
 2572SOL    HW1 8615   2.403   5.051   3.196
 2572SOL    HW2 8616   2.389   4.938   3.313
 2573SOL     OW 8617   0.462   0.800   1.405
 2573SOL    HW1 8618   0.510   0.857   1.338
 2573SOL    HW2 8619   0.378   0.846   1.434
 2574SOL     OW 8620   5.975   3.543   0.537
 2574SOL    HW1 8621   5.997   3.494   0.452
 2574SOL    HW2 8622   6.047   3.526   0.604
 2575SOL     OW 8623   6.851   5.642   6.640
 2575SOL    HW1 8624   6.823   5.724   6.590
 2575SOL    HW2 8625   6.938   5.609   6.604
 2576SOL     OW 8626   5.167   6.275   3.813
 2576SOL    HW1 8627   5.160   6.176   3.819
 2576SOL    HW2 8628   5.169   6.314   3.905
 2577SOL     OW 8629   2.735   4.720   2.242
 2577SOL    HW1 8630   2.813   4.755   2.295
 2577SOL    HW2 8631   2.766   4.695   2.151
 2578SOL     OW 8632   3.764   1.832   3.707
 2578SOL    HW1 8633   3.716   1.825   3.795
 2578SOL    HW2 8634   3.698   1.856   3.636
 2579SOL     OW 8635   0.508   0.008   3.490
 2579SOL    HW1 8636   0.477   6.950   3.541
 2579SOL    HW2 8637   0.433   0.074   3.481
 2580SOL     OW 8638   2.304   2.728   0.176
 2580SOL    HW1 8639   2.249   2.665   0.123
 2580SOL    HW2 8640   2.401   2.716   0.152
 2581SOL     OW 8641   2.844   0.054   5.692
 2581SOL    HW1 8642   2.817   7.021   5.613
 2581SOL    HW2 8643   2.881   7.016   5.763
 2582SOL     OW 8644   0.094   3.131   1.175
 2582SOL    HW1 8645   0.036   3.121   1.256
 2582SOL    HW2 8646   0.182   3.170   1.202
 2583SOL     OW 8647   6.124   6.808   1.261
 2583SOL    HW1 8648   6.126   6.712   1.233
 2583SOL    HW2 8649   6.084   6.864   1.189
 2584SOL     OW 8650   4.527   4.637   5.391
 2584SOL    HW1 8651   4.546   4.721   5.341
 2584SOL    HW2 8652   4.596   4.623   5.461
 2585SOL     OW 8653   3.419   4.722   6.710
 2585SOL    HW1 8654   3.383   4.634   6.682
 2585SOL    HW2 8655   3.440   4.720   6.808
 2586SOL     OW 8656   1.941   0.676   5.251
 2586SOL    HW1 8657   1.925   0.584   5.285
 2586SOL    HW2 8658   2.030   0.681   5.207
 2587SOL     OW 8659   6.690   1.695   3.320
 2587SOL    HW1 8660   6.659   1.704   3.415
 2587SOL    HW2 8661   6.683   1.599   3.292
 2588SOL     OW 8662   4.474   1.073   5.095
 2588SOL    HW1 8663   4.573   1.087   5.095
 2588SOL    HW2 8664   4.438   1.092   5.004
 2589SOL     OW 8665   1.570   6.848   0.427
 2589SOL    HW1 8666   1.529   6.802   0.506
 2589SOL    HW2 8667   1.522   6.820   0.344
 2590SOL     OW 8668   2.907   5.135   0.116
 2590SOL    HW1 8669   2.867   5.047   0.142
 2590SOL    HW2 8670   3.007   5.127   0.118
 2591SOL     OW 8671   5.680   5.518   4.002
 2591SOL    HW1 8672   5.686   5.562   4.091
 2591SOL    HW2 8673   5.586   5.522   3.969
 2592SOL     OW 8674   2.414   4.386   6.633
 2592SOL    HW1 8675   2.382   4.429   6.549
 2592SOL    HW2 8676   2.492   4.327   6.613
 2593SOL     OW 8677   3.137   4.292   0.454
 2593SOL    HW1 8678   3.236   4.300   0.443
 2593SOL    HW2 8679   3.112   4.312   0.549
 2594SOL     OW 8680   2.139   4.048   4.515
 2594SOL    HW1 8681   2.065   4.111   4.489
 2594SOL    HW2 8682   2.145   4.044   4.615
 2595SOL     OW 8683   1.563   0.474   3.530
 2595SOL    HW1 8684   1.612   0.440   3.610
 2595SOL    HW2 8685   1.541   0.398   3.469
 2596SOL     OW 8686   0.796   2.414   6.973
 2596SOL    HW1 8687   0.797   2.426   6.874
 2596SOL    HW2 8688   0.836   2.326   6.996
 2597SOL     OW 8689   0.131   6.247   6.456
 2597SOL    HW1 8690   0.152   6.151   6.441
 2597SOL    HW2 8691   0.063   6.256   6.528
 2598SOL     OW 8692   5.585   2.912   2.515
 2598SOL    HW1 8693   5.561   2.872   2.604
 2598SOL    HW2 8694   5.542   2.859   2.442
 2599SOL     OW 8695   2.377   6.614   2.133
 2599SOL    HW1 8696   2.352   6.678   2.059
 2599SOL    HW2 8697   2.370   6.662   2.221
 2600SOL     OW 8698   6.200   4.038   4.521
 2600SOL    HW1 8699   6.212   4.011   4.426
 2600SOL    HW2 8700   6.290   4.059   4.561
 2601SOL     OW 8701   0.403   2.296   3.133
 2601SOL    HW1 8702   0.413   2.210   3.182
 2601SOL    HW2 8703   0.308   2.327   3.138
 2602SOL     OW 8704   1.674   5.583   3.699
 2602SOL    HW1 8705   1.671   5.492   3.740
 2602SOL    HW2 8706   1.757   5.592   3.643
 2603SOL     OW 8707   3.232   0.652   2.827
 2603SOL    HW1 8708   3.191   0.647   2.919
 2603SOL    HW2 8709   3.201   0.575   2.773
 2604SOL     OW 8710   4.613   1.939   2.757
 2604SOL    HW1 8711   4.677   2.014   2.769
 2604SOL    HW2 8712   4.611   1.883   2.840
 2605SOL     OW 8713   1.389   3.530   1.933
 2605SOL    HW1 8714   1.330   3.456   1.965
 2605SOL    HW2 8715   1.334   3.597   1.883
 2606SOL     OW 8716   4.034   3.926   0.839
 2606SOL    HW1 8717   3.949   3.890   0.799
 2606SOL    HW2 8718   4.011   3.986   0.916
 2607SOL     OW 8719   2.936   1.931   1.053
 2607SOL    HW1 8720   3.019   1.950   1.106
 2607SOL    HW2 8721   2.856   1.959   1.105
 2608SOL     OW 8722   2.180   5.721   6.243
 2608SOL    HW1 8723   2.084   5.730   6.215
 2608SOL    HW2 8724   2.238   5.713   6.162
 2609SOL     OW 8725   0.023   0.922   1.211
 2609SOL    HW1 8726   0.045   1.015   1.184
 2609SOL    HW2 8727   0.100   0.862   1.191
 2610SOL     OW 8728   1.546   4.678   4.727
 2610SOL    HW1 8729   1.605   4.688   4.807
 2610SOL    HW2 8730   1.469   4.618   4.750
 2611SOL     OW 8731   5.791   0.139   6.680
 2611SOL    HW1 8732   5.707   0.140   6.734
 2611SOL    HW2 8733   5.769   0.161   6.585
 2612SOL     OW 8734   6.052   0.206   5.510
 2612SOL    HW1 8735   5.958   0.213   5.478
 2612SOL    HW2 8736   6.069   0.272   5.582
 2613SOL     OW 8737   1.216   5.963   0.092
 2613SOL    HW1 8738   1.155   5.894   0.054
 2613SOL    HW2 8739   1.304   5.921   0.114
 2614SOL     OW 8740   0.113   1.628   6.917
 2614SOL    HW1 8741   0.205   1.613   6.954
 2614SOL    HW2 8742   0.045   1.601   6.985
 2615SOL     OW 8743   1.057   3.028   0.500
 2615SOL    HW1 8744   1.048   3.122   0.468
 2615SOL    HW2 8745   0.970   2.980   0.490
 2616SOL     OW 8746   1.558   0.206   5.321
 2616SOL    HW1 8747   1.616   0.287   5.318
 2616SOL    HW2 8748   1.610   0.127   5.289
 2617SOL     OW 8749   5.313   0.226   1.210
 2617SOL    HW1 8750   5.402   0.237   1.254
 2617SOL    HW2 8751   5.258   0.161   1.263
 2618SOL     OW 8752   1.567   6.668   6.506
 2618SOL    HW1 8753   1.629   6.595   6.535
 2618SOL    HW2 8754   1.515   6.638   6.426
 2619SOL     OW 8755   4.561   1.148   2.487
 2619SOL    HW1 8756   4.572   1.066   2.430
 2619SOL    HW2 8757   4.647   1.199   2.489
 2620SOL     OW 8758   6.282   0.185   1.166
 2620SOL    HW1 8759   6.314   0.234   1.085
 2620SOL    HW2 8760   6.183   0.172   1.160
 2621SOL     OW 8761   1.967   6.246   1.962
 2621SOL    HW1 8762   1.924   6.180   1.900
 2621SOL    HW2 8763   2.065   6.249   1.945
 2622SOL     OW 8764   3.459   3.257   6.346
 2622SOL    HW1 8765   3.460   3.257   6.446
 2622SOL    HW2 8766   3.484   3.166   6.313
 2623SOL     OW 8767   0.716   6.791   3.129
 2623SOL    HW1 8768   0.748   6.702   3.162
 2623SOL    HW2 8769   0.763   6.864   3.178
 2624SOL     OW 8770   7.020   1.845   4.537
 2624SOL    HW1 8771   0.059   1.790   4.479
 2624SOL    HW2 8772   0.000   1.810   4.630
 2625SOL     OW 8773   1.653   5.325   6.202
 2625SOL    HW1 8774   1.569   5.367   6.238
 2625SOL    HW2 8775   1.653   5.331   6.103
 2626SOL     OW 8776   6.763   5.153   6.342
 2626SOL    HW1 8777   6.750   5.195   6.431
 2626SOL    HW2 8778   6.778   5.055   6.353
 2627SOL     OW 8779   1.790   6.828   5.563
 2627SOL    HW1 8780   1.706   6.868   5.526
 2627SOL    HW2 8781   1.767   6.746   5.616
 2628SOL     OW 8782   0.751   4.772   2.173
 2628SOL    HW1 8783   0.803   4.691   2.199
 2628SOL    HW2 8784   0.801   4.854   2.201
 2629SOL     OW 8785   3.146   3.792   3.201
 2629SOL    HW1 8786   3.079   3.790   3.275
 2629SOL    HW2 8787   3.159   3.887   3.171
 2630SOL     OW 8788   4.016   0.707   3.702
 2630SOL    HW1 8789   3.999   0.629   3.761
 2630SOL    HW2 8790   3.957   0.783   3.729
 2631SOL     OW 8791   6.189   0.832   0.319
 2631SOL    HW1 8792   6.284   0.809   0.341
 2631SOL    HW2 8793   6.133   0.749   0.324
 2632SOL     OW 8794   5.418   4.157   2.413
 2632SOL    HW1 8795   5.339   4.211   2.383
 2632SOL    HW2 8796   5.427   4.076   2.356
 2633SOL     OW 8797   0.047   3.075   5.874
 2633SOL    HW1 8798   6.976   3.037   5.867
 2633SOL    HW2 8799   0.059   3.145   5.803
 2634SOL     OW 8800   6.931   1.178   5.821
 2634SOL    HW1 8801   6.932   1.106   5.890
 2634SOL    HW2 8802   6.869   1.154   5.747
 2635SOL     OW 8803   5.500   4.969   3.414
 2635SOL    HW1 8804   5.577   5.031   3.432
 2635SOL    HW2 8805   5.415   5.022   3.409
 2636SOL     OW 8806   3.860   5.817   5.300
 2636SOL    HW1 8807   3.838   5.760   5.380
 2636SOL    HW2 8808   3.777   5.862   5.268
 2637SOL     OW 8809   0.750   1.875   3.564
 2637SOL    HW1 8810   0.714   1.967   3.578
 2637SOL    HW2 8811   0.733   1.846   3.470
 2638SOL     OW 8812   1.019   6.319   4.396
 2638SOL    HW1 8813   1.109   6.303   4.437
 2638SOL    HW2 8814   0.998   6.417   4.399
 2639SOL     OW 8815   4.173   4.653   5.365
 2639SOL    HW1 8816   4.186   4.741   5.410
 2639SOL    HW2 8817   4.097   4.660   5.300
 2640SOL     OW 8818   1.250   6.612   4.187
 2640SOL    HW1 8819   1.270   6.701   4.146
 2640SOL    HW2 8820   1.336   6.565   4.209
 2641SOL     OW 8821   5.548   3.090   6.530
 2641SOL    HW1 8822   5.630   3.117   6.479
 2641SOL    HW2 8823   5.475   3.067   6.465
 2642SOL     OW 8824   6.240   1.193   3.693
 2642SOL    HW1 8825   6.166   1.249   3.729
 2642SOL    HW2 8826   6.309   1.252   3.651
 2643SOL     OW 8827   2.326   4.842   3.782
 2643SOL    HW1 8828   2.326   4.747   3.750
 2643SOL    HW2 8829   2.320   4.844   3.882
 2644SOL     OW 8830   4.923   4.857   4.211
 2644SOL    HW1 8831   4.902   4.932   4.274
 2644SOL    HW2 8832   4.869   4.777   4.235
 2645SOL     OW 8833   5.224   5.557   3.212
 2645SOL    HW1 8834   5.269   5.645   3.229
 2645SOL    HW2 8835   5.279   5.483   3.249
 2646SOL     OW 8836   0.521   2.847   6.675
 2646SOL    HW1 8837   0.604   2.893   6.644
 2646SOL    HW2 8838   0.502   2.769   6.616
 2647SOL     OW 8839   4.891   0.673   1.630
 2647SOL    HW1 8840   4.909   0.600   1.696
 2647SOL    HW2 8841   4.947   0.659   1.548
 2648SOL     OW 8842   1.006   0.237   6.630
 2648SOL    HW1 8843   1.052   0.168   6.685
 2648SOL    HW2 8844   0.994   0.320   6.683
 2649SOL     OW 8845   5.195   2.194   2.172
 2649SOL    HW1 8846   5.194   2.119   2.105
 2649SOL    HW2 8847   5.102   2.222   2.193
 2650SOL     OW 8848   3.056   6.298   4.384
 2650SOL    HW1 8849   3.032   6.201   4.379
 2650SOL    HW2 8850   3.035   6.342   4.297
 2651SOL     OW 8851   4.059   2.291   4.145
 2651SOL    HW1 8852   4.004   2.374   4.135
 2651SOL    HW2 8853   4.069   2.246   4.057
 2652SOL     OW 8854   4.824   4.347   5.448
 2652SOL    HW1 8855   4.767   4.268   5.473
 2652SOL    HW2 8856   4.898   4.357   5.515
 2653SOL     OW 8857   2.368   5.679   0.272
 2653SOL    HW1 8858   2.337   5.600   0.219
 2653SOL    HW2 8859   2.374   5.653   0.369
 2654SOL     OW 8860   6.631   1.214   6.928
 2654SOL    HW1 8861   6.662   1.210   6.834
 2654SOL    HW2 8862   6.627   1.310   6.958
 2655SOL     OW 8863   4.735   6.126   2.323
 2655SOL    HW1 8864   4.685   6.204   2.361
 2655SOL    HW2 8865   4.697   6.041   2.360
 2656SOL     OW 8866   3.946   6.316   2.600
 2656SOL    HW1 8867   3.933   6.284   2.694
 2656SOL    HW2 8868   4.037   6.356   2.590
 2657SOL     OW 8869   0.560   4.093   0.792
 2657SOL    HW1 8870   0.544   4.150   0.712
 2657SOL    HW2 8871   0.631   4.026   0.771
 2658SOL     OW 8872   3.499   5.043   6.862
 2658SOL    HW1 8873   3.438   5.121   6.873
 2658SOL    HW2 8874   3.540   5.046   6.771
 2659SOL     OW 8875   0.417   2.149   4.761
 2659SOL    HW1 8876   0.332   2.151   4.709
 2659SOL    HW2 8877   0.432   2.239   4.802
 2660SOL     OW 8878   0.477   1.933   2.427
 2660SOL    HW1 8879   0.434   1.857   2.475
 2660SOL    HW2 8880   0.430   1.949   2.340
 2661SOL     OW 8881   1.998   1.305   0.991
 2661SOL    HW1 8882   1.994   1.306   1.091
 2661SOL    HW2 8883   1.918   1.255   0.956
 2662SOL     OW 8884   2.450   0.630   2.059
 2662SOL    HW1 8885   2.429   0.641   1.962
 2662SOL    HW2 8886   2.547   0.614   2.071
 2663SOL     OW 8887   4.107   6.267   0.576
 2663SOL    HW1 8888   4.150   6.337   0.632
 2663SOL    HW2 8889   4.015   6.248   0.611
 2664SOL     OW 8890   4.540   3.763   5.591
 2664SOL    HW1 8891   4.553   3.845   5.646
 2664SOL    HW2 8892   4.622   3.706   5.596
 2665SOL     OW 8893   1.720   3.867   4.609
 2665SOL    HW1 8894   1.677   3.777   4.597
 2665SOL    HW2 8895   1.814   3.864   4.576
 2666SOL     OW 8896   2.133   3.851   2.326
 2666SOL    HW1 8897   2.041   3.884   2.306
 2666SOL    HW2 8898   2.200   3.906   2.276
 2667SOL     OW 8899   6.937   3.352   4.778
 2667SOL    HW1 8900   6.942   3.310   4.868
 2667SOL    HW2 8901   6.971   3.288   4.709
 2668SOL     OW 8902   6.419   0.314   3.791
 2668SOL    HW1 8903   6.341   0.262   3.825
 2668SOL    HW2 8904   6.467   0.356   3.868
 2669SOL     OW 8905   2.470   0.425   7.005
 2669SOL    HW1 8906   2.539   0.356   0.003
 2669SOL    HW2 8907   2.509   0.495   6.945
 2670SOL     OW 8908   0.240   6.764   7.005
 2670SOL    HW1 8909   0.327   6.716   6.988
 2670SOL    HW2 8910   0.166   6.713   6.962
 2671SOL     OW 8911   5.012   4.546   6.098
 2671SOL    HW1 8912   4.950   4.486   6.048
 2671SOL    HW2 8913   5.048   4.497   6.177
 2672SOL     OW 8914   3.490   0.819   1.583
 2672SOL    HW1 8915   3.485   0.830   1.484
 2672SOL    HW2 8916   3.508   0.908   1.625
 2673SOL     OW 8917   4.092   0.494   2.867
 2673SOL    HW1 8918   4.072   0.536   2.779
 2673SOL    HW2 8919   4.067   0.397   2.863
 2674SOL     OW 8920   0.369   5.038   2.326
 2674SOL    HW1 8921   0.374   4.956   2.384
 2674SOL    HW2 8922   0.274   5.056   2.301
 2675SOL     OW 8923   5.682   0.353   4.172
 2675SOL    HW1 8924   5.635   0.410   4.104
 2675SOL    HW2 8925   5.671   0.394   4.263
 2676SOL     OW 8926   3.777   4.023   2.887
 2676SOL    HW1 8927   3.729   4.068   2.962
 2676SOL    HW2 8928   3.724   4.032   2.803
 2677SOL     OW 8929   2.369   4.757   1.048
 2677SOL    HW1 8930   2.414   4.742   0.960
 2677SOL    HW2 8931   2.372   4.673   1.102
 2678SOL     OW 8932   4.323   1.875   2.931
 2678SOL    HW1 8933   4.286   1.789   2.895
 2678SOL    HW2 8934   4.384   1.856   3.007
 2679SOL     OW 8935   2.145   3.767   3.166
 2679SOL    HW1 8936   2.181   3.692   3.110
 2679SOL    HW2 8937   2.094   3.831   3.108
 2680SOL     OW 8938   6.393   1.582   0.180
 2680SOL    HW1 8939   6.482   1.595   0.137
 2680SOL    HW2 8940   6.340   1.516   0.127
 2681SOL     OW 8941   1.997   1.861   4.973
 2681SOL    HW1 8942   2.049   1.921   4.913
 2681SOL    HW2 8943   1.900   1.887   4.972
 2682SOL     OW 8944   4.091   3.902   1.751
 2682SOL    HW1 8945   4.084   3.848   1.835
 2682SOL    HW2 8946   4.010   3.885   1.694
 2683SOL     OW 8947   2.549   4.614   1.958
 2683SOL    HW1 8948   2.647   4.624   1.975
 2683SOL    HW2 8949   2.511   4.545   2.020
 2684SOL     OW 8950   6.722   6.512   3.750
 2684SOL    HW1 8951   6.676   6.562   3.823
 2684SOL    HW2 8952   6.733   6.571   3.670
 2685SOL     OW 8953   1.354   5.756   5.632
 2685SOL    HW1 8954   1.328   5.841   5.586
 2685SOL    HW2 8955   1.453   5.745   5.629
 2686SOL     OW 8956   0.190   1.297   5.142
 2686SOL    HW1 8957   0.230   1.319   5.231
 2686SOL    HW2 8958   0.224   1.209   5.111
 2687SOL     OW 8959   4.248   2.085   1.501
 2687SOL    HW1 8960   4.210   2.013   1.559
 2687SOL    HW2 8961   4.257   2.050   1.407
 2688SOL     OW 8962   3.935   2.800   6.018
 2688SOL    HW1 8963   3.874   2.852   5.958
 2688SOL    HW2 8964   4.030   2.829   6.001
 2689SOL     OW 8965   1.332   4.130   3.190
 2689SOL    HW1 8966   1.374   4.076   3.117
 2689SOL    HW2 8967   1.366   4.224   3.186
 2690SOL     OW 8968   3.724   1.461   5.388
 2690SOL    HW1 8969   3.736   1.555   5.418
 2690SOL    HW2 8970   3.812   1.415   5.386
 2691SOL     OW 8971   6.511   4.059   4.493
 2691SOL    HW1 8972   6.455   4.018   4.422
 2691SOL    HW2 8973   6.575   4.124   4.452
 2692SOL     OW 8974   2.592   5.826   2.230
 2692SOL    HW1 8975   2.671   5.771   2.202
 2692SOL    HW2 8976   2.529   5.836   2.153
 2693SOL     OW 8977   1.699   5.507   2.608
 2693SOL    HW1 8978   1.704   5.425   2.550
 2693SOL    HW2 8979   1.752   5.492   2.691
 2694SOL     OW 8980   2.758   0.635   2.844
 2694SOL    HW1 8981   2.692   0.703   2.877
 2694SOL    HW2 8982   2.815   0.677   2.773
 2695SOL     OW 8983   0.124   5.876   3.118
 2695SOL    HW1 8984   0.139   5.881   3.019
 2695SOL    HW2 8985   0.113   5.780   3.146
 2696SOL     OW 8986   5.410   5.032   6.243
 2696SOL    HW1 8987   5.413   4.943   6.287
 2696SOL    HW2 8988   5.319   5.047   6.204
 2697SOL     OW 8989   4.254   2.490   6.796
 2697SOL    HW1 8990   4.260   2.496   6.895
 2697SOL    HW2 8991   4.309   2.412   6.764
 2698SOL     OW 8992   1.654   4.606   6.091
 2698SOL    HW1 8993   1.730   4.608   6.026
 2698SOL    HW2 8994   1.681   4.650   6.176
 2699SOL     OW 8995   2.554   6.360   1.742
 2699SOL    HW1 8996   2.509   6.420   1.676
 2699SOL    HW2 8997   2.497   6.352   1.824
 2700SOL     OW 8998   3.504   1.896   2.005
 2700SOL    HW1 8999   3.559   1.816   2.031
 2700SOL    HW2 9000   3.558   1.954   1.944
 2701SOL     OW 9001   5.376   2.938   4.843
 2701SOL    HW1 9002   5.386   3.032   4.811
 2701SOL    HW2 9003   5.375   2.937   4.943
 2702SOL     OW 9004   2.830   1.041   4.526
 2702SOL    HW1 9005   2.789   0.988   4.601
 2702SOL    HW2 9006   2.793   1.134   4.528
 2703SOL     OW 9007   1.946   6.646   2.601
 2703SOL    HW1 9008   2.015   6.639   2.673
 2703SOL    HW2 9009   1.882   6.719   2.622
 2704SOL     OW 9010   5.460   0.413   3.648
 2704SOL    HW1 9011   5.451   0.397   3.746
 2704SOL    HW2 9012   5.548   0.378   3.617
 2705SOL     OW 9013   0.279   0.654   5.708
 2705SOL    HW1 9014   0.222   0.733   5.685
 2705SOL    HW2 9015   0.327   0.672   5.794
 2706SOL     OW 9016   0.222   3.543   3.580
 2706SOL    HW1 9017   0.216   3.595   3.495
 2706SOL    HW2 9018   0.132   3.508   3.604
 2707SOL     OW 9019   4.121   0.895   3.097
 2707SOL    HW1 9020   4.040   0.952   3.085
 2707SOL    HW2 9021   4.168   0.885   3.009
 2708SOL     OW 9022   6.009   3.499   6.187
 2708SOL    HW1 9023   5.999   3.410   6.142
 2708SOL    HW2 9024   5.942   3.563   6.149
 2709SOL     OW 9025   5.064   1.440   5.626
 2709SOL    HW1 9026   4.973   1.478   5.641
 2709SOL    HW2 9027   5.115   1.501   5.565
 2710SOL     OW 9028   1.141   2.856   4.294
 2710SOL    HW1 9029   1.079   2.783   4.324
 2710SOL    HW2 9030   1.153   2.922   4.369
 2711SOL     OW 9031   3.211   1.057   1.678
 2711SOL    HW1 9032   3.155   1.056   1.596
 2711SOL    HW2 9033   3.284   1.125   1.669
 2712SOL     OW 9034   3.628   6.058   2.011
 2712SOL    HW1 9035   3.651   5.976   2.063
 2712SOL    HW2 9036   3.642   6.041   1.913
 2713SOL     OW 9037   3.934   5.012   5.815
 2713SOL    HW1 9038   3.960   5.067   5.894
 2713SOL    HW2 9039   3.884   4.931   5.845
 2714SOL     OW 9040   3.155   4.706   6.373
 2714SOL    HW1 9041   3.206   4.650   6.308
 2714SOL    HW2 9042   3.217   4.769   6.419
 2715SOL     OW 9043   4.145   1.076   7.021
 2715SOL    HW1 9044   4.108   0.989   0.032
 2715SOL    HW2 9045   4.080   1.149   0.019
 2716SOL     OW 9046   3.694   1.186   3.138
 2716SOL    HW1 9047   3.619   1.204   3.202
 2716SOL    HW2 9048   3.778   1.228   3.173
 2717SOL     OW 9049   0.682   1.207   2.411
 2717SOL    HW1 9050   0.691   1.117   2.369
 2717SOL    HW2 9051   0.771   1.253   2.409
 2718SOL     OW 9052   6.958   0.895   5.876
 2718SOL    HW1 9053   6.891   0.925   5.809
 2718SOL    HW2 9054   0.029   0.909   5.840
 2719SOL     OW 9055   1.886   4.310   2.380
 2719SOL    HW1 9056   1.866   4.281   2.474
 2719SOL    HW2 9057   1.805   4.354   2.341
 2720SOL     OW 9058   2.417   6.361   6.692
 2720SOL    HW1 9059   2.482   6.286   6.681
 2720SOL    HW2 9060   2.326   6.331   6.665
 2721SOL     OW 9061   3.179   6.161   2.035
 2721SOL    HW1 9062   3.146   6.242   2.085
 2721SOL    HW2 9063   3.266   6.183   1.990
 2722SOL     OW 9064   4.333   6.089   6.949
 2722SOL    HW1 9065   4.390   6.103   0.008
 2722SOL    HW2 9066   4.368   6.011   6.897
 2723SOL     OW 9067   3.597   6.409   6.305
 2723SOL    HW1 9068   3.614   6.503   6.334
 2723SOL    HW2 9069   3.557   6.410   6.214
 2724SOL     OW 9070   0.754   6.403   1.169
 2724SOL    HW1 9071   0.655   6.413   1.158
 2724SOL    HW2 9072   0.777   6.402   1.267
 2725SOL     OW 9073   6.308   3.854   5.018
 2725SOL    HW1 9074   6.229   3.902   5.054
 2725SOL    HW2 9075   6.302   3.756   5.041
 2726SOL     OW 9076   6.173   1.854   2.083
 2726SOL    HW1 9077   6.091   1.887   2.037
 2726SOL    HW2 9078   6.224   1.793   2.022
 2727SOL     OW 9079   1.523   5.026   4.082
 2727SOL    HW1 9080   1.532   5.061   3.988
 2727SOL    HW2 9081   1.613   5.001   4.117
 2728SOL     OW 9082   5.328   5.133   5.479
 2728SOL    HW1 9083   5.359   5.228   5.480
 2728SOL    HW2 9084   5.286   5.111   5.567
 2729SOL     OW 9085   5.284   0.057   6.355
 2729SOL    HW1 9086   5.359   0.070   6.290
 2729SOL    HW2 9087   5.318   0.006   6.434
 2730SOL     OW 9088   1.093   6.055   1.981
 2730SOL    HW1 9089   1.004   6.055   2.027
 2730SOL    HW2 9090   1.121   5.960   1.964
 2731SOL     OW 9091   3.221   3.860   3.885
 2731SOL    HW1 9092   3.196   3.884   3.979
 2731SOL    HW2 9093   3.257   3.941   3.838
 2732SOL     OW 9094   5.246   0.822   2.117
 2732SOL    HW1 9095   5.290   0.733   2.127
 2732SOL    HW2 9096   5.264   0.859   2.026
 2733SOL     OW 9097   1.377   6.584   6.799
 2733SOL    HW1 9098   1.395   6.662   6.740
 2733SOL    HW2 9099   1.360   6.503   6.744
 2734SOL     OW 9100   3.226   6.540   2.273
 2734SOL    HW1 9101   3.254   6.533   2.368
 2734SOL    HW2 9102   3.172   6.459   2.248
 2735SOL     OW 9103   0.606   1.757   2.182
 2735SOL    HW1 9104   0.531   1.810   2.142
 2735SOL    HW2 9105   0.676   1.819   2.217
 2736SOL     OW 9106   5.688   4.446   2.905
 2736SOL    HW1 9107   5.621   4.501   2.956
 2736SOL    HW2 9108   5.650   4.355   2.887
 2737SOL     OW 9109   2.577   0.879   5.035
 2737SOL    HW1 9110   2.601   0.841   5.125
 2737SOL    HW2 9111   2.592   0.809   4.965
 2738SOL     OW 9112   5.041   6.416   1.588
 2738SOL    HW1 9113   5.045   6.497   1.646
 2738SOL    HW2 9114   5.087   6.435   1.502
 2739SOL     OW 9115   6.468   5.559   1.670
 2739SOL    HW1 9116   6.528   5.534   1.747
 2739SOL    HW2 9117   6.507   5.637   1.622
 2740SOL     OW 9118   6.606   5.714   3.860
 2740SOL    HW1 9119   6.592   5.752   3.769
 2740SOL    HW2 9120   6.662   5.631   3.853
 2741SOL     OW 9121   1.197   1.358   5.682
 2741SOL    HW1 9122   1.106   1.321   5.701
 2741SOL    HW2 9123   1.190   1.456   5.661
 2742SOL     OW 9124   2.878   5.902   1.690
 2742SOL    HW1 9125   2.812   5.976   1.680
 2742SOL    HW2 9126   2.919   5.906   1.781
 2743SOL     OW 9127   5.725   3.413   2.635
 2743SOL    HW1 9128   5.771   3.477   2.573
 2743SOL    HW2 9129   5.709   3.327   2.587
 2744SOL     OW 9130   3.014   3.870   2.656
 2744SOL    HW1 9131   3.020   3.962   2.619
 2744SOL    HW2 9132   2.988   3.807   2.584
 2745SOL     OW 9133   0.676   6.427   0.580
 2745SOL    HW1 9134   0.610   6.503   0.573
 2745SOL    HW2 9135   0.765   6.464   0.607
 2746SOL     OW 9136   0.918   1.232   3.369
 2746SOL    HW1 9137   0.847   1.256   3.303
 2746SOL    HW2 9138   0.875   1.196   3.453
 2747SOL     OW 9139   3.964   5.449   0.667
 2747SOL    HW1 9140   3.924   5.525   0.718
 2747SOL    HW2 9141   4.063   5.449   0.679
 2748SOL     OW 9142   4.107   6.387   1.002
 2748SOL    HW1 9143   4.095   6.477   0.962
 2748SOL    HW2 9144   4.043   6.376   1.079
 2749SOL     OW 9145   3.399   3.099   6.962
 2749SOL    HW1 9146   3.326   3.068   6.901
 2749SOL    HW2 9147   3.409   3.034   0.016
 2750SOL     OW 9148   2.775   5.961   2.037
 2750SOL    HW1 9149   2.714   5.958   1.957
 2750SOL    HW2 9150   2.743   6.031   2.101
 2751SOL     OW 9151   6.017   4.073   1.017
 2751SOL    HW1 9152   6.104   4.121   1.012
 2751SOL    HW2 9153   5.972   4.076   0.928
 2752SOL     OW 9154   4.430   5.275   0.220
 2752SOL    HW1 9155   4.369   5.338   0.269
 2752SOL    HW2 9156   4.405   5.181   0.243
 2753SOL     OW 9157   6.204   6.026   5.566
 2753SOL    HW1 9158   6.296   6.050   5.597
 2753SOL    HW2 9159   6.198   5.927   5.553
 2754SOL     OW 9160   1.176   6.827   6.402
 2754SOL    HW1 9161   1.097   6.782   6.359
 2754SOL    HW2 9162   1.185   6.920   6.366
 2755SOL     OW 9163   2.677   0.456   2.661
 2755SOL    HW1 9164   2.732   0.374   2.645
 2755SOL    HW2 9165   2.731   0.522   2.713
 2756SOL     OW 9166   4.684   6.123   0.839
 2756SOL    HW1 9167   4.732   6.136   0.926
 2756SOL    HW2 9168   4.727   6.181   0.769
 2757SOL     OW 9169   0.257   5.541   1.415
 2757SOL    HW1 9170   0.296   5.551   1.323
 2757SOL    HW2 9171   0.283   5.619   1.471
 2758SOL     OW 9172   4.891   0.610   6.004
 2758SOL    HW1 9173   4.955   0.594   5.929
 2758SOL    HW2 9174   4.938   0.656   6.079
 2759SOL     OW 9175   5.559   5.472   4.753
 2759SOL    HW1 9176   5.616   5.499   4.830
 2759SOL    HW2 9177   5.539   5.552   4.696
 2760SOL     OW 9178   2.766   5.529   3.331
 2760SOL    HW1 9179   2.748   5.478   3.416
 2760SOL    HW2 9180   2.711   5.612   3.331
 2761SOL     OW 9181   2.125   5.700   3.223
 2761SOL    HW1 9182   2.206   5.697   3.281
 2761SOL    HW2 9183   2.125   5.784   3.169
 2762SOL     OW 9184   0.932   6.361   4.761
 2762SOL    HW1 9185   1.030   6.366   4.782
 2762SOL    HW2 9186   0.899   6.451   4.733
 2763SOL     OW 9187   5.669   1.990   1.932
 2763SOL    HW1 9188   5.625   1.942   1.856
 2763SOL    HW2 9189   5.643   2.086   1.931
 2764SOL     OW 9190   6.314   1.275   2.229
 2764SOL    HW1 9191   6.318   1.271   2.328
 2764SOL    HW2 9192   6.228   1.319   2.201
 2765SOL     OW 9193   5.690   1.602   1.789
 2765SOL    HW1 9194   5.614   1.617   1.853
 2765SOL    HW2 9195   5.777   1.603   1.839
 2766SOL     OW 9196   6.166   0.998   2.566
 2766SOL    HW1 9197   6.084   1.011   2.511
 2766SOL    HW2 9198   6.141   1.000   2.663
 2767SOL     OW 9199   5.429   4.772   6.302
 2767SOL    HW1 9200   5.497   4.746   6.371
 2767SOL    HW2 9201   5.466   4.755   6.211
 2768SOL     OW 9202   5.811   1.282   6.630
 2768SOL    HW1 9203   5.771   1.332   6.706
 2768SOL    HW2 9204   5.898   1.241   6.658
 2769SOL     OW 9205   0.806   3.803   1.404
 2769SOL    HW1 9206   0.872   3.801   1.479
 2769SOL    HW2 9207   0.848   3.767   1.321
 2770SOL     OW 9208   0.074   5.889   1.534
 2770SOL    HW1 9209   0.032   5.867   1.446
 2770SOL    HW2 9210   0.061   5.987   1.553
 2771SOL     OW 9211   4.835   1.217   1.644
 2771SOL    HW1 9212   4.822   1.228   1.545
 2771SOL    HW2 9213   4.851   1.121   1.665
 2772SOL     OW 9214   3.459   2.813   5.916
 2772SOL    HW1 9215   3.467   2.853   5.825
 2772SOL    HW2 9216   3.408   2.727   5.911
 2773SOL     OW 9217   3.480   3.749   6.361
 2773SOL    HW1 9218   3.385   3.732   6.383
 2773SOL    HW2 9219   3.516   3.675   6.304
 2774SOL     OW 9220   5.999   3.612   2.762
 2774SOL    HW1 9221   6.065   3.604   2.686
 2774SOL    HW2 9222   6.014   3.537   2.826
 2775SOL     OW 9223   0.065   6.162   1.584
 2775SOL    HW1 9224   0.083   6.194   1.677
 2775SOL    HW2 9225   7.006   6.209   1.547
 2776SOL     OW 9226   2.919   5.999   6.253
 2776SOL    HW1 9227   2.942   6.080   6.199
 2776SOL    HW2 9228   2.967   5.919   6.215
 2777SOL     OW 9229   3.281   1.180   2.731
 2777SOL    HW1 9230   3.233   1.200   2.816
 2777SOL    HW2 9231   3.358   1.243   2.721
 2778SOL     OW 9232   2.266   1.863   5.628
 2778SOL    HW1 9233   2.296   1.767   5.625
 2778SOL    HW2 9234   2.327   1.918   5.572
 2779SOL     OW 9235   6.076   1.157   6.677
 2779SOL    HW1 9236   6.164   1.203   6.684
 2779SOL    HW2 9237   6.079   1.070   6.726
 2780SOL     OW 9238   4.966   5.296   6.884
 2780SOL    HW1 9239   5.031   5.320   6.812
 2780SOL    HW2 9240   4.895   5.236   6.847
 2781SOL     OW 9241   5.259   4.557   0.572
 2781SOL    HW1 9242   5.165   4.560   0.605
 2781SOL    HW2 9243   5.261   4.520   0.479
 2782SOL     OW 9244   2.791   2.589   6.094
 2782SOL    HW1 9245   2.725   2.636   6.152
 2782SOL    HW2 9246   2.860   2.654   6.061
 2783SOL     OW 9247   0.409   4.895   5.430
 2783SOL    HW1 9248   0.501   4.933   5.420
 2783SOL    HW2 9249   0.412   4.815   5.490
 2784SOL     OW 9250   1.964   1.602   2.071
 2784SOL    HW1 9251   2.034   1.669   2.098
 2784SOL    HW2 9252   1.982   1.571   1.978
 2785SOL     OW 9253   6.433   1.020   1.042
 2785SOL    HW1 9254   6.480   1.097   1.085
 2785SOL    HW2 9255   6.451   0.937   1.094
 2786SOL     OW 9256   3.891   6.681   1.214
 2786SOL    HW1 9257   3.824   6.658   1.143
 2786SOL    HW2 9258   3.895   6.606   1.281
 2787SOL     OW 9259   2.606   2.884   5.923
 2787SOL    HW1 9260   2.626   2.910   5.829
 2787SOL    HW2 9261   2.553   2.956   5.967
 2788SOL     OW 9262   1.017   3.572   0.691
 2788SOL    HW1 9263   0.971   3.491   0.730
 2788SOL    HW2 9264   0.958   3.614   0.622
 2789SOL     OW 9265   0.590   2.459   4.154
 2789SOL    HW1 9266   0.685   2.435   4.135
 2789SOL    HW2 9267   0.558   2.410   4.235
 2790SOL     OW 9268   3.913   5.469   3.204
 2790SOL    HW1 9269   3.876   5.533   3.271
 2790SOL    HW2 9270   4.008   5.448   3.227
 2791SOL     OW 9271   1.833   3.032   4.217
 2791SOL    HW1 9272   1.761   3.019   4.149
 2791SOL    HW2 9273   1.846   3.130   4.233
 2792SOL     OW 9274   1.220   2.138   5.680
 2792SOL    HW1 9275   1.219   2.078   5.760
 2792SOL    HW2 9276   1.145   2.114   5.619
 2793SOL     OW 9277   4.743   1.109   3.325
 2793SOL    HW1 9278   4.664   1.121   3.386
 2793SOL    HW2 9279   4.767   1.198   3.286
 2794SOL     OW 9280   0.899   0.733   0.903
 2794SOL    HW1 9281   0.833   0.658   0.899
 2794SOL    HW2 9282   0.962   0.727   0.826
 2795SOL     OW 9283   2.712   4.230   1.414
 2795SOL    HW1 9284   2.750   4.322   1.402
 2795SOL    HW2 9285   2.614   4.236   1.434
 2796SOL     OW 9286   5.488   3.829   2.533
 2796SOL    HW1 9287   5.431   3.907   2.505
 2796SOL    HW2 9288   5.519   3.842   2.627
 2797SOL     OW 9289   4.583   4.494   5.022
 2797SOL    HW1 9290   4.500   4.546   5.003
 2797SOL    HW2 9291   4.576   4.403   4.982
 2798SOL     OW 9292   1.051   3.908   4.343
 2798SOL    HW1 9293   1.141   3.883   4.379
 2798SOL    HW2 9294   1.027   4.000   4.375
 2799SOL     OW 9295   6.295   4.813   5.957
 2799SOL    HW1 9296   6.333   4.841   6.045
 2799SOL    HW2 9297   6.226   4.741   5.972
 2800SOL     OW 9298   3.077   4.046   6.865
 2800SOL    HW1 9299   3.084   4.129   6.810
 2800SOL    HW2 9300   3.062   4.071   6.961
 2801SOL     OW 9301   5.181   5.790   2.118
 2801SOL    HW1 9302   5.104   5.760   2.174
 2801SOL    HW2 9303   5.161   5.773   2.022
 2802SOL     OW 9304   4.596   1.413   6.211
 2802SOL    HW1 9305   4.598   1.443   6.115
 2802SOL    HW2 9306   4.519   1.458   6.258
 2803SOL     OW 9307   2.812   6.392   6.881
 2803SOL    HW1 9308   2.761   6.464   6.834
 2803SOL    HW2 9309   2.754   6.350   6.951
 2804SOL     OW 9310   6.939   4.551   3.420
 2804SOL    HW1 9311   6.911   4.524   3.327
 2804SOL    HW2 9312   6.859   4.574   3.474
 2805SOL     OW 9313   5.583   3.505   6.871
 2805SOL    HW1 9314   5.539   3.430   6.821
 2805SOL    HW2 9315   5.516   3.549   6.931
 2806SOL     OW 9316   6.331   5.556   3.617
 2806SOL    HW1 9317   6.329   5.596   3.708
 2806SOL    HW2 9318   6.328   5.629   3.548
 2807SOL     OW 9319   4.661   4.975   3.322
 2807SOL    HW1 9320   4.724   4.900   3.344
 2807SOL    HW2 9321   4.714   5.058   3.303
 2808SOL     OW 9322   5.497   0.288   4.390
 2808SOL    HW1 9323   5.593   0.305   4.414
 2808SOL    HW2 9324   5.441   0.297   4.472
 2809SOL     OW 9325   5.332   2.646   0.671
 2809SOL    HW1 9326   5.416   2.609   0.709
 2809SOL    HW2 9327   5.253   2.602   0.715
 2810SOL     OW 9328   2.141   6.989   5.422
 2810SOL    HW1 9329   2.087   0.008   5.496
 2810SOL    HW2 9330   2.114   0.009   5.335
 2811SOL     OW 9331   7.001   1.265   3.524
 2811SOL    HW1 9332   0.031   1.337   3.570
 2811SOL    HW2 9333   0.042   1.194   3.492
 2812SOL     OW 9334   4.877   3.542   2.316
 2812SOL    HW1 9335   4.823   3.463   2.346
 2812SOL    HW2 9336   4.912   3.526   2.224
 2813SOL     OW 9337   5.744   1.056   6.475
 2813SOL    HW1 9338   5.781   1.072   6.383
 2813SOL    HW2 9339   5.760   1.138   6.531
 2814SOL     OW 9340   4.706   4.004   5.248
 2814SOL    HW1 9341   4.616   4.005   5.291
 2814SOL    HW2 9342   4.724   4.093   5.207
 2815SOL     OW 9343   0.310   0.842   5.170
 2815SOL    HW1 9344   0.349   0.905   5.237
 2815SOL    HW2 9345   0.214   0.864   5.156
 2816SOL     OW 9346   5.787   6.884   3.259
 2816SOL    HW1 9347   5.788   6.942   3.340
 2816SOL    HW2 9348   5.858   6.814   3.266
 2817SOL     OW 9349   0.925   1.980   1.653
 2817SOL    HW1 9350   0.886   1.996   1.563
 2817SOL    HW2 9351   1.002   1.916   1.646
 2818SOL     OW 9352   0.338   4.749   5.161
 2818SOL    HW1 9353   0.293   4.822   5.212
 2818SOL    HW2 9354   0.421   4.784   5.118
 2819SOL     OW 9355   6.949   2.929   0.976
 2819SOL    HW1 9356   7.004   2.848   0.953
 2819SOL    HW2 9357   7.003   2.990   1.035
 2820SOL     OW 9358   6.529   3.269   4.152
 2820SOL    HW1 9359   6.590   3.288   4.229
 2820SOL    HW2 9360   6.434   3.274   4.183
 2821SOL     OW 9361   1.451   4.189   4.322
 2821SOL    HW1 9362   1.352   4.183   4.310
 2821SOL    HW2 9363   1.473   4.195   4.419
 2822SOL     OW 9364   4.823   1.831   6.677
 2822SOL    HW1 9365   4.862   1.912   6.633
 2822SOL    HW2 9366   4.845   1.833   6.775
 2823SOL     OW 9367   1.790   6.516   3.334
 2823SOL    HW1 9368   1.880   6.501   3.375
 2823SOL    HW2 9369   1.761   6.433   3.286
 2824SOL     OW 9370   2.985   1.234   5.001
 2824SOL    HW1 9371   3.042   1.166   4.955
 2824SOL    HW2 9372   3.012   1.325   4.971
 2825SOL     OW 9373   6.348   5.794   1.186
 2825SOL    HW1 9374   6.382   5.847   1.264
 2825SOL    HW2 9375   6.318   5.857   1.114
 2826SOL     OW 9376   4.936   1.946   4.405
 2826SOL    HW1 9377   4.895   1.920   4.317
 2826SOL    HW2 9378   4.865   1.946   4.476
 2827SOL     OW 9379   5.646   0.755   5.552
 2827SOL    HW1 9380   5.598   0.782   5.468
 2827SOL    HW2 9381   5.734   0.801   5.557
 2828SOL     OW 9382   3.498   1.476   5.233
 2828SOL    HW1 9383   3.427   1.410   5.259
 2828SOL    HW2 9384   3.572   1.474   5.300
 2829SOL     OW 9385   2.237   6.635   6.637
 2829SOL    HW1 9386   2.251   6.537   6.622
 2829SOL    HW2 9387   2.327   6.680   6.645
 2830SOL     OW 9388   3.673   3.741   6.998
 2830SOL    HW1 9389   3.585   3.762   0.019
 2830SOL    HW2 9390   3.705   3.653   0.008
 2831SOL     OW 9391   5.919   5.994   4.732
 2831SOL    HW1 9392   6.004   6.002   4.785
 2831SOL    HW2 9393   5.842   6.017   4.791
 2832SOL     OW 9394   0.374   0.944   2.131
 2832SOL    HW1 9395   0.460   0.991   2.116
 2832SOL    HW2 9396   0.315   0.955   2.051
 2833SOL     OW 9397   6.197   3.030   2.090
 2833SOL    HW1 9398   6.236   3.105   2.036
 2833SOL    HW2 9399   6.114   2.997   2.046
 2834SOL     OW 9400   3.717   1.072   5.399
 2834SOL    HW1 9401   3.662   1.033   5.325
 2834SOL    HW2 9402   3.685   1.164   5.420
 2835SOL     OW 9403   0.009   6.385   2.673
 2835SOL    HW1 9404   6.961   6.419   2.736
 2835SOL    HW2 9405   0.003   6.435   2.587
 2836SOL     OW 9406   6.894   0.689   1.161
 2836SOL    HW1 9407   6.947   0.774   1.167
 2836SOL    HW2 9408   6.942   0.617   1.212
 2837SOL     OW 9409   5.361   3.782   3.659
 2837SOL    HW1 9410   5.378   3.684   3.660
 2837SOL    HW2 9411   5.447   3.831   3.668
 2838SOL     OW 9412   3.321   5.167   2.805
 2838SOL    HW1 9413   3.300   5.076   2.770
 2838SOL    HW2 9414   3.420   5.182   2.800
 2839SOL     OW 9415   5.356   1.968   1.288
 2839SOL    HW1 9416   5.278   1.930   1.337
 2839SOL    HW2 9417   5.435   1.972   1.350
 2840SOL     OW 9418   6.683   1.632   5.289
 2840SOL    HW1 9419   6.689   1.599   5.195
 2840SOL    HW2 9420   6.772   1.667   5.317
 2841SOL     OW 9421   0.715   6.415   1.424
 2841SOL    HW1 9422   0.633   6.445   1.473
 2841SOL    HW2 9423   0.795   6.426   1.483
 2842SOL     OW 9424   0.036   3.800   2.711
 2842SOL    HW1 9425   0.068   3.826   2.620
 2842SOL    HW2 9426   6.967   3.758   2.705
 2843SOL     OW 9427   4.133   1.222   4.655
 2843SOL    HW1 9428   4.065   1.158   4.690
 2843SOL    HW2 9429   4.142   1.210   4.556
 2844SOL     OW 9430   6.932   4.221   6.529
 2844SOL    HW1 9431   6.915   4.219   6.431
 2844SOL    HW2 9432   6.889   4.302   6.569
 2845SOL     OW 9433   0.370   4.598   5.950
 2845SOL    HW1 9434   0.356   4.576   5.854
 2845SOL    HW2 9435   0.403   4.693   5.958
 2846SOL     OW 9436   5.197   1.841   6.303
 2846SOL    HW1 9437   5.250   1.756   6.296
 2846SOL    HW2 9438   5.195   1.872   6.398
 2847SOL     OW 9439   5.720   4.374   4.379
 2847SOL    HW1 9440   5.805   4.402   4.334
 2847SOL    HW2 9441   5.655   4.450   4.377
 2848SOL     OW 9442   0.943   5.610   4.670
 2848SOL    HW1 9443   1.015   5.551   4.634
 2848SOL    HW2 9444   0.917   5.580   4.761
 2849SOL     OW 9445   2.947   2.276   1.101
 2849SOL    HW1 9446   2.921   2.195   1.155
 2849SOL    HW2 9447   2.929   2.259   1.004
 2850SOL     OW 9448   3.538   0.703   0.148
 2850SOL    HW1 9449   3.514   0.687   0.244
 2850SOL    HW2 9450   3.587   0.789   0.140
 2851SOL     OW 9451   1.488   4.217   5.958
 2851SOL    HW1 9452   1.394   4.185   5.961
 2851SOL    HW2 9453   1.507   4.257   5.868
 2852SOL     OW 9454   0.027   3.211   6.750
 2852SOL    HW1 9455   0.046   3.162   6.665
 2852SOL    HW2 9456   0.108   3.261   6.779
 2853SOL     OW 9457   3.629   3.478   0.842
 2853SOL    HW1 9458   3.608   3.425   0.924
 2853SOL    HW2 9459   3.570   3.560   0.840
 2854SOL     OW 9460   2.459   1.214   3.750
 2854SOL    HW1 9461   2.490   1.160   3.672
 2854SOL    HW2 9462   2.538   1.242   3.805
 2855SOL     OW 9463   2.418   0.924   4.819
 2855SOL    HW1 9464   2.332   0.975   4.824
 2855SOL    HW2 9465   2.465   0.929   4.907
 2856SOL     OW 9466   2.417   2.684   5.125
 2856SOL    HW1 9467   2.373   2.693   5.215
 2856SOL    HW2 9468   2.427   2.774   5.083
 2857SOL     OW 9469   3.124   3.446   1.773
 2857SOL    HW1 9470   3.096   3.355   1.801
 2857SOL    HW2 9471   3.048   3.491   1.726
 2858SOL     OW 9472   0.250   3.640   2.578
 2858SOL    HW1 9473   0.282   3.724   2.620
 2858SOL    HW2 9474   0.159   3.617   2.614
 2859SOL     OW 9475   5.879   0.203   0.818
 2859SOL    HW1 9476   5.816   0.236   0.748
 2859SOL    HW2 9477   5.970   0.193   0.778
 2860SOL     OW 9478   3.891   1.649   2.206
 2860SOL    HW1 9479   3.851   1.649   2.298
 2860SOL    HW2 9480   3.967   1.714   2.202
 2861SOL     OW 9481   3.798   5.678   5.978
 2861SOL    HW1 9482   3.714   5.664   6.032
 2861SOL    HW2 9483   3.868   5.613   6.009
 2862SOL     OW 9484   5.599   1.371   4.219
 2862SOL    HW1 9485   5.564   1.444   4.159
 2862SOL    HW2 9486   5.526   1.305   4.236
 2863SOL     OW 9487   6.782   2.069   6.630
 2863SOL    HW1 9488   6.881   2.066   6.641
 2863SOL    HW2 9489   6.760   2.082   6.533
 2864SOL     OW 9490   3.547   1.473   0.230
 2864SOL    HW1 9491   3.520   1.490   0.325
 2864SOL    HW2 9492   3.645   1.489   0.219
 2865SOL     OW 9493   4.697   4.238   5.110
 2865SOL    HW1 9494   4.742   4.326   5.124
 2865SOL    HW2 9495   4.735   4.194   5.029
 2866SOL     OW 9496   0.496   6.521   6.678
 2866SOL    HW1 9497   0.575   6.462   6.663
 2866SOL    HW2 9498   0.417   6.486   6.628
 2867SOL     OW 9499   6.645   4.270   3.877
 2867SOL    HW1 9500   6.695   4.184   3.881
 2867SOL    HW2 9501   6.585   4.270   3.797
 2868SOL     OW 9502   1.651   3.763   5.441
 2868SOL    HW1 9503   1.707   3.823   5.383
 2868SOL    HW2 9504   1.556   3.793   5.437
 2869SOL     OW 9505   6.076   1.281   2.431
 2869SOL    HW1 9506   6.058   1.188   2.399
 2869SOL    HW2 9507   6.056   1.346   2.358
 2870SOL     OW 9508   5.667   2.346   2.605
 2870SOL    HW1 9509   5.740   2.279   2.615
 2870SOL    HW2 9510   5.705   2.432   2.571
 2871SOL     OW 9511   1.334   1.963   6.433
 2871SOL    HW1 9512   1.295   2.046   6.474
 2871SOL    HW2 9513   1.415   1.987   6.380
 2872SOL     OW 9514   2.367   7.007   3.730
 2872SOL    HW1 9515   2.445   6.966   3.684
 2872SOL    HW2 9516   2.325   0.054   3.670
 2873SOL     OW 9517   0.738   5.306   1.625
 2873SOL    HW1 9518   0.639   5.324   1.628
 2873SOL    HW2 9519   0.754   5.208   1.614
 2874SOL     OW 9520   6.036   2.459   2.663
 2874SOL    HW1 9521   6.029   2.458   2.563
 2874SOL    HW2 9522   6.001   2.374   2.701
 2875SOL     OW 9523   3.348   4.867   6.502
 2875SOL    HW1 9524   3.409   4.945   6.488
 2875SOL    HW2 9525   3.379   4.814   6.581
 2876SOL     OW 9526   6.996   0.999   1.502
 2876SOL    HW1 9527   6.896   0.994   1.512
 2876SOL    HW2 9528   0.003   0.939   1.427
 2877SOL     OW 9529   2.744   2.776   5.591
 2877SOL    HW1 9530   2.796   2.713   5.649
 2877SOL    HW2 9531   2.788   2.866   5.593
 2878SOL     OW 9532   2.784   4.578   5.935
 2878SOL    HW1 9533   2.878   4.562   5.906
 2878SOL    HW2 9534   2.781   4.654   6.000
 2879SOL     OW 9535   5.130   3.909   0.637
 2879SOL    HW1 9536   5.036   3.908   0.603
 2879SOL    HW2 9537   5.146   3.993   0.689
 2880SOL     OW 9538   1.415   6.493   1.494
 2880SOL    HW1 9539   1.466   6.478   1.578
 2880SOL    HW2 9540   1.317   6.484   1.512
 2881SOL     OW 9541   6.902   6.595   0.872
 2881SOL    HW1 9542   6.972   6.564   0.808
 2881SOL    HW2 9543   6.866   6.516   0.922
 2882SOL     OW 9544   0.354   2.968   3.248
 2882SOL    HW1 9545   0.316   2.901   3.185
 2882SOL    HW2 9546   0.383   2.922   3.333
 2883SOL     OW 9547   3.669   0.041   2.276
 2883SOL    HW1 9548   3.751   0.091   2.304
 2883SOL    HW2 9549   3.639   7.004   2.352
 2884SOL     OW 9550   0.870   6.007   3.111
 2884SOL    HW1 9551   0.872   5.916   3.069
 2884SOL    HW2 9552   0.821   6.002   3.198
 2885SOL     OW 9553   0.749   2.686   3.317
 2885SOL    HW1 9554   0.688   2.618   3.277
 2885SOL    HW2 9555   0.706   2.727   3.397
 2886SOL     OW 9556   2.549   2.143   6.217
 2886SOL    HW1 9557   2.495   2.225   6.232
 2886SOL    HW2 9558   2.646   2.167   6.215
 2887SOL     OW 9559   1.456   0.684   5.044
 2887SOL    HW1 9560   1.458   0.782   5.062
 2887SOL    HW2 9561   1.384   0.663   4.978
 2888SOL     OW 9562   6.113   4.942   6.825
 2888SOL    HW1 9563   6.198   4.994   6.837
 2888SOL    HW2 9564   6.061   4.943   6.910
 2889SOL     OW 9565   0.392   0.112   1.578
 2889SOL    HW1 9566   0.485   0.145   1.597
 2889SOL    HW2 9567   0.326   0.177   1.616
 2890SOL     OW 9568   4.073   0.343   1.996
 2890SOL    HW1 9569   4.145   0.371   1.932
 2890SOL    HW2 9570   4.056   0.417   2.061
 2891SOL     OW 9571   2.672   4.717   3.989
 2891SOL    HW1 9572   2.645   4.743   4.081
 2891SOL    HW2 9573   2.600   4.659   3.949
 2892SOL     OW 9574   4.659   3.792   6.262
 2892SOL    HW1 9575   4.738   3.756   6.313
 2892SOL    HW2 9576   4.618   3.719   6.208
 2893SOL     OW 9577   2.643   0.200   5.274
 2893SOL    HW1 9578   2.624   0.191   5.177
 2893SOL    HW2 9579   2.576   0.262   5.316
 2894SOL     OW 9580   3.962   2.831   0.062
 2894SOL    HW1 9581   3.985   2.738   0.090
 2894SOL    HW2 9582   3.993   2.896   0.132
 2895SOL     OW 9583   3.511   3.493   6.218
 2895SOL    HW1 9584   3.437   3.503   6.152
 2895SOL    HW2 9585   3.506   3.402   6.259
 2896SOL     OW 9586   2.699   4.893   0.918
 2896SOL    HW1 9587   2.763   4.874   0.843
 2896SOL    HW2 9588   2.650   4.809   0.941
 2897SOL     OW 9589   2.021   5.918   4.026
 2897SOL    HW1 9590   2.013   5.822   4.000
 2897SOL    HW2 9591   2.104   5.957   3.987
 2898SOL     OW 9592   3.316   5.663   1.900
 2898SOL    HW1 9593   3.374   5.623   1.830
 2898SOL    HW2 9594   3.253   5.729   1.858
 2899SOL     OW 9595   6.831   6.776   0.403
 2899SOL    HW1 9596   6.738   6.771   0.441
 2899SOL    HW2 9597   6.887   6.834   0.462
 2900SOL     OW 9598   1.663   5.345   5.937
 2900SOL    HW1 9599   1.708   5.297   5.862
 2900SOL    HW2 9600   1.609   5.421   5.901
 2901SOL     OW 9601   2.767   0.532   1.686
 2901SOL    HW1 9602   2.718   0.494   1.764
 2901SOL    HW2 9603   2.772   0.464   1.613
 2902SOL     OW 9604   5.628   5.865   0.768
 2902SOL    HW1 9605   5.689   5.942   0.788
 2902SOL    HW2 9606   5.603   5.819   0.854
 2903SOL     OW 9607   1.892   1.379   1.689
 2903SOL    HW1 9608   1.958   1.443   1.649
 2903SOL    HW2 9609   1.928   1.286   1.681
 2904SOL     OW 9610   2.277   2.526   4.968
 2904SOL    HW1 9611   2.339   2.574   5.029
 2904SOL    HW2 9612   2.275   2.428   4.992
 2905SOL     OW 9613   2.247   2.373   1.901
 2905SOL    HW1 9614   2.208   2.463   1.882
 2905SOL    HW2 9615   2.210   2.339   1.987
 2906SOL     OW 9616   5.665   5.410   2.159
 2906SOL    HW1 9617   5.645   5.321   2.118
 2906SOL    HW2 9618   5.580   5.453   2.187
 2907SOL     OW 9619   6.608   1.173   3.996
 2907SOL    HW1 9620   6.587   1.086   3.952
 2907SOL    HW2 9621   6.526   1.230   4.000
 2908SOL     OW 9622   3.583   5.907   4.315
 2908SOL    HW1 9623   3.516   5.833   4.305
 2908SOL    HW2 9624   3.602   5.922   4.412
 2909SOL     OW 9625   1.287   5.718   4.701
 2909SOL    HW1 9626   1.343   5.744   4.623
 2909SOL    HW2 9627   1.223   5.791   4.723
 2910SOL     OW 9628   4.712   6.228   6.551
 2910SOL    HW1 9629   4.617   6.206   6.530
 2910SOL    HW2 9630   4.742   6.175   6.630
 2911SOL     OW 9631   1.926   4.285   3.127
 2911SOL    HW1 9632   1.999   4.220   3.148
 2911SOL    HW2 9633   1.841   4.235   3.113
 2912SOL     OW 9634   2.371   6.423   0.748
 2912SOL    HW1 9635   2.440   6.476   0.798
 2912SOL    HW2 9636   2.413   6.342   0.708
 2913SOL     OW 9637   1.651   3.857   2.801
 2913SOL    HW1 9638   1.693   3.819   2.883
 2913SOL    HW2 9639   1.721   3.904   2.747
 2914SOL     OW 9640   5.613   5.593   5.880
 2914SOL    HW1 9641   5.611   5.692   5.869
 2914SOL    HW2 9642   5.603   5.549   5.790
 2915SOL     OW 9643   4.697   1.331   3.815
 2915SOL    HW1 9644   4.640   1.372   3.744
 2915SOL    HW2 9645   4.774   1.283   3.773
 2916SOL     OW 9646   5.300   5.665   4.964
 2916SOL    HW1 9647   5.234   5.590   4.960
 2916SOL    HW2 9648   5.378   5.637   5.021
 2917SOL     OW 9649   4.713   0.537   2.295
 2917SOL    HW1 9650   4.684   0.516   2.202
 2917SOL    HW2 9651   4.726   0.636   2.304
 2918SOL     OW 9652   0.134   3.862   3.748
 2918SOL    HW1 9653   0.222   3.815   3.752
 2918SOL    HW2 9654   0.115   3.888   3.653
 2919SOL     OW 9655   6.249   5.707   0.428
 2919SOL    HW1 9656   6.293   5.700   0.339
 2919SOL    HW2 9657   6.181   5.780   0.427
 2920SOL     OW 9658   4.237   2.271   3.154
 2920SOL    HW1 9659   4.302   2.281   3.079
 2920SOL    HW2 9660   4.149   2.239   3.117
 2921SOL     OW 9661   0.019   0.434   1.822
 2921SOL    HW1 9662   0.086   0.376   1.776
 2921SOL    HW2 9663   6.962   0.379   1.850
 2922SOL     OW 9664   4.215   6.715   5.736
 2922SOL    HW1 9665   4.264   6.638   5.778
 2922SOL    HW2 9666   4.250   6.730   5.644
 2923SOL     OW 9667   6.247   4.732   1.955
 2923SOL    HW1 9668   6.178   4.660   1.964
 2923SOL    HW2 9669   6.229   4.785   1.872
 2924SOL     OW 9670   0.175   1.498   4.964
 2924SOL    HW1 9671   0.227   1.574   5.004
 2924SOL    HW2 9672   0.175   1.421   5.027
 2925SOL     OW 9673   5.439   3.591   1.720
 2925SOL    HW1 9674   5.472   3.531   1.793
 2925SOL    HW2 9675   5.339   3.583   1.713
 2926SOL     OW 9676   0.261   1.418   4.664
 2926SOL    HW1 9677   0.295   1.354   4.733
 2926SOL    HW2 9678   0.161   1.421   4.668
 2927SOL     OW 9679   0.773   2.658   2.232
 2927SOL    HW1 9680   0.857   2.605   2.239
 2927SOL    HW2 9681   0.792   2.744   2.186
 2928SOL     OW 9682   5.999   6.763   0.675
 2928SOL    HW1 9683   6.045   6.746   0.588
 2928SOL    HW2 9684   6.062   6.811   0.737
 2929SOL     OW 9685   0.565   6.898   5.965
 2929SOL    HW1 9686   0.551   6.833   6.039
 2929SOL    HW2 9687   0.492   6.887   5.897
 2930SOL     OW 9688   3.854   6.597   4.708
 2930SOL    HW1 9689   3.798   6.579   4.789
 2930SOL    HW2 9690   3.950   6.576   4.730
 2931SOL     OW 9691   4.316   6.506   6.145
 2931SOL    HW1 9692   4.329   6.605   6.144
 2931SOL    HW2 9693   4.392   6.463   6.193
 2932SOL     OW 9694   1.263   4.341   1.346
 2932SOL    HW1 9695   1.219   4.254   1.322
 2932SOL    HW2 9696   1.196   4.415   1.337
 2933SOL     OW 9697   5.250   2.096   3.330
 2933SOL    HW1 9698   5.255   1.997   3.343
 2933SOL    HW2 9699   5.188   2.117   3.254
 2934SOL     OW 9700   2.691   1.062   0.253
 2934SOL    HW1 9701   2.672   1.083   0.349
 2934SOL    HW2 9702   2.627   0.991   0.222
 2935SOL     OW 9703   5.900   2.494   1.198
 2935SOL    HW1 9704   5.939   2.407   1.228
 2935SOL    HW2 9705   5.809   2.504   1.237
 2936SOL     OW 9706   4.829   5.834   0.319
 2936SOL    HW1 9707   4.855   5.749   0.274
 2936SOL    HW2 9708   4.823   5.819   0.418
 2937SOL     OW 9709   3.067   4.885   6.731
 2937SOL    HW1 9710   3.024   4.813   6.678
 2937SOL    HW2 9711   3.115   4.845   6.809
 2938SOL     OW 9712   4.492   5.249   5.111
 2938SOL    HW1 9713   4.436   5.178   5.068
 2938SOL    HW2 9714   4.489   5.331   5.054
 2939SOL     OW 9715   6.875   6.328   5.615
 2939SOL    HW1 9716   6.938   6.252   5.601
 2939SOL    HW2 9717   6.847   6.365   5.527
 2940SOL     OW 9718   5.066   6.653   4.781
 2940SOL    HW1 9719   5.016   6.571   4.808
 2940SOL    HW2 9720   5.154   6.626   4.742
 2941SOL     OW 9721   1.938   2.030   5.433
 2941SOL    HW1 9722   1.968   1.945   5.477
 2941SOL    HW2 9723   1.859   2.067   5.481
 2942SOL     OW 9724   3.083   6.463   3.099
 2942SOL    HW1 9725   2.985   6.469   3.114
 2942SOL    HW2 9726   3.109   6.525   3.024
 2943SOL     OW 9727   6.161   3.926   3.406
 2943SOL    HW1 9728   6.076   3.924   3.353
 2943SOL    HW2 9729   6.225   3.857   3.370
 2944SOL     OW 9730   4.136   5.919   5.832
 2944SOL    HW1 9731   4.187   5.953   5.912
 2944SOL    HW2 9732   4.152   5.821   5.823
 2945SOL     OW 9733   3.059   3.112   3.114
 2945SOL    HW1 9734   3.006   3.191   3.143
 2945SOL    HW2 9735   3.099   3.067   3.195
 2946SOL     OW 9736   0.054   5.957   6.455
 2946SOL    HW1 9737   6.990   5.953   6.402
 2946SOL    HW2 9738   0.032   5.954   6.553
 2947SOL     OW 9739   6.339   4.555   0.513
 2947SOL    HW1 9740   6.250   4.601   0.518
 2947SOL    HW2 9741   6.400   4.609   0.455
 2948SOL     OW 9742   5.655   3.999   4.712
 2948SOL    HW1 9743   5.646   4.080   4.654
 2948SOL    HW2 9744   5.748   3.994   4.749
 2949SOL     OW 9745   1.442   6.424   0.616
 2949SOL    HW1 9746   1.518   6.455   0.559
 2949SOL    HW2 9747   1.451   6.463   0.708
 2950SOL     OW 9748   5.188   3.174   4.297
 2950SOL    HW1 9749   5.216   3.103   4.361
 2950SOL    HW2 9750   5.185   3.137   4.204
 2951SOL     OW 9751   0.379   1.732   1.457
 2951SOL    HW1 9752   0.311   1.783   1.509
 2951SOL    HW2 9753   0.423   1.665   1.517
 2952SOL     OW 9754   1.901   3.969   2.245
 2952SOL    HW1 9755   1.853   4.056   2.245
 2952SOL    HW2 9756   1.840   3.898   2.210
 2953SOL     OW 9757   4.958   2.401   1.987
 2953SOL    HW1 9758   4.940   2.425   2.083
 2953SOL    HW2 9759   4.933   2.305   1.972
 2954SOL     OW 9760   6.207   6.507   2.535
 2954SOL    HW1 9761   6.234   6.443   2.463
 2954SOL    HW2 9762   6.249   6.479   2.622
 2955SOL     OW 9763   0.825   2.903   0.522
 2955SOL    HW1 9764   0.810   2.878   0.618
 2955SOL    HW2 9765   0.737   2.918   0.478
 2956SOL     OW 9766   0.025   5.351   2.843
 2956SOL    HW1 9767   0.124   5.357   2.826
 2956SOL    HW2 9768   0.010   5.324   2.938
 2957SOL     OW 9769   1.129   3.467   2.085
 2957SOL    HW1 9770   1.039   3.462   2.128
 2957SOL    HW2 9771   1.127   3.533   2.011
 2958SOL     OW 9772   1.898   4.615   5.909
 2958SOL    HW1 9773   1.930   4.527   5.873
 2958SOL    HW2 9774   1.963   4.649   5.978
 2959SOL     OW 9775   4.322   5.377   6.815
 2959SOL    HW1 9776   4.374   5.461   6.798
 2959SOL    HW2 9777   4.384   5.306   6.848
 2960SOL     OW 9778   1.500   1.750   0.412
 2960SOL    HW1 9779   1.516   1.820   0.343
 2960SOL    HW2 9780   1.439   1.680   0.375
 2961SOL     OW 9781   5.879   3.520   3.866
 2961SOL    HW1 9782   5.812   3.591   3.848
 2961SOL    HW2 9783   5.930   3.498   3.783
 2962SOL     OW 9784   4.699   0.769   3.190
 2962SOL    HW1 9785   4.623   0.729   3.243
 2962SOL    HW2 9786   4.766   0.807   3.253
 2963SOL     OW 9787   2.263   1.965   4.829
 2963SOL    HW1 9788   2.338   1.949   4.893
 2963SOL    HW2 9789   2.277   1.911   4.746
 2964SOL     OW 9790   3.435   6.199   0.473
 2964SOL    HW1 9791   3.359   6.246   0.428
 2964SOL    HW2 9792   3.427   6.100   0.458
 2965SOL     OW 9793   0.259   1.962   6.388
 2965SOL    HW1 9794   0.325   1.967   6.463
 2965SOL    HW2 9795   0.168   1.984   6.422
 2966SOL     OW 9796   4.501   4.435   3.967
 2966SOL    HW1 9797   4.518   4.415   4.064
 2966SOL    HW2 9798   4.588   4.439   3.918
 2967SOL     OW 9799   6.092   2.858   3.758
 2967SOL    HW1 9800   6.136   2.794   3.695
 2967SOL    HW2 9801   6.031   2.808   3.819
 2968SOL     OW 9802   0.611   4.273   3.772
 2968SOL    HW1 9803   0.617   4.248   3.869
 2968SOL    HW2 9804   0.589   4.191   3.718
 2969SOL     OW 9805   5.129   1.910   4.772
 2969SOL    HW1 9806   5.086   1.999   4.757
 2969SOL    HW2 9807   5.170   1.878   4.687
 2970SOL     OW 9808   0.950   4.185   6.280
 2970SOL    HW1 9809   1.028   4.235   6.242
 2970SOL    HW2 9810   0.876   4.184   6.213
 2971SOL     OW 9811   5.034   2.039   2.557
 2971SOL    HW1 9812   5.086   2.058   2.473
 2971SOL    HW2 9813   5.098   2.025   2.633
 2972SOL     OW 9814   6.818   3.491   5.224
 2972SOL    HW1 9815   6.732   3.521   5.266
 2972SOL    HW2 9816   6.825   3.392   5.230
 2973SOL     OW 9817   5.203   6.267   3.546
 2973SOL    HW1 9818   5.139   6.333   3.507
 2973SOL    HW2 9819   5.199   6.272   3.646
 2974SOL     OW 9820   6.929   4.125   2.447
 2974SOL    HW1 9821   6.950   4.174   2.531
 2974SOL    HW2 9822   6.995   4.149   2.376
 2975SOL     OW 9823   0.081   0.813   5.432
 2975SOL    HW1 9824   7.016   0.831   5.386
 2975SOL    HW2 9825   0.116   0.898   5.473
 2976SOL     OW 9826   3.377   0.463   2.422
 2976SOL    HW1 9827   3.354   0.420   2.335
 2976SOL    HW2 9828   3.430   0.399   2.478
 2977SOL     OW 9829   3.337   6.149   3.959
 2977SOL    HW1 9830   3.288   6.229   3.993
 2977SOL    HW2 9831   3.429   6.176   3.930
 2978SOL     OW 9832   5.165   4.783   0.074
 2978SOL    HW1 9833   5.200   4.871   0.107
 2978SOL    HW2 9834   5.160   4.785   6.995
 2979SOL     OW 9835   3.902   0.366   3.175
 2979SOL    HW1 9836   3.899   0.309   3.257
 2979SOL    HW2 9837   3.931   0.459   3.200
 2980SOL     OW 9838   0.258   5.960   4.320
 2980SOL    HW1 9839   0.304   5.871   4.328
 2980SOL    HW2 9840   0.323   6.027   4.284
 2981SOL     OW 9841   2.077   0.872   5.748
 2981SOL    HW1 9842   1.979   0.853   5.738
 2981SOL    HW2 9843   2.118   0.805   5.810
 2982SOL     OW 9844   4.890   6.536   2.393
 2982SOL    HW1 9845   4.812   6.521   2.332
 2982SOL    HW2 9846   4.973   6.501   2.350
 2983SOL     OW 9847   6.575   0.788   3.650
 2983SOL    HW1 9848   6.573   0.807   3.552
 2983SOL    HW2 9849   6.666   0.756   3.676
 2984SOL     OW 9850   5.743   5.711   1.527
 2984SOL    HW1 9851   5.682   5.640   1.490
 2984SOL    HW2 9852   5.772   5.685   1.619
 2985SOL     OW 9853   6.158   2.486   2.984
 2985SOL    HW1 9854   6.072   2.532   3.006
 2985SOL    HW2 9855   6.140   2.407   2.926
 2986SOL     OW 9856   1.849   3.539   5.035
 2986SOL    HW1 9857   1.921   3.563   5.100
 2986SOL    HW2 9858   1.832   3.441   5.038
 2987SOL     OW 9859   4.214   2.265   4.375
 2987SOL    HW1 9860   4.177   2.281   4.284
 2987SOL    HW2 9861   4.180   2.178   4.410
 2988SOL     OW 9862   0.997   0.349   1.580
 2988SOL    HW1 9863   0.956   0.326   1.491
 2988SOL    HW2 9864   1.057   0.428   1.569
 2989SOL     OW 9865   6.761   5.019   1.195
 2989SOL    HW1 9866   6.694   5.030   1.268
 2989SOL    HW2 9867   6.738   4.939   1.140
 2990SOL     OW 9868   3.893   1.222   1.545
 2990SOL    HW1 9869   3.852   1.227   1.453
 2990SOL    HW2 9870   3.942   1.307   1.564
 2991SOL     OW 9871   6.867   3.861   0.380
 2991SOL    HW1 9872   6.910   3.780   0.419
 2991SOL    HW2 9873   6.768   3.854   0.391
 2992SOL     OW 9874   3.339   5.514   6.539
 2992SOL    HW1 9875   3.419   5.458   6.558
 2992SOL    HW2 9876   3.256   5.459   6.547
 2993SOL     OW 9877   1.474   5.456   1.503
 2993SOL    HW1 9878   1.503   5.436   1.596
 2993SOL    HW2 9879   1.374   5.459   1.499
 2994SOL     OW 9880   4.933   6.633   6.995
 2994SOL    HW1 9881   4.979   6.706   6.943
 2994SOL    HW2 9882   5.000   6.563   7.020
 2995SOL     OW 9883   1.848   1.330   6.293
 2995SOL    HW1 9884   1.817   1.267   6.223
 2995SOL    HW2 9885   1.912   1.283   6.354
 2996SOL     OW 9886   4.189   5.343   6.257
 2996SOL    HW1 9887   4.268   5.325   6.315
 2996SOL    HW2 9888   4.206   5.306   6.165
 2997SOL     OW 9889   5.726   6.701   0.510
 2997SOL    HW1 9890   5.813   6.704   0.460
 2997SOL    HW2 9891   5.744   6.693   0.608
 2998SOL     OW 9892   6.304   5.880   4.707
 2998SOL    HW1 9893   6.341   5.959   4.657
 2998SOL    HW2 9894   6.207   5.870   4.686
 2999SOL     OW 9895   3.033   0.068   3.676
 2999SOL    HW1 9896   3.081   7.005   3.652
 2999SOL    HW2 9897   3.076   0.145   3.629
 3000SOL     OW 9898   0.978   2.891   5.424
 3000SOL    HW1 9899   0.908   2.958   5.452
 3000SOL    HW2 9900   1.020   2.921   5.339
 3001SOL     OW 9901   4.988   6.898   5.444
 3001SOL    HW1 9902   4.968   6.935   5.535
 3001SOL    HW2 9903   4.904   6.892   5.391
 3002SOL     OW 9904   3.618   0.264   6.108
 3002SOL    HW1 9905   3.692   0.330   6.100
 3002SOL    HW2 9906   3.588   0.260   6.204
 3003SOL     OW 9907   2.550   6.681   6.050
 3003SOL    HW1 9908   2.467   6.664   5.997
 3003SOL    HW2 9909   2.629   6.674   5.990
 3004SOL     OW 9910   5.921   2.828   4.536
 3004SOL    HW1 9911   5.864   2.777   4.471
 3004SOL    HW2 9912   5.884   2.921   4.547
 3005SOL     OW 9913   4.438   2.693   1.191
 3005SOL    HW1 9914   4.375   2.770   1.178
 3005SOL    HW2 9915   4.436   2.665   1.287
 3006SOL     OW 9916   5.685   0.767   1.520
 3006SOL    HW1 9917   5.742   0.830   1.573
 3006SOL    HW2 9918   5.634   0.818   1.451
 3007SOL     OW 9919   6.029   5.075   3.333
 3007SOL    HW1 9920   5.982   5.143   3.277
 3007SOL    HW2 9921   5.990   4.985   3.315
 3008SOL     OW 9922   3.464   6.367   6.036
 3008SOL    HW1 9923   3.482   6.276   6.000
 3008SOL    HW2 9924   3.366   6.378   6.054
 3009SOL     OW 9925   1.499   6.780   3.162
 3009SOL    HW1 9926   1.536   6.742   3.246
 3009SOL    HW2 9927   1.467   6.873   3.178
 3010SOL     OW 9928   3.608   6.002   2.706
 3010SOL    HW1 9929   3.695   5.966   2.673
 3010SOL    HW2 9930   3.579   6.077   2.648
 3011SOL     OW 9931   5.366   0.147   0.289
 3011SOL    HW1 9932   5.322   0.075   0.342
 3011SOL    HW2 9933   5.422   0.107   0.217
 3012SOL     OW 9934   0.479   3.996   3.169
 3012SOL    HW1 9935   0.459   3.927   3.239
 3012SOL    HW2 9936   0.431   4.081   3.191
 3013SOL     OW 9937   6.197   4.912   2.404
 3013SOL    HW1 9938   6.179   4.830   2.350
 3013SOL    HW2 9939   6.158   4.901   2.496
 3014SOL     OW 9940   4.490   0.615   4.608
 3014SOL    HW1 9941   4.534   0.544   4.663
 3014SOL    HW2 9942   4.540   0.627   4.523
 3015SOL     OW 9943   3.204   2.273   0.526
 3015SOL    HW1 9944   3.198   2.196   0.590
 3015SOL    HW2 9945   3.288   2.324   0.543
 3016SOL     OW 9946   3.701   6.683   3.226
 3016SOL    HW1 9947   3.768   6.610   3.222
 3016SOL    HW2 9948   3.633   6.662   3.296
 3017SOL     OW 9949   0.252   6.163   1.190
 3017SOL    HW1 9950   0.284   6.188   1.281
 3017SOL    HW2 9951   0.329   6.131   1.135
 3018SOL     OW 9952   3.924   6.171   6.773
 3018SOL    HW1 9953   3.955   6.090   6.822
 3018SOL    HW2 9954   3.862   6.224   6.832
 3019SOL     OW 9955   4.039   6.903   1.309
 3019SOL    HW1 9956   3.980   6.842   1.256
 3019SOL    HW2 9957   3.989   6.986   1.331
 3020SOL     OW 9958   2.378   2.952   0.968
 3020SOL    HW1 9959   2.426   2.867   0.943
 3020SOL    HW2 9960   2.292   2.930   1.013
 3021SOL     OW 9961   2.092   2.321   6.935
 3021SOL    HW1 9962   2.159   2.317   6.861
 3021SOL    HW2 9963   2.135   2.292   7.021
 3022SOL     OW 9964   5.000   0.093   2.864
 3022SOL    HW1 9965   4.978   0.031   2.939
 3022SOL    HW2 9966   5.087   0.066   2.822
 3023SOL     OW 9967   5.025   5.986   2.263
 3023SOL    HW1 9968   5.083   5.919   2.218
 3023SOL    HW2 9969   4.968   6.032   2.195
 3024SOL     OW 9970   3.210   6.929   6.941
 3024SOL    HW1 9971   3.286   6.873   6.909
 3024SOL    HW2 9972   3.148   6.947   6.864
 3025SOL     OW 9973   2.494   2.718   1.322
 3025SOL    HW1 9974   2.538   2.652   1.261
 3025SOL    HW2 9975   2.559   2.790   1.347
 3026SOL     OW 9976   2.012   4.111   0.646
 3026SOL    HW1 9977   1.975   4.130   0.736
 3026SOL    HW2 9978   1.957   4.040   0.601
 3027SOL     OW 9979   1.686   1.942   3.165
 3027SOL    HW1 9980   1.783   1.946   3.142
 3027SOL    HW2 9981   1.647   2.034   3.161
 3028SOL     OW 9982   1.475   6.600   5.777
 3028SOL    HW1 9983   1.401   6.602   5.844
 3028SOL    HW2 9984   1.436   6.601   5.684
 3029SOL     OW 9985   5.479   5.581   5.158
 3029SOL    HW1 9986   5.505   5.677   5.145
 3029SOL    HW2 9987   5.548   5.535   5.214
 3030SOL     OW 9988   1.739   2.171   5.540
 3030SOL    HW1 9989   1.661   2.139   5.593
 3030SOL    HW2 9990   1.706   2.223   5.461
 3031SOL     OW 9991   0.335   4.754   6.323
 3031SOL    HW1 9992   0.320   4.828   6.388
 3031SOL    HW2 9993   0.247   4.725   6.284
 3032SOL     OW 9994   5.142   0.290   5.616
 3032SOL    HW1 9995   5.239   0.303   5.640
 3032SOL    HW2 9996   5.135   0.265   5.520
 3033SOL     OW 9997   6.382   3.602   6.535
 3033SOL    HW1 9998   6.451   3.594   6.607
 3033SOL    HW2 9999   6.413   3.668   6.466
 3034SOL     OW10000   2.918   6.887   4.784
 3034SOL    HW110001   2.929   6.832   4.701
 3034SOL    HW210002   2.821   6.900   4.803
 3035SOL     OW10003   5.515   1.166   6.806
 3035SOL    HW110004   5.462   1.232   6.752
 3035SOL    HW210005   5.519   1.197   6.901
 3036SOL     OW10006   1.035   4.513   0.287
 3036SOL    HW110007   1.026   4.612   0.280
 3036SOL    HW210008   1.027   4.472   0.196
 3037SOL     OW10009   6.609   6.761   5.247
 3037SOL    HW110010   6.608   6.838   5.310
 3037SOL    HW210011   6.634   6.794   5.155
 3038SOL     OW10012   5.476   6.819   6.089
 3038SOL    HW110013   5.490   6.779   6.180
 3038SOL    HW210014   5.386   6.862   6.085
 3039SOL     OW10015   1.072   4.528   1.322
 3039SOL    HW110016   1.103   4.542   1.228
 3039SOL    HW210017   1.028   4.611   1.356
 3040SOL     OW10018   2.668   3.391   0.111
 3040SOL    HW110019   2.660   3.302   0.067
 3040SOL    HW210020   2.693   3.378   0.207
 3041SOL     OW10021   2.157   2.248   6.092
 3041SOL    HW110022   2.103   2.169   6.121
 3041SOL    HW210023   2.204   2.227   6.006
 3042SOL     OW10024   4.645   0.406   1.864
 3042SOL    HW110025   4.603   0.378   1.950
 3042SOL    HW210026   4.708   0.335   1.833
 3043SOL     OW10027   0.808   5.767   0.739
 3043SOL    HW110028   0.804   5.862   0.708
 3043SOL    HW210029   0.779   5.707   0.665
 3044SOL     OW10030   3.335   4.619   6.161
 3044SOL    HW110031   3.402   4.674   6.210
 3044SOL    HW210032   3.381   4.544   6.113
 3045SOL     OW10033   5.656   2.300   3.165
 3045SOL    HW110034   5.702   2.289   3.077
 3045SOL    HW210035   5.577   2.361   3.154
 3046SOL     OW10036   1.836   2.551   5.994
 3046SOL    HW110037   1.869   2.543   5.900
 3046SOL    HW210038   1.913   2.558   6.057
 3047SOL     OW10039   6.397   5.113   2.478
 3047SOL    HW110040   6.386   5.196   2.424
 3047SOL    HW210041   6.333   5.043   2.445
 3048SOL     OW10042   3.048   2.856   1.565
 3048SOL    HW110043   3.099   2.923   1.618
 3048SOL    HW210044   3.039   2.771   1.618
 3049SOL     OW10045   0.519   0.288   2.139
 3049SOL    HW110046   0.482   0.370   2.183
 3049SOL    HW210047   0.447   0.244   2.085
 3050SOL     OW10048   4.687   5.832   4.059
 3050SOL    HW110049   4.731   5.917   4.086
 3050SOL    HW210050   4.718   5.806   3.967
 3051SOL     OW10051   2.489   4.639   6.869
 3051SOL    HW110052   2.513   4.713   6.805
 3051SOL    HW210053   2.557   4.566   6.860
 3052SOL     OW10054   4.512   6.721   3.047
 3052SOL    HW110055   4.568   6.675   3.116
 3052SOL    HW210056   4.416   6.709   3.070
 3053SOL     OW10057   5.806   6.639   0.110
 3053SOL    HW110058   5.763   6.549   0.098
 3053SOL    HW210059   5.839   6.647   0.204
 3054SOL     OW10060   0.947   2.973   6.772
 3054SOL    HW110061   1.044   2.991   6.760
 3054SOL    HW210062   0.934   2.891   6.827
 3055SOL     OW10063   5.747   6.466   3.370
 3055SOL    HW110064   5.664   6.520   3.353
 3055SOL    HW210065   5.732   6.406   3.448
 3056SOL     OW10066   6.835   0.672   0.873
 3056SOL    HW110067   6.858   0.696   0.968
 3056SOL    HW210068   6.917   0.679   0.817
 3057SOL     OW10069   5.924   5.234   2.801
 3057SOL    HW110070   5.856   5.273   2.739
 3057SOL    HW210071   5.888   5.151   2.844
 3058SOL     OW10072   6.525   5.122   1.824
 3058SOL    HW110073   6.579   5.185   1.768
 3058SOL    HW210074   6.515   5.160   1.916
 3059SOL     OW10075   1.965   2.149   4.601
 3059SOL    HW110076   2.010   2.060   4.605
 3059SOL    HW210077   1.985   2.201   4.684
 3060SOL     OW10078   6.539   6.424   1.322
 3060SOL    HW110079   6.461   6.362   1.330
 3060SOL    HW210080   6.506   6.518   1.318
 3061SOL     OW10081   0.437   0.482   6.195
 3061SOL    HW110082   0.530   0.517   6.186
 3061SOL    HW210083   0.410   0.437   6.110
 3062SOL     OW10084   3.174   6.569   0.696
 3062SOL    HW110085   3.169   6.482   0.746
 3062SOL    HW210086   3.234   6.632   0.744
 3063SOL     OW10087   1.659   4.899   1.294
 3063SOL    HW110088   1.639   4.992   1.325
 3063SOL    HW210089   1.758   4.887   1.288
 3064SOL     OW10090   6.348   4.112   3.295
 3064SOL    HW110091   6.294   4.060   3.362
 3064SOL    HW210092   6.313   4.094   3.203
 3065SOL     OW10093   1.770   1.108   0.156
 3065SOL    HW110094   1.818   1.096   0.243
 3065SOL    HW210095   1.762   1.019   0.110
 3066SOL     OW10096   5.945   4.823   1.632
 3066SOL    HW110097   5.858   4.788   1.598
 3066SOL    HW210098   5.939   4.923   1.642
 3067SOL     OW10099   5.117   6.959   4.436
 3067SOL    HW110100   5.053   6.888   4.467
 3067SOL    HW210101   5.106   0.019   4.493
 3068SOL     OW10102   5.674   4.849   0.686
 3068SOL    HW110103   5.747   4.914   0.706
 3068SOL    HW210104   5.713   4.767   0.644
 3069SOL     OW10105   0.562   6.214   2.283
 3069SOL    HW110106   0.590   6.170   2.368
 3069SOL    HW210107   0.603   6.304   2.277
 3070SOL     OW10108   3.628   1.280   3.983
 3070SOL    HW110109   3.682   1.364   3.997
 3070SOL    HW210110   3.641   1.248   3.889
 3071SOL     OW10111   5.238   6.937   3.579
 3071SOL    HW110112   5.271   6.860   3.634
 3071SOL    HW210113   5.316   6.980   3.532
 3072SOL     OW10114   0.741   0.136   2.231
 3072SOL    HW110115   0.800   0.216   2.217
 3072SOL    HW210116   0.647   0.160   2.207
 3073SOL     OW10117   1.064   3.790   5.076
 3073SOL    HW110118   1.062   3.868   5.013
 3073SOL    HW210119   0.970   3.762   5.096
 3074SOL     OW10120   4.737   2.806   6.271
 3074SOL    HW110121   4.822   2.766   6.237
 3074SOL    HW210122   4.662   2.743   6.255
 3075SOL     OW10123   1.503   5.771   1.348
 3075SOL    HW110124   1.563   5.695   1.324
 3075SOL    HW210125   1.471   5.760   1.442
 3076SOL     OW10126   6.651   0.642   4.929
 3076SOL    HW110127   6.613   0.628   5.020
 3076SOL    HW210128   6.739   0.595   4.922
 3077SOL     OW10129   4.906   5.017   3.763
 3077SOL    HW110130   4.853   5.088   3.808
 3077SOL    HW210131   4.978   4.984   3.824
 3078SOL     OW10132   1.588   3.805   1.791
 3078SOL    HW110133   1.663   3.744   1.816
 3078SOL    HW210134   1.624   3.879   1.733
 3079SOL     OW10135   0.211   2.152   5.034
 3079SOL    HW110136   0.293   2.210   5.030
 3079SOL    HW210137   0.131   2.204   5.007
 3080SOL     OW10138   6.186   4.911   0.614
 3080SOL    HW110139   6.219   4.886   0.705
 3080SOL    HW210140   6.263   4.941   0.558
 3081SOL     OW10141   0.208   5.029   5.320
 3081SOL    HW110142   0.280   4.974   5.362
 3081SOL    HW210143   0.179   5.101   5.383
 3082SOL     OW10144   3.144   6.937   2.659
 3082SOL    HW110145   3.076   6.975   2.596
 3082SOL    HW210146   3.226   6.911   2.607
 3083SOL     OW10147   3.370   0.295   1.705
 3083SOL    HW110148   3.273   0.274   1.697
 3083SOL    HW210149   3.423   0.210   1.705
 3084SOL     OW10150   5.449   5.702   4.703
 3084SOL    HW110151   5.511   5.780   4.699
 3084SOL    HW210152   5.420   5.687   4.797
 3085SOL     OW10153   0.726   5.672   2.458
 3085SOL    HW110154   0.630   5.646   2.468
 3085SOL    HW210155   0.731   5.763   2.417
 3086SOL     OW10156   4.438   1.018   3.523
 3086SOL    HW110157   4.369   1.077   3.566
 3086SOL    HW210158   4.396   0.969   3.446
 3087SOL     OW10159   6.732   3.907   3.014
 3087SOL    HW110160   6.652   3.924   3.071
 3087SOL    HW210161   6.709   3.839   2.944
 3088SOL     OW10162   2.757   4.815   6.075
 3088SOL    HW110163   2.756   4.880   5.998
 3088SOL    HW210164   2.830   4.840   6.139
 3089SOL     OW10165   1.694   2.970   0.455
 3089SOL    HW110166   1.668   3.036   0.384
 3089SOL    HW210167   1.736   2.890   0.411
 3090SOL     OW10168   1.390   1.903   1.244
 3090SOL    HW110169   1.309   1.943   1.287
 3090SOL    HW210170   1.402   1.809   1.274
 3091SOL     OW10171   3.112   6.960   0.358
 3091SOL    HW110172   3.086   6.884   0.417
 3091SOL    HW210173   3.125   0.021   0.414
 3092SOL     OW10174   5.568   6.841   1.018
 3092SOL    HW110175   5.657   6.887   1.015
 3092SOL    HW210176   5.496   6.908   1.037
 3093SOL     OW10177   5.229   5.187   5.025
 3093SOL    HW110178   5.212   5.138   5.110
 3093SOL    HW210179   5.312   5.242   5.033
 3094SOL     OW10180   2.983   6.162   6.024
 3094SOL    HW110181   3.055   6.098   5.996
 3094SOL    HW210182   2.908   6.157   5.958
 3095SOL     OW10183   2.989   4.870   5.109
 3095SOL    HW110184   2.934   4.786   5.110
 3095SOL    HW210185   2.996   4.904   5.015
 3096SOL     OW10186   0.679   0.968   5.888
 3096SOL    HW110187   0.751   0.982   5.820
 3096SOL    HW210188   0.718   0.925   5.969
 3097SOL     OW10189   1.046   3.172   6.988
 3097SOL    HW110190   1.017   3.260   6.949
 3097SOL    HW210191   1.144   3.161   6.977
 3098SOL     OW10192   2.725   2.711   0.842
 3098SOL    HW110193   2.735   2.748   0.750
 3098SOL    HW210194   2.634   2.731   0.877
 3099SOL     OW10195   0.567   5.432   5.641
 3099SOL    HW110196   0.647   5.451   5.584
 3099SOL    HW210197   0.486   5.473   5.600
 3100SOL     OW10198   0.120   6.893   6.698
 3100SOL    HW110199   0.087   6.897   6.792
 3100SOL    HW210200   0.214   6.926   6.695
 3101SOL     OW10201   4.625   0.162   0.034
 3101SOL    HW110202   4.668   0.075   0.011
 3101SOL    HW210203   4.606   0.165   0.132
 3102SOL     OW10204   1.894   4.379   1.115
 3102SOL    HW110205   1.947   4.464   1.111
 3102SOL    HW210206   1.797   4.400   1.099
 3103SOL     OW10207   3.941   2.859   1.791
 3103SOL    HW110208   3.900   2.809   1.715
 3103SOL    HW210209   4.039   2.869   1.776
 3104SOL     OW10210   6.326   6.084   4.514
 3104SOL    HW110211   6.284   6.174   4.504
 3104SOL    HW210212   6.369   6.057   4.429
 3105SOL     OW10213   5.926   6.117   4.472
 3105SOL    HW110214   5.927   6.213   4.498
 3105SOL    HW210215   5.963   6.062   4.547
 3106SOL     OW10216   6.923   2.536   3.630
 3106SOL    HW110217   6.981   2.609   3.595
 3106SOL    HW210218   6.980   2.457   3.655
 3107SOL     OW10219   2.710   0.552   3.736
 3107SOL    HW110220   2.794   0.506   3.767
 3107SOL    HW210221   2.666   0.497   3.666
 3108SOL     OW10222   2.801   1.201   3.289
 3108SOL    HW110223   2.792   1.111   3.247
 3108SOL    HW210224   2.781   1.272   3.222
 3109SOL     OW10225   4.643   5.739   2.854
 3109SOL    HW110226   4.657   5.733   2.952
 3109SOL    HW210227   4.644   5.647   2.814
 3110SOL     OW10228   1.145   2.937   2.613
 3110SOL    HW110229   1.126   2.869   2.683
 3110SOL    HW210230   1.179   2.893   2.531
 3111SOL     OW10231   0.236   5.407   3.652
 3111SOL    HW110232   0.320   5.438   3.696
 3111SOL    HW210233   0.159   5.420   3.714
 3112SOL     OW10234   4.575   4.269   6.380
 3112SOL    HW110235   4.641   4.200   6.407
 3112SOL    HW210236   4.505   4.228   6.322
 3113SOL     OW10237   2.865   6.567   3.844
 3113SOL    HW110238   2.842   6.612   3.758
 3113SOL    HW210239   2.786   6.566   3.904
 3114SOL     OW10240   6.454   5.155   0.667
 3114SOL    HW110241   6.416   5.244   0.689
 3114SOL    HW210242   6.446   5.094   0.746
 3115SOL     OW10243   2.982   3.786   1.172
 3115SOL    HW110244   3.016   3.872   1.133
 3115SOL    HW210245   2.883   3.790   1.180
 3116SOL     OW10246   6.482   2.580   0.543
 3116SOL    HW110247   6.404   2.599   0.483
 3116SOL    HW210248   6.453   2.519   0.617
 3117SOL     OW10249   3.743   3.224   5.320
 3117SOL    HW110250   3.670   3.219   5.389
 3117SOL    HW210251   3.807   3.296   5.346
 3118SOL     OW10252   6.558   4.029   0.989
 3118SOL    HW110253   6.476   4.083   1.007
 3118SOL    HW210254   6.574   3.967   1.066
 3119SOL     OW10255   2.032   3.959   5.625
 3119SOL    HW110256   2.071   3.885   5.570
 3119SOL    HW210257   2.101   4.030   5.639
 3120SOL     OW10258   2.833   5.563   5.258
 3120SOL    HW110259   2.897   5.601   5.191
 3120SOL    HW210260   2.739   5.575   5.226
 3121SOL     OW10261   6.286   0.200   2.406
 3121SOL    HW110262   6.346   0.243   2.337
 3121SOL    HW210263   6.255   0.111   2.372
 3122SOL     OW10264   3.172   5.500   0.113
 3122SOL    HW110265   3.175   5.558   0.032
 3122SOL    HW210266   3.212   5.410   0.091
 3123SOL     OW10267   3.213   6.334   3.653
 3123SOL    HW110268   3.206   6.277   3.571
 3123SOL    HW210269   3.304   6.323   3.693
 3124SOL     OW10270   4.022   1.193   5.621
 3124SOL    HW110271   3.961   1.132   5.570
 3124SOL    HW210272   4.092   1.228   5.559
 3125SOL     OW10273   0.111   1.845   5.886
 3125SOL    HW110274   0.138   1.828   5.791
 3125SOL    HW210275   0.015   1.873   5.889
 3126SOL     OW10276   4.827   6.317   0.055
 3126SOL    HW110277   4.866   6.350   6.991
 3126SOL    HW210278   4.807   6.394   0.115
 3127SOL     OW10279   0.731   1.297   4.301
 3127SOL    HW110280   0.707   1.392   4.317
 3127SOL    HW210281   0.659   1.238   4.338
 3128SOL     OW10282   1.968   1.306   1.250
 3128SOL    HW110283   2.042   1.313   1.318
 3128SOL    HW210284   1.883   1.342   1.289
 3129SOL     OW10285   0.158   3.637   4.784
 3129SOL    HW110286   0.240   3.607   4.735
 3129SOL    HW210287   0.178   3.646   4.882
 3130SOL     OW10288   1.736   4.998   2.385
 3130SOL    HW110289   1.667   5.001   2.313
 3130SOL    HW210290   1.827   5.007   2.344
 3131SOL     OW10291   6.984   3.639   2.952
 3131SOL    HW110292   6.997   3.726   3.001
 3131SOL    HW210293   0.048   3.588   2.952
 3132SOL     OW10294   5.659   5.946   5.708
 3132SOL    HW110295   5.664   6.040   5.674
 3132SOL    HW210296   5.570   5.932   5.753
 3133SOL     OW10297   2.839   1.940   3.109
 3133SOL    HW110298   2.897   2.002   3.057
 3133SOL    HW210299   2.855   1.846   3.079
 3134SOL     OW10300   4.902   3.131   2.138
 3134SOL    HW110301   4.838   3.161   2.209
 3134SOL    HW210302   4.854   3.071   2.073
 3135SOL     OW10303   3.277   1.933   2.944
 3135SOL    HW110304   3.317   1.945   2.853
 3135SOL    HW210305   3.233   1.844   2.949
 3136SOL     OW10306   5.368   5.960   5.570
 3136SOL    HW110307   5.365   5.864   5.597
 3136SOL    HW210308   5.356   5.968   5.471
 3137SOL     OW10309   5.481   2.052   3.564
 3137SOL    HW110310   5.421   2.098   3.499
 3137SOL    HW210311   5.554   2.004   3.515
 3138SOL     OW10312   5.654   1.049   4.910
 3138SOL    HW110313   5.737   0.992   4.906
 3138SOL    HW210314   5.590   1.020   4.840
 3139SOL     OW10315   5.034   5.883   5.438
 3139SOL    HW110316   5.010   5.962   5.493
 3139SOL    HW210317   5.131   5.886   5.415
 3140SOL     OW10318   6.364   5.924   6.721
 3140SOL    HW110319   6.356   6.020   6.695
 3140SOL    HW210320   6.398   5.918   6.815
 3141SOL     OW10321   1.180   5.328   0.207
 3141SOL    HW110322   1.087   5.340   0.243
 3141SOL    HW210323   1.244   5.381   0.261
 3142SOL     OW10324   4.408   6.381   6.830
 3142SOL    HW110325   4.495   6.337   6.850
 3142SOL    HW210326   4.346   6.315   6.786
 3143SOL     OW10327   6.301   1.375   0.718
 3143SOL    HW110328   6.388   1.384   0.767
 3143SOL    HW210329   6.245   1.305   0.761
 3144SOL     OW10330   1.946   3.026   6.559
 3144SOL    HW110331   1.913   3.080   6.636
 3144SOL    HW210332   1.872   3.017   6.491
 3145SOL     OW10333   3.234   5.979   3.088
 3145SOL    HW110334   3.175   5.904   3.118
 3145SOL    HW210335   3.283   5.952   3.005
 3146SOL     OW10336   1.381   0.019   3.176
 3146SOL    HW110337   1.364   0.039   3.080
 3146SOL    HW210338   1.347   0.094   3.232
 3147SOL     OW10339   4.924   4.118   0.382
 3147SOL    HW110340   4.923   4.029   0.336
 3147SOL    HW210341   4.930   4.104   0.481
 3148SOL     OW10342   3.034   5.309   4.605
 3148SOL    HW110343   3.090   5.305   4.523
 3148SOL    HW210344   2.967   5.383   4.596
 3149SOL     OW10345   3.375   0.352   5.967
 3149SOL    HW110346   3.336   0.433   6.012
 3149SOL    HW210347   3.433   0.303   6.033
 3150SOL     OW10348   5.668   0.084   4.867
 3150SOL    HW110349   5.584   0.073   4.920
 3150SOL    HW210350   5.702   7.015   4.840
 3151SOL     OW10351   4.230   1.303   6.081
 3151SOL    HW110352   4.287   1.221   6.088
 3151SOL    HW210353   4.206   1.319   5.985
 3152SOL     OW10354   1.531   5.833   0.854
 3152SOL    HW110355   1.435   5.844   0.880
 3152SOL    HW210356   1.537   5.769   0.777
 3153SOL     OW10357   6.836   4.417   2.129
 3153SOL    HW110358   6.776   4.489   2.093
 3153SOL    HW210359   6.889   4.454   2.206
 3154SOL     OW10360   5.961   2.262   5.934
 3154SOL    HW110361   5.915   2.176   5.952
 3154SOL    HW210362   5.958   2.319   6.016
 3155SOL     OW10363   5.533   5.504   0.983
 3155SOL    HW110364   5.591   5.524   0.905
 3155SOL    HW210365   5.487   5.416   0.970
 3156SOL     OW10366   3.478   3.664   3.697
 3156SOL    HW110367   3.576   3.672   3.718
 3156SOL    HW210368   3.455   3.727   3.623
 3157SOL     OW10369   2.162   3.780   4.416
 3157SOL    HW110370   2.162   3.687   4.454
 3157SOL    HW210371   2.169   3.846   4.491
 3158SOL     OW10372   4.875   6.514   0.614
 3158SOL    HW110373   4.919   6.439   0.664
 3158SOL    HW210374   4.829   6.477   0.533
 3159SOL     OW10375   5.473   5.172   0.246
 3159SOL    HW110376   5.514   5.136   0.329
 3159SOL    HW210377   5.411   5.248   0.268
 3160SOL     OW10378   5.497   3.881   7.017
 3160SOL    HW110379   5.570   3.890   0.063
 3160SOL    HW210380   5.451   3.793   0.006
 3161SOL     OW10381   1.207   2.057   2.901
 3161SOL    HW110382   1.271   1.996   2.854
 3161SOL    HW210383   1.123   2.007   2.922
 3162SOL     OW10384   0.542   6.114   6.409
 3162SOL    HW110385   0.484   6.090   6.487
 3162SOL    HW210386   0.489   6.104   6.324
 3163SOL     OW10387   2.991   3.634   6.049
 3163SOL    HW110388   2.994   3.730   6.022
 3163SOL    HW210389   3.084   3.601   6.066
 3164SOL     OW10390   5.425   5.498   0.084
 3164SOL    HW110391   5.396   5.495   0.180
 3164SOL    HW210392   5.453   5.407   0.055
 3165SOL     OW10393   6.880   1.656   1.497
 3165SOL    HW110394   6.948   1.587   1.471
 3165SOL    HW210395   6.926   1.737   1.533
 3166SOL     OW10396   5.378   3.433   5.920
 3166SOL    HW110397   5.377   3.389   6.009
 3166SOL    HW210398   5.459   3.403   5.869
 3167SOL     OW10399   1.221   5.175   2.039
 3167SOL    HW110400   1.128   5.212   2.031
 3167SOL    HW210401   1.240   5.117   1.960
 3168SOL     OW10402   5.614   3.552   1.240
 3168SOL    HW110403   5.549   3.509   1.301
 3168SOL    HW210404   5.634   3.645   1.272
 3169SOL     OW10405   1.491   2.083   5.638
 3169SOL    HW110406   1.495   1.993   5.681
 3169SOL    HW210407   1.397   2.116   5.639
 3170SOL     OW10408   4.557   0.825   6.733
 3170SOL    HW110409   4.495   0.810   6.656
 3170SOL    HW210410   4.559   0.743   6.790
 3171SOL     OW10411   6.027   6.746   3.225
 3171SOL    HW110412   6.067   6.796   3.149
 3171SOL    HW210413   6.065   6.778   3.311
 3172SOL     OW10414   6.296   0.437   5.066
 3172SOL    HW110415   6.315   0.344   5.033
 3172SOL    HW210416   6.216   0.473   5.019
 3173SOL     OW10417   2.314   0.898   1.551
 3173SOL    HW110418   2.318   0.877   1.453
 3173SOL    HW210419   2.401   0.873   1.594
 3174SOL     OW10420   1.988   2.901   6.125
 3174SOL    HW110421   1.963   2.811   6.162
 3174SOL    HW210422   2.038   2.953   6.194
 3175SOL     OW10423   0.642   6.789   0.512
 3175SOL    HW110424   0.583   6.728   0.564
 3175SOL    HW210425   0.600   6.809   0.424
 3176SOL     OW10426   0.603   5.179   6.986
 3176SOL    HW110427   0.613   5.181   6.887
 3176SOL    HW210428   0.664   5.109   0.002
 3177SOL     OW10429   5.982   6.883   6.044
 3177SOL    HW110430   6.050   6.938   6.093
 3177SOL    HW210431   6.027   6.836   5.968
 3178SOL     OW10432   1.129   3.019   1.708
 3178SOL    HW110433   1.194   2.962   1.759
 3178SOL    HW210434   1.151   3.115   1.722
 3179SOL     OW10435   2.146   1.377   2.994
 3179SOL    HW110436   2.059   1.352   3.036
 3179SOL    HW210437   2.169   1.471   3.016
 3180SOL     OW10438   6.055   0.555   6.173
 3180SOL    HW110439   6.072   0.647   6.137
 3180SOL    HW210440   5.972   0.557   6.229
 3181SOL     OW10441   0.463   1.382   3.057
 3181SOL    HW110442   0.387   1.361   3.118
 3181SOL    HW210443   0.429   1.397   2.965
 3182SOL     OW10444   1.774   4.581   5.515
 3182SOL    HW110445   1.824   4.514   5.461
 3182SOL    HW210446   1.706   4.626   5.457
 3183SOL     OW10447   3.702   3.650   1.743
 3183SOL    HW110448   3.789   3.606   1.725
 3183SOL    HW210449   3.668   3.623   1.833
 3184SOL     OW10450   2.206   1.593   2.568
 3184SOL    HW110451   2.284   1.531   2.576
 3184SOL    HW210452   2.140   1.572   2.641
 3185SOL     OW10453   6.992   6.351   5.878
 3185SOL    HW110454   0.068   6.330   5.876
 3185SOL    HW210455   6.951   6.330   5.789
 3186SOL     OW10456   2.972   0.736   2.052
 3186SOL    HW110457   3.015   0.825   2.044
 3186SOL    HW210458   3.040   0.668   2.079
 3187SOL     OW10459   3.020   4.242   0.043
 3187SOL    HW110460   2.979   4.281   6.983
 3187SOL    HW210461   3.098   4.296   0.071
 3188SOL     OW10462   3.899   6.267   3.693
 3188SOL    HW110463   3.959   6.288   3.770
 3188SOL    HW210464   3.904   6.169   3.673
 3189SOL     OW10465   1.361   6.649   2.130
 3189SOL    HW110466   1.404   6.603   2.053
 3189SOL    HW210467   1.267   6.673   2.106
 3190SOL     OW10468   0.430   6.358   1.997
 3190SOL    HW110469   0.353   6.299   2.022
 3190SOL    HW210470   0.456   6.414   2.075
 3191SOL     OW10471   3.658   0.997   0.961
 3191SOL    HW110472   3.572   0.950   0.939
 3191SOL    HW210473   3.639   1.077   1.018
 3192SOL     OW10474   0.147   3.143   3.244
 3192SOL    HW110475   0.211   3.068   3.260
 3192SOL    HW210476   0.053   3.108   3.243
 3193SOL     OW10477   4.532   3.723   6.657
 3193SOL    HW110478   4.588   3.736   6.575
 3193SOL    HW210479   4.492   3.631   6.655
 3194SOL     OW10480   0.488   3.497   5.991
 3194SOL    HW110481   0.438   3.571   5.946
 3194SOL    HW210482   0.432   3.415   5.993
 3195SOL     OW10483   0.633   3.714   3.446
 3195SOL    HW110484   0.566   3.780   3.411
 3195SOL    HW210485   0.607   3.686   3.538
 3196SOL     OW10486   0.046   6.827   5.720
 3196SOL    HW110487   7.014   6.746   5.698
 3196SOL    HW210488   7.011   6.909   5.707
 3197SOL     OW10489   1.176   4.224   4.386
 3197SOL    HW110490   1.186   4.319   4.415
 3197SOL    HW210491   1.080   4.197   4.390
 3198SOL     OW10492   6.933   1.275   0.039
 3198SOL    HW110493   6.938   1.373   0.058
 3198SOL    HW210494   6.907   1.261   6.966
 3199SOL     OW10495   3.883   1.790   2.526
 3199SOL    HW110496   3.957   1.853   2.500
 3199SOL    HW210497   3.795   1.836   2.517
 3200SOL     OW10498   6.925   2.205   1.530
 3200SOL    HW110499   6.964   2.296   1.513
 3200SOL    HW210500   6.918   2.190   1.629
 3201SOL     OW10501   4.908   4.250   2.915
 3201SOL    HW110502   4.869   4.325   2.863
 3201SOL    HW210503   4.961   4.286   2.991
 3202SOL     OW10504   2.247   5.526   1.373
 3202SOL    HW110505   2.199   5.578   1.302
 3202SOL    HW210506   2.180   5.491   1.440
 3203SOL     OW10507   6.109   0.394   1.585
 3203SOL    HW110508   6.114   0.434   1.676
 3203SOL    HW210509   6.197   0.405   1.539
 3204SOL     OW10510   6.514   5.545   2.022
 3204SOL    HW110511   6.580   5.594   1.964
 3204SOL    HW210512   6.522   5.447   2.006
 3205SOL     OW10513   1.152   4.106   3.428
 3205SOL    HW110514   1.227   4.137   3.370
 3205SOL    HW210515   1.121   4.016   3.397
 3206SOL     OW10516   1.224   6.957   0.094
 3206SOL    HW110517   1.254   0.031   0.099
 3206SOL    HW210518   1.156   6.939   0.165
 3207SOL     OW10519   0.467   0.771   3.914
 3207SOL    HW110520   0.419   0.803   3.996
 3207SOL    HW210521   0.546   0.716   3.942
 3208SOL     OW10522   5.947   6.854   4.958
 3208SOL    HW110523   5.880   6.882   5.026
 3208SOL    HW210524   6.025   6.916   4.960
 3209SOL     OW10525   2.166   0.500   3.178
 3209SOL    HW110526   2.243   0.439   3.194
 3209SOL    HW210527   2.128   0.530   3.266
 3210SOL     OW10528   0.168   4.673   2.800
 3210SOL    HW110529   0.194   4.761   2.840
 3210SOL    HW210530   0.088   4.638   2.847
 3211SOL     OW10531   1.472   4.220   2.191
 3211SOL    HW110532   1.530   4.271   2.255
 3211SOL    HW210533   1.400   4.173   2.243
 3212SOL     OW10534   5.005   2.443   5.907
 3212SOL    HW110535   4.919   2.406   5.942
 3212SOL    HW210536   4.990   2.537   5.875
 3213SOL     OW10537   5.857   6.145   1.707
 3213SOL    HW110538   5.878   6.236   1.670
 3213SOL    HW210539   5.909   6.131   1.792
 3214SOL     OW10540   3.978   5.085   6.278
 3214SOL    HW110541   4.020   5.048   6.361
 3214SOL    HW210542   3.961   5.182   6.290
 3215SOL     OW10543   6.250   0.931   6.844
 3215SOL    HW110544   6.215   0.844   6.880
 3215SOL    HW210545   6.342   0.919   6.808
 3216SOL     OW10546   5.617   6.865   4.673
 3216SOL    HW110547   5.624   6.840   4.577
 3216SOL    HW210548   5.559   6.947   4.682
 3217SOL     OW10549   0.102   3.637   1.432
 3217SOL    HW110550   0.186   3.588   1.408
 3217SOL    HW210551   0.123   3.714   1.491
 3218SOL     OW10552   2.682   0.733   2.415
 3218SOL    HW110553   2.713   0.642   2.386
 3218SOL    HW210554   2.685   0.795   2.337
 3219SOL     OW10555   6.812   0.098   4.075
 3219SOL    HW110556   6.761   0.072   4.157
 3219SOL    HW210557   6.906   0.120   4.100
 3220SOL     OW10558   6.167   3.208   5.309
 3220SOL    HW110559   6.069   3.194   5.309
 3220SOL    HW210560   6.211   3.144   5.246
 3221SOL     OW10561   3.969   0.254   2.925
 3221SOL    HW110562   3.926   0.276   3.013
 3221SOL    HW210563   3.957   0.157   2.905
 3222SOL     OW10564   5.839   3.437   3.096
 3222SOL    HW110565   5.898   3.398   3.026
 3222SOL    HW210566   5.776   3.368   3.130
 3223SOL     OW10567   2.231   4.950   5.322
 3223SOL    HW110568   2.308   4.976   5.380
 3223SOL    HW210569   2.262   4.885   5.253
 3224SOL     OW10570   4.449   5.656   0.387
 3224SOL    HW110571   4.484   5.605   0.308
 3224SOL    HW210572   4.513   5.649   0.463
 3225SOL     OW10573   2.721   2.865   1.436
 3225SOL    HW110574   2.735   2.796   1.507
 3225SOL    HW210575   2.807   2.912   1.417
 3226SOL     OW10576   0.540   0.584   4.129
 3226SOL    HW110577   0.625   0.588   4.182
 3226SOL    HW210578   0.472   0.645   4.169
 3227SOL     OW10579   2.805   1.160   5.415
 3227SOL    HW110580   2.819   1.089   5.484
 3227SOL    HW210581   2.709   1.188   5.415
 3228SOL     OW10582   4.860   3.169   4.845
 3228SOL    HW110583   4.928   3.241   4.829
 3228SOL    HW210584   4.775   3.209   4.878
 3229SOL     OW10585   3.797   2.158   5.074
 3229SOL    HW110586   3.782   2.060   5.078
 3229SOL    HW210587   3.839   2.182   4.986
 3230SOL     OW10588   0.933   0.638   3.383
 3230SOL    HW110589   0.986   0.569   3.432
 3230SOL    HW210590   0.958   0.729   3.417
 3231SOL     OW10591   6.072   5.317   0.809
 3231SOL    HW110592   6.087   5.226   0.848
 3231SOL    HW210593   5.999   5.313   0.741
 3232SOL     OW10594   2.082   4.810   3.603
 3232SOL    HW110595   2.002   4.864   3.629
 3232SOL    HW210596   2.165   4.853   3.639
 3233SOL     OW10597   0.844   4.146   1.316
 3233SOL    HW110598   0.857   4.244   1.304
 3233SOL    HW210599   0.804   4.107   1.234
 3234SOL     OW10600   6.981   1.471   4.595
 3234SOL    HW110601   6.893   1.427   4.578
 3234SOL    HW210602   6.977   1.567   4.568
 3235SOL     OW10603   5.603   0.309   2.999
 3235SOL    HW110604   5.666   0.235   3.023
 3235SOL    HW210605   5.511   0.285   3.031
 3236SOL     OW10606   0.609   2.857   2.347
 3236SOL    HW110607   0.691   2.914   2.344
 3236SOL    HW210608   0.612   2.790   2.273
 3237SOL     OW10609   3.220   6.584   4.401
 3237SOL    HW110610   3.222   6.651   4.327
 3237SOL    HW210611   3.251   6.495   4.366
 3238SOL     OW10612   6.562   6.626   6.599
 3238SOL    HW110613   6.488   6.618   6.666
 3238SOL    HW210614   6.631   6.690   6.633
 3239SOL     OW10615   0.564   6.348   5.764
 3239SOL    HW110616   0.508   6.430   5.755
 3239SOL    HW210617   0.607   6.347   5.854
 3240SOL     OW10618   0.463   0.941   4.794
 3240SOL    HW110619   0.424   1.030   4.769
 3240SOL    HW210620   0.516   0.905   4.718
 3241SOL     OW10621   4.810   1.287   4.795
 3241SOL    HW110622   4.879   1.322   4.732
 3241SOL    HW210623   4.732   1.253   4.743
 3242SOL     OW10624   2.899   6.390   0.501
 3242SOL    HW110625   2.823   6.446   0.467
 3242SOL    HW210626   2.865   6.324   0.567
 3243SOL     OW10627   3.154   5.724   0.800
 3243SOL    HW110628   3.141   5.696   0.895
 3243SOL    HW210629   3.243   5.770   0.791
 3244SOL     OW10630   2.541   6.236   5.967
 3244SOL    HW110631   2.504   6.146   5.993
 3244SOL    HW210632   2.582   6.279   6.048
 3245SOL     OW10633   3.334   2.324   5.905
 3245SOL    HW110634   3.419   2.323   5.958
 3245SOL    HW210635   3.261   2.281   5.959
 3246SOL     OW10636   5.219   6.644   3.690
 3246SOL    HW110637   5.291   6.581   3.718
 3246SOL    HW210638   5.184   6.618   3.601
 3247SOL     OW10639   0.180   1.680   4.430
 3247SOL    HW110640   0.257   1.708   4.374
 3247SOL    HW210641   0.213   1.652   4.521
 3248SOL     OW10642   6.036   4.270   2.103
 3248SOL    HW110643   6.048   4.310   2.013
 3248SOL    HW210644   5.978   4.189   2.096
 3249SOL     OW10645   2.982   4.197   5.219
 3249SOL    HW110646   2.986   4.296   5.213
 3249SOL    HW210647   2.896   4.170   5.263
 3250SOL     OW10648   4.229   6.086   1.761
 3250SOL    HW110649   4.184   5.997   1.767
 3250SOL    HW210650   4.173   6.154   1.808
 3251SOL     OW10651   3.063   1.183   3.412
 3251SOL    HW110652   3.077   1.229   3.500
 3251SOL    HW210653   2.976   1.213   3.373
 3252SOL     OW10654   3.168   2.148   3.218
 3252SOL    HW110655   3.104   2.162   3.142
 3252SOL    HW210656   3.129   2.184   3.302
 3253SOL     OW10657   4.714   3.563   0.886
 3253SOL    HW110658   4.627   3.518   0.865
 3253SOL    HW210659   4.701   3.629   0.960
 3254SOL     OW10660   5.262   5.132   2.511
 3254SOL    HW110661   5.255   5.230   2.496
 3254SOL    HW210662   5.194   5.104   2.579
 3255SOL     OW10663   4.310   4.616   0.585
 3255SOL    HW110664   4.394   4.644   0.537
 3255SOL    HW210665   4.262   4.548   0.529
 3256SOL     OW10666   6.342   6.368   5.705
 3256SOL    HW110667   6.404   6.373   5.626
 3256SOL    HW210668   6.266   6.433   5.692
 3257SOL     OW10669   2.419   1.850   1.068
 3257SOL    HW110670   2.372   1.829   1.153
 3257SOL    HW210671   2.506   1.801   1.064
 3258SOL     OW10672   5.601   6.643   1.422
 3258SOL    HW110673   5.676   6.688   1.472
 3258SOL    HW210674   5.604   6.672   1.326
 3259SOL     OW10675   5.940   6.494   3.168
 3259SOL    HW110676   5.968   6.588   3.186
 3259SOL    HW210677   5.856   6.473   3.218
 3260SOL     OW10678   1.361   3.183   0.127
 3260SOL    HW110679   1.340   3.096   0.084
 3260SOL    HW210680   1.347   3.257   0.062
 3261SOL     OW10681   4.361   0.279   3.454
 3261SOL    HW110682   4.305   0.339   3.397
 3261SOL    HW210683   4.376   0.192   3.406
 3262SOL     OW10684   3.711   1.519   3.623
 3262SOL    HW110685   3.795   1.503   3.675
 3262SOL    HW210686   3.641   1.558   3.682
 3263SOL     OW10687   3.281   5.503   2.119
 3263SOL    HW110688   3.311   5.533   2.210
 3263SOL    HW210689   3.309   5.570   2.051
 3264SOL     OW10690   5.020   4.788   6.014
 3264SOL    HW110691   5.014   4.694   6.047
 3264SOL    HW210692   5.084   4.793   5.937
 3265SOL     OW10693   4.363   0.703   6.513
 3265SOL    HW110694   4.267   0.731   6.511
 3265SOL    HW210695   4.371   0.613   6.556
 3266SOL     OW10696   0.704   1.500   6.146
 3266SOL    HW110697   0.767   1.423   6.154
 3266SOL    HW210698   0.629   1.476   6.084
 3267SOL     OW10699   4.773   2.272   0.959
 3267SOL    HW110700   4.834   2.324   1.018
 3267SOL    HW210701   4.820   2.191   0.924
 3268SOL     OW10702   1.288   4.472   6.392
 3268SOL    HW110703   1.208   4.497   6.446
 3268SOL    HW210704   1.347   4.412   6.446
 3269SOL     OW10705   4.937   3.265   0.451
 3269SOL    HW110706   4.937   3.297   0.356
 3269SOL    HW210707   4.931   3.343   0.513
 3270SOL     OW10708   0.723   5.850   4.611
 3270SOL    HW110709   0.742   5.836   4.708
 3270SOL    HW210710   0.785   5.793   4.557
 3271SOL     OW10711   5.944   1.845   0.837
 3271SOL    HW110712   5.940   1.907   0.916
 3271SOL    HW210713   6.038   1.842   0.802
 3272SOL     OW10714   5.036   6.824   0.405
 3272SOL    HW110715   4.969   6.842   0.477
 3272SOL    HW210716   5.022   6.732   0.369
 3273SOL     OW10717   0.166   0.028   2.741
 3273SOL    HW110718   0.092   6.984   2.723
 3273SOL    HW210719   0.251   6.999   2.760
 3274SOL     OW10720   3.673   1.583   6.825
 3274SOL    HW110721   3.605   1.638   6.873
 3274SOL    HW210722   3.649   1.579   6.728
 3275SOL     OW10723   3.759   0.710   6.774
 3275SOL    HW110724   3.771   0.629   6.716
 3275SOL    HW210725   3.676   0.699   6.829
 3276SOL     OW10726   2.624   6.340   0.550
 3276SOL    HW110727   2.584   6.285   0.477
 3276SOL    HW210728   2.635   6.434   0.519
 3277SOL     OW10729   0.246   6.250   5.723
 3277SOL    HW110730   0.332   6.226   5.677
 3277SOL    HW210731   0.257   6.335   5.773
 3278SOL     OW10732   1.603   1.129   0.614
 3278SOL    HW110733   1.577   1.115   0.519
 3278SOL    HW210734   1.686   1.184   0.619
 3279SOL     OW10735   1.939   6.761   1.167
 3279SOL    HW110736   2.008   6.776   1.238
 3279SOL    HW210737   1.919   6.847   1.120
 3280SOL     OW10738   1.685   5.368   5.161
 3280SOL    HW110739   1.672   5.434   5.087
 3280SOL    HW210740   1.694   5.276   5.123
 3281SOL     OW10741   2.732   6.121   0.297
 3281SOL    HW110742   2.731   6.022   0.303
 3281SOL    HW210743   2.643   6.157   0.325
 3282SOL     OW10744   2.255   5.508   2.452
 3282SOL    HW110745   2.189   5.581   2.434
 3282SOL    HW210746   2.345   5.548   2.466
 3283SOL     OW10747   2.072   6.926   3.594
 3283SOL    HW110748   2.133   6.970   3.659
 3283SOL    HW210749   2.093   6.958   3.502
 3284SOL     OW10750   0.446   4.113   6.208
 3284SOL    HW110751   0.534   4.070   6.189
 3284SOL    HW210752   0.436   4.195   6.152
 3285SOL     OW10753   6.966   2.055   4.809
 3285SOL    HW110754   6.948   2.077   4.713
 3285SOL    HW210755   0.039   2.024   4.819
 3286SOL     OW10756   3.793   4.854   5.540
 3286SOL    HW110757   3.704   4.864   5.585
 3286SOL    HW210758   3.835   4.944   5.529
 3287SOL     OW10759   0.498   5.253   1.883
 3287SOL    HW110760   0.513   5.247   1.982
 3287SOL    HW210761   0.455   5.341   1.861
 3288SOL     OW10762   1.544   6.492   0.231
 3288SOL    HW110763   1.453   6.506   0.271
 3288SOL    HW210764   1.564   6.566   0.167
 3289SOL     OW10765   1.185   5.475   4.588
 3289SOL    HW110766   1.209   5.560   4.635
 3289SOL    HW210767   1.267   5.438   4.544
 3290SOL     OW10768   6.696   5.731   2.199
 3290SOL    HW110769   6.688   5.707   2.296
 3290SOL    HW210770   6.630   5.678   2.146
 3291SOL     OW10771   1.973   0.319   1.806
 3291SOL    HW110772   1.889   0.264   1.809
 3291SOL    HW210773   2.025   0.305   1.891
 3292SOL     OW10774   0.723   5.532   5.436
 3292SOL    HW110775   0.711   5.584   5.352
 3292SOL    HW210776   0.818   5.502   5.443
 3293SOL     OW10777   6.484   0.283   3.023
 3293SOL    HW110778   6.404   0.287   2.963
 3293SOL    HW210779   6.555   0.227   2.980
 3294SOL     OW10780   0.800   0.359   6.971
 3294SOL    HW110781   0.793   0.439   6.911
 3294SOL    HW210782   0.820   0.278   6.916
 3295SOL     OW10783   1.283   2.419   6.358
 3295SOL    HW110784   1.211   2.378   6.302
 3295SOL    HW210785   1.318   2.501   6.311
 3296SOL     OW10786   0.813   6.569   1.844
 3296SOL    HW110787   0.857   6.657   1.859
 3296SOL    HW210788   0.823   6.513   1.926
 3297SOL     OW10789   2.930   2.065   5.934
 3297SOL    HW110790   2.949   2.078   5.836
 3297SOL    HW210791   3.015   2.080   5.985
 3298SOL     OW10792   6.056   3.605   3.186
 3298SOL    HW110793   6.087   3.665   3.112
 3298SOL    HW210794   6.002   3.530   3.148
 3299SOL     OW10795   0.779   0.623   4.964
 3299SOL    HW110796   0.755   0.623   5.062
 3299SOL    HW210797   0.818   0.711   4.939
 3300SOL     OW10798   6.661   0.155   4.525
 3300SOL    HW110799   6.735   0.147   4.458
 3300SOL    HW210800   6.606   0.235   4.504
 3301SOL     OW10801   0.689   4.102   3.006
 3301SOL    HW110802   0.626   4.057   3.068
 3301SOL    HW210803   0.751   4.161   3.058
 3302SOL     OW10804   0.936   4.991   4.073
 3302SOL    HW110805   0.899   4.903   4.042
 3302SOL    HW210806   0.981   4.979   4.162
 3303SOL     OW10807   2.969   3.781   3.790
 3303SOL    HW110808   3.021   3.738   3.864
 3303SOL    HW210809   2.958   3.718   3.714
 3304SOL     OW10810   1.171   6.940   3.492
 3304SOL    HW110811   1.142   7.020   3.438
 3304SOL    HW210812   1.111   6.863   3.471
 3305SOL     OW10813   1.139   1.109   1.655
 3305SOL    HW110814   1.088   1.191   1.680
 3305SOL    HW210815   1.188   1.124   1.569
 3306SOL     OW10816   0.943   3.135   2.526
 3306SOL    HW110817   1.011   3.070   2.558
 3306SOL    HW210818   0.870   3.143   2.593
 3307SOL     OW10819   0.784   6.408   0.906
 3307SOL    HW110820   0.761   6.419   1.002
 3307SOL    HW210821   0.738   6.328   0.869
 3308SOL     OW10822   5.321   6.176   0.932
 3308SOL    HW110823   5.313   6.081   0.902
 3308SOL    HW210824   5.301   6.181   1.030
 3309SOL     OW10825   1.543   5.727   2.324
 3309SOL    HW110826   1.503   5.792   2.260
 3309SOL    HW210827   1.486   5.720   2.405
 3310SOL     OW10828   1.152   6.934   2.030
 3310SOL    HW110829   1.213   6.911   1.954
 3310SOL    HW210830   1.118   0.006   2.018
 3311SOL     OW10831   3.689   6.552   1.032
 3311SOL    HW110832   3.678   6.573   0.935
 3311SOL    HW210833   3.717   6.457   1.042
 3312SOL     OW10834   2.087   3.408   6.710
 3312SOL    HW110835   2.091   3.378   6.806
 3312SOL    HW210836   2.079   3.507   6.707
 3313SOL     OW10837   6.505   6.255   5.133
 3313SOL    HW110838   6.591   6.282   5.090
 3313SOL    HW210839   6.516   6.254   5.232
 3314SOL     OW10840   0.626   3.428   6.617
 3314SOL    HW110841   0.563   3.505   6.622
 3314SOL    HW210842   0.574   3.343   6.607
 3315SOL     OW10843   6.798   3.593   2.743
 3315SOL    HW110844   6.837   3.535   2.671
 3315SOL    HW210845   6.846   3.577   2.829
 3316SOL     OW10846   4.664   0.975   0.680
 3316SOL    HW110847   4.599   0.902   0.658
 3316SOL    HW210848   4.757   0.944   0.661
 3317SOL     OW10849   4.855   2.510   1.745
 3317SOL    HW110850   4.895   2.467   1.825
 3317SOL    HW210851   4.856   2.446   1.668
 3318SOL     OW10852   2.055   5.154   5.371
 3318SOL    HW110853   2.114   5.092   5.320
 3318SOL    HW210854   2.097   5.175   5.459
 3319SOL     OW10855   0.091   6.323   6.193
 3319SOL    HW110856   0.010   6.274   6.160
 3319SOL    HW210857   0.098   6.314   6.292
 3320SOL     OW10858   0.314   2.087   5.906
 3320SOL    HW110859   0.276   2.171   5.867
 3320SOL    HW210860   0.260   2.009   5.876
 3321SOL     OW10861   3.220   3.556   4.318
 3321SOL    HW110862   3.241   3.591   4.227
 3321SOL    HW210863   3.133   3.594   4.350
 3322SOL     OW10864   4.910   2.049   0.845
 3322SOL    HW110865   4.969   1.970   0.860
 3322SOL    HW210866   4.904   2.069   0.747
 3323SOL     OW10867   2.745   4.897   6.915
 3323SOL    HW110868   2.703   4.988   6.921
 3323SOL    HW210869   2.761   4.873   6.820
 3324SOL     OW10870   0.297   2.991   0.956
 3324SOL    HW110871   0.236   2.937   0.898
 3324SOL    HW210872   0.252   3.010   1.043
 3325SOL     OW10873   1.809   3.302   0.419
 3325SOL    HW110874   1.710   3.317   0.420
 3325SOL    HW210875   1.828   3.205   0.433
 3326SOL     OW10876   6.411   0.880   1.922
 3326SOL    HW110877   6.374   0.848   1.835
 3326SOL    HW210878   6.379   0.973   1.940
 3327SOL     OW10879   3.282   6.885   1.767
 3327SOL    HW110880   3.292   6.795   1.810
 3327SOL    HW210881   3.200   6.930   1.802
 3328SOL     OW10882   4.435   0.498   3.090
 3328SOL    HW110883   4.341   0.495   3.058
 3328SOL    HW210884   4.438   0.537   3.182
 3329SOL     OW10885   5.636   0.935   5.896
 3329SOL    HW110886   5.673   0.963   5.808
 3329SOL    HW210887   5.595   1.013   5.942
 3330SOL     OW10888   6.548   5.474   3.434
 3330SOL    HW110889   6.482   5.505   3.503
 3330SOL    HW210890   6.507   5.401   3.380
 3331SOL     OW10891   1.775   3.232   2.755
 3331SOL    HW110892   1.679   3.227   2.729
 3331SOL    HW210893   1.831   3.252   2.674
 3332SOL     OW10894   3.545   4.829   0.840
 3332SOL    HW110895   3.555   4.849   0.742
 3332SOL    HW210896   3.617   4.877   0.891
 3333SOL     OW10897   2.333   3.044   1.685
 3333SOL    HW110898   2.377   3.096   1.613
 3333SOL    HW210899   2.393   2.970   1.714
 3334SOL     OW10900   2.520   1.966   1.654
 3334SOL    HW110901   2.483   2.047   1.700
 3334SOL    HW210902   2.540   1.989   1.559
 3335SOL     OW10903   3.580   4.129   5.421
 3335SOL    HW110904   3.489   4.116   5.381
 3335SOL    HW210905   3.612   4.043   5.460
 3336SOL     OW10906   4.836   5.410   4.408
 3336SOL    HW110907   4.798   5.321   4.435
 3336SOL    HW210908   4.842   5.470   4.488
 3337SOL     OW10909   3.279   3.150   2.262
 3337SOL    HW110910   3.267   3.064   2.311
 3337SOL    HW210911   3.193   3.201   2.262
 3338SOL     OW10912   2.805   2.643   1.620
 3338SOL    HW110913   2.808   2.562   1.561
 3338SOL    HW210914   2.898   2.674   1.639
 3339SOL     OW10915   1.672   0.337   6.596
 3339SOL    HW110916   1.739   0.274   6.556
 3339SOL    HW210917   1.642   0.302   6.684
 3340SOL     OW10918   3.921   1.029   4.735
 3340SOL    HW110919   3.857   1.033   4.812
 3340SOL    HW210920   3.869   1.021   4.649
 3341SOL     OW10921   1.168   4.344   2.526
 3341SOL    HW110922   1.082   4.309   2.564
 3341SOL    HW210923   1.233   4.269   2.514
 3342SOL     OW10924   6.429   0.680   2.513
 3342SOL    HW110925   6.518   0.686   2.468
 3342SOL    HW210926   6.433   0.613   2.588
 3343SOL     OW10927   4.556   5.021   0.257
 3343SOL    HW110928   4.620   5.080   0.208
 3343SOL    HW210929   4.575   4.926   0.235
 3344SOL     OW10930   0.355   3.224   2.095
 3344SOL    HW110931   0.281   3.277   2.137
 3344SOL    HW210932   0.422   3.200   2.165
 3345SOL     OW10933   5.609   5.283   6.966
 3345SOL    HW110934   5.690   5.293   6.908
 3345SOL    HW210935   5.637   5.271   0.039
 3346SOL     OW10936   1.886   1.361   0.149
 3346SOL    HW110937   1.825   1.282   0.145
 3346SOL    HW210938   1.835   1.441   0.181
 3347SOL     OW10939   0.341   3.633   5.782
 3347SOL    HW110940   0.260   3.679   5.818
 3347SOL    HW210941   0.394   3.697   5.726
 3348SOL     OW10942   3.297   4.296   6.065
 3348SOL    HW110943   3.251   4.334   5.985
 3348SOL    HW210944   3.390   4.333   6.071
 3349SOL     OW10945   1.846   5.680   3.076
 3349SOL    HW110946   1.924   5.673   3.137
 3349SOL    HW210947   1.785   5.601   3.090
 3350SOL     OW10948   1.811   5.035   4.241
 3350SOL    HW110949   1.847   4.943   4.226
 3350SOL    HW210950   1.803   5.052   4.339
 3351SOL     OW10951   5.618   1.101   1.589
 3351SOL    HW110952   5.646   1.195   1.609
 3351SOL    HW210953   5.522   1.089   1.613
 3352SOL     OW10954   5.910   1.395   6.955
 3352SOL    HW110955   5.971   1.449   6.897
 3352SOL    HW210956   5.961   1.362   0.013
 3353SOL     OW10957   3.935   0.269   0.277
 3353SOL    HW110958   3.919   0.344   0.213
 3353SOL    HW210959   3.976   0.304   0.361
 3354SOL     OW10960   3.120   3.918   6.219
 3354SOL    HW110961   3.201   3.963   6.181
 3354SOL    HW210962   3.048   3.915   6.150
 3355SOL     OW10963   1.543   0.260   5.016
 3355SOL    HW110964   1.602   0.198   5.068
 3355SOL    HW210965   1.489   0.316   5.078
 3356SOL     OW10966   1.619   0.589   5.996
 3356SOL    HW110967   1.710   0.549   6.001
 3356SOL    HW210968   1.624   0.677   5.948
 3357SOL     OW10969   3.537   2.876   2.314
 3357SOL    HW110970   3.440   2.854   2.326
 3357SOL    HW210971   3.557   2.888   2.217
 3358SOL     OW10972   7.016   1.048   1.883
 3358SOL    HW110973   0.068   0.988   1.853
 3358SOL    HW210974   7.008   1.126   1.820
 3359SOL     OW10975   0.593   6.714   4.792
 3359SOL    HW110976   0.514   6.674   4.838
 3359SOL    HW210977   0.577   6.811   4.776
 3360SOL     OW10978   2.343   4.309   4.401
 3360SOL    HW110979   2.319   4.336   4.307
 3360SOL    HW210980   2.379   4.215   4.400
 3361SOL     OW10981   6.475   0.068   5.614
 3361SOL    HW110982   6.414   0.032   5.685
 3361SOL    HW210983   6.552   0.006   5.601
 3362SOL     OW10984   3.492   0.413   4.396
 3362SOL    HW110985   3.411   0.467   4.373
 3362SOL    HW210986   3.565   0.474   4.428
 3363SOL     OW10987   5.992   3.982   0.073
 3363SOL    HW110988   6.008   4.021   0.164
 3363SOL    HW210989   5.948   3.893   0.082
 3364SOL     OW10990   1.668   3.851   3.387
 3364SOL    HW110991   1.624   3.777   3.437
 3364SOL    HW210992   1.647   3.938   3.431
 3365SOL     OW10993   1.540   3.747   3.159
 3365SOL    HW110994   1.581   3.791   3.239
 3365SOL    HW210995   1.504   3.818   3.098
 3366SOL     OW10996   5.677   3.462   4.912
 3366SOL    HW110997   5.744   3.527   4.876
 3366SOL    HW210998   5.675   3.380   4.854
 3367SOL     OW10999   2.950   3.835   4.100
 3367SOL    HW111000   2.934   3.766   4.171
 3367SOL    HW211001   2.872   3.835   4.036
 3368SOL     OW11002   2.318   0.416   2.513
 3368SOL    HW111003   2.301   0.436   2.417
 3368SOL    HW211004   2.232   0.420   2.564
 3369SOL     OW11005   5.193   2.471   1.233
 3369SOL    HW111006   5.184   2.504   1.327
 3369SOL    HW211007   5.276   2.416   1.225
 3370SOL     OW11008   0.668   5.991   2.840
 3370SOL    HW111009   0.745   5.984   2.775
 3370SOL    HW211010   0.628   5.900   2.854
 3371SOL     OW11011   2.344   2.633   2.029
 3371SOL    HW111012   2.395   2.568   1.974
 3371SOL    HW211013   2.247   2.628   2.006
 3372SOL     OW11014   6.357   3.985   2.971
 3372SOL    HW111015   6.431   3.971   3.037
 3372SOL    HW211016   6.320   3.897   2.943
 3373SOL     OW11017   0.318   3.605   1.699
 3373SOL    HW111018   0.278   3.687   1.656
 3373SOL    HW211019   0.282   3.595   1.791
 3374SOL     OW11020   0.553   6.720   4.183
 3374SOL    HW111021   0.628   6.653   4.184
 3374SOL    HW211022   0.552   6.767   4.095
 3375SOL     OW11023   0.301   5.765   5.725
 3375SOL    HW111024   0.336   5.788   5.634
 3375SOL    HW211025   0.278   5.849   5.775
 3376SOL     OW11026   3.386   2.928   4.372
 3376SOL    HW111027   3.304   2.882   4.404
 3376SOL    HW211028   3.388   2.928   4.272
 3377SOL     OW11029   6.524   5.116   4.121
 3377SOL    HW111030   6.509   5.078   4.212
 3377SOL    HW211031   6.535   5.215   4.127
 3378SOL     OW11032   2.026   6.616   0.937
 3378SOL    HW111033   1.975   6.631   1.022
 3378SOL    HW211034   1.963   6.593   0.864
 3379SOL     OW11035   6.400   3.996   3.744
 3379SOL    HW111036   6.411   3.952   3.655
 3379SOL    HW211037   6.451   4.082   3.745
 3380SOL     OW11038   2.544   4.572   0.479
 3380SOL    HW111039   2.466   4.545   0.535
 3380SOL    HW211040   2.626   4.525   0.513
 3381SOL     OW11041   2.400   3.479   5.589
 3381SOL    HW111042   2.406   3.383   5.617
 3381SOL    HW211043   2.304   3.503   5.574
 3382SOL     OW11044   6.729   3.656   0.128
 3382SOL    HW111045   6.706   3.672   0.225
 3382SOL    HW211046   6.647   3.667   0.072
 3383SOL     OW11047   4.170   5.088   0.309
 3383SOL    HW111048   4.146   5.165   0.368
 3383SOL    HW211049   4.140   5.107   0.216
 3384SOL     OW11050   2.624   3.438   6.548
 3384SOL    HW111051   2.593   3.488   6.629
 3384SOL    HW211052   2.548   3.383   6.512
 3385SOL     OW11053   6.562   2.321   4.176
 3385SOL    HW111054   6.487   2.323   4.110
 3385SOL    HW211055   6.601   2.228   4.178
 3386SOL     OW11056   0.312   5.926   4.929
 3386SOL    HW111057   0.357   5.878   4.854
 3386SOL    HW211058   0.251   5.996   4.892
 3387SOL     OW11059   5.973   1.288   3.002
 3387SOL    HW111060   6.028   1.305   2.920
 3387SOL    HW211061   6.027   1.308   3.084
 3388SOL     OW11062   0.105   3.716   1.106
 3388SOL    HW111063   0.014   3.738   1.142
 3388SOL    HW211064   0.175   3.748   1.170
 3389SOL     OW11065   5.652   5.883   6.468
 3389SOL    HW111066   5.592   5.802   6.466
 3389SOL    HW211067   5.605   5.960   6.426
 3390SOL     OW11068   2.900   5.205   6.476
 3390SOL    HW111069   2.863   5.216   6.384
 3390SOL    HW211070   2.974   5.138   6.475
 3391SOL     OW11071   5.786   4.080   4.078
 3391SOL    HW111072   5.816   3.986   4.058
 3391SOL    HW211073   5.777   4.091   4.177
 3392SOL     OW11074   4.821   6.622   5.822
 3392SOL    HW111075   4.898   6.686   5.819
 3392SOL    HW211076   4.753   6.655   5.887
 3393SOL     OW11077   3.783   6.245   0.997
 3393SOL    HW111078   3.833   6.211   1.077
 3393SOL    HW211079   3.837   6.226   0.914
 3394SOL     OW11080   2.423   5.442   1.172
 3394SOL    HW111081   2.353   5.444   1.243
 3394SOL    HW211082   2.418   5.526   1.118
 3395SOL     OW11083   2.181   6.647   3.333
 3395SOL    HW111084   2.182   6.587   3.253
 3395SOL    HW211085   2.097   6.702   3.332
 3396SOL     OW11086   4.298   0.267   4.339
 3396SOL    HW111087   4.254   0.178   4.352
 3396SOL    HW211088   4.240   0.324   4.280
 3397SOL     OW11089   2.346   5.512   6.694
 3397SOL    HW111090   2.297   5.513   6.607
 3397SOL    HW211091   2.303   5.446   6.756
 3398SOL     OW11092   6.683   2.015   5.277
 3398SOL    HW111093   6.748   2.067   5.221
 3398SOL    HW211094   6.732   1.942   5.325
 3399SOL     OW11095   6.362   6.207   2.063
 3399SOL    HW111096   6.367   6.124   2.118
 3399SOL    HW211097   6.452   6.227   2.024
 3400SOL     OW11098   4.185   3.114   5.678
 3400SOL    HW111099   4.099   3.151   5.714
 3400SOL    HW211100   4.170   3.082   5.584
 3401SOL     OW11101   6.931   3.749   5.325
 3401SOL    HW111102   6.839   3.787   5.322
 3401SOL    HW211103   6.929   3.653   5.299
 3402SOL     OW11104   6.665   3.794   0.829
 3402SOL    HW111105   6.708   3.748   0.751
 3402SOL    HW211106   6.661   3.892   0.811
 3403SOL     OW11107   5.532   0.146   6.803
 3403SOL    HW111108   5.524   0.049   6.778
 3403SOL    HW211109   5.444   0.179   6.838
 3404SOL     OW11110   5.335   4.270   4.218
 3404SOL    HW111111   5.297   4.361   4.237
 3404SOL    HW211112   5.264   4.201   4.232
 3405SOL     OW11113   4.747   6.085   0.208
 3405SOL    HW111114   4.809   6.139   0.151
 3405SOL    HW211115   4.786   5.995   0.223
 3406SOL     OW11116   3.135   5.533   1.459
 3406SOL    HW111117   3.079   5.522   1.377
 3406SOL    HW211118   3.082   5.582   1.529
 3407SOL     OW11119   1.149   4.382   6.173
 3407SOL    HW111120   1.211   4.421   6.242
 3407SOL    HW211121   1.061   4.429   6.177
 3408SOL     OW11122   4.727   0.178   3.788
 3408SOL    HW111123   4.632   0.169   3.759
 3408SOL    HW211124   4.787   0.180   3.707
 3409SOL     OW11125   3.702   0.691   0.571
 3409SOL    HW111126   3.763   0.611   0.568
 3409SOL    HW211127   3.624   0.670   0.630
 3410SOL     OW11128   6.557   0.546   3.166
 3410SOL    HW111129   6.540   0.451   3.144
 3410SOL    HW211130   6.517   0.605   3.095
 3411SOL     OW11131   6.493   3.264   5.805
 3411SOL    HW111132   6.438   3.273   5.888
 3411SOL    HW211133   6.590   3.272   5.827
 3412SOL     OW11134   5.821   3.519   2.395
 3412SOL    HW111135   5.767   3.599   2.370
 3412SOL    HW211136   5.766   3.436   2.383
 3413SOL     OW11137   6.470   1.285   0.531
 3413SOL    HW111138   6.543   1.280   0.599
 3413SOL    HW211139   6.395   1.341   0.567
 3414SOL     OW11140   3.413   3.465   1.563
 3414SOL    HW111141   3.396   3.405   1.641
 3414SOL    HW211142   3.399   3.414   1.478
 3415SOL     OW11143   2.144   1.539   5.690
 3415SOL    HW111144   2.118   1.489   5.607
 3415SOL    HW211145   2.242   1.556   5.688
 3416SOL     OW11146   6.773   6.821   6.734
 3416SOL    HW111147   6.726   6.894   6.683
 3416SOL    HW211148   6.861   6.855   6.767
 3417SOL     OW11149   6.317   6.751   3.274
 3417SOL    HW111150   6.340   6.840   3.236
 3417SOL    HW211151   6.313   6.757   3.374
 3418SOL     OW11152   4.173   5.310   0.579
 3418SOL    HW111153   4.220   5.283   0.663
 3418SOL    HW211154   4.092   5.252   0.567
 3419SOL     OW11155   2.423   5.208   5.702
 3419SOL    HW111156   2.455   5.173   5.790
 3419SOL    HW211157   2.492   5.270   5.664
 3420SOL     OW11158   4.462   1.653   1.908
 3420SOL    HW111159   4.363   1.665   1.906
 3420SOL    HW211160   4.505   1.725   1.854
 3421SOL     OW11161   0.485   1.896   4.889
 3421SOL    HW111162   0.537   1.940   4.963
 3421SOL    HW211163   0.445   1.967   4.831
 3422SOL     OW11164   2.511   6.691   1.081
 3422SOL    HW111165   2.433   6.648   1.036
 3422SOL    HW211166   2.479   6.749   1.156
 3423SOL     OW11167   2.266   4.685   5.778
 3423SOL    HW111168   2.243   4.732   5.863
 3423SOL    HW211169   2.357   4.712   5.748
 3424SOL     OW11170   5.314   1.220   2.015
 3424SOL    HW111171   5.308   1.121   2.000
 3424SOL    HW211172   5.365   1.262   1.941
 3425SOL     OW11173   6.589   3.454   6.222
 3425SOL    HW111174   6.505   3.502   6.195
 3425SOL    HW211175   6.575   3.412   6.312
 3426SOL     OW11176   6.283   3.649   6.899
 3426SOL    HW111177   6.251   3.732   6.945
 3426SOL    HW211178   6.219   3.624   6.827
 3427SOL     OW11179   1.166   2.269   0.330
 3427SOL    HW111180   1.105   2.192   0.345
 3427SOL    HW211181   1.144   2.313   0.243
 3428SOL     OW11182   4.383   6.706   4.808
 3428SOL    HW111183   4.408   6.702   4.711
 3428SOL    HW211184   4.378   6.613   4.844
 3429SOL     OW11185   4.516   6.578   0.792
 3429SOL    HW111186   4.597   6.613   0.839
 3429SOL    HW211187   4.540   6.496   0.740
 3430SOL     OW11188   2.916   3.898   6.019
 3430SOL    HW111189   2.821   3.869   6.032
 3430SOL    HW211190   2.918   3.995   5.994
 3431SOL     OW11191   0.695   4.746   2.698
 3431SOL    HW111192   0.718   4.703   2.610
 3431SOL    HW211193   0.702   4.679   2.771
 3432SOL     OW11194   0.246   4.680   0.313
 3432SOL    HW111195   0.296   4.755   0.269
 3432SOL    HW211196   0.243   4.602   0.250
 3433SOL     OW11197   1.938   1.126   6.744
 3433SOL    HW111198   2.011   1.188   6.773
 3433SOL    HW211199   1.895   1.162   6.661
 3434SOL     OW11200   3.649   2.565   1.724
 3434SOL    HW111201   3.575   2.626   1.753
 3434SOL    HW211202   3.639   2.477   1.771
 3435SOL     OW11203   1.707   1.947   1.568
 3435SOL    HW111204   1.657   1.878   1.515
 3435SOL    HW211205   1.646   2.023   1.590
 3436SOL     OW11206   3.349   0.090   6.461
 3436SOL    HW111207   3.315   7.020   6.441
 3436SOL    HW211208   3.292   0.158   6.415
 3437SOL     OW11209   1.196   0.038   6.736
 3437SOL    HW111210   1.285   0.035   6.690
 3437SOL    HW211211   1.192   6.989   6.806
 3438SOL     OW11212   2.456   4.029   0.892
 3438SOL    HW111213   2.361   4.049   0.917
 3438SOL    HW211214   2.460   4.004   0.795
 3439SOL     OW11215   2.860   5.796   1.140
 3439SOL    HW111216   2.817   5.843   1.217
 3439SOL    HW211217   2.957   5.779   1.161
 3440SOL     OW11218   3.710   3.558   5.431
 3440SOL    HW111219   3.664   3.511   5.355
 3440SOL    HW211220   3.663   3.644   5.449
 3441SOL     OW11221   6.402   5.219   5.752
 3441SOL    HW111222   6.364   5.293   5.697
 3441SOL    HW211223   6.342   5.139   5.746
 3442SOL     OW11224   1.883   3.188   1.385
 3442SOL    HW111225   1.808   3.248   1.359
 3442SOL    HW211226   1.890   3.184   1.485
 3443SOL     OW11227   0.092   5.896   2.122
 3443SOL    HW111228   0.017   5.852   2.073
 3443SOL    HW211229   0.160   5.828   2.147
 3444SOL     OW11230   6.641   3.879   5.314
 3444SOL    HW111231   6.638   3.853   5.218
 3444SOL    HW211232   6.549   3.903   5.345
 3445SOL     OW11233   6.278   4.626   4.562
 3445SOL    HW111234   6.286   4.623   4.661
 3445SOL    HW211235   6.209   4.693   4.535
 3446SOL     OW11236   4.255   0.930   1.295
 3446SOL    HW111237   4.305   0.909   1.211
 3446SOL    HW211238   4.277   0.862   1.365
 3447SOL     OW11239   5.788   0.801   6.336
 3447SOL    HW111240   5.777   0.893   6.372
 3447SOL    HW211241   5.776   0.802   6.236
 3448SOL     OW11242   1.425   4.475   5.065
 3448SOL    HW111243   1.501   4.445   5.008
 3448SOL    HW211244   1.427   4.574   5.075
 3449SOL     OW11245   0.668   4.555   5.392
 3449SOL    HW111246   0.767   4.556   5.379
 3449SOL    HW211247   0.636   4.648   5.413
 3450SOL     OW11248   2.379   0.253   1.602
 3450SOL    HW111249   2.436   0.201   1.539
 3450SOL    HW211250   2.308   0.301   1.550
 3451SOL     OW11251   1.541   2.152   0.887
 3451SOL    HW111252   1.604   2.229   0.889
 3451SOL    HW211253   1.448   2.184   0.867
 3452SOL     OW11254   4.746   1.182   5.194
 3452SOL    HW111255   4.830   1.130   5.182
 3452SOL    HW211256   4.754   1.269   5.145
 3453SOL     OW11257   3.986   6.428   0.011
 3453SOL    HW111258   3.907   6.401   6.978
 3453SOL    HW211259   4.049   6.351   0.021
 3454SOL     OW11260   0.334   3.229   1.277
 3454SOL    HW111261   0.325   3.244   1.376
 3454SOL    HW211262   0.421   3.268   1.245
 3455SOL     OW11263   0.662   3.721   6.032
 3455SOL    HW111264   0.605   3.639   6.027
 3455SOL    HW211265   0.758   3.694   6.046
 3456SOL     OW11266   4.930   5.750   3.473
 3456SOL    HW111267   4.966   5.670   3.522
 3456SOL    HW211268   4.986   5.830   3.493
 3457SOL     OW11269   3.544   4.229   6.428
 3457SOL    HW111270   3.531   4.213   6.526
 3457SOL    HW211271   3.488   4.165   6.375
 3458SOL     OW11272   4.022   1.282   2.779
 3458SOL    HW111273   4.033   1.255   2.874
 3458SOL    HW211274   3.926   1.304   2.762
 3459SOL     OW11275   5.448   5.756   2.202
 3459SOL    HW111276   5.369   5.792   2.153
 3459SOL    HW211277   5.496   5.831   2.247
 3460SOL     OW11278   3.680   1.891   4.902
 3460SOL    HW111279   3.675   1.804   4.952
 3460SOL    HW211280   3.595   1.904   4.851
 3461SOL     OW11281   5.541   5.218   4.785
 3461SOL    HW111282   5.459   5.172   4.752
 3461SOL    HW211283   5.543   5.312   4.749
 3462SOL     OW11284   1.245   3.789   6.400
 3462SOL    HW111285   1.319   3.776   6.333
 3462SOL    HW211286   1.207   3.701   6.425
 3463SOL     OW11287   5.693   4.195   0.090
 3463SOL    HW111288   5.656   4.277   0.046
 3463SOL    HW211289   5.705   4.123   0.022
 3464SOL     OW11290   0.032   4.433   4.042
 3464SOL    HW111291   7.013   4.519   4.012
 3464SOL    HW211292   0.076   4.446   4.131
 3465SOL     OW11293   0.928   2.021   2.934
 3465SOL    HW111294   0.861   1.958   2.896
 3465SOL    HW211295   0.894   2.059   3.020
 3466SOL     OW11296   0.420   3.318   4.775
 3466SOL    HW111297   0.398   3.286   4.867
 3466SOL    HW211298   0.455   3.241   4.721
 3467SOL     OW11299   1.762   2.176   5.963
 3467SOL    HW111300   1.791   2.262   6.004
 3467SOL    HW211301   1.667   2.157   5.989
 3468SOL     OW11302   4.136   5.793   2.244
 3468SOL    HW111303   4.084   5.872   2.212
 3468SOL    HW211304   4.091   5.709   2.213
 3469SOL     OW11305   5.401   3.545   1.406
 3469SOL    HW111306   5.329   3.495   1.454
 3469SOL    HW211307   5.385   3.643   1.413
 3470SOL     OW11308   0.490   5.708   0.729
 3470SOL    HW111309   0.563   5.642   0.745
 3470SOL    HW211310   0.414   5.664   0.683
 3471SOL     OW11311   4.491   0.309   4.866
 3471SOL    HW111312   4.581   0.330   4.827
 3471SOL    HW211313   4.444   0.243   4.808
 3472SOL     OW11314   4.140   1.247   5.024
 3472SOL    HW111315   4.219   1.187   5.015
 3472SOL    HW211316   4.063   1.196   5.062
 3473SOL     OW11317   4.341   6.608   4.123
 3473SOL    HW111318   4.412   6.620   4.193
 3473SOL    HW211319   4.251   6.618   4.166
 3474SOL     OW11320   5.080   4.341   1.192
 3474SOL    HW111321   5.073   4.329   1.093
 3474SOL    HW211322   5.159   4.399   1.213
 3475SOL     OW11323   1.621   6.134   4.769
 3475SOL    HW111324   1.666   6.211   4.815
 3475SOL    HW211325   1.526   6.157   4.751
 3476SOL     OW11326   5.068   1.736   4.989
 3476SOL    HW111327   5.053   1.780   5.077
 3476SOL    HW211328   5.091   1.806   4.921
 3477SOL     OW11329   4.241   5.496   1.672
 3477SOL    HW111330   4.303   5.424   1.705
 3477SOL    HW211331   4.290   5.555   1.608
 3478SOL     OW11332   4.042   4.691   0.005
 3478SOL    HW111333   4.109   4.744   6.974
 3478SOL    HW211334   3.963   4.671   6.970
 3479SOL     OW11335   1.432   0.255   1.663
 3479SOL    HW111336   1.368   0.274   1.738
 3479SOL    HW211337   1.386   0.273   1.575
 3480SOL     OW11338   1.092   0.245   4.079
 3480SOL    HW111339   1.059   0.152   4.063
 3480SOL    HW211340   1.075   0.301   3.997
 3481SOL     OW11341   2.441   6.577   6.900
 3481SOL    HW111342   2.406   6.503   6.843
 3481SOL    HW211343   2.504   6.541   6.968
 3482SOL     OW11344   0.759   2.094   1.400
 3482SOL    HW111345   0.703   2.151   1.460
 3482SOL    HW211346   0.818   2.152   1.345
 3483SOL     OW11347   4.424   1.745   1.141
 3483SOL    HW111348   4.379   1.661   1.109
 3483SOL    HW211349   4.436   1.808   1.065
 3484SOL     OW11350   3.326   2.885   3.669
 3484SOL    HW111351   3.391   2.953   3.702
 3484SOL    HW211352   3.358   2.849   3.581
 3485SOL     OW11353   6.706   1.634   4.415
 3485SOL    HW111354   6.708   1.675   4.507
 3485SOL    HW211355   6.619   1.654   4.372
 3486SOL     OW11356   5.027   1.240   3.035
 3486SOL    HW111357   4.998   1.273   2.946
 3486SOL    HW211358   4.975   1.158   3.060
 3487SOL     OW11359   0.655   0.915   0.484
 3487SOL    HW111360   0.621   0.857   0.410
 3487SOL    HW211361   0.664   1.009   0.452
 3488SOL     OW11362   6.118   3.574   3.987
 3488SOL    HW111363   6.153   3.480   3.995
 3488SOL    HW211364   6.021   3.572   3.967
 3489SOL     OW11365   2.108   6.038   0.670
 3489SOL    HW111366   2.110   6.138   0.672
 3489SOL    HW211367   2.144   6.006   0.582
 3490SOL     OW11368   4.828   2.691   0.920
 3490SOL    HW111369   4.835   2.600   0.962
 3490SOL    HW211370   4.750   2.739   0.958
 3491SOL     OW11371   0.527   2.826   5.354
 3491SOL    HW111372   0.444   2.865   5.394
 3491SOL    HW211373   0.553   2.745   5.406
 3492SOL     OW11374   5.401   5.106   6.931
 3492SOL    HW111375   5.392   5.125   6.833
 3492SOL    HW211376   5.453   5.180   6.974
 3493SOL     OW11377   0.016   4.927   1.513
 3493SOL    HW111378   0.023   4.920   1.413
 3493SOL    HW211379   0.108   4.935   1.552
 3494SOL     OW11380   3.050   6.217   1.253
 3494SOL    HW111381   2.963   6.238   1.207
 3494SOL    HW211382   3.117   6.288   1.231
 3495SOL     OW11383   5.665   4.414   0.437
 3495SOL    HW111384   5.627   4.322   0.442
 3495SOL    HW211385   5.643   4.455   0.348
 3496SOL     OW11386   0.430   4.766   0.886
 3496SOL    HW111387   0.354   4.766   0.950
 3496SOL    HW211388   0.398   4.796   0.796
 3497SOL     OW11389   4.476   6.360   4.017
 3497SOL    HW111390   4.427   6.447   4.015
 3497SOL    HW211391   4.450   6.307   3.936
 3498SOL     OW11392   1.369   1.903   0.962
 3498SOL    HW111393   1.353   1.904   1.061
 3498SOL    HW211394   1.449   1.958   0.940
 3499SOL     OW11395   6.557   3.720   4.381
 3499SOL    HW111396   6.487   3.786   4.356
 3499SOL    HW211397   6.594   3.743   4.471
 3500SOL     OW11398   6.733   3.223   0.698
 3500SOL    HW111399   6.661   3.281   0.735
 3500SOL    HW211400   6.750   3.147   0.761
 3501SOL     OW11401   0.812   4.332   4.013
 3501SOL    HW111402   0.776   4.425   4.002
 3501SOL    HW211403   0.891   4.321   3.953
 3502SOL     OW11404   1.383   4.410   1.643
 3502SOL    HW111405   1.335   4.414   1.555
 3502SOL    HW211406   1.343   4.338   1.699
 3503SOL     OW11407   3.522   6.511   3.666
 3503SOL    HW111408   3.473   6.561   3.737
 3503SOL    HW211409   3.517   6.560   3.579
 3504SOL     OW11410   2.105   3.049   2.648
 3504SOL    HW111411   2.150   3.011   2.567
 3504SOL    HW211412   2.149   3.013   2.730
 3505SOL     OW11413   4.254   6.258   5.246
 3505SOL    HW111414   4.347   6.272   5.210
 3505SOL    HW211415   4.231   6.161   5.243
 3506SOL     OW11416   5.614   4.906   2.013
 3506SOL    HW111417   5.533   4.868   1.968
 3506SOL    HW211418   5.666   4.832   2.055
 3507SOL     OW11419   0.434   0.474   6.689
 3507SOL    HW111420   0.477   0.468   6.779
 3507SOL    HW211421   0.355   0.414   6.685
 3508SOL     OW11422   5.942   3.784   6.756
 3508SOL    HW111423   5.990   3.696   6.756
 3508SOL    HW211424   5.844   3.768   6.758
 3509SOL     OW11425   6.313   0.684   0.661
 3509SOL    HW111426   6.304   0.740   0.744
 3509SOL    HW211427   6.253   0.605   0.668
 3510SOL     OW11428   2.368   2.629   2.563
 3510SOL    HW111429   2.453   2.612   2.612
 3510SOL    HW211430   2.388   2.654   2.469
 3511SOL     OW11431   0.518   0.572   5.559
 3511SOL    HW111432   0.437   0.546   5.613
 3511SOL    HW211433   0.515   0.670   5.540
 3512SOL     OW11434   3.174   2.907   0.862
 3512SOL    HW111435   3.076   2.915   0.843
 3512SOL    HW211436   3.226   2.941   0.784
 3513SOL     OW11437   5.297   4.521   1.216
 3513SOL    HW111438   5.339   4.586   1.153
 3513SOL    HW211439   5.334   4.536   1.308
 3514SOL     OW11440   1.510   6.813   1.644
 3514SOL    HW111441   1.432   6.790   1.586
 3514SOL    HW211442   1.565   6.731   1.660
 3515SOL     OW11443   3.823   6.055   3.126
 3515SOL    HW111444   3.860   6.002   3.050
 3515SOL    HW211445   3.892   6.063   3.198
 3516SOL     OW11446   2.712   0.999   0.787
 3516SOL    HW111447   2.706   1.037   0.695
 3516SOL    HW211448   2.772   1.056   0.843
 3517SOL     OW11449   0.933   0.372   6.170
 3517SOL    HW111450   0.923   0.285   6.123
 3517SOL    HW211451   0.929   0.357   6.269
 3518SOL     OW11452   4.714   3.401   5.746
 3518SOL    HW111453   4.765   3.335   5.691
 3518SOL    HW211454   4.657   3.352   5.813
 3519SOL     OW11455   3.193   6.422   0.446
 3519SOL    HW111456   3.235   6.451   0.533
 3519SOL    HW211457   3.095   6.410   0.460
 3520SOL     OW11458   3.858   5.208   0.739
 3520SOL    HW111459   3.888   5.302   0.722
 3520SOL    HW211460   3.778   5.209   0.799
 3521SOL     OW11461   5.811   1.554   6.182
 3521SOL    HW111462   5.736   1.600   6.135
 3521SOL    HW211463   5.878   1.622   6.213
 3522SOL     OW11464   2.765   6.467   1.495
 3522SOL    HW111465   2.720   6.473   1.585
 3522SOL    HW211466   2.846   6.525   1.495
 3523SOL     OW11467   2.264   4.640   5.461
 3523SOL    HW111468   2.309   4.689   5.387
 3523SOL    HW211469   2.187   4.693   5.495
 3524SOL     OW11470   2.470   0.372   1.816
 3524SOL    HW111471   2.450   0.470   1.816
 3524SOL    HW211472   2.428   0.329   1.737
 3525SOL     OW11473   2.159   3.506   3.002
 3525SOL    HW111474   2.121   3.525   2.912
 3525SOL    HW211475   2.179   3.409   3.011
 3526SOL     OW11476   3.181   0.285   3.496
 3526SOL    HW111477   3.220   0.287   3.404
 3526SOL    HW211478   3.200   0.372   3.541
 3527SOL     OW11479   5.790   2.734   5.930
 3527SOL    HW111480   5.758   2.648   5.971
 3527SOL    HW211481   5.866   2.770   5.984
 3528SOL     OW11482   1.021   6.608   4.353
 3528SOL    HW111483   1.112   6.593   4.313
 3528SOL    HW211484   1.029   6.669   4.432
 3529SOL     OW11485   3.362   5.994   6.875
 3529SOL    HW111486   3.395   5.975   6.968
 3529SOL    HW211487   3.440   6.007   6.814
 3530SOL     OW11488   1.320   5.935   2.886
 3530SOL    HW111489   1.332   5.991   2.804
 3530SOL    HW211490   1.403   5.883   2.903
 3531SOL     OW11491   4.852   4.612   6.514
 3531SOL    HW111492   4.867   4.518   6.482
 3531SOL    HW211493   4.877   4.619   6.610
 3532SOL     OW11494   2.113   6.610   0.439
 3532SOL    HW111495   2.038   6.673   0.459
 3532SOL    HW211496   2.200   6.657   0.448
 3533SOL     OW11497   1.102   1.363   3.916
 3533SOL    HW111498   1.185   1.332   3.961
 3533SOL    HW211499   1.023   1.343   3.973
 3534SOL     OW11500   4.855   0.256   5.181
 3534SOL    HW111501   4.841   0.316   5.103
 3534SOL    HW211502   4.804   0.171   5.168
 3535SOL     OW11503   4.211   6.176   6.719
 3535SOL    HW111504   4.235   6.155   6.814
 3535SOL    HW211505   4.112   6.170   6.707
 3536SOL     OW11506   0.948   4.255   2.676
 3536SOL    HW111507   0.892   4.173   2.661
 3536SOL    HW211508   0.948   4.277   2.774
 3537SOL     OW11509   2.832   4.020   0.961
 3537SOL    HW111510   2.761   4.043   1.028
 3537SOL    HW211511   2.916   4.067   0.985
 3538SOL     OW11512   3.626   1.130   3.747
 3538SOL    HW111513   3.536   1.088   3.733
 3538SOL    HW211514   3.660   1.165   3.660
 3539SOL     OW11515   5.208   6.332   6.693
 3539SOL    HW111516   5.136   6.388   6.733
 3539SOL    HW211517   5.173   6.240   6.675
 3540SOL     OW11518   2.442   4.041   5.943
 3540SOL    HW111519   2.351   4.066   5.977
 3540SOL    HW211520   2.447   4.062   5.845
 3541SOL     OW11521   1.955   2.779   1.416
 3541SOL    HW111522   2.021   2.712   1.381
 3541SOL    HW211523   1.998   2.832   1.489
 3542SOL     OW11524   6.060   1.606   6.816
 3542SOL    HW111525   6.049   1.630   6.719
 3542SOL    HW211526   6.122   1.670   6.860
 3543SOL     OW11527   0.474   2.507   3.905
 3543SOL    HW111528   0.537   2.573   3.865
 3543SOL    HW211529   0.494   2.495   4.002
 3544SOL     OW11530   3.251   3.834   6.878
 3544SOL    HW111531   3.194   3.753   6.866
 3544SOL    HW211532   3.193   3.915   6.886
 3545SOL     OW11533   3.845   6.718   0.683
 3545SOL    HW111534   3.776   6.648   0.701
 3545SOL    HW211535   3.855   6.729   0.584
 3546SOL     OW11536   6.483   4.372   2.210
 3546SOL    HW111537   6.507   4.276   2.193
 3546SOL    HW211538   6.521   4.401   2.298
 3547SOL     OW11539   1.443   4.093   4.785
 3547SOL    HW111540   1.474   3.998   4.793
 3547SOL    HW211541   1.431   4.131   4.877
 3548SOL     OW11542   5.480   0.471   6.105
 3548SOL    HW111543   5.580   0.469   6.106
 3548SOL    HW211544   5.446   0.471   6.199
 3549SOL     OW11545   2.886   6.932   6.622
 3549SOL    HW111546   2.939   6.964   6.701
 3549SOL    HW211547   2.791   6.961   6.631
 3550SOL     OW11548   4.830   0.924   5.630
 3550SOL    HW111549   4.768   0.997   5.660
 3550SOL    HW211550   4.922   0.943   5.663
 3551SOL     OW11551   5.270   2.130   4.452
 3551SOL    HW111552   5.341   2.201   4.447
 3551SOL    HW211553   5.202   2.156   4.521
 3552SOL     OW11554   6.069   6.830   3.510
 3552SOL    HW111555   6.099   6.787   3.595
 3552SOL    HW211556   6.127   6.910   3.490
 3553SOL     OW11557   5.844   5.934   6.843
 3553SOL    HW111558   5.817   6.001   6.773
 3553SOL    HW211559   5.783   5.941   6.922
 3554SOL     OW11560   5.375   4.564   6.799
 3554SOL    HW111561   5.301   4.631   6.798
 3554SOL    HW211562   5.353   4.491   6.864
 3555SOL     OW11563   2.893   2.325   5.252
 3555SOL    HW111564   2.821   2.328   5.183
 3555SOL    HW211565   2.982   2.316   5.208
 3556SOL     OW11566   5.884   0.984   0.411
 3556SOL    HW111567   5.885   0.947   0.318
 3556SOL    HW211568   5.944   1.064   0.415
 3557SOL     OW11569   5.902   6.903   1.419
 3557SOL    HW111570   5.840   6.975   1.388
 3557SOL    HW211571   5.983   6.902   1.360
 3558SOL     OW11572   3.781   5.359   2.321
 3558SOL    HW111573   3.771   5.279   2.380
 3558SOL    HW211574   3.845   5.423   2.363
 3559SOL     OW11575   4.565   6.917   6.398
 3559SOL    HW111576   4.531   6.825   6.421
 3559SOL    HW211577   4.535   6.942   6.307
 3560SOL     OW11578   0.954   5.351   4.338
 3560SOL    HW111579   1.013   5.431   4.332
 3560SOL    HW211580   1.004   5.275   4.379
 3561SOL     OW11581   4.463   3.651   5.365
 3561SOL    HW111582   4.509   3.664   5.453
 3561SOL    HW211583   4.527   3.611   5.300
 3562SOL     OW11584   2.980   1.970   0.129
 3562SOL    HW111585   2.961   1.883   0.084
 3562SOL    HW211586   3.023   1.954   0.217
 3563SOL     OW11587   6.357   2.557   5.879
 3563SOL    HW111588   6.273   2.513   5.848
 3563SOL    HW211589   6.427   2.549   5.808
 3564SOL     OW11590   6.061   3.658   2.327
 3564SOL    HW111591   6.088   3.627   2.236
 3564SOL    HW211592   5.971   3.619   2.349
 3565SOL     OW11593   4.504   5.863   5.894
 3565SOL    HW111594   4.494   5.943   5.954
 3565SOL    HW211595   4.416   5.815   5.888
 3566SOL     OW11596   1.048   0.505   4.671
 3566SOL    HW111597   0.998   0.592   4.672
 3566SOL    HW211598   1.038   0.460   4.760
 3567SOL     OW11599   6.844   3.484   6.648
 3567SOL    HW111600   6.886   3.457   6.561
 3567SOL    HW211601   6.906   3.543   6.698
 3568SOL     OW11602   6.042   3.898   6.226
 3568SOL    HW111603   5.994   3.814   6.201
 3568SOL    HW211604   5.995   3.976   6.185
 3569SOL     OW11605   0.838   0.184   3.668
 3569SOL    HW111606   0.835   0.216   3.762
 3569SOL    HW211607   0.847   0.085   3.666
 3570SOL     OW11608   5.483   1.447   3.838
 3570SOL    HW111609   5.458   1.485   3.927
 3570SOL    HW211610   5.402   1.440   3.780
 3571SOL     OW11611   6.697   0.065   5.315
 3571SOL    HW111612   6.648   0.146   5.282
 3571SOL    HW211613   6.745   0.088   5.399
 3572SOL     OW11614   6.442   6.558   5.278
 3572SOL    HW111615   6.480   6.489   5.216
 3572SOL    HW211616   6.492   6.644   5.265
 3573SOL     OW11617   0.739   2.247   2.239
 3573SOL    HW111618   0.697   2.192   2.167
 3573SOL    HW211619   0.838   2.249   2.226
 3574SOL     OW11620   6.241   3.906   6.995
 3574SOL    HW111621   6.290   3.977   6.945
 3574SOL    HW211622   6.142   3.924   6.989
 3575SOL     OW11623   6.298   5.810   1.719
 3575SOL    HW111624   6.225   5.817   1.788
 3575SOL    HW211625   6.269   5.749   1.645
 3576SOL     OW11626   0.590   1.437   6.700
 3576SOL    HW111627   0.553   1.506   6.763
 3576SOL    HW211628   0.685   1.417   6.726
 3577SOL     OW11629   2.101   3.453   6.997
 3577SOL    HW111630   2.167   3.386   0.010
 3577SOL    HW211631   2.092   3.528   0.041
 3578SOL     OW11632   3.360   4.726   1.673
 3578SOL    HW111633   3.419   4.703   1.750
 3578SOL    HW211634   3.329   4.642   1.628
 3579SOL     OW11635   1.305   4.094   5.307
 3579SOL    HW111636   1.228   4.034   5.285
 3579SOL    HW211637   1.355   4.115   5.223
 3580SOL     OW11638   6.620   2.552   1.507
 3580SOL    HW111639   6.645   2.491   1.583
 3580SOL    HW211640   6.558   2.503   1.445
 3581SOL     OW11641   5.999   0.930   3.244
 3581SOL    HW111642   5.980   0.834   3.226
 3581SOL    HW211643   6.008   0.945   3.343
 3582SOL     OW11644   6.712   0.637   5.762
 3582SOL    HW111645   6.745   0.543   5.763
 3582SOL    HW211646   6.718   0.675   5.855
 3583SOL     OW11647   2.371   5.311   0.814
 3583SOL    HW111648   2.347   5.284   0.721
 3583SOL    HW211649   2.421   5.237   0.858
 3584SOL     OW11650   5.550   6.675   5.859
 3584SOL    HW111651   5.530   6.725   5.943
 3584SOL    HW211652   5.603   6.733   5.798
 3585SOL     OW11653   2.753   5.218   4.123
 3585SOL    HW111654   2.679   5.279   4.096
 3585SOL    HW211655   2.732   5.176   4.212
 3586SOL     OW11656   0.765   1.998   5.936
 3586SOL    HW111657   0.822   1.951   5.869
 3586SOL    HW211658   0.811   1.999   6.025
 3587SOL     OW11659   3.924   0.442   6.829
 3587SOL    HW111660   3.841   0.459   6.775
 3587SOL    HW211661   3.972   0.528   6.843
 3588SOL     OW11662   1.973   1.335   5.126
 3588SOL    HW111663   2.010   1.426   5.110
 3588SOL    HW211664   1.884   1.327   5.082
 3589SOL     OW11665   2.998   0.157   5.225
 3589SOL    HW111666   2.989   0.156   5.125
 3589SOL    HW211667   2.943   0.083   5.264
 3590SOL     OW11668   1.382   5.247   0.040
 3590SOL    HW111669   1.420   5.180   0.103
 3590SOL    HW211670   1.297   5.284   0.078
 3591SOL     OW11671   5.234   2.006   5.564
 3591SOL    HW111672   5.190   2.041   5.647
 3591SOL    HW211673   5.332   1.997   5.579
 3592SOL     OW11674   5.240   2.582   2.294
 3592SOL    HW111675   5.234   2.505   2.357
 3592SOL    HW211676   5.335   2.598   2.269
 3593SOL     OW11677   0.560   4.746   3.724
 3593SOL    HW111678   0.612   4.685   3.783
 3593SOL    HW211679   0.463   4.740   3.748
 3594SOL     OW11680   3.852   0.997   4.470
 3594SOL    HW111681   3.859   0.921   4.405
 3594SOL    HW211682   3.918   1.068   4.446
 3595SOL     OW11683   2.153   6.429   5.713
 3595SOL    HW111684   2.075   6.410   5.773
 3595SOL    HW211685   2.164   6.354   5.648
 3596SOL     OW11686   0.247   3.203   3.472
 3596SOL    HW111687   0.255   3.295   3.510
 3596SOL    HW211688   0.239   3.209   3.372
 3597SOL     OW11689   3.675   6.282   3.177
 3597SOL    HW111690   3.706   6.204   3.122
 3597SOL    HW211691   3.682   6.259   3.274
 3598SOL     OW11692   1.662   0.471   0.843
 3598SOL    HW111693   1.648   0.421   0.929
 3598SOL    HW211694   1.702   0.560   0.863
 3599SOL     OW11695   6.927   1.737   4.011
 3599SOL    HW111696   6.982   1.677   4.069
 3599SOL    HW211697   6.950   1.721   3.915
 3600SOL     OW11698   6.187   0.805   1.470
 3600SOL    HW111699   6.248   0.815   1.392
 3600SOL    HW211700   6.092   0.809   1.439
 3601SOL     OW11701   6.279   3.663   5.535
 3601SOL    HW111702   6.213   3.729   5.571
 3601SOL    HW211703   6.231   3.579   5.509
 3602SOL     OW11704   2.154   2.068   0.449
 3602SOL    HW111705   2.116   2.154   0.481
 3602SOL    HW211706   2.104   1.991   0.490
 3603SOL     OW11707   4.164   4.908   4.593
 3603SOL    HW111708   4.135   4.889   4.499
 3603SOL    HW211709   4.218   4.992   4.596
 3604SOL     OW11710   0.369   3.401   3.121
 3604SOL    HW111711   0.411   3.310   3.124
 3604SOL    HW211712   0.434   3.469   3.154
 3605SOL     OW11713   6.622   2.788   6.642
 3605SOL    HW111714   6.682   2.814   6.718
 3605SOL    HW211715   6.540   2.743   6.677
 3606SOL     OW11716   1.681   4.438   4.419
 3606SOL    HW111717   1.658   4.359   4.476
 3606SOL    HW211718   1.602   4.499   4.414
 3607SOL     OW11719   4.746   6.864   0.173
 3607SOL    HW111720   4.835   6.907   0.156
 3607SOL    HW211721   4.707   6.901   0.257
 3608SOL     OW11722   0.542   2.485   2.220
 3608SOL    HW111723   0.574   2.390   2.217
 3608SOL    HW211724   0.619   2.546   2.205
 3609SOL     OW11725   6.396   0.149   5.121
 3609SOL    HW111726   6.349   0.160   5.209
 3609SOL    HW211727   6.362   0.068   5.074
 3610SOL     OW11728   2.000   6.086   4.932
 3610SOL    HW111729   1.992   5.989   4.957
 3610SOL    HW211730   2.015   6.093   4.833
 3611SOL     OW11731   4.017   5.339   5.065
 3611SOL    HW111732   4.032   5.298   5.155
 3611SOL    HW211733   3.984   5.432   5.075
 3612SOL     OW11734   1.240   0.021   1.492
 3612SOL    HW111735   1.238   6.958   1.440
 3612SOL    HW211736   1.304   0.085   1.448
 3613SOL     OW11737   5.527   5.535   6.827
 3613SOL    HW111738   5.518   5.529   6.926
 3613SOL    HW211739   5.585   5.613   6.804
 3614SOL     OW11740   4.102   3.408   3.841
 3614SOL    HW111741   4.107   3.349   3.761
 3614SOL    HW211742   4.194   3.435   3.870
 3615SOL     OW11743   6.437   6.095   6.078
 3615SOL    HW111744   6.465   6.181   6.121
 3615SOL    HW211745   6.389   6.114   5.993
 3616SOL     OW11746   6.359   0.583   4.481
 3616SOL    HW111747   6.268   0.562   4.518
 3616SOL    HW211748   6.415   0.625   4.552
 3617SOL     OW11749   6.719   0.965   0.060
 3617SOL    HW111750   6.681   1.033   7.018
 3617SOL    HW211751   6.700   0.873   0.025
 3618SOL     OW11752   2.718   0.795   5.838
 3618SOL    HW111753   2.702   0.844   5.925
 3618SOL    HW211754   2.646   0.726   5.826
 3619SOL     OW11755   5.038   2.883   4.221
 3619SOL    HW111756   5.101   2.898   4.298
 3619SOL    HW211757   4.952   2.931   4.240
 3620SOL     OW11758   6.166   1.287   4.888
 3620SOL    HW111759   6.246   1.241   4.927
 3620SOL    HW211760   6.178   1.297   4.790
 3621SOL     OW11761   1.797   3.036   5.997
 3621SOL    HW111762   1.876   2.997   6.044
 3621SOL    HW211763   1.817   3.046   5.899
 3622SOL     OW11764   0.381   2.674   0.861
 3622SOL    HW111765   0.419   2.691   0.952
 3622SOL    HW211766   0.453   2.636   0.802
 3623SOL     OW11767   6.897   5.491   4.602
 3623SOL    HW111768   6.916   5.425   4.529
 3623SOL    HW211769   6.979   5.546   4.620
 3624SOL     OW11770   2.050   0.795   1.659
 3624SOL    HW111771   2.000   0.712   1.633
 3624SOL    HW211772   2.123   0.813   1.593
 3625SOL     OW11773   0.390   3.076   4.252
 3625SOL    HW111774   0.398   3.067   4.152
 3625SOL    HW211775   0.443   3.156   4.282
 3626SOL     OW11776   2.625   3.827   5.307
 3626SOL    HW111777   2.550   3.862   5.250
 3626SOL    HW211778   2.595   3.744   5.353
 3627SOL     OW11779   2.953   3.478   3.852
 3627SOL    HW111780   2.907   3.484   3.941
 3627SOL    HW211781   2.996   3.388   3.843
 3628SOL     OW11782   3.382   5.230   2.395
 3628SOL    HW111783   3.454   5.186   2.449
 3628SOL    HW211784   3.387   5.329   2.408
 3629SOL     OW11785   6.282   2.267   5.042
 3629SOL    HW111786   6.220   2.335   5.082
 3629SOL    HW211787   6.350   2.240   5.111
 3630SOL     OW11788   5.852   1.844   4.582
 3630SOL    HW111789   5.848   1.835   4.682
 3630SOL    HW211790   5.761   1.830   4.544
 3631SOL     OW11791   1.867   1.032   4.241
 3631SOL    HW111792   1.854   0.939   4.274
 3631SOL    HW211793   1.932   1.032   4.165
 3632SOL     OW11794   4.360   0.471   6.667
 3632SOL    HW111795   4.409   0.509   6.745
 3632SOL    HW211796   4.404   0.386   6.638
 3633SOL     OW11797   2.210   2.974   5.889
 3633SOL    HW111798   2.246   3.055   5.935
 3633SOL    HW211799   2.154   2.922   5.953
 3634SOL     OW11800   2.118   5.864   5.354
 3634SOL    HW111801   2.156   5.901   5.439
 3634SOL    HW211802   2.058   5.787   5.375
 3635SOL     OW11803   2.552   1.196   5.121
 3635SOL    HW111804   2.541   1.097   5.136
 3635SOL    HW211805   2.574   1.240   5.208
 3636SOL     OW11806   1.257   5.603   6.436
 3636SOL    HW111807   1.175   5.621   6.382
 3636SOL    HW211808   1.330   5.570   6.376
 3637SOL     OW11809   5.520   1.270   2.209
 3637SOL    HW111810   5.541   1.357   2.255
 3637SOL    HW211811   5.440   1.282   2.150
 3638SOL     OW11812   6.307   5.156   4.485
 3638SOL    HW111813   6.231   5.215   4.455
 3638SOL    HW211814   6.295   5.065   4.446
 3639SOL     OW11815   2.141   5.080   0.391
 3639SOL    HW111816   2.168   5.007   0.327
 3639SOL    HW211817   2.124   5.164   0.340
 3640SOL     OW11818   3.674   5.855   1.133
 3640SOL    HW111819   3.594   5.851   1.194
 3640SOL    HW211820   3.714   5.764   1.125
 3641SOL     OW11821   2.755   0.401   5.078
 3641SOL    HW111822   2.753   0.353   5.166
 3641SOL    HW211823   2.790   0.494   5.091
 3642SOL     OW11824   5.891   0.153   3.411
 3642SOL    HW111825   5.884   0.071   3.469
 3642SOL    HW211826   5.863   0.233   3.464
 3643SOL     OW11827   2.573   4.617   5.159
 3643SOL    HW111828   2.670   4.598   5.141
 3643SOL    HW211829   2.529   4.535   5.196
 3644SOL     OW11830   0.262   1.145   0.762
 3644SOL    HW111831   0.266   1.122   0.859
 3644SOL    HW211832   0.354   1.136   0.722
 3645SOL     OW11833   3.270   0.421   3.247
 3645SOL    HW111834   3.184   0.463   3.218
 3645SOL    HW211835   3.327   0.404   3.167
 3646SOL     OW11836   0.186   4.857   4.631
 3646SOL    HW111837   0.141   4.786   4.686
 3646SOL    HW211838   0.163   4.947   4.667
 3647SOL     OW11839   2.619   3.111   1.006
 3647SOL    HW111840   2.677   3.050   1.060
 3647SOL    HW211841   2.531   3.067   0.987
 3648SOL     OW11842   2.835   6.079   2.800
 3648SOL    HW111843   2.882   6.111   2.882
 3648SOL    HW211844   2.893   6.015   2.750
 3649SOL     OW11845   3.097   3.654   1.477
 3649SOL    HW111846   3.196   3.668   1.485
 3649SOL    HW211847   3.071   3.657   1.380
 3650SOL     OW11848   6.886   0.033   1.786
 3650SOL    HW111849   6.896   6.976   1.725
 3650SOL    HW211850   6.824   0.100   1.745
 3651SOL     OW11851   2.067   5.719   2.440
 3651SOL    HW111852   2.062   5.776   2.521
 3651SOL    HW211853   1.976   5.690   2.413
 3652SOL     OW11854   4.543   5.337   3.282
 3652SOL    HW111855   4.605   5.412   3.303
 3652SOL    HW211856   4.588   5.272   3.222
 3653SOL     OW11857   0.068   2.778   3.905
 3653SOL    HW111858   0.058   2.726   3.990
 3653SOL    HW211859   0.143   2.740   3.851
 3654SOL     OW11860   1.785   6.607   1.343
 3654SOL    HW111861   1.732   6.530   1.308
 3654SOL    HW211862   1.826   6.656   1.267
 3655SOL     OW11863   1.513   0.086   4.161
 3655SOL    HW111864   1.474   0.175   4.185
 3655SOL    HW211865   1.572   0.097   4.081
 3656SOL     OW11866   2.511   2.027   2.123
 3656SOL    HW111867   2.438   1.964   2.099
 3656SOL    HW211868   2.592   1.976   2.151
 3657SOL     OW11869   3.867   6.058   1.195
 3657SOL    HW111870   3.856   6.069   1.294
 3657SOL    HW211871   3.820   5.975   1.165
 3658SOL     OW11872   1.432   5.465   6.275
 3658SOL    HW111873   1.371   5.412   6.214
 3658SOL    HW211874   1.474   5.539   6.223
 3659SOL     OW11875   1.727   4.459   6.693
 3659SOL    HW111876   1.636   4.481   6.729
 3659SOL    HW211877   1.795   4.518   6.736
 3660SOL     OW11878   4.744   5.645   1.621
 3660SOL    HW111879   4.836   5.656   1.583
 3660SOL    HW211880   4.676   5.669   1.552
 3661SOL     OW11881   4.612   1.214   0.514
 3661SOL    HW111882   4.634   1.309   0.533
 3661SOL    HW211883   4.650   1.155   0.585
 3662SOL     OW11884   3.270   6.982   5.733
 3662SOL    HW111885   3.269   0.057   5.709
 3662SOL    HW211886   3.299   6.928   5.654
 3663SOL     OW11887   0.944   3.297   6.540
 3663SOL    HW111888   0.898   3.329   6.623
 3663SOL    HW211889   0.889   3.225   6.498
 3664SOL     OW11890   4.127   1.322   0.712
 3664SOL    HW111891   4.062   1.361   0.646
 3664SOL    HW211892   4.202   1.278   0.663
 3665SOL     OW11893   1.076   6.885   6.022
 3665SOL    HW111894   1.146   6.940   5.978
 3665SOL    HW211895   1.007   6.944   6.063
 3666SOL     OW11896   0.886   5.283   4.052
 3666SOL    HW111897   0.834   5.302   4.136
 3666SOL    HW211898   0.910   5.186   4.050
 3667SOL     OW11899   6.594   1.935   6.797
 3667SOL    HW111900   6.671   1.999   6.795
 3667SOL    HW211901   6.626   1.845   6.825
 3668SOL     OW11902   1.141   6.329   2.092
 3668SOL    HW111903   1.200   6.372   2.023
 3668SOL    HW211904   1.146   6.229   2.082
 3669SOL     OW11905   6.550   3.010   3.015
 3669SOL    HW111906   6.556   3.110   3.013
 3669SOL    HW211907   6.600   2.972   2.938
 3670SOL     OW11908   1.688   5.582   5.802
 3670SOL    HW111909   1.671   5.680   5.814
 3670SOL    HW211910   1.733   5.566   5.714
 3671SOL     OW11911   0.655   0.727   2.803
 3671SOL    HW111912   0.600   0.675   2.738
 3671SOL    HW211913   0.751   0.724   2.775
 3672SOL     OW11914   0.167   0.707   1.185
 3672SOL    HW111915   0.152   0.691   1.088
 3672SOL    HW211916   0.206   0.625   1.227
 3673SOL     OW11917   5.159   0.478   6.899
 3673SOL    HW111918   5.111   0.537   6.834
 3673SOL    HW211919   5.235   0.528   6.940
 3674SOL     OW11920   1.137   6.470   1.472
 3674SOL    HW111921   1.144   6.411   1.392
 3674SOL    HW211922   1.046   6.461   1.512
 3675SOL     OW11923   1.732   2.038   5.204
 3675SOL    HW111924   1.759   1.943   5.221
 3675SOL    HW211925   1.791   2.099   5.257
 3676SOL     OW11926   2.239   5.342   3.445
 3676SOL    HW111927   2.186   5.267   3.484
 3676SOL    HW211928   2.202   5.366   3.355
 3677SOL     OW11929   6.421   6.820   4.661
 3677SOL    HW111930   6.381   6.910   4.640
 3677SOL    HW211931   6.347   6.754   4.677
 3678SOL     OW11932   0.814   1.546   3.886
 3678SOL    HW111933   0.908   1.577   3.875
 3678SOL    HW211934   0.750   1.618   3.859
 3679SOL     OW11935   0.205   0.890   1.822
 3679SOL    HW111936   0.265   0.835   1.764
 3679SOL    HW211937   0.236   0.985   1.823
 3680SOL     OW11938   6.713   3.609   4.190
 3680SOL    HW111939   6.765   3.680   4.144
 3680SOL    HW211940   6.650   3.651   4.256
 3681SOL     OW11941   0.022   6.135   5.582
 3681SOL    HW111942   0.013   6.054   5.641
 3681SOL    HW211943   0.116   6.168   5.586
 3682SOL     OW11944   0.414   1.755   6.320
 3682SOL    HW111945   0.370   1.842   6.342
 3682SOL    HW211946   0.384   1.724   6.229
 3683SOL     OW11947   5.365   6.432   4.465
 3683SOL    HW111948   5.413   6.506   4.513
 3683SOL    HW211949   5.269   6.457   4.454
 3684SOL     OW11950   1.243   3.294   0.563
 3684SOL    HW111951   1.245   3.394   0.572
 3684SOL    HW211952   1.163   3.258   0.609
 3685SOL     OW11953   6.816   6.529   6.506
 3685SOL    HW111954   6.727   6.557   6.542
 3685SOL    HW211955   6.832   6.574   6.418
 3686SOL     OW11956   6.152   4.409   1.568
 3686SOL    HW111957   6.060   4.394   1.607
 3686SOL    HW211958   6.167   4.345   1.493
 3687SOL     OW11959   3.182   0.749   0.243
 3687SOL    HW111960   3.245   0.809   0.193
 3687SOL    HW211961   3.161   0.669   0.187
 3688SOL     OW11962   0.781   3.876   0.337
 3688SOL    HW111963   0.723   3.956   0.348
 3688SOL    HW211964   0.816   3.873   0.243
 3689SOL     OW11965   2.279   0.699   3.605
 3689SOL    HW111966   2.200   0.757   3.583
 3689SOL    HW211967   2.352   0.756   3.644
 3690SOL     OW11968   6.073   6.966   5.612
 3690SOL    HW111969   6.049   0.041   5.598
 3690SOL    HW211970   6.165   6.950   5.578
 3691SOL     OW11971   3.809   2.646   6.896
 3691SOL    HW111972   3.862   2.677   6.975
 3691SOL    HW211973   3.844   2.557   6.865
 3692SOL     OW11974   1.853   0.287   5.527
 3692SOL    HW111975   1.859   0.348   5.448
 3692SOL    HW211976   1.767   0.304   5.575
 3693SOL     OW11977   2.671   2.108   2.892
 3693SOL    HW111978   2.635   2.083   2.981
 3693SOL    HW211979   2.680   2.208   2.887
 3694SOL     OW11980   1.804   5.958   3.040
 3694SOL    HW111981   1.745   5.989   2.964
 3694SOL    HW211982   1.788   5.861   3.057
 3695SOL     OW11983   1.914   2.233   2.193
 3695SOL    HW111984   1.834   2.193   2.148
 3695SOL    HW211985   1.912   2.210   2.290
 3696SOL     OW11986   3.638   6.818   5.826
 3696SOL    HW111987   3.624   6.732   5.873
 3696SOL    HW211988   3.580   6.889   5.866
 3697SOL     OW11989   6.133   0.291   4.275
 3697SOL    HW111990   6.061   0.294   4.206
 3697SOL    HW211991   6.095   0.315   4.364
 3698SOL     OW11992   3.007   0.103   6.039
 3698SOL    HW111993   3.048   0.139   5.956
 3698SOL    HW211994   3.035   0.008   6.051
 3699SOL     OW11995   0.479   3.948   2.361
 3699SOL    HW111996   0.507   3.979   2.452
 3699SOL    HW211997   0.537   3.871   2.333
 3700SOL     OW11998   0.252   7.001   4.069
 3700SOL    HW111999   0.304   6.976   3.987
 3700SOL    HW212000   0.257   6.926   4.136
 3701SOL     OW12001   6.353   0.654   3.792
 3701SOL    HW112002   6.383   0.566   3.830
 3701SOL    HW212003   6.419   0.684   3.723
 3702SOL     OW12004   3.358   0.966   0.044
 3702SOL    HW112005   3.437   0.947   0.102
 3702SOL    HW212006   3.344   1.065   0.036
 3703SOL     OW12007   4.391   4.659   6.615
 3703SOL    HW112008   4.471   4.619   6.568
 3703SOL    HW212009   4.364   4.743   6.568
 3704SOL     OW12010   2.056   0.265   2.565
 3704SOL    HW112011   1.995   0.227   2.495
 3704SOL    HW212012   2.139   0.209   2.570
 3705SOL     OW12013   5.676   1.055   4.058
 3705SOL    HW112014   5.662   1.060   4.157
 3705SOL    HW212015   5.588   1.067   4.011
 3706SOL     OW12016   1.969   2.457   3.699
 3706SOL    HW112017   2.000   2.417   3.613
 3706SOL    HW212018   1.906   2.393   3.744
 3707SOL     OW12019   4.397   2.665   5.267
 3707SOL    HW112020   4.441   2.662   5.177
 3707SOL    HW212021   4.298   2.655   5.255
 3708SOL     OW12022   5.822   0.278   6.193
 3708SOL    HW112023   5.879   0.228   6.129
 3708SOL    HW212024   5.781   0.357   6.148
 3709SOL     OW12025   4.103   0.736   6.482
 3709SOL    HW112026   4.027   0.788   6.520
 3709SOL    HW212027   4.078   0.702   6.391
 3710SOL     OW12028   0.254   5.132   0.959
 3710SOL    HW112029   0.208   5.211   0.918
 3710SOL    HW212030   0.211   5.048   0.925
 3711SOL     OW12031   6.457   4.596   2.852
 3711SOL    HW112032   6.363   4.562   2.864
 3711SOL    HW212033   6.485   4.584   2.757
 3712SOL     OW12034   2.257   0.144   0.832
 3712SOL    HW112035   2.236   0.048   0.815
 3712SOL    HW212036   2.228   0.199   0.754
 3713SOL     OW12037   3.843   5.645   5.566
 3713SOL    HW112038   3.903   5.668   5.642
 3713SOL    HW212039   3.750   5.677   5.586
 3714SOL     OW12040   3.504   0.468   4.866
 3714SOL    HW112041   3.433   0.502   4.805
 3714SOL    HW212042   3.503   0.520   4.951
 3715SOL     OW12043   5.957   3.772   4.996
 3715SOL    HW112044   5.986   3.678   5.017
 3715SOL    HW212045   6.020   3.812   4.929
 3716SOL     OW12046   0.319   0.717   4.159
 3716SOL    HW112047   0.288   0.792   4.216
 3716SOL    HW212048   0.255   0.640   4.166
 3717SOL     OW12049   5.647   0.005   0.546
 3717SOL    HW112050   5.694   6.940   0.562
 3717SOL    HW212051   5.553   0.000   0.579
 3718SOL     OW12052   1.050   5.641   0.125
 3718SOL    HW112053   1.034   5.569   0.057
 3718SOL    HW212054   1.144   5.634   0.158
 3719SOL     OW12055   3.373   5.256   5.754
 3719SOL    HW112056   3.463   5.244   5.797
 3719SOL    HW212057   3.383   5.249   5.655
 3720SOL     OW12058   6.672   1.987   5.646
 3720SOL    HW112059   6.728   1.913   5.610
 3720SOL    HW212060   6.578   1.955   5.659
 3721SOL     OW12061   5.052   3.615   0.740
 3721SOL    HW112062   5.088   3.611   0.833
 3721SOL    HW212063   5.080   3.700   0.697
 3722SOL     OW12064   6.301   6.067   2.520
 3722SOL    HW112065   6.272   6.151   2.475
 3722SOL    HW212066   6.359   6.014   2.457
 3723SOL     OW12067   4.627   1.131   0.906
 3723SOL    HW112068   4.590   1.217   0.871
 3723SOL    HW212069   4.645   1.069   0.831
 3724SOL     OW12070   1.294   5.574   5.951
 3724SOL    HW112071   1.354   5.606   6.024
 3724SOL    HW212072   1.229   5.646   5.928
 3725SOL     OW12073   0.339   6.363   0.448
 3725SOL    HW112074   0.347   6.320   0.358
 3725SOL    HW212075   0.276   6.441   0.442
 3726SOL     OW12076   5.767   3.616   1.594
 3726SOL    HW112077   5.782   3.525   1.556
 3726SOL    HW212078   5.690   3.659   1.547
 3727SOL     OW12079   2.161   3.234   5.440
 3727SOL    HW112080   2.183   3.151   5.388
 3727SOL    HW212081   2.210   3.312   5.401
 3728SOL     OW12082   1.572   3.393   6.664
 3728SOL    HW112083   1.559   3.318   6.600
 3728SOL    HW212084   1.664   3.431   6.652
 3729SOL     OW12085   0.567   2.472   3.268
 3729SOL    HW112086   0.560   2.450   3.365
 3729SOL    HW212087   0.538   2.392   3.214
 3730SOL     OW12088   2.857   0.791   0.283
 3730SOL    HW112089   2.851   0.890   0.287
 3730SOL    HW212090   2.811   0.758   0.200
 3731SOL     OW12091   3.850   6.617   0.192
 3731SOL    HW112092   3.879   6.544   0.130
 3731SOL    HW212093   3.778   6.670   0.149
 3732SOL     OW12094   2.233   3.767   5.201
 3732SOL    HW112095   2.177   3.772   5.118
 3732SOL    HW212096   2.311   3.828   5.193
 3733SOL     OW12097   2.403   3.659   1.284
 3733SOL    HW112098   2.499   3.630   1.284
 3733SOL    HW212099   2.383   3.706   1.198
 3734SOL     OW12100   5.465   0.611   2.709
 3734SOL    HW112101   5.501   0.691   2.757
 3734SOL    HW212102   5.444   0.637   2.615
 3735SOL     OW12103   3.432   1.390   2.143
 3735SOL    HW112104   3.377   1.446   2.080
 3735SOL    HW212105   3.376   1.318   2.182
 3736SOL     OW12106   5.674   1.868   0.053
 3736SOL    HW112107   5.730   1.814   7.012
 3736SOL    HW212108   5.582   1.879   0.015
 3737SOL     OW12109   4.642   6.447   3.498
 3737SOL    HW112110   4.691   6.423   3.582
 3737SOL    HW212111   4.560   6.499   3.521
 3738SOL     OW12112   6.817   6.858   3.680
 3738SOL    HW112113   6.890   6.792   3.700
 3738SOL    HW212114   6.838   6.906   3.595
 3739SOL     OW12115   0.770   4.491   2.554
 3739SOL    HW112116   0.833   4.433   2.503
 3739SOL    HW212117   0.689   4.438   2.580
 3740SOL     OW12118   5.618   1.016   0.486
 3740SOL    HW112119   5.697   0.993   0.428
 3740SOL    HW212120   5.551   0.942   0.481
 3741SOL     OW12121   4.155   2.431   6.421
 3741SOL    HW112122   4.061   2.402   6.405
 3741SOL    HW212123   4.156   2.527   6.449
 3742SOL     OW12124   3.538   3.225   5.520
 3742SOL    HW112125   3.446   3.186   5.514
 3742SOL    HW212126   3.532   3.324   5.526
 3743SOL     OW12127   0.342   5.473   6.399
 3743SOL    HW112128   0.300   5.476   6.308
 3743SOL    HW212129   0.374   5.564   6.424
 3744SOL     OW12130   6.971   5.992   2.813
 3744SOL    HW112131   7.013   5.902   2.800
 3744SOL    HW212132   0.021   6.062   2.813
 3745SOL     OW12133   4.396   5.871   2.205
 3745SOL    HW112134   4.440   5.941   2.262
 3745SOL    HW212135   4.297   5.872   2.222
 3746SOL     OW12136   4.400   1.797   2.299
 3746SOL    HW112137   4.419   1.706   2.263
 3746SOL    HW212138   4.414   1.797   2.398
 3747SOL     OW12139   2.674   0.006   6.997
 3747SOL    HW112140   2.602   7.021   0.044
 3747SOL    HW212141   2.701   6.936   6.968
 3748SOL     OW12142   5.693   1.325   2.601
 3748SOL    HW112143   5.692   1.302   2.699
 3748SOL    HW212144   5.600   1.314   2.564
 3749SOL     OW12145   1.300   0.207   5.238
 3749SOL    HW112146   1.247   0.281   5.278
 3749SOL    HW212147   1.397   0.219   5.259
 3750SOL     OW12148   0.283   4.488   0.133
 3750SOL    HW112149   0.336   4.423   0.186
 3750SOL    HW212150   0.205   4.441   0.091
 3751SOL     OW12151   1.020   3.684   2.634
 3751SOL    HW112152   0.930   3.642   2.643
 3751SOL    HW212153   1.086   3.615   2.605
 3752SOL     OW12154   5.922   0.227   6.921
 3752SOL    HW112155   6.019   0.227   6.897
 3752SOL    HW212156   5.868   0.194   6.843
 3753SOL     OW12157   6.195   0.159   3.977
 3753SOL    HW112158   6.124   0.135   4.044
 3753SOL    HW212159   6.280   0.178   4.025
 3754SOL     OW12160   2.723   1.788   0.923
 3754SOL    HW112161   2.674   1.708   0.957
 3754SOL    HW212162   2.788   1.820   0.992
 3755SOL     OW12163   2.936   4.805   4.031
 3755SOL    HW112164   2.928   4.834   4.126
 3755SOL    HW212165   2.845   4.781   3.996
 3756SOL     OW12166   2.642   6.552   0.112
 3756SOL    HW112167   2.580   6.603   0.172
 3756SOL    HW212168   2.693   6.617   0.056
 3757SOL     OW12169   6.839   4.777   1.640
 3757SOL    HW112170   6.919   4.826   1.606
 3757SOL    HW212171   6.841   4.777   1.740
 3758SOL     OW12172   2.196   0.071   4.204
 3758SOL    HW112173   2.265   0.098   4.137
 3758SOL    HW212174   2.133   0.147   4.219
 3759SOL     OW12175   5.282   0.279   4.604
 3759SOL    HW112176   5.196   0.226   4.606
 3759SOL    HW212177   5.268   0.366   4.650
 3760SOL     OW12178   0.178   0.899   3.191
 3760SOL    HW112179   0.095   0.914   3.138
 3760SOL    HW212180   0.249   0.962   3.160
 3761SOL     OW12181   4.951   1.006   4.212
 3761SOL    HW112182   4.868   0.952   4.198
 3761SOL    HW212183   5.022   0.974   4.150
 3762SOL     OW12184   6.725   2.544   3.455
 3762SOL    HW112185   6.701   2.450   3.430
 3762SOL    HW212186   6.812   2.544   3.504
 3763SOL     OW12187   0.621   4.560   0.868
 3763SOL    HW112188   0.551   4.631   0.866
 3763SOL    HW212189   0.703   4.595   0.913
 3764SOL     OW12190   2.146   0.580   2.804
 3764SOL    HW112191   2.111   0.674   2.811
 3764SOL    HW212192   2.246   0.581   2.806
 3765SOL     OW12193   5.283   3.077   2.543
 3765SOL    HW112194   5.333   3.095   2.628
 3765SOL    HW212195   5.318   2.993   2.501
 3766SOL     OW12196   1.018   3.898   3.074
 3766SOL    HW112197   0.934   3.937   3.037
 3766SOL    HW212198   1.097   3.938   3.028
 3767SOL     OW12199   1.154   5.067   5.827
 3767SOL    HW112200   1.076   5.043   5.884
 3767SOL    HW212201   1.211   4.986   5.812
 3768SOL     OW12202   0.762   6.620   2.878
 3768SOL    HW112203   0.734   6.639   2.784
 3768SOL    HW212204   0.728   6.693   2.938
 3769SOL     OW12205   5.758   4.941   4.879
 3769SOL    HW112206   5.849   4.945   4.920
 3769SOL    HW212207   5.690   4.934   4.952
 3770SOL     OW12208   1.811   0.986   1.426
 3770SOL    HW112209   1.849   1.000   1.335
 3770SOL    HW212210   1.882   1.001   1.495
 3771SOL     OW12211   6.409   4.939   6.668
 3771SOL    HW112212   6.449   4.862   6.617
 3771SOL    HW212213   6.483   4.993   6.708
 3772SOL     OW12214   1.525   6.239   0.994
 3772SOL    HW112215   1.611   6.187   1.003
 3772SOL    HW212216   1.513   6.267   0.899
 3773SOL     OW12217   5.440   4.868   6.651
 3773SOL    HW112218   5.454   4.967   6.652
 3773SOL    HW212219   5.462   4.830   6.741
 3774SOL     OW12220   6.848   5.073   1.930
 3774SOL    HW112221   6.799   5.097   1.846
 3774SOL    HW212222   6.792   5.094   2.009
 3775SOL     OW12223   5.003   4.804   4.920
 3775SOL    HW112224   4.936   4.767   4.984
 3775SOL    HW212225   4.968   4.890   4.881
 3776SOL     OW12226   3.725   2.579   5.958
 3776SOL    HW112227   3.822   2.598   5.970
 3776SOL    HW212228   3.672   2.660   5.984
 3777SOL     OW12229   2.661   5.851   4.411
 3777SOL    HW112230   2.645   5.817   4.504
 3777SOL    HW212231   2.707   5.780   4.357
 3778SOL     OW12232   3.562   5.558   6.130
 3778SOL    HW112233   3.469   5.583   6.101
 3778SOL    HW212234   3.584   5.607   6.215
 3779SOL     OW12235   6.970   4.769   0.082
 3779SOL    HW112236   7.011   4.784   0.172
 3779SOL    HW212237   6.870   4.773   0.090
 3780SOL     OW12238   5.237   4.078   1.425
 3780SOL    HW112239   5.239   4.057   1.523
 3780SOL    HW212240   5.142   4.079   1.393
 3781SOL     OW12241   2.842   6.373   4.549
 3781SOL    HW112242   2.799   6.449   4.500
 3781SOL    HW212243   2.936   6.361   4.517
 3782SOL     OW12244   4.845   5.569   1.278
 3782SOL    HW112245   4.836   5.474   1.308
 3782SOL    HW212246   4.936   5.583   1.239
 3783SOL     OW12247   5.123   5.732   4.229
 3783SOL    HW112248   5.031   5.693   4.221
 3783SOL    HW212249   5.132   5.809   4.165
 3784SOL     OW12250   6.289   2.027   4.444
 3784SOL    HW112251   6.219   1.974   4.492
 3784SOL    HW212252   6.287   2.122   4.475
 3785SOL     OW12253   1.860   3.319   4.152
 3785SOL    HW112254   1.862   3.403   4.098
 3785SOL    HW212255   1.769   3.309   4.193
 3786SOL     OW12256   2.472   2.585   4.638
 3786SOL    HW112257   2.497   2.498   4.681
 3786SOL    HW212258   2.455   2.654   4.708
 3787SOL     OW12259   4.430   6.854   3.982
 3787SOL    HW112260   4.527   6.833   3.987
 3787SOL    HW212261   4.377   6.773   4.006
 3788SOL     OW12262   6.003   3.007   5.074
 3788SOL    HW112263   5.945   3.003   4.993
 3788SOL    HW212264   5.947   2.988   5.156
 3789SOL     OW12265   1.958   3.485   2.426
 3789SOL    HW112266   1.981   3.574   2.466
 3789SOL    HW212267   2.018   3.467   2.348
 3790SOL     OW12268   0.394   6.852   1.518
 3790SOL    HW112269   0.383   6.950   1.538
 3790SOL    HW212270   0.473   6.816   1.568
 3791SOL     OW12271   5.279   1.015   5.710
 3791SOL    HW112272   5.183   1.022   5.683
 3791SOL    HW212273   5.314   0.924   5.689
 3792SOL     OW12274   6.715   0.522   4.640
 3792SOL    HW112275   6.723   0.446   4.705
 3792SOL    HW212276   6.652   0.591   4.677
 3793SOL     OW12277   4.822   4.789   0.683
 3793SOL    HW112278   4.813   4.746   0.594
 3793SOL    HW212279   4.752   4.753   0.745
 3794SOL     OW12280   0.392   4.194   6.458
 3794SOL    HW112281   0.396   4.180   6.359
 3794SOL    HW212282   0.306   4.157   6.493
 3795SOL     OW12283   2.509   5.874   1.103
 3795SOL    HW112284   2.477   5.784   1.074
 3795SOL    HW212285   2.560   5.865   1.189
 3796SOL     OW12286   5.124   1.264   6.936
 3796SOL    HW112287   5.100   1.250   0.011
 3796SOL    HW212288   5.105   1.359   6.910
 3797SOL     OW12289   1.129   4.708   2.185
 3797SOL    HW112290   1.176   4.776   2.241
 3797SOL    HW212291   1.196   4.664   2.125
 3798SOL     OW12292   1.218   5.775   3.575
 3798SOL    HW112293   1.283   5.849   3.563
 3798SOL    HW212294   1.214   5.749   3.672
 3799SOL     OW12295   6.761   0.944   3.209
 3799SOL    HW112296   6.670   0.926   3.174
 3799SOL    HW212297   6.755   0.975   3.304
 3800SOL     OW12298   4.851   2.266   2.990
 3800SOL    HW112299   4.780   2.336   2.996
 3800SOL    HW212300   4.849   2.223   2.900
 3801SOL     OW12301   5.650   1.368   1.624
 3801SOL    HW112302   5.659   1.454   1.675
 3801SOL    HW212303   5.687   1.379   1.532
 3802SOL     OW12304   6.315   2.766   2.148
 3802SOL    HW112305   6.382   2.733   2.081
 3802SOL    HW212306   6.276   2.852   2.116
 3803SOL     OW12307   3.040   3.202   4.342
 3803SOL    HW112308   3.130   3.200   4.386
 3803SOL    HW212309   2.991   3.284   4.371
 3804SOL     OW12310   4.062   5.615   3.507
 3804SOL    HW112311   4.104   5.668   3.434
 3804SOL    HW212312   4.047   5.521   3.475
 3805SOL     OW12313   2.557   2.731   0.096
 3805SOL    HW112314   2.570   2.757   0.000
 3805SOL    HW212315   2.624   2.779   0.153
 3806SOL     OW12316   2.867   4.732   1.400
 3806SOL    HW112317   2.897   4.819   1.361
 3806SOL    HW212318   2.862   4.740   1.499
 3807SOL     OW12319   2.088   4.617   4.862
 3807SOL    HW112320   2.008   4.600   4.803
 3807SOL    HW212321   2.168   4.634   4.805
 3808SOL     OW12322   3.267   6.866   6.299
 3808SOL    HW112323   3.259   6.814   6.384
 3808SOL    HW212324   3.186   6.924   6.288
 3809SOL     OW12325   5.096   2.097   1.644
 3809SOL    HW112326   5.042   2.028   1.596
 3809SOL    HW212327   5.151   2.054   1.715
 3810SOL     OW12328   5.851   2.617   2.109
 3810SOL    HW112329   5.943   2.588   2.133
 3810SOL    HW212330   5.841   2.715   2.125
 3811SOL     OW12331   0.362   5.456   5.449
 3811SOL    HW112332   0.391   5.456   5.354
 3811SOL    HW212333   0.299   5.380   5.465
 3812SOL     OW12334   4.891   5.968   1.149
 3812SOL    HW112335   4.842   5.976   1.236
 3812SOL    HW212336   4.983   5.934   1.166
 3813SOL     OW12337   6.059   4.154   6.889
 3813SOL    HW112338   6.043   4.100   6.972
 3813SOL    HW212339   6.122   4.229   6.909
 3814SOL     OW12340   6.912   0.538   4.928
 3814SOL    HW112341   6.903   0.461   4.991
 3814SOL    HW212342   6.939   0.504   4.838
 3815SOL     OW12343   6.288   3.815   5.825
 3815SOL    HW112344   6.334   3.861   5.901
 3815SOL    HW212345   6.357   3.770   5.767
 3816SOL     OW12346   0.382   5.953   0.690
 3816SOL    HW112347   0.380   5.933   0.592
 3816SOL    HW212348   0.429   5.879   0.738
 3817SOL     OW12349   4.837   3.876   2.011
 3817SOL    HW112350   4.809   3.818   1.935
 3817SOL    HW212351   4.813   3.971   1.990
 3818SOL     OW12352   5.702   6.312   2.982
 3818SOL    HW112353   5.730   6.407   2.967
 3818SOL    HW212354   5.747   6.275   3.063
 3819SOL     OW12355   6.309   4.588   3.838
 3819SOL    HW112356   6.337   4.603   3.933
 3819SOL    HW212357   6.379   4.624   3.776
 3820SOL     OW12358   3.436   6.730   4.843
 3820SOL    HW112359   3.440   6.668   4.764
 3820SOL    HW212360   3.425   6.676   4.926
 3821SOL     OW12361   2.177   0.116   0.025
 3821SOL    HW112362   2.183   0.182   0.099
 3821SOL    HW212363   2.137   0.160   6.966
 3822SOL     OW12364   4.839   7.008   1.782
 3822SOL    HW112365   4.840   0.084   1.762
 3822SOL    HW212366   4.927   6.968   1.756
 3823SOL     OW12367   5.233   5.691   0.005
 3823SOL    HW112368   5.157   5.665   6.967
 3823SOL    HW212369   5.300   5.616   0.006
 3824SOL     OW12370   2.732   2.882   0.253
 3824SOL    HW112371   2.774   2.971   0.269
 3824SOL    HW212372   2.803   2.815   0.228
 3825SOL     OW12373   0.952   3.747   5.530
 3825SOL    HW112374   1.008   3.722   5.609
 3825SOL    HW212375   0.889   3.820   5.557
 3826SOL     OW12376   5.636   4.151   3.821
 3826SOL    HW112377   5.640   4.213   3.900
 3826SOL    HW212378   5.725   4.106   3.811
 3827SOL     OW12379   0.929   1.266   1.479
 3827SOL    HW112380   0.850   1.241   1.423
 3827SOL    HW212381   1.013   1.254   1.425
 3828SOL     OW12382   3.177   4.004   4.196
 3828SOL    HW112383   3.078   4.002   4.178
 3828SOL    HW212384   3.197   3.951   4.278
 3829SOL     OW12385   0.767   3.904   2.275
 3829SOL    HW112386   0.805   3.910   2.367
 3829SOL    HW212387   0.772   3.993   2.231
 3830SOL     OW12388   6.445   1.116   4.256
 3830SOL    HW112389   6.416   1.162   4.172
 3830SOL    HW212390   6.540   1.141   4.277
 3831SOL     OW12391   4.618   2.111   3.696
 3831SOL    HW112392   4.597   2.165   3.614
 3831SOL    HW212393   4.622   2.014   3.673
 3832SOL     OW12394   5.811   0.639   3.571
 3832SOL    HW112395   5.908   0.655   3.590
 3832SOL    HW212396   5.762   0.726   3.573
 3833SOL     OW12397   1.200   1.625   5.576
 3833SOL    HW112398   1.118   1.659   5.529
 3833SOL    HW212399   1.278   1.629   5.514
 3834SOL     OW12400   4.862   3.944   0.631
 3834SOL    HW112401   4.881   4.008   0.705
 3834SOL    HW212402   4.775   3.897   0.649
 3835SOL     OW12403   3.826   5.383   4.813
 3835SOL    HW112404   3.793   5.348   4.901
 3835SOL    HW212405   3.752   5.430   4.765
 3836SOL     OW12406   0.456   6.625   5.690
 3836SOL    HW112407   0.419   6.717   5.690
 3836SOL    HW212408   0.530   6.618   5.623
 3837SOL     OW12409   4.443   4.922   5.317
 3837SOL    HW112410   4.478   5.014   5.300
 3837SOL    HW212411   4.369   4.902   5.252
 3838SOL     OW12412   0.490   1.346   3.996
 3838SOL    HW112413   0.547   1.350   3.914
 3838SOL    HW212414   0.465   1.251   4.013
 3839SOL     OW12415   3.786   0.628   4.068
 3839SOL    HW112416   3.690   0.641   4.092
 3839SOL    HW212417   3.793   0.575   3.984
 3840SOL     OW12418   2.452   1.373   6.677
 3840SOL    HW112419   2.370   1.395   6.625
 3840SOL    HW212420   2.454   1.429   6.760
 3841SOL     OW12421   5.630   4.680   3.978
 3841SOL    HW112422   5.598   4.590   3.948
 3841SOL    HW212423   5.667   4.730   3.900
 3842SOL     OW12424   1.711   3.202   5.043
 3842SOL    HW112425   1.652   3.135   5.087
 3842SOL    HW212426   1.789   3.155   5.000
 3843SOL     OW12427   5.389   2.659   6.908
 3843SOL    HW112428   5.417   2.613   6.823
 3843SOL    HW212429   5.331   2.737   6.887
 3844SOL     OW12430   1.455   6.746   0.656
 3844SOL    HW112431   1.364   6.783   0.677
 3844SOL    HW212432   1.467   6.659   0.703
 3845SOL     OW12433   2.272   5.845   0.782
 3845SOL    HW112434   2.231   5.935   0.765
 3845SOL    HW212435   2.335   5.822   0.708
 3846SOL     OW12436   0.995   2.757   3.214
 3846SOL    HW112437   0.907   2.732   3.254
 3846SOL    HW212438   1.024   2.845   3.251
 3847SOL     OW12439   6.967   1.877   6.885
 3847SOL    HW112440   6.993   1.965   6.845
 3847SOL    HW212441   0.017   1.809   6.867
 3848SOL     OW12442   5.688   3.751   2.307
 3848SOL    HW112443   5.605   3.768   2.359
 3848SOL    HW212444   5.759   3.814   2.337
 3849SOL     OW12445   6.701   5.170   6.997
 3849SOL    HW112446   6.701   5.133   0.068
 3849SOL    HW212447   6.746   5.259   6.996
 3850SOL     OW12448   2.813   2.426   1.475
 3850SOL    HW112449   2.749   2.349   1.475
 3850SOL    HW212450   2.842   2.445   1.382
 3851SOL     OW12451   0.385   6.392   2.928
 3851SOL    HW112452   0.398   6.423   2.834
 3851SOL    HW212453   0.427   6.302   2.940
 3852SOL     OW12454   2.778   6.485   6.024
 3852SOL    HW112455   2.770   6.393   6.061
 3852SOL    HW212456   2.749   6.486   5.928
 3853SOL     OW12457   2.339   0.438   3.498
 3853SOL    HW112458   2.302   0.527   3.526
 3853SOL    HW212459   2.296   0.365   3.550
 3854SOL     OW12460   1.941   2.370   2.699
 3854SOL    HW112461   2.001   2.434   2.652
 3854SOL    HW212462   1.970   2.276   2.678
 3855SOL     OW12463   4.232   0.071   0.251
 3855SOL    HW112464   4.255   6.995   0.258
 3855SOL    HW212465   4.140   0.081   0.214
 3856SOL     OW12466   0.392   1.996   6.642
 3856SOL    HW112467   0.351   1.910   6.672
 3856SOL    HW212468   0.386   2.063   6.716
 3857SOL     OW12469   2.241   0.823   5.511
 3857SOL    HW112470   2.238   0.899   5.446
 3857SOL    HW212471   2.186   0.846   5.591
 3858SOL     OW12472   4.239   0.332   5.101
 3858SOL    HW112473   4.329   0.295   5.127
 3858SOL    HW212474   4.197   0.374   5.181
 3859SOL     OW12475   6.023   0.130   1.799
 3859SOL    HW112476   5.961   0.076   1.742
 3859SOL    HW212477   6.020   0.225   1.770
 3860SOL     OW12478   1.022   7.018   3.998
 3860SOL    HW112479   1.036   0.007   3.899
 3860SOL    HW212480   0.932   6.978   4.015
 3861SOL     OW12481   4.055   5.886   1.723
 3861SOL    HW112482   3.979   5.896   1.787
 3861SOL    HW212483   4.119   5.818   1.757
 3862SOL     OW12484   1.275   0.190   3.797
 3862SOL    HW112485   1.362   0.235   3.780
 3862SOL    HW212486   1.290   0.109   3.854
 3863SOL     OW12487   4.149   0.383   0.812
 3863SOL    HW112488   4.077   0.449   0.788
 3863SOL    HW212489   4.135   0.351   0.906
 3864SOL     OW12490   2.478   7.008   4.370
 3864SOL    HW112491   2.526   0.028   4.293
 3864SOL    HW212492   2.381   0.013   4.368
 3865SOL     OW12493   3.840   0.686   0.277
 3865SOL    HW112494   3.782   0.764   0.253
 3865SOL    HW212495   3.862   0.690   0.375
 3866SOL     OW12496   2.722   2.795   6.559
 3866SOL    HW112497   2.682   2.770   6.470
 3866SOL    HW212498   2.722   2.894   6.568
 3867SOL     OW12499   0.719   3.788   1.991
 3867SOL    HW112500   0.701   3.801   2.089
 3867SOL    HW212501   0.781   3.710   1.978
 3868SOL     OW12502   4.387   1.184   6.878
 3868SOL    HW112503   4.342   1.118   6.938
 3868SOL    HW212504   4.440   1.135   6.809
 3869SOL     OW12505   6.524   3.180   3.415
 3869SOL    HW112506   6.470   3.259   3.388
 3869SOL    HW212507   6.494   3.148   3.505
 3870SOL     OW12508   6.871   0.352   3.935
 3870SOL    HW112509   6.816   0.356   3.852
 3870SOL    HW212510   6.840   0.274   3.991
 3871SOL     OW12511   3.268   5.457   4.307
 3871SOL    HW112512   3.174   5.489   4.292
 3871SOL    HW212513   3.329   5.535   4.316
 3872SOL     OW12514   3.436   3.695   5.058
 3872SOL    HW112515   3.492   3.729   4.983
 3872SOL    HW212516   3.374   3.767   5.089
 3873SOL     OW12517   4.729   2.336   0.567
 3873SOL    HW112518   4.636   2.301   0.577
 3873SOL    HW212519   4.795   2.262   0.578
 3874SOL     OW12520   3.205   0.555   0.058
 3874SOL    HW112521   3.263   0.473   0.059
 3874SOL    HW212522   3.243   0.622   7.014
 3875SOL     OW12523   1.610   2.428   5.677
 3875SOL    HW112524   1.552   2.471   5.607
 3875SOL    HW212525   1.605   2.328   5.667
 3876SOL     OW12526   4.261   5.495   1.093
 3876SOL    HW112527   4.210   5.577   1.066
 3876SOL    HW212528   4.208   5.413   1.072
 3877SOL     OW12529   6.874   2.457   0.544
 3877SOL    HW112530   6.942   2.389   0.516
 3877SOL    HW212531   6.805   2.466   0.473
 3878SOL     OW12532   3.813   6.914   3.851
 3878SOL    HW112533   3.750   6.840   3.875
 3878SOL    HW212534   3.842   6.962   3.933
 3879SOL     OW12535   4.988   5.128   0.122
 3879SOL    HW112536   5.080   5.103   0.153
 3879SOL    HW212537   4.995   5.194   0.047
 3880SOL     OW12538   4.865   4.199   4.254
 3880SOL    HW112539   4.965   4.199   4.244
 3880SOL    HW212540   4.841   4.184   4.350
 3881SOL     OW12541   0.958   4.206   0.348
 3881SOL    HW112542   0.978   4.175   0.256
 3881SOL    HW212543   0.963   4.306   0.352
 3882SOL     OW12544   0.767   1.632   0.748
 3882SOL    HW112545   0.802   1.702   0.809
 3882SOL    HW212546   0.670   1.647   0.731
 3883SOL     OW12547   4.571   6.070   3.650
 3883SOL    HW112548   4.554   6.136   3.577
 3883SOL    HW212549   4.614   5.988   3.611
 3884SOL     OW12550   0.987   5.431   2.944
 3884SOL    HW112551   0.915   5.381   2.993
 3884SOL    HW212552   1.011   5.381   2.861
 3885SOL     OW12553   5.334   6.380   2.585
 3885SOL    HW112554   5.243   6.420   2.592
 3885SOL    HW212555   5.403   6.447   2.613
 3886SOL     OW12556   3.918   6.656   6.250
 3886SOL    HW112557   3.827   6.624   6.275
 3886SOL    HW212558   3.916   6.756   6.239
 3887SOL     OW12559   0.211   6.430   1.473
 3887SOL    HW112560   0.203   6.514   1.525
 3887SOL    HW212561   0.231   6.354   1.536
 3888SOL     OW12562   5.779   6.060   4.958
 3888SOL    HW112563   5.785   6.152   4.997
 3888SOL    HW212564   5.841   5.999   5.007
 3889SOL     OW12565   5.905   3.680   6.417
 3889SOL    HW112566   5.900   3.777   6.395
 3889SOL    HW212567   5.995   3.658   6.453
 3890SOL     OW12568   5.247   3.218   4.861
 3890SOL    HW112569   5.185   3.290   4.829
 3890SOL    HW212570   5.264   3.231   4.959
 3891SOL     OW12571   5.689   4.839   3.744
 3891SOL    HW112572   5.596   4.851   3.709
 3891SOL    HW212573   5.720   4.925   3.784
 3892SOL     OW12574   0.006   2.463   1.428
 3892SOL    HW112575   7.000   2.552   1.392
 3892SOL    HW212576   0.102   2.446   1.406
 3893SOL     OW12577   4.501   3.392   1.174
 3893SOL    HW112578   4.506   3.488   1.200
 3893SOL    HW212579   4.408   3.371   1.142
 3894SOL     OW12580   4.667   0.287   6.514
 3894SOL    HW112581   4.697   0.367   6.565
 3894SOL    HW212582   4.746   0.235   6.482
 3895SOL     OW12583   1.637   0.089   4.513
 3895SOL    HW112584   1.624   0.042   4.426
 3895SOL    HW212585   1.729   0.070   4.549
 3896SOL     OW12586   1.169   1.161   6.743
 3896SOL    HW112587   1.226   1.229   6.697
 3896SOL    HW212588   1.117   1.206   6.815
 3897SOL     OW12589   4.600   5.542   1.824
 3897SOL    HW112590   4.630   5.560   1.730
 3897SOL    HW212591   4.546   5.619   1.857
 3898SOL     OW12592   3.907   2.668   6.249
 3898SOL    HW112593   3.978   2.707   6.308
 3898SOL    HW212594   3.900   2.722   6.165
 3899SOL     OW12595   4.603   6.749   5.957
 3899SOL    HW112596   4.613   6.840   5.916
 3899SOL    HW212597   4.529   6.751   6.024
 3900SOL     OW12598   5.502   3.491   3.168
 3900SOL    HW112599   5.562   3.540   3.231
 3900SOL    HW212600   5.477   3.550   3.092
 3901SOL     OW12601   2.812   0.425   6.831
 3901SOL    HW112602   2.894   0.394   6.783
 3901SOL    HW212603   2.823   0.409   6.930
 3902SOL     OW12604   6.293   3.440   2.586
 3902SOL    HW112605   6.194   3.430   2.572
 3902SOL    HW212606   6.314   3.535   2.609
 3903SOL     OW12607   3.602   5.464   6.814
 3903SOL    HW112608   3.516   5.489   6.860
 3903SOL    HW212609   3.653   5.401   6.872
 3904SOL     OW12610   1.257   0.208   0.044
 3904SOL    HW112611   1.316   0.215   0.124
 3904SOL    HW212612   1.300   0.254   6.988
 3905SOL     OW12613   0.248   6.005   5.832
 3905SOL    HW112614   0.175   5.992   5.899
 3905SOL    HW212615   0.236   6.094   5.788
 3906SOL     OW12616   5.372   6.274   5.631
 3906SOL    HW112617   5.435   6.209   5.589
 3906SOL    HW212618   5.377   6.264   5.731
 3907SOL     OW12619   6.118   1.815   3.874
 3907SOL    HW112620   6.137   1.903   3.917
 3907SOL    HW212621   6.097   1.828   3.777
 3908SOL     OW12622   0.813   2.228   6.212
 3908SOL    HW112623   0.807   2.309   6.271
 3908SOL    HW212624   0.784   2.253   6.120
 3909SOL     OW12625   5.168   5.297   4.545
 3909SOL    HW112626   5.191   5.391   4.568
 3909SOL    HW212627   5.073   5.279   4.571
 3910SOL     OW12628   3.310   3.855   2.762
 3910SOL    HW112629   3.215   3.841   2.736
 3910SOL    HW212630   3.334   3.952   2.752
 3911SOL     OW12631   5.578   1.281   5.025
 3911SOL    HW112632   5.611   1.203   4.973
 3911SOL    HW212633   5.505   1.252   5.087
 3912SOL     OW12634   5.438   1.812   5.398
 3912SOL    HW112635   5.351   1.854   5.369
 3912SOL    HW212636   5.500   1.809   5.320
 3913SOL     OW12637   1.529   6.629   0.001
 3913SOL    HW112638   1.459   6.610   6.954
 3913SOL    HW212639   1.502   6.709   0.055
 3914SOL     OW12640   3.603   6.915   6.434
 3914SOL    HW112641   3.606   6.945   6.339
 3914SOL    HW212642   3.566   6.988   6.491
 3915SOL     OW12643   5.107   5.265   1.629
 3915SOL    HW112644   5.034   5.275   1.697
 3915SOL    HW212645   5.175   5.200   1.663
 3916SOL     OW12646   0.817   0.193   2.698
 3916SOL    HW112647   0.821   0.140   2.613
 3916SOL    HW212648   0.867   0.146   2.770
 3917SOL     OW12649   1.673   0.063   0.030
 3917SOL    HW112650   1.740   7.015   0.005
 3917SOL    HW212651   1.629   0.097   6.968
 3918SOL     OW12652   5.425   4.201   1.664
 3918SOL    HW112653   5.329   4.172   1.662
 3918SOL    HW212654   5.479   4.136   1.717
 3919SOL     OW12655   3.686   0.152   0.638
 3919SOL    HW112656   3.727   0.146   0.546
 3919SOL    HW212657   3.615   0.222   0.638
 3920SOL     OW12658   2.075   2.951   6.931
 3920SOL    HW112659   2.127   2.867   6.915
 3920SOL    HW212660   2.079   2.976   0.006
 3921SOL     OW12661   1.145   4.085   1.315
 3921SOL    HW112662   1.051   4.103   1.290
 3921SOL    HW212663   1.149   4.053   1.410
 3922SOL     OW12664   0.455   3.974   1.742
 3922SOL    HW112665   0.373   3.981   1.798
 3922SOL    HW212666   0.531   4.020   1.787
 3923SOL     OW12667   0.872   0.713   0.535
 3923SOL    HW112668   0.964   0.740   0.563
 3923SOL    HW212669   0.805   0.774   0.576
 3924SOL     OW12670   6.392   4.998   4.961
 3924SOL    HW112671   6.388   5.058   4.880
 3924SOL    HW212672   6.314   4.936   4.960
 3925SOL     OW12673   1.698   5.082   1.987
 3925SOL    HW112674   1.648   5.167   2.000
 3925SOL    HW212675   1.777   5.098   1.928
 3926SOL     OW12676   4.521   4.419   2.345
 3926SOL    HW112677   4.437   4.422   2.290
 3926SOL    HW212678   4.600   4.416   2.284
 3927SOL     OW12679   0.381   3.226   6.154
 3927SOL    HW112680   0.472   3.189   6.134
 3927SOL    HW212681   0.313   3.174   6.102
 3928SOL     OW12682   5.049   6.209   6.917
 3928SOL    HW112683   5.071   6.193   6.821
 3928SOL    HW212684   5.019   6.123   6.959
 3929SOL     OW12685   0.731   0.885   5.283
 3929SOL    HW112686   0.667   0.835   5.224
 3929SOL    HW212687   0.819   0.837   5.285
 3930SOL     OW12688   2.242   1.930   3.190
 3930SOL    HW112689   2.255   1.936   3.288
 3930SOL    HW212690   2.331   1.926   3.144
 3931SOL     OW12691   6.292   1.379   1.805
 3931SOL    HW112692   6.363   1.386   1.735
 3931SOL    HW212693   6.313   1.304   1.867
 3932SOL     OW12694   0.681   2.719   3.845
 3932SOL    HW112695   0.600   2.776   3.856
 3932SOL    HW212696   0.744   2.733   3.921
 3933SOL     OW12697   1.570   0.344   6.266
 3933SOL    HW112698   1.541   0.426   6.316
 3933SOL    HW212699   1.507   0.328   6.190
 3934SOL     OW12700   6.257   6.722   6.139
 3934SOL    HW112701   6.160   6.744   6.152
 3934SOL    HW212702   6.265   6.652   6.068
 3935SOL     OW12703   3.972   0.605   0.779
 3935SOL    HW112704   4.004   0.694   0.748
 3935SOL    HW212705   3.950   0.610   0.877
 3936SOL     OW12706   6.270   5.770   4.388
 3936SOL    HW112707   6.269   5.831   4.308
 3936SOL    HW212708   6.318   5.815   4.463
 3937SOL     OW12709   6.915   1.386   2.713
 3937SOL    HW112710   6.879   1.455   2.650
 3937SOL    HW212711   6.956   1.311   2.661
 3938SOL     OW12712   6.941   1.081   3.071
 3938SOL    HW112713   6.863   1.034   3.113
 3938SOL    HW212714   6.929   1.082   2.971
 3939SOL     OW12715   3.018   1.720   1.824
 3939SOL    HW112716   2.974   1.631   1.838
 3939SOL    HW212717   3.093   1.731   1.889
 3940SOL     OW12718   3.490   3.363   1.075
 3940SOL    HW112719   3.458   3.345   1.168
 3940SOL    HW212720   3.433   3.312   1.010
 3941SOL     OW12721   4.157   4.652   6.354
 3941SOL    HW112722   4.222   4.723   6.381
 3941SOL    HW212723   4.133   4.597   6.435
 3942SOL     OW12724   6.495   7.008   0.078
 3942SOL    HW112725   6.465   0.067   0.029
 3942SOL    HW212726   6.595   7.004   0.079
 3943SOL     OW12727   0.741   3.152   4.126
 3943SOL    HW112728   0.674   3.200   4.181
 3943SOL    HW212729   0.713   3.057   4.113
 3944SOL     OW12730   4.699   2.255   4.485
 3944SOL    HW112731   4.659   2.202   4.411
 3944SOL    HW212732   4.672   2.215   4.573
 3945SOL     OW12733   0.022   1.783   1.008
 3945SOL    HW112734   7.001   1.864   1.047
 3945SOL    HW212735   0.004   1.704   1.067
 3946SOL     OW12736   4.890   4.653   3.313
 3946SOL    HW112737   4.919   4.558   3.325
 3946SOL    HW212738   4.813   4.672   3.373
 3947SOL     OW12739   4.651   6.124   0.477
 3947SOL    HW112740   4.600   6.042   0.505
 3947SOL    HW212741   4.703   6.104   0.394
 3948SOL     OW12742   6.422   4.510   1.618
 3948SOL    HW112743   6.322   4.497   1.619
 3948SOL    HW212744   6.462   4.456   1.545
 3949SOL     OW12745   4.241   5.834   2.963
 3949SOL    HW112746   4.145   5.809   2.950
 3949SOL    HW212747   4.293   5.810   2.881
 3950SOL     OW12748   1.706   5.525   1.371
 3950SOL    HW112749   1.624   5.503   1.424
 3950SOL    HW212750   1.787   5.501   1.425
 3951SOL     OW12751   4.642   0.742   1.531
 3951SOL    HW112752   4.737   0.733   1.561
 3951SOL    HW212753   4.582   0.732   1.610
 3952SOL     OW12754   0.143   2.774   0.840
 3952SOL    HW112755   0.084   2.698   0.812
 3952SOL    HW212756   0.236   2.739   0.856
 3953SOL     OW12757   3.964   3.377   2.139
 3953SOL    HW112758   3.906   3.427   2.075
 3953SOL    HW212759   3.908   3.337   2.211
 3954SOL     OW12760   4.109   5.129   5.359
 3954SOL    HW112761   4.065   5.105   5.445
 3954SOL    HW212762   4.099   5.053   5.295
 3955SOL     OW12763   3.276   1.393   5.924
 3955SOL    HW112764   3.277   1.493   5.921
 3955SOL    HW212765   3.332   1.356   5.850
 3956SOL     OW12766   1.238   1.054   2.596
 3956SOL    HW112767   1.327   1.011   2.581
 3956SOL    HW212768   1.222   1.123   2.525
 3957SOL     OW12769   4.016   6.843   4.617
 3957SOL    HW112770   3.969   6.925   4.650
 3957SOL    HW212771   3.980   6.763   4.666
 3958SOL     OW12772   6.035   2.121   4.161
 3958SOL    HW112773   6.011   2.172   4.244
 3958SOL    HW212774   6.098   2.047   4.185
 3959SOL     OW12775   4.886   5.164   0.467
 3959SOL    HW112776   4.893   5.076   0.419
 3959SOL    HW212777   4.794   5.175   0.503
 3960SOL     OW12778   5.226   1.955   5.248
 3960SOL    HW112779   5.304   1.956   5.184
 3960SOL    HW212780   5.201   2.049   5.271
 3961SOL     OW12781   5.344   0.467   3.188
 3961SOL    HW112782   5.359   0.487   3.285
 3961SOL    HW212783   5.257   0.418   3.178
 3962SOL     OW12784   0.524   5.261   6.268
 3962SOL    HW112785   0.427   5.280   6.256
 3962SOL    HW212786   0.577   5.345   6.256
 3963SOL     OW12787   5.020   6.353   2.012
 3963SOL    HW112788   5.112   6.330   1.979
 3963SOL    HW212789   5.028   6.404   2.098
 3964SOL     OW12790   5.024   3.753   3.164
 3964SOL    HW112791   4.944   3.749   3.223
 3964SOL    HW212792   5.106   3.733   3.218
 3965SOL     OW12793   5.566   3.097   4.347
 3965SOL    HW112794   5.519   3.095   4.435
 3965SOL    HW212795   5.499   3.113   4.274
 3966SOL     OW12796   3.578   5.358   6.545
 3966SOL    HW112797   3.648   5.411   6.497
 3966SOL    HW212798   3.583   5.377   6.643
 3967SOL     OW12799   1.691   4.434   1.973
 3967SOL    HW112800   1.726   4.528   1.981
 3967SOL    HW212801   1.595   4.433   1.999
 3968SOL     OW12802   4.206   0.687   0.612
 3968SOL    HW112803   4.267   0.682   0.692
 3968SOL    HW212804   4.191   0.782   0.587
 3969SOL     OW12805   1.870   5.473   2.126
 3969SOL    HW112806   1.858   5.564   2.165
 3969SOL    HW212807   1.966   5.459   2.102
 3970SOL     OW12808   5.844   5.882   2.162
 3970SOL    HW112809   5.921   5.822   2.184
 3970SOL    HW212810   5.842   5.959   2.225
 3971SOL     OW12811   2.764   6.015   3.968
 3971SOL    HW112812   2.863   6.027   3.969
 3971SOL    HW212813   2.721   6.094   4.012
 3972SOL     OW12814   1.131   3.804   0.109
 3972SOL    HW112815   1.130   3.828   0.206
 3972SOL    HW212816   1.222   3.825   0.072
 3973SOL     OW12817   0.912   6.080   1.086
 3973SOL    HW112818   0.895   5.990   1.046
 3973SOL    HW212819   0.928   6.146   1.013
 3974SOL     OW12820   1.794   0.875   5.778
 3974SOL    HW112821   1.710   0.919   5.809
 3974SOL    HW212822   1.772   0.799   5.717
 3975SOL     OW12823   5.005   2.086   6.217
 3975SOL    HW112824   5.026   1.995   6.253
 3975SOL    HW212825   5.077   2.114   6.154
 3976SOL     OW12826   1.728   6.155   2.377
 3976SOL    HW112827   1.635   6.184   2.401
 3976SOL    HW212828   1.786   6.235   2.365
 3977SOL     OW12829   0.876   4.057   6.812
 3977SOL    HW112830   0.841   4.108   6.890
 3977SOL    HW212831   0.802   4.004   6.771
 3978SOL     OW12832   6.974   5.173   3.785
 3978SOL    HW112833   6.874   5.172   3.785
 3978SOL    HW212834   7.006   5.257   3.826
 3979SOL     OW12835   3.522   1.128   6.319
 3979SOL    HW112836   3.488   1.217   6.348
 3979SOL    HW212837   3.578   1.139   6.236
 3980SOL     OW12838   6.221   6.426   6.311
 3980SOL    HW112839   6.223   6.517   6.270
 3980SOL    HW212840   6.305   6.412   6.364
 3981SOL     OW12841   5.237   6.376   0.436
 3981SOL    HW112842   5.263   6.432   0.514
 3981SOL    HW212843   5.305   6.386   0.363
 3982SOL     OW12844   1.986   0.178   2.242
 3982SOL    HW112845   2.047   0.108   2.280
 3982SOL    HW212846   1.894   0.139   2.231
 3983SOL     OW12847   4.280   5.468   3.981
 3983SOL    HW112848   4.242   5.466   4.073
 3983SOL    HW212849   4.376   5.440   3.984
 3984SOL     OW12850   5.746   1.907   2.380
 3984SOL    HW112851   5.781   1.891   2.472
 3984SOL    HW212852   5.766   2.001   2.352
 3985SOL     OW12853   3.080   5.401   6.555
 3985SOL    HW112854   3.042   5.448   6.635
 3985SOL    HW212855   3.012   5.337   6.518
 3986SOL     OW12856   5.112   1.935   2.050
 3986SOL    HW112857   5.020   1.899   2.065
 3986SOL    HW212858   5.174   1.896   2.119
 3987SOL     OW12859   3.334   4.935   4.895
 3987SOL    HW112860   3.248   4.978   4.869
 3987SOL    HW212861   3.390   4.919   4.813
 3988SOL     OW12862   4.572   5.453   0.797
 3988SOL    HW112863   4.640   5.379   0.799
 3988SOL    HW212864   4.544   5.475   0.890
 3989SOL     OW12865   6.124   2.424   0.059
 3989SOL    HW112866   6.069   2.454   0.137
 3989SOL    HW212867   6.088   2.337   0.025
 3990SOL     OW12868   4.887   2.767   1.663
 3990SOL    HW112869   4.911   2.810   1.750
 3990SOL    HW212870   4.864   2.671   1.678
 3991SOL     OW12871   0.444   0.905   2.925
 3991SOL    HW112872   0.536   0.868   2.913
 3991SOL    HW212873   0.447   0.978   2.994
 3992SOL     OW12874   3.454   1.987   0.753
 3992SOL    HW112875   3.358   2.006   0.731
 3992SOL    HW212876   3.512   2.060   0.716
 3993SOL     OW12877   1.058   3.352   2.415
 3993SOL    HW112878   1.108   3.413   2.477
 3993SOL    HW212879   1.012   3.282   2.468
 3994SOL     OW12880   2.781   6.918   5.469
 3994SOL    HW112881   2.817   6.950   5.381
 3994SOL    HW212882   2.799   6.820   5.478
 3995SOL     OW12883   1.685   2.691   5.417
 3995SOL    HW112884   1.608   2.639   5.453
 3995SOL    HW212885   1.656   2.785   5.397
 3996SOL     OW12886   0.384   6.592   4.872
 3996SOL    HW112887   0.313   6.562   4.935
 3996SOL    HW212888   0.347   6.599   4.780
 3997SOL     OW12889   5.582   1.055   4.335
 3997SOL    HW112890   5.595   1.119   4.411
 3997SOL    HW212891   5.551   0.967   4.371
 3998SOL     OW12892   3.713   2.079   3.530
 3998SOL    HW112893   3.751   2.124   3.611
 3998SOL    HW212894   3.638   2.019   3.558
 3999SOL     OW12895   6.187   2.284   4.548
 3999SOL    HW112896   6.108   2.285   4.610
 3999SOL    HW212897   6.197   2.374   4.506
 4000SOL     OW12898   3.775   6.958   3.525
 4000SOL    HW112899   3.844   6.965   3.597
 4000SOL    HW212900   3.696   6.907   3.559
 4001SOL     OW12901   1.739   1.923   3.429
 4001SOL    HW112902   1.720   1.934   3.331
 4001SOL    HW212903   1.793   1.840   3.444
 4002SOL     OW12904   2.105   3.730   1.993
 4002SOL    HW112905   2.169   3.801   1.961
 4002SOL    HW212906   2.156   3.647   2.014
 4003SOL     OW12907   3.287   0.212   4.694
 4003SOL    HW112908   3.212   0.229   4.758
 4003SOL    HW212909   3.345   0.139   4.729
 4004SOL     OW12910   6.473   1.918   4.792
 4004SOL    HW112911   6.375   1.937   4.799
 4004SOL    HW212912   6.517   1.989   4.737
 4005SOL     OW12913   5.403   5.451   6.026
 4005SOL    HW112914   5.474   5.508   5.985
 4005SOL    HW212915   5.439   5.408   6.109
 4006SOL     OW12916   3.940   5.539   2.490
 4006SOL    HW112917   4.035   5.571   2.493
 4006SOL    HW212918   3.926   5.471   2.562
 4007SOL     OW12919   6.780   2.312   6.783
 4007SOL    HW112920   6.786   2.233   6.722
 4007SOL    HW212921   6.832   2.388   6.744
 4008SOL     OW12922   2.662   2.353   4.399
 4008SOL    HW112923   2.619   2.443   4.395
 4008SOL    HW212924   2.733   2.347   4.328
 4009SOL     OW12925   3.856   3.662   2.663
 4009SOL    HW112926   3.925   3.693   2.597
 4009SOL    HW212927   3.856   3.562   2.666
 4010SOL     OW12928   1.838   3.452   0.641
 4010SOL    HW112929   1.926   3.434   0.685
 4010SOL    HW212930   1.837   3.411   0.550
 4011SOL     OW12931   1.590   2.478   1.978
 4011SOL    HW112932   1.565   2.382   1.987
 4011SOL    HW212933   1.621   2.513   2.067
 4012SOL     OW12934   6.799   4.207   3.274
 4012SOL    HW112935   6.879   4.222   3.216
 4012SOL    HW212936   6.790   4.110   3.295
 4013SOL     OW12937   4.626   2.619   3.507
 4013SOL    HW112938   4.685   2.598   3.585
 4013SOL    HW212939   4.530   2.616   3.537
 4014SOL     OW12940   5.357   6.158   3.216
 4014SOL    HW112941   5.363   6.228   3.287
 4014SOL    HW212942   5.400   6.190   3.132
 4015SOL     OW12943   5.235   4.188   5.911
 4015SOL    HW112944   5.265   4.120   5.843
 4015SOL    HW212945   5.219   4.275   5.865
 4016SOL     OW12946   3.194   6.361   6.047
 4016SOL    HW112947   3.142   6.424   5.988
 4016SOL    HW212948   3.139   6.280   6.065
 4017SOL     OW12949   6.431   5.661   6.953
 4017SOL    HW112950   6.421   5.760   6.965
 4017SOL    HW212951   6.367   5.630   6.883
 4018SOL     OW12952   3.897   5.487   1.279
 4018SOL    HW112953   3.858   5.395   1.282
 4018SOL    HW212954   3.924   5.509   1.185
 4019SOL     OW12955   4.872   5.339   3.461
 4019SOL    HW112956   4.945   5.338   3.529
 4019SOL    HW212957   4.795   5.284   3.495
 4020SOL     OW12958   5.494   2.102   5.651
 4020SOL    HW112959   5.577   2.156   5.663
 4020SOL    HW212960   5.490   2.031   5.722
 4021SOL     OW12961   3.285   4.521   5.819
 4021SOL    HW112962   3.345   4.578   5.763
 4021SOL    HW212963   3.261   4.438   5.768
 4022SOL     OW12964   4.995   0.288   1.050
 4022SOL    HW112965   5.017   0.264   0.956
 4022SOL    HW212966   5.060   0.244   1.112
 4023SOL     OW12967   6.357   0.520   6.055
 4023SOL    HW112968   6.349   0.537   6.153
 4023SOL    HW212969   6.275   0.472   6.023
 4024SOL     OW12970   3.916   5.129   3.977
 4024SOL    HW112971   3.969   5.196   3.925
 4024SOL    HW212972   3.937   5.139   4.075
 4025SOL     OW12973   1.000   4.665   3.470
 4025SOL    HW112974   0.953   4.726   3.406
 4025SOL    HW212975   0.937   4.639   3.543
 4026SOL     OW12976   5.683   6.294   4.367
 4026SOL    HW112977   5.662   6.343   4.452
 4026SOL    HW212978   5.600   6.249   4.333
 4027SOL     OW12979   3.941   5.095   1.871
 4027SOL    HW112980   3.981   5.092   1.962
 4027SOL    HW212981   4.003   5.142   1.809
 4028SOL     OW12982   2.443   0.326   3.793
 4028SOL    HW112983   2.443   0.289   3.700
 4028SOL    HW212984   2.532   0.310   3.835
 4029SOL     OW12985   1.872   4.530   5.039
 4029SOL    HW112986   1.952   4.591   5.044
 4029SOL    HW212987   1.898   4.440   5.073
 4030SOL     OW12988   0.134   1.925   5.327
 4030SOL    HW112989   0.143   1.831   5.294
 4030SOL    HW212990   0.221   1.972   5.315
 4031SOL     OW12991   4.159   5.502   4.216
 4031SOL    HW112992   4.188   5.553   4.297
 4031SOL    HW212993   4.118   5.564   4.150
 4032SOL     OW12994   4.813   0.046   4.843
 4032SOL    HW112995   4.786   0.070   4.936
 4032SOL    HW212996   4.731   0.028   4.788
 4033SOL     OW12997   2.857   3.794   5.158
 4033SOL    HW112998   2.917   3.745   5.223
 4033SOL    HW212999   2.772   3.818   5.204
 4034SOL     OW13000   6.436   2.341   3.743
 4034SOL    HW113001   6.525   2.386   3.751
 4034SOL    HW213002   6.449   2.245   3.717
 4035SOL     OW13003   0.279   5.242   0.513
 4035SOL    HW113004   0.332   5.321   0.484
 4035SOL    HW213005   0.217   5.214   0.439
 4036SOL     OW13006   6.662   6.586   3.075
 4036SOL    HW113007   6.613   6.673   3.086
 4036SOL    HW213008   6.600   6.517   3.039
 4037SOL     OW13009   6.549   4.122   6.597
 4037SOL    HW113010   6.519   4.040   6.645
 4037SOL    HW213011   6.547   4.105   6.498
 4038SOL     OW13012   5.415   4.804   3.698
 4038SOL    HW113013   5.477   4.726   3.708
 4038SOL    HW213014   5.405   4.826   3.601
 4039SOL     OW13015   4.461   6.093   0.976
 4039SOL    HW113016   4.379   6.140   0.944
 4039SOL    HW213017   4.540   6.123   0.924
 4040SOL     OW13018   3.618   6.306   1.739
 4040SOL    HW113019   3.590   6.355   1.657
 4040SOL    HW213020   3.633   6.210   1.717
 4041SOL     OW13021   1.216   6.822   3.965
 4041SOL    HW113022   1.304   6.863   3.988
 4041SOL    HW213023   1.142   6.882   3.998
 4042SOL     OW13024   5.984   5.179   1.972
 4042SOL    HW113025   5.964   5.253   2.036
 4042SOL    HW213026   6.016   5.217   1.885
 4043SOL     OW13027   6.811   3.001   1.351
 4043SOL    HW113028   6.774   2.937   1.284
 4043SOL    HW213029   6.752   3.081   1.357
 4044SOL     OW13030   6.590   5.777   3.610
 4044SOL    HW113031   6.520   5.745   3.547
 4044SOL    HW213032   6.665   5.819   3.558
 4045SOL     OW13033   2.420   5.975   6.090
 4045SOL    HW113034   2.421   5.880   6.060
 4045SOL    HW213035   2.494   5.989   6.157
 4046SOL     OW13036   1.599   3.096   1.024
 4046SOL    HW113037   1.532   3.061   1.090
 4046SOL    HW213038   1.608   3.195   1.035
 4047SOL     OW13039   3.277   3.713   1.711
 4047SOL    HW113040   3.311   3.746   1.799
 4047SOL    HW213041   3.292   3.615   1.704
 4048SOL     OW13042   5.409   1.506   1.059
 4048SOL    HW113043   5.464   1.470   1.134
 4048SOL    HW213044   5.400   1.605   1.069
 4049SOL     OW13045   6.378   0.665   5.802
 4049SOL    HW113046   6.360   0.610   5.884
 4049SOL    HW213047   6.466   0.711   5.811
 4050SOL     OW13048   2.847   0.628   1.117
 4050SOL    HW113049   2.781   0.572   1.065
 4050SOL    HW213050   2.886   0.573   1.191
 4051SOL     OW13051   2.732   3.513   0.868
 4051SOL    HW113052   2.725   3.580   0.795
 4051SOL    HW213053   2.799   3.544   0.936
 4052SOL     OW13054   1.919   6.062   1.767
 4052SOL    HW113055   1.838   6.011   1.738
 4052SOL    HW213056   1.996   6.039   1.708
 4053SOL     OW13057   3.129   4.998   3.548
 4053SOL    HW113058   3.085   4.996   3.638
 4053SOL    HW213059   3.226   4.973   3.557
 4054SOL     OW13060   5.451   2.104   6.856
 4054SOL    HW113061   5.543   2.136   6.879
 4054SOL    HW213062   5.404   2.174   6.802
 4055SOL     OW13063   3.886   2.141   0.180
 4055SOL    HW113064   3.800   2.092   0.170
 4055SOL    HW213065   3.889   2.185   0.271
 4056SOL     OW13066   4.221   3.400   0.680
 4056SOL    HW113067   4.239   3.311   0.721
 4056SOL    HW213068   4.151   3.448   0.733
 4057SOL     OW13069   5.633   2.409   6.343
 4057SOL    HW113070   5.626   2.359   6.429
 4057SOL    HW213071   5.608   2.505   6.358
 4058SOL     OW13072   0.836   0.529   5.304
 4058SOL    HW113073   0.793   0.519   5.394
 4058SOL    HW213074   0.795   0.464   5.240
 4059SOL     OW13075   6.925   1.374   4.917
 4059SOL    HW113076   7.011   1.419   4.943
 4059SOL    HW213077   6.867   1.439   4.868
 4060SOL     OW13078   4.205   5.683   4.446
 4060SOL    HW113079   4.266   5.745   4.397
 4060SOL    HW213080   4.260   5.621   4.502
 4061SOL     OW13081   2.422   2.796   1.805
 4061SOL    HW113082   2.466   2.737   1.737
 4061SOL    HW213083   2.372   2.739   1.871
 4062SOL     OW13084   2.786   6.880   2.761
 4062SOL    HW113085   2.827   6.906   2.674
 4062SOL    HW213086   2.707   6.938   2.779
 4063SOL     OW13087   2.559   5.147   5.939
 4063SOL    HW113088   2.579   5.240   5.971
 4063SOL    HW213089   2.485   5.109   5.995
 4064SOL     OW13090   6.149   0.125   3.703
 4064SOL    HW113091   6.174   0.126   3.800
 4064SOL    HW213092   6.116   0.216   3.676
 4065SOL     OW13093   5.855   4.867   6.560
 4065SOL    HW113094   5.781   4.803   6.538
 4065SOL    HW213095   5.940   4.817   6.575
 4066SOL     OW13096   5.583   5.001   1.593
 4066SOL    HW113097   5.612   4.906   1.598
 4066SOL    HW213098   5.618   5.051   1.673
 4067SOL     OW13099   6.087   1.058   2.036
 4067SOL    HW113100   6.125   1.127   2.098
 4067SOL    HW213101   6.128   0.969   2.055
 4068SOL     OW13102   5.231   0.844   4.082
 4068SOL    HW113103   5.302   0.819   4.016
 4068SOL    HW213104   5.247   0.937   4.115
 4069SOL     OW13105   0.035   5.684   1.710
 4069SOL    HW113106   0.062   5.767   1.661
 4069SOL    HW213107   6.959   5.666   1.695
 4070SOL     OW13108   0.794   3.556   2.765
 4070SOL    HW113109   0.866   3.567   2.833
 4070SOL    HW213110   0.710   3.597   2.799
 4071SOL     OW13111   2.113   0.382   3.752
 4071SOL    HW113112   2.130   0.379   3.851
 4071SOL    HW213113   2.056   0.462   3.731
 4072SOL     OW13114   0.780   6.874   4.075
 4072SOL    HW113115   0.705   6.859   4.011
 4072SOL    HW213116   0.757   6.947   4.138
 4073SOL     OW13117   2.884   4.794   0.713
 4073SOL    HW113118   2.930   4.883   0.714
 4073SOL    HW213119   2.948   4.723   0.745
 4074SOL     OW13120   1.364   2.964   0.775
 4074SOL    HW113121   1.445   3.007   0.814
 4074SOL    HW213122   1.390   2.900   0.702
 4075SOL     OW13123   5.188   0.616   4.219
 4075SOL    HW113124   5.233   0.699   4.185
 4075SOL    HW213125   5.258   0.551   4.249
 4076SOL     OW13126   1.336   2.902   3.480
 4076SOL    HW113127   1.372   2.810   3.461
 4076SOL    HW213128   1.404   2.970   3.452
 4077SOL     OW13129   2.947   2.010   0.784
 4077SOL    HW113130   2.941   1.971   0.875
 4077SOL    HW213131   2.888   2.090   0.778
 4078SOL     OW13132   5.617   3.525   2.090
 4078SOL    HW113133   5.710   3.506   2.060
 4078SOL    HW213134   5.612   3.519   2.190
 4079SOL     OW13135   6.771   1.102   3.447
 4079SOL    HW113136   6.824   1.187   3.448
 4079SOL    HW213137   6.795   1.047   3.527
 4080SOL     OW13138   4.028   3.080   2.759
 4080SOL    HW113139   4.002   3.177   2.764
 4080SOL    HW213140   4.068   3.061   2.669
 4081SOL     OW13141   2.358   2.345   6.269
 4081SOL    HW113142   2.276   2.334   6.213
 4081SOL    HW213143   2.367   2.441   6.296
 4082SOL     OW13144   1.446   2.521   5.471
 4082SOL    HW113145   1.350   2.549   5.483
 4082SOL    HW213146   1.457   2.481   5.380
 4083SOL     OW13147   5.718   5.306   2.624
 4083SOL    HW113148   5.696   5.241   2.697
 4083SOL    HW213149   5.684   5.397   2.650
 4084SOL     OW13150   4.389   0.495   2.810
 4084SOL    HW113151   4.337   0.421   2.854
 4084SOL    HW213152   4.463   0.523   2.871
 4085SOL     OW13153   3.560   5.169   1.819
 4085SOL    HW113154   3.653   5.200   1.840
 4085SOL    HW213155   3.497   5.210   1.885
 4086SOL     OW13156   6.346   4.997   5.224
 4086SOL    HW113157   6.248   4.984   5.213
 4086SOL    HW213158   6.392   4.989   5.135
 4087SOL     OW13159   1.712   0.410   2.422
 4087SOL    HW113160   1.760   0.431   2.337
 4087SOL    HW213161   1.750   0.327   2.462
 4088SOL     OW13162   0.340   2.088   5.281
 4088SOL    HW113163   0.281   2.118   5.206
 4088SOL    HW213164   0.431   2.130   5.271
 4089SOL     OW13165   1.030   0.925   2.695
 4089SOL    HW113166   0.999   0.832   2.675
 4089SOL    HW213167   1.119   0.940   2.651
 4090SOL     OW13168   2.544   1.841   5.774
 4090SOL    HW113169   2.543   1.920   5.835
 4090SOL    HW213170   2.616   1.778   5.803
 4091SOL     OW13171   3.632   5.898   1.442
 4091SOL    HW113172   3.553   5.837   1.435
 4091SOL    HW213173   3.716   5.847   1.422
 4092SOL     OW13174   5.303   2.214   4.748
 4092SOL    HW113175   5.294   2.118   4.774
 4092SOL    HW213176   5.393   2.248   4.777
 4093SOL     OW13177   5.306   4.482   3.555
 4093SOL    HW113178   5.235   4.514   3.617
 4093SOL    HW213179   5.395   4.483   3.602
 4094SOL     OW13180   6.787   5.919   6.885
 4094SOL    HW113181   6.817   5.838   6.937
 4094SOL    HW213182   6.702   5.953   6.924
 4095SOL     OW13183   1.067   5.241   0.701
 4095SOL    HW113184   1.053   5.176   0.626
 4095SOL    HW213185   1.092   5.191   0.784
 4096SOL     OW13186   0.520   0.401   6.929
 4096SOL    HW113187   0.617   0.390   6.950
 4096SOL    HW213188   0.467   0.332   6.980
 4097SOL     OW13189   6.589   3.850   4.923
 4097SOL    HW113190   6.490   3.848   4.937
 4097SOL    HW213191   6.631   3.776   4.975
 4098SOL     OW13192   1.531   4.717   2.498
 4098SOL    HW113193   1.535   4.701   2.400
 4098SOL    HW213194   1.624   4.721   2.535
 4099SOL     OW13195   5.531   4.431   6.057
 4099SOL    HW113196   5.490   4.425   6.148
 4099SOL    HW213197   5.466   4.473   5.994
 4100SOL     OW13198   2.086   1.159   3.671
 4100SOL    HW113199   2.085   1.235   3.735
 4100SOL    HW213200   2.145   1.182   3.593
 4101SOL     OW13201   6.661   5.330   0.263
 4101SOL    HW113202   6.689   5.237   0.241
 4101SOL    HW213203   6.569   5.329   0.302
 4102SOL     OW13204   1.938   6.405   0.397
 4102SOL    HW113205   2.002   6.474   0.430
 4102SOL    HW213206   1.987   6.319   0.380
 4103SOL     OW13207   1.756   6.906   4.314
 4103SOL    HW113208   1.804   6.838   4.258
 4103SOL    HW213209   1.662   6.875   4.330
 4104SOL     OW13210   2.032   5.447   5.148
 4104SOL    HW113211   2.064   5.437   5.242
 4104SOL    HW213212   1.955   5.384   5.132
 4105SOL     OW13213   4.642   6.984   2.005
 4105SOL    HW113214   4.543   6.997   2.001
 4105SOL    HW213215   4.683   7.011   1.917
 4106SOL     OW13216   1.007   1.203   2.907
 4106SOL    HW113217   0.986   1.120   2.855
 4106SOL    HW213218   0.957   1.280   2.869
 4107SOL     OW13219   1.329   0.487   0.906
 4107SOL    HW113220   1.392   0.562   0.926
 4107SOL    HW213221   1.326   0.471   0.807
 4108SOL     OW13222   6.845   5.872   5.488
 4108SOL    HW113223   6.922   5.920   5.532
 4108SOL    HW213224   6.778   5.939   5.456
 4109SOL     OW13225   5.414   6.094   3.582
 4109SOL    HW113226   5.351   6.172   3.580
 4109SOL    HW213227   5.508   6.127   3.571
 4110SOL     OW13228   5.155   3.038   0.057
 4110SOL    HW113229   5.243   2.991   0.053
 4110SOL    HW213230   5.104   3.019   6.994
 4111SOL     OW13231   6.202   3.802   4.118
 4111SOL    HW113232   6.177   3.776   4.211
 4111SOL    HW213233   6.182   3.726   4.056
 4112SOL     OW13234   4.434   6.101   4.458
 4112SOL    HW113235   4.350   6.100   4.403
 4112SOL    HW213236   4.455   6.195   4.484
 4113SOL     OW13237   3.892   5.132   4.697
 4113SOL    HW113238   3.950   5.139   4.616
 4113SOL    HW213239   3.873   5.223   4.733
 4114SOL     OW13240   0.064   1.209   1.653
 4114SOL    HW113241   0.037   1.136   1.590
 4114SOL    HW213242   0.014   1.293   1.632
 4115SOL     OW13243   4.457   5.649   3.721
 4115SOL    HW113244   4.501   5.705   3.791
 4115SOL    HW213245   4.375   5.697   3.687
 4116SOL     OW13246   5.073   3.754   2.449
 4116SOL    HW113247   5.020   3.811   2.512
 4116SOL    HW213248   5.157   3.723   2.494
 4117SOL     OW13249   1.076   1.672   3.904
 4117SOL    HW113250   1.055   1.742   3.972
 4117SOL    HW213251   1.123   1.596   3.949
 4118SOL     OW13252   0.579   6.749   0.232
 4118SOL    HW113253   0.618   6.670   0.185
 4118SOL    HW213254   0.630   6.831   0.206
 4119SOL     OW13255   0.241   0.492   4.463
 4119SOL    HW113256   0.317   0.427   4.461
 4119SOL    HW213257   0.199   0.497   4.373
 4120SOL     OW13258   2.140   0.762   6.916
 4120SOL    HW113259   2.195   0.679   6.909
 4120SOL    HW213260   2.192   0.840   6.879
 4121SOL     OW13261   0.048   6.946   1.969
 4121SOL    HW113262   6.994   6.970   1.908
 4121SOL    HW213263   0.018   6.958   2.064
 4122SOL     OW13264   0.700   4.539   3.194
 4122SOL    HW113265   0.616   4.506   3.236
 4122SOL    HW213266   0.779   4.507   3.247
 4123SOL     OW13267   5.060   4.628   1.502
 4123SOL    HW113268   5.057   4.530   1.481
 4123SOL    HW213269   5.126   4.645   1.574
 4124SOL     OW13270   6.358   5.630   0.184
 4124SOL    HW113271   6.300   5.549   0.193
 4124SOL    HW213272   6.393   5.636   0.091
 4125SOL     OW13273   6.391   2.282   0.368
 4125SOL    HW113274   6.419   2.260   0.461
 4125SOL    HW213275   6.303   2.239   0.348
 4126SOL     OW13276   0.757   3.287   2.699
 4126SOL    HW113277   0.762   3.386   2.697
 4126SOL    HW213278   0.692   3.258   2.770
 4127SOL     OW13279   4.462   1.868   4.653
 4127SOL    HW113280   4.479   1.849   4.749
 4127SOL    HW213281   4.394   1.941   4.645
 4128SOL     OW13282   0.217   2.881   6.433
 4128SOL    HW113283   0.196   2.866   6.530
 4128SOL    HW213284   0.263   2.969   6.422
 4129SOL     OW13285   3.200   2.007   0.665
 4129SOL    HW113286   3.111   2.004   0.711
 4129SOL    HW213287   3.205   1.933   0.598
 4130SOL     OW13288   5.980   3.190   0.552
 4130SOL    HW113289   5.899   3.138   0.527
 4130SOL    HW213290   5.968   3.286   0.525
 4131SOL     OW13291   5.112   0.073   3.236
 4131SOL    HW113292   5.125   0.163   3.194
 4131SOL    HW213293   5.019   0.041   3.218
 4132SOL     OW13294   7.014   5.521   3.511
 4132SOL    HW113295   6.976   5.589   3.575
 4132SOL    HW213296   0.066   5.471   3.556
 4133SOL     OW13297   5.301   0.361   2.737
 4133SOL    HW113298   5.353   0.445   2.720
 4133SOL    HW213299   5.220   0.382   2.790
 4134SOL     OW13300   1.422   3.532   1.242
 4134SOL    HW113301   1.345   3.469   1.255
 4134SOL    HW213302   1.508   3.484   1.262
 4135SOL     OW13303   6.191   0.506   2.118
 4135SOL    HW113304   6.276   0.525   2.167
 4135SOL    HW213305   6.120   0.478   2.183
 4136SOL     OW13306   0.733   5.055   0.969
 4136SOL    HW113307   0.663   5.118   0.936
 4136SOL    HW213308   0.690   4.969   0.998
 4137SOL     OW13309   0.514   3.161   6.639
 4137SOL    HW113310   0.491   3.097   6.566
 4137SOL    HW213311   0.577   3.117   6.703
 4138SOL     OW13312   5.004   0.337   0.050
 4138SOL    HW113313   5.061   0.379   7.001
 4138SOL    HW213314   4.923   0.394   0.066
 4139SOL     OW13315   2.181   4.102   3.176
 4139SOL    HW113316   2.270   4.137   3.206
 4139SOL    HW213317   2.148   4.035   3.242
 4140SOL     OW13318   1.860   0.326   5.904
 4140SOL    HW113319   1.892   0.421   5.911
 4140SOL    HW213320   1.876   0.292   5.811
 4141SOL     OW13321   5.218   0.740   6.230
 4141SOL    HW113322   5.258   0.739   6.138
 4141SOL    HW213323   5.251   0.661   6.282
 4142SOL     OW13324   0.137   5.480   2.237
 4142SOL    HW113325   0.153   5.448   2.143
 4142SOL    HW213326   0.164   5.576   2.244
 4143SOL     OW13327   6.117   3.112   6.350
 4143SOL    HW113328   6.139   3.141   6.443
 4143SOL    HW213329   6.161   3.024   6.331
 4144SOL     OW13330   5.815   1.483   1.055
 4144SOL    HW113331   5.881   1.541   1.102
 4144SOL    HW213332   5.808   1.510   0.959
 4145SOL     OW13333   6.777   0.708   1.655
 4145SOL    HW113334   6.876   0.696   1.659
 4145SOL    HW213335   6.754   0.774   1.583
 4146SOL     OW13336   4.857   5.720   1.861
 4146SOL    HW113337   4.792   5.778   1.910
 4146SOL    HW213338   4.813   5.679   1.781
 4147SOL     OW13339   4.349   5.112   6.663
 4147SOL    HW113340   4.405   5.102   6.745
 4147SOL    HW213341   4.252   5.109   6.688
 4148SOL     OW13342   2.743   0.790   5.283
 4148SOL    HW113343   2.806   0.719   5.250
 4148SOL    HW213344   2.780   0.880   5.258
 4149SOL     OW13345   1.238   4.030   6.529
 4149SOL    HW113346   1.244   3.933   6.507
 4149SOL    HW213347   1.306   4.081   6.477
 4150SOL     OW13348   5.728   2.200   6.876
 4150SOL    HW113349   5.793   2.125   6.862
 4150SOL    HW213350   5.753   2.251   6.958
 4151SOL     OW13351   2.813   5.833   4.754
 4151SOL    HW113352   2.850   5.875   4.671
 4151SOL    HW213353   2.759   5.901   4.804
 4152SOL     OW13354   2.711   4.517   1.388
 4152SOL    HW113355   2.781   4.588   1.400
 4152SOL    HW213356   2.620   4.558   1.400
 4153SOL     OW13357   6.463   6.026   1.635
 4153SOL    HW113358   6.562   6.008   1.637
 4153SOL    HW213359   6.415   5.954   1.685
 4154SOL     OW13360   1.374   6.270   3.919
 4154SOL    HW113361   1.393   6.191   3.978
 4154SOL    HW213362   1.296   6.321   3.956
 4155SOL     OW13363   0.107   0.732   1.472
 4155SOL    HW113364   0.053   0.774   1.545
 4155SOL    HW213365   0.084   0.775   1.384
 4156SOL     OW13366   0.704   5.149   6.451
 4156SOL    HW113367   0.716   5.050   6.439
 4156SOL    HW213368   0.642   5.184   6.381
 4157SOL     OW13369   5.603   6.092   1.730
 4157SOL    HW113370   5.570   6.015   1.675
 4157SOL    HW213371   5.701   6.103   1.717
 4158SOL     OW13372   1.036   2.959   1.470
 4158SOL    HW113373   1.116   2.929   1.417
 4158SOL    HW213374   1.066   2.985   1.562
 4159SOL     OW13375   2.797   0.325   4.241
 4159SOL    HW113376   2.877   0.269   4.219
 4159SOL    HW213377   2.714   0.277   4.211
 4160SOL     OW13378   0.349   0.242   0.070
 4160SOL    HW113379   0.375   0.146   0.066
 4160SOL    HW213380   0.249   0.250   0.063
 4161SOL     OW13381   3.852   3.355   2.639
 4161SOL    HW113382   3.796   3.325   2.562
 4161SOL    HW213383   3.944   3.377   2.608
 4162SOL     OW13384   5.317   5.641   1.750
 4162SOL    HW113385   5.306   5.642   1.651
 4162SOL    HW213386   5.249   5.701   1.792
 4163SOL     OW13387   3.226   5.881   1.777
 4163SOL    HW113388   3.151   5.896   1.841
 4163SOL    HW213389   3.250   5.968   1.734
 4164SOL     OW13390   6.846   1.282   6.249
 4164SOL    HW113391   6.914   1.351   6.226
 4164SOL    HW213392   6.890   1.193   6.261
 4165SOL     OW13393   4.480   0.856   4.718
 4165SOL    HW113394   4.540   0.903   4.653
 4165SOL    HW213395   4.475   0.759   4.695
 4166SOL     OW13396   5.692   1.774   1.133
 4166SOL    HW113397   5.607   1.728   1.106
 4166SOL    HW213398   5.749   1.789   1.051
 4167SOL     OW13399   3.023   5.754   4.527
 4167SOL    HW113400   3.058   5.844   4.502
 4167SOL    HW213401   3.085   5.710   4.592
 4168SOL     OW13402   5.058   3.547   6.879
 4168SOL    HW113403   4.970   3.511   6.908
 4168SOL    HW213404   5.130   3.482   6.902
 4169SOL     OW13405   5.209   2.717   5.989
 4169SOL    HW113406   5.254   2.645   6.042
 4169SOL    HW213407   5.269   2.796   5.984
 4170SOL     OW13408   0.464   2.514   4.474
 4170SOL    HW113409   0.518   2.506   4.558
 4170SOL    HW213410   0.367   2.500   4.494
 4171SOL     OW13411   0.740   1.808   0.115
 4171SOL    HW113412   0.832   1.783   0.147
 4171SOL    HW213413   0.675   1.798   0.190
 4172SOL     OW13414   2.662   3.064   0.593
 4172SOL    HW113415   2.671   3.131   0.666
 4172SOL    HW213416   2.576   3.079   0.544
 4173SOL     OW13417   4.943   2.582   6.777
 4173SOL    HW113418   4.903   2.633   6.853
 4173SOL    HW213419   5.023   2.532   6.809
 4174SOL     OW13420   3.911   0.416   4.884
 4174SOL    HW113421   3.886   0.502   4.927
 4174SOL    HW213422   3.844   0.393   4.813
 4175SOL     OW13423   0.822   4.393   6.513
 4175SOL    HW113424   0.771   4.334   6.576
 4175SOL    HW213425   0.833   4.346   6.425
 4176SOL     OW13426   5.613   0.090   5.644
 4176SOL    HW113427   5.670   0.025   5.693
 4176SOL    HW213428   5.521   0.053   5.634
 4177SOL     OW13429   4.180   4.720   2.692
 4177SOL    HW113430   4.255   4.672   2.647
 4177SOL    HW213431   4.116   4.755   2.623
 4178SOL     OW13432   3.564   5.994   1.707
 4178SOL    HW113433   3.607   5.958   1.623
 4178SOL    HW213434   3.466   6.003   1.692
 4179SOL     OW13435   5.129   3.282   5.569
 4179SOL    HW113436   5.039   3.250   5.538
 4179SOL    HW213437   5.118   3.330   5.657
 4180SOL     OW13438   4.223   3.748   0.938
 4180SOL    HW113439   4.176   3.728   1.024
 4180SOL    HW213440   4.170   3.814   0.885
 4181SOL     OW13441   4.644   6.724   4.975
 4181SOL    HW113442   4.602   6.812   4.955
 4181SOL    HW213443   4.695   6.730   5.061
 4182SOL     OW13444   0.169   6.480   5.070
 4182SOL    HW113445   0.091   6.499   5.011
 4182SOL    HW213446   0.137   6.440   5.156
 4183SOL     OW13447   4.293   1.674   0.593
 4183SOL    HW113448   4.300   1.740   0.518
 4183SOL    HW213449   4.237   1.597   0.565
 4184SOL     OW13450   3.394   5.700   4.218
 4184SOL    HW113451   3.305   5.739   4.198
 4184SOL    HW213452   3.452   5.703   4.136
 4185SOL     OW13453   5.394   3.028   3.125
 4185SOL    HW113454   5.333   2.956   3.093
 4185SOL    HW213455   5.352   3.118   3.110
 4186SOL     OW13456   1.863   6.088   0.530
 4186SOL    HW113457   1.943   6.100   0.472
 4186SOL    HW213458   1.857   5.992   0.559
 4187SOL     OW13459   1.854   3.209   6.769
 4187SOL    HW113460   1.864   3.274   6.694
 4187SOL    HW213461   1.854   3.258   6.856
 4188SOL     OW13462   4.607   0.134   0.310
 4188SOL    HW113463   4.551   0.106   0.388
 4188SOL    HW213464   4.699   0.156   0.341
 4189SOL     OW13465   4.496   5.077   3.785
 4189SOL    HW113466   4.488   4.977   3.782
 4189SOL    HW213467   4.578   5.103   3.834
 4190SOL     OW13468   6.721   5.955   1.618
 4190SOL    HW113469   6.777   5.967   1.699
 4190SOL    HW213470   6.772   5.983   1.537
 4191SOL     OW13471   4.664   4.294   6.655
 4191SOL    HW113472   4.605   4.242   6.717
 4191SOL    HW213473   4.619   4.379   6.629
 4192SOL     OW13474   1.518   3.300   0.479
 4192SOL    HW113475   1.548   3.264   0.567
 4192SOL    HW213476   1.419   3.289   0.470
 4193SOL     OW13477   0.404   0.647   0.467
 4193SOL    HW113478   0.403   0.551   0.438
 4193SOL    HW213479   0.455   0.701   0.401
 4194SOL     OW13480   4.709   1.301   5.833
 4194SOL    HW113481   4.652   1.360   5.890
 4194SOL    HW213482   4.722   1.343   5.744
 4195SOL     OW13483   3.779   6.165   0.338
 4195SOL    HW113484   3.788   6.089   0.401
 4195SOL    HW213485   3.870   6.196   0.309
 4196SOL     OW13486   6.442   3.237   2.086
 4196SOL    HW113487   6.530   3.203   2.119
 4196SOL    HW213488   6.387   3.268   2.163
 4197SOL     OW13489   3.986   1.295   0.006
 4197SOL    HW113490   3.922   1.265   6.957
 4197SOL    HW213491   3.971   1.392   0.025
 4198SOL     OW13492   6.881   1.929   2.468
 4198SOL    HW113493   6.847   1.849   2.517
 4198SOL    HW213494   6.863   2.011   2.522
 4199SOL     OW13495   0.639   3.823   6.428
 4199SOL    HW113496   0.540   3.812   6.434
 4199SOL    HW213497   0.662   3.867   6.341
 4200SOL     OW13498   4.479   0.569   4.112
 4200SOL    HW113499   4.538   0.607   4.041
 4200SOL    HW213500   4.426   0.493   4.074
 4201SOL     OW13501   5.564   6.788   3.628
 4201SOL    HW113502   5.619   6.861   3.588
 4201SOL    HW213503   5.598   6.765   3.719
 4202SOL     OW13504   5.002   4.114   1.308
 4202SOL    HW113505   4.940   4.139   1.382
 4202SOL    HW213506   5.030   4.196   1.259
 4203SOL     OW13507   6.468   5.133   5.412
 4203SOL    HW113508   6.409   5.074   5.357
 4203SOL    HW213509   6.416   5.170   5.489
 4204SOL     OW13510   1.854   3.379   6.554
 4204SOL    HW113511   1.876   3.339   6.465
 4204SOL    HW213512   1.873   3.478   6.551
 4205SOL     OW13513   3.772   6.279   6.054
 4205SOL    HW113514   3.867   6.255   6.034
 4205SOL    HW213515   3.770   6.364   6.108
 4206SOL     OW13516   2.301   2.227   4.851
 4206SOL    HW113517   2.320   2.242   4.948
 4206SOL    HW213518   2.269   2.133   4.838
 4207SOL     OW13519   1.026   2.214   2.179
 4207SOL    HW113520   1.049   2.172   2.091
 4207SOL    HW213521   1.094   2.188   2.247
 4208SOL     OW13522   2.116   3.067   4.228
 4208SOL    HW113523   2.027   3.020   4.223
 4208SOL    HW213524   2.146   3.070   4.323
 4209SOL     OW13525   6.647   6.208   2.011
 4209SOL    HW113526   6.668   6.271   1.937
 4209SOL    HW213527   6.720   6.210   2.079
 4210SOL     OW13528   3.788   3.931   4.774
 4210SOL    HW113529   3.879   3.903   4.742
 4210SOL    HW213530   3.787   4.030   4.789
 4211SOL     OW13531   4.192   2.486   5.502
 4211SOL    HW113532   4.192   2.569   5.445
 4211SOL    HW213533   4.277   2.436   5.488
 4212SOL     OW13534   6.489   2.339   3.028
 4212SOL    HW113535   6.548   2.407   2.984
 4212SOL    HW213536   6.432   2.384   3.096
 4213SOL     OW13537   2.890   0.920   3.687
 4213SOL    HW113538   2.848   0.943   3.775
 4213SOL    HW213539   2.897   1.003   3.631
 4214SOL     OW13540   6.983   5.894   3.413
 4214SOL    HW113541   6.961   5.978   3.364
 4214SOL    HW213542   6.928   5.819   3.377
 4215SOL     OW13543   4.861   6.474   5.606
 4215SOL    HW113544   4.947   6.425   5.592
 4215SOL    HW213545   4.872   6.540   5.680
 4216SOL     OW13546   2.661   5.615   1.858
 4216SOL    HW113547   2.712   5.541   1.813
 4216SOL    HW213548   2.709   5.642   1.942
 4217SOL     OW13549   0.918   0.655   2.694
 4217SOL    HW113550   0.939   0.649   2.597
 4217SOL    HW213551   0.869   0.572   2.722
 4218SOL     OW13552   3.219   1.377   0.660
 4218SOL    HW113553   3.255   1.347   0.748
 4218SOL    HW213554   3.136   1.326   0.639
 4219SOL     OW13555   4.211   5.553   2.927
 4219SOL    HW113556   4.232   5.461   2.962
 4219SOL    HW213557   4.263   5.621   2.979
 4220SOL     OW13558   5.669   2.023   1.292
 4220SOL    HW113559   5.684   1.935   1.336
 4220SOL    HW213560   5.697   2.018   1.196
 4221SOL     OW13561   0.606   6.255   0.345
 4221SOL    HW113562   0.522   6.208   0.318
 4221SOL    HW213563   0.585   6.324   0.415
 4222SOL     OW13564   4.794   2.980   4.335
 4222SOL    HW113565   4.793   3.007   4.431
 4222SOL    HW213566   4.783   3.062   4.278
 4223SOL     OW13567   3.877   3.827   2.038
 4223SOL    HW113568   3.933   3.875   2.106
 4223SOL    HW213569   3.934   3.762   1.988
 4224SOL     OW13570   5.161   4.100   4.524
 4224SOL    HW113571   5.245   4.064   4.564
 4224SOL    HW213572   5.152   4.197   4.547
 4225SOL     OW13573   0.589   2.274   5.516
 4225SOL    HW113574   0.611   2.263   5.419
 4225SOL    HW213575   0.670   2.252   5.571
 4226SOL     OW13576   0.807   5.679   5.117
 4226SOL    HW113577   0.896   5.637   5.133
 4226SOL    HW213578   0.738   5.606   5.107
 4227SOL     OW13579   4.770   5.085   2.281
 4227SOL    HW113580   4.707   5.056   2.354
 4227SOL    HW213581   4.720   5.092   2.195
 4228SOL     OW13582   1.428   5.390   3.642
 4228SOL    HW113583   1.392   5.464   3.585
 4228SOL    HW213584   1.440   5.423   3.736
 4229SOL     OW13585   6.911   4.428   5.449
 4229SOL    HW113586   6.900   4.498   5.519
 4229SOL    HW213587   6.876   4.461   5.362
 4230SOL     OW13588   0.379   0.512   2.238
 4230SOL    HW113589   0.376   0.469   2.328
 4230SOL    HW213590   0.289   0.549   2.216
 4231SOL     OW13591   6.469   1.386   5.730
 4231SOL    HW113592   6.509   1.385   5.639
 4231SOL    HW213593   6.378   1.427   5.726
 4232SOL     OW13594   1.362   5.799   3.865
 4232SOL    HW113595   1.412   5.821   3.948
 4232SOL    HW213596   1.389   5.862   3.792
 4233SOL     OW13597   4.623   4.853   2.998
 4233SOL    HW113598   4.576   4.866   3.085
 4233SOL    HW213599   4.575   4.784   2.944
 4234SOL     OW13600   3.202   5.092   6.158
 4234SOL    HW113601   3.285   5.082   6.103
 4234SOL    HW213602   3.176   5.189   6.162
 4235SOL     OW13603   0.051   5.862   5.630
 4235SOL    HW113604   0.025   5.820   5.543
 4235SOL    HW213605   0.134   5.819   5.664
 4236SOL     OW13606   0.374   5.385   3.010
 4236SOL    HW113607   0.343   5.375   3.104
 4236SOL    HW213608   0.472   5.408   3.009
 4237SOL     OW13609   6.663   4.753   3.899
 4237SOL    HW113610   6.706   4.790   3.817
 4237SOL    HW213611   6.577   4.801   3.916
 4238SOL     OW13612   2.821   6.650   3.116
 4238SOL    HW113613   2.802   6.737   3.070
 4238SOL    HW213614   2.735   6.611   3.150
 4239SOL     OW13615   4.501   0.665   3.645
 4239SOL    HW113616   4.453   0.739   3.690
 4239SOL    HW213617   4.454   0.578   3.664
 4240SOL     OW13618   6.568   0.004   1.575
 4240SOL    HW113619   6.585   6.934   1.611
 4240SOL    HW213620   6.548   7.020   1.477
 4241SOL     OW13621   6.417   3.834   0.542
 4241SOL    HW113622   6.377   3.752   0.581
 4241SOL    HW213623   6.387   3.914   0.594
 4242SOL     OW13624   2.527   1.893   3.116
 4242SOL    HW113625   2.610   1.907   3.171
 4242SOL    HW213626   2.548   1.830   3.041
 4243SOL     OW13627   4.823   0.520   3.136
 4243SOL    HW113628   4.781   0.435   3.104
 4243SOL    HW213629   4.753   0.591   3.145
 4244SOL     OW13630   3.657   3.399   3.197
 4244SOL    HW113631   3.747   3.425   3.162
 4244SOL    HW213632   3.606   3.348   3.128
 4245SOL     OW13633   6.331   1.917   6.178
 4245SOL    HW113634   6.352   1.821   6.196
 4245SOL    HW213635   6.414   1.972   6.190
 4246SOL     OW13636   0.856   3.252   1.106
 4246SOL    HW113637   0.896   3.253   1.014
 4246SOL    HW213638   0.861   3.159   1.143
 4247SOL     OW13639   0.071   5.944   5.087
 4247SOL    HW113640   0.131   6.015   5.123
 4247SOL    HW213641   0.048   5.965   4.992
 4248SOL     OW13642   1.515   2.829   4.974
 4248SOL    HW113643   1.522   2.903   5.040
 4248SOL    HW213644   1.604   2.815   4.930
 4249SOL     OW13645   5.556   4.205   5.922
 4249SOL    HW113646   5.541   4.134   5.990
 4249SOL    HW213647   5.576   4.292   5.969
 4250SOL     OW13648   0.466   4.792   2.984
 4250SOL    HW113649   0.518   4.708   2.966
 4250SOL    HW213650   0.461   4.807   3.083
 4251SOL     OW13651   5.902   4.069   0.768
 4251SOL    HW113652   5.932   4.112   0.682
 4251SOL    HW213653   5.810   4.030   0.756
 4252SOL     OW13654   0.417   5.547   5.883
 4252SOL    HW113655   0.466   5.471   5.840
 4252SOL    HW213656   0.405   5.621   5.817
 4253SOL     OW13657   4.264   6.295   2.278
 4253SOL    HW113658   4.343   6.302   2.338
 4253SOL    HW213659   4.204   6.221   2.309
 4254SOL     OW13660   2.598   4.347   1.031
 4254SOL    HW113661   2.615   4.279   1.102
 4254SOL    HW213662   2.524   4.407   1.059
 4255SOL     OW13663   0.302   2.062   4.334
 4255SOL    HW113664   0.228   2.019   4.282
 4255SOL    HW213665   0.386   2.009   4.322
 4256SOL     OW13666   2.431   0.639   1.764
 4256SOL    HW113667   2.490   0.697   1.707
 4256SOL    HW213668   2.346   0.620   1.716
 4257SOL     OW13669   4.118   2.039   4.482
 4257SOL    HW113670   4.035   2.085   4.513
 4257SOL    HW213671   4.094   1.950   4.443
 4258SOL     OW13672   5.048   6.536   2.619
 4258SOL    HW113673   5.101   6.619   2.636
 4258SOL    HW213674   4.984   6.552   2.544
 4259SOL     OW13675   2.201   2.881   0.559
 4259SOL    HW113676   2.182   2.960   0.500
 4259SOL    HW213677   2.121   2.821   0.559
 4260SOL     OW13678   4.951   5.581   3.873
 4260SOL    HW113679   4.963   5.498   3.926
 4260SOL    HW213680   5.018   5.583   3.799
 4261SOL     OW13681   1.739   0.166   1.852
 4261SOL    HW113682   1.692   0.132   1.770
 4261SOL    HW213683   1.681   0.235   1.897
 4262SOL     OW13684   0.732   5.767   6.613
 4262SOL    HW113685   0.651   5.814   6.648
 4262SOL    HW213686   0.710   5.672   6.593
 4263SOL     OW13687   3.406   5.273   5.483
 4263SOL    HW113688   3.330   5.244   5.425
 4263SOL    HW213689   3.488   5.221   5.460
 4264SOL     OW13690   7.020   0.448   0.468
 4264SOL    HW113691   0.020   0.397   0.551
 4264SOL    HW213692   0.080   0.454   0.410
 4265SOL     OW13693   6.789   2.221   1.185
 4265SOL    HW113694   6.748   2.209   1.276
 4265SOL    HW213695   6.788   2.134   1.136
 4266SOL     OW13696   2.647   4.871   0.555
 4266SOL    HW113697   2.643   4.812   0.474
 4266SOL    HW213698   2.739   4.868   0.594
 4267SOL     OW13699   1.817   3.905   5.294
 4267SOL    HW113700   1.896   3.956   5.327
 4267SOL    HW213701   1.837   3.867   5.204
 4268SOL     OW13702   1.611   0.763   1.463
 4268SOL    HW113703   1.538   0.759   1.531
 4268SOL    HW213704   1.652   0.854   1.464
 4269SOL     OW13705   3.973   3.005   0.314
 4269SOL    HW113706   3.966   3.103   0.295
 4269SOL    HW213707   3.895   2.977   0.369
 4270SOL     OW13708   3.066   2.813   5.322
 4270SOL    HW113709   3.112   2.851   5.242
 4270SOL    HW213710   3.108   2.725   5.346
 4271SOL     OW13711   1.019   6.920   6.947
 4271SOL    HW113712   1.047   6.840   6.894
 4271SOL    HW213713   1.085   6.937   7.019
 4272SOL     OW13714   6.696   4.675   4.876
 4272SOL    HW113715   6.707   4.676   4.777
 4272SOL    HW213716   6.724   4.764   4.914
 4273SOL     OW13717   5.720   6.546   5.372
 4273SOL    HW113718   5.757   6.547   5.465
 4273SOL    HW213719   5.795   6.533   5.307
 4274SOL     OW13720   1.755   0.095   3.732
 4274SOL    HW113721   1.715   0.185   3.714
 4274SOL    HW213722   1.775   0.050   3.645
 4275SOL     OW13723   0.894   0.110   6.106
 4275SOL    HW113724   0.864   0.126   6.012
 4275SOL    HW213725   0.814   0.094   6.164
 4276SOL     OW13726   1.831   4.009   2.626
 4276SOL    HW113727   1.808   3.970   2.537
 4276SOL    HW213728   1.921   4.054   2.621
 4277SOL     OW13729   6.927   5.713   3.667
 4277SOL    HW113730   6.872   5.769   3.729
 4277SOL    HW213731   6.980   5.772   3.606
 4278SOL     OW13732   0.135   0.274   5.484
 4278SOL    HW113733   0.118   0.365   5.445
 4278SOL    HW213734   0.144   0.208   5.410
 4279SOL     OW13735   3.185   5.994   4.627
 4279SOL    HW113736   3.235   5.959   4.706
 4279SOL    HW213737   3.098   6.032   4.656
 4280SOL     OW13738   4.896   2.578   4.019
 4280SOL    HW113739   4.940   2.569   4.108
 4280SOL    HW213740   4.829   2.653   4.022
 4281SOL     OW13741   2.227   4.276   5.140
 4281SOL    HW113742   2.255   4.311   5.230
 4281SOL    HW213743   2.277   4.192   5.120
 4282SOL     OW13744   1.712   2.493   1.312
 4282SOL    HW113745   1.811   2.496   1.307
 4282SOL    HW213746   1.673   2.576   1.272
 4283SOL     OW13747   1.777   0.344   4.144
 4283SOL    HW113748   1.702   0.376   4.202
 4283SOL    HW213749   1.745   0.268   4.088
 4284SOL     OW13750   6.095   2.113   2.407
 4284SOL    HW113751   6.147   2.035   2.442
 4284SOL    HW213752   6.035   2.082   2.333
 4285SOL     OW13753   1.258   6.481   6.197
 4285SOL    HW113754   1.288   6.391   6.167
 4285SOL    HW213755   1.194   6.471   6.273
 4286SOL     OW13756   5.279   5.349   0.389
 4286SOL    HW113757   5.254   5.295   0.470
 4286SOL    HW213758   5.343   5.421   0.416
 4287SOL     OW13759   4.886   6.208   4.742
 4287SOL    HW113760   4.788   6.219   4.732
 4287SOL    HW213761   4.914   6.119   4.706
 4288SOL     OW13762   1.259   6.599   2.785
 4288SOL    HW113763   1.195   6.593   2.861
 4288SOL    HW213764   1.238   6.680   2.730
 4289SOL     OW13765   5.834   3.378   1.239
 4289SOL    HW113766   5.929   3.404   1.256
 4289SOL    HW213767   5.778   3.460   1.230
 4290SOL     OW13768   2.302   0.961   1.848
 4290SOL    HW113769   2.317   0.895   1.774
 4290SOL    HW213770   2.210   0.998   1.841
 4291SOL     OW13771   6.765   4.166   1.081
 4291SOL    HW113772   6.801   4.174   0.988
 4291SOL    HW213773   6.674   4.124   1.079
 4292SOL     OW13774   6.395   5.347   6.631
 4292SOL    HW113775   6.341   5.331   6.714
 4292SOL    HW213776   6.458   5.423   6.647
 4293SOL     OW13777   0.205   2.597   6.731
 4293SOL    HW113778   0.212   2.692   6.762
 4293SOL    HW213779   0.188   2.595   6.632
 4294SOL     OW13780   4.954   1.268   5.997
 4294SOL    HW113781   4.876   1.272   5.935
 4294SOL    HW213782   4.937   1.199   6.068
 4295SOL     OW13783   3.463   7.010   4.812
 4295SOL    HW113784   3.448   6.911   4.812
 4295SOL    HW213785   3.535   0.010   4.746
 4296SOL     OW13786   2.546   1.604   1.073
 4296SOL    HW113787   2.576   1.544   1.148
 4296SOL    HW213788   2.474   1.558   1.021
 4297SOL     OW13789   5.780   0.764   6.025
 4297SOL    HW113790   5.842   0.718   5.962
 4297SOL    HW213791   5.718   0.823   5.974
 4298SOL     OW13792   2.856   5.417   0.847
 4298SOL    HW113793   2.945   5.405   0.892
 4298SOL    HW213794   2.848   5.511   0.814
 4299SOL     OW13795   0.775   3.606   6.415
 4299SOL    HW113796   0.734   3.692   6.443
 4299SOL    HW213797   0.772   3.541   6.492
 4300SOL     OW13798   5.031   0.838   6.664
 4300SOL    HW113799   5.037   0.919   6.722
 4300SOL    HW213800   5.103   0.843   6.594
 4301SOL     OW13801   3.074   1.599   0.639
 4301SOL    HW113802   3.000   1.585   0.705
 4301SOL    HW213803   3.149   1.535   0.659
 4302SOL     OW13804   1.019   6.029   6.772
 4302SOL    HW113805   1.034   5.997   6.678
 4302SOL    HW213806   1.019   5.951   6.834
 4303SOL     OW13807   0.046   3.167   2.146
 4303SOL    HW113808   0.061   3.250   2.200
 4303SOL    HW213809   0.069   3.087   2.202
 4304SOL     OW13810   2.906   3.469   4.137
 4304SOL    HW113811   2.862   3.402   4.196
 4304SOL    HW213812   2.946   3.542   4.194
 4305SOL     OW13813   6.055   1.864   3.602
 4305SOL    HW113814   6.031   1.960   3.587
 4305SOL    HW213815   5.987   1.805   3.559
 4306SOL     OW13816   6.653   5.159   5.823
 4306SOL    HW113817   6.557   5.178   5.801
 4306SOL    HW213818   6.681   5.217   5.900
 4307SOL     OW13819   5.479   3.691   6.128
 4307SOL    HW113820   5.510   3.645   6.211
 4307SOL    HW213821   5.552   3.689   6.060
 4308SOL     OW13822   5.203   6.011   4.405
 4308SOL    HW113823   5.138   6.045   4.338
 4308SOL    HW213824   5.264   5.944   4.363
 4309SOL     OW13825   1.645   1.612   1.119
 4309SOL    HW113826   1.617   1.563   1.037
 4309SOL    HW213827   1.667   1.707   1.096
 4310SOL     OW13828   1.719   1.413   2.844
 4310SOL    HW113829   1.648   1.484   2.844
 4310SOL    HW213830   1.776   1.424   2.926
 4311SOL     OW13831   1.754   6.527   3.716
 4311SOL    HW113832   1.709   6.616   3.719
 4311SOL    HW213833   1.690   6.458   3.682
 4312SOL     OW13834   2.367   5.406   1.844
 4312SOL    HW113835   2.412   5.474   1.787
 4312SOL    HW213836   2.400   5.314   1.820
 4313SOL     OW13837   5.029   0.754   2.487
 4313SOL    HW113838   4.941   0.710   2.466
 4313SOL    HW213839   5.013   0.847   2.521
 4314SOL     OW13840   4.884   2.916   2.400
 4314SOL    HW113841   4.935   2.913   2.486
 4314SOL    HW213842   4.855   3.010   2.382
 4315SOL     OW13843   2.219   1.453   2.129
 4315SOL    HW113844   2.260   1.438   2.039
 4315SOL    HW213845   2.154   1.379   2.148
 4316SOL     OW13846   5.911   0.031   2.048
 4316SOL    HW113847   5.865   0.116   2.074
 4316SOL    HW213848   5.978   0.049   1.976
 4317SOL     OW13849   4.207   1.246   3.385
 4317SOL    HW113850   4.165   1.337   3.377
 4317SOL    HW213851   4.154   1.180   3.332
 4318SOL     OW13852   0.019   2.428   3.921
 4318SOL    HW113853   0.075   2.505   3.890
 4318SOL    HW213854   6.946   2.460   3.937
 4319SOL     OW13855   2.191   3.326   6.034
 4319SOL    HW113856   2.138   3.306   6.117
 4319SOL    HW213857   2.213   3.423   6.031
 4320SOL     OW13858   0.278   5.961   2.621
 4320SOL    HW113859   0.231   5.999   2.700
 4320SOL    HW213860   0.266   6.023   2.543
 4321SOL     OW13861   0.426   0.477   5.309
 4321SOL    HW113862   0.442   0.382   5.284
 4321SOL    HW213863   0.437   0.488   5.408
 4322SOL     OW13864   6.100   1.013   0.125
 4322SOL    HW113865   6.166   0.979   0.192
 4322SOL    HW213866   6.146   1.071   0.059
 4323SOL     OW13867   6.892   3.343   2.959
 4323SOL    HW113868   6.929   3.369   3.048
 4323SOL    HW213869   6.959   3.285   2.912
 4324SOL     OW13870   5.809   4.143   5.801
 4324SOL    HW113871   5.858   4.205   5.740
 4324SOL    HW213872   5.723   4.187   5.830
 4325SOL     OW13873   2.112   1.715   0.151
 4325SOL    HW113874   2.204   1.680   0.169
 4325SOL    HW213875   2.114   1.814   0.147
 4326SOL     OW13876   5.985   2.209   4.801
 4326SOL    HW113877   5.996   2.164   4.890
 4326SOL    HW213878   5.962   2.305   4.816
 4327SOL     OW13879   5.777   6.921   2.506
 4327SOL    HW113880   5.685   6.948   2.533
 4327SOL    HW213881   5.776   6.891   2.411
 4328SOL     OW13882   5.440   5.118   0.540
 4328SOL    HW113883   5.470   5.030   0.576
 4328SOL    HW213884   5.342   5.129   0.556
 4329SOL     OW13885   3.795   1.636   5.792
 4329SOL    HW113886   3.759   1.662   5.702
 4329SOL    HW213887   3.738   1.677   5.864
 4330SOL     OW13888   1.332   0.670   6.185
 4330SOL    HW113889   1.324   0.579   6.145
 4330SOL    HW213890   1.268   0.680   6.261
 4331SOL     OW13891   5.774   2.970   6.884
 4331SOL    HW113892   5.777   3.001   6.979
 4331SOL    HW213893   5.720   2.886   6.878
 4332SOL     OW13894   5.268   2.927   1.413
 4332SOL    HW113895   5.298   2.839   1.449
 4332SOL    HW213896   5.334   2.998   1.437
 4333SOL     OW13897   5.250   0.494   4.850
 4333SOL    HW113898   5.196   0.575   4.871
 4333SOL    HW213899   5.346   0.520   4.836
 4334SOL     OW13900   4.339   1.262   2.378
 4334SOL    HW113901   4.336   1.213   2.290
 4334SOL    HW213902   4.412   1.224   2.435
 4335SOL     OW13903   3.531   3.974   5.097
 4335SOL    HW113904   3.474   4.051   5.069
 4335SOL    HW213905   3.537   3.908   5.021
 4336SOL     OW13906   1.358   6.177   4.651
 4336SOL    HW113907   1.353   6.251   4.583
 4336SOL    HW213908   1.327   6.092   4.610
 4337SOL     OW13909   0.018   5.641   0.859
 4337SOL    HW113910   6.948   5.616   0.889
 4337SOL    HW213911   0.022   5.637   0.759
 4338SOL     OW13912   6.521   6.289   4.281
 4338SOL    HW113913   6.446   6.245   4.231
 4338SOL    HW213914   6.593   6.222   4.298
 4339SOL     OW13915   6.120   1.344   6.199
 4339SOL    HW113916   6.189   1.278   6.229
 4339SOL    HW213917   6.052   1.357   6.272
 4340SOL     OW13918   4.737   3.735   1.773
 4340SOL    HW113919   4.781   3.646   1.784
 4340SOL    HW213920   4.719   3.751   1.676
 4341SOL     OW13921   1.100   4.373   0.767
 4341SOL    HW113922   1.126   4.421   0.683
 4341SOL    HW213923   1.181   4.326   0.804
 4342SOL     OW13924   0.583   3.144   2.835
 4342SOL    HW113925   0.516   3.109   2.902
 4342SOL    HW213926   0.606   3.072   2.770
 4343SOL     OW13927   2.625   1.368   1.220
 4343SOL    HW113928   2.685   1.356   1.300
 4343SOL    HW213929   2.553   1.299   1.222
 4344SOL     OW13930   1.975   5.058   3.163
 4344SOL    HW113931   1.953   5.076   3.259
 4344SOL    HW213932   1.921   5.118   3.104
 4345SOL     OW13933   1.684   1.824   6.114
 4345SOL    HW113934   1.688   1.875   6.028
 4345SOL    HW213935   1.627   1.874   6.180
 4346SOL     OW13936   2.043   3.407   2.162
 4346SOL    HW113937   2.123   3.429   2.106
 4346SOL    HW213938   1.960   3.434   2.114
 4347SOL     OW13939   5.799   6.565   2.829
 4347SOL    HW113940   5.883   6.620   2.837
 4347SOL    HW213941   5.721   6.618   2.861
 4348SOL     OW13942   1.772   3.940   6.551
 4348SOL    HW113943   1.786   4.025   6.602
 4348SOL    HW213944   1.684   3.944   6.504
 4349SOL     OW13945   6.887   0.395   3.311
 4349SOL    HW113946   6.984   0.392   3.336
 4349SOL    HW213947   6.852   0.488   3.323
 4350SOL     OW13948   5.013   1.943   3.531
 4350SOL    HW113949   5.063   1.967   3.614
 4350SOL    HW213950   5.016   1.844   3.519
 4351SOL     OW13951   2.810   5.941   1.369
 4351SOL    HW113952   2.792   6.039   1.377
 4351SOL    HW213953   2.900   5.921   1.408
 4352SOL     OW13954   6.383   1.169   1.996
 4352SOL    HW113955   6.373   1.203   2.090
 4352SOL    HW213956   6.479   1.170   1.970
 4353SOL     OW13957   3.806   5.630   6.753
 4353SOL    HW113958   3.745   5.558   6.785
 4353SOL    HW213959   3.888   5.631   6.809
 4354SOL     OW13960   2.069   0.731   0.780
 4354SOL    HW113961   2.051   0.653   0.841
 4354SOL    HW213962   2.155   0.714   0.731
 4355SOL     OW13963   5.067   1.069   0.789
 4355SOL    HW113964   5.008   1.093   0.711
 4355SOL    HW213965   5.026   0.994   0.840
 4356SOL     OW13966   4.043   4.709   0.641
 4356SOL    HW113967   4.141   4.707   0.622
 4356SOL    HW213968   4.007   4.798   0.615
 4357SOL     OW13969   6.106   0.753   6.995
 4357SOL    HW113970   6.100   0.834   0.033
 4357SOL    HW213971   6.052   0.679   0.014
 4358SOL     OW13972   0.971   0.179   1.925
 4358SOL    HW113973   0.883   0.227   1.926
 4358SOL    HW213974   0.969   0.105   1.858
 4359SOL     OW13975   6.239   2.525   3.812
 4359SOL    HW113976   6.193   2.576   3.739
 4359SOL    HW213977   6.310   2.467   3.773
 4360SOL     OW13978   1.433   3.125   1.268
 4360SOL    HW113979   1.397   3.031   1.262
 4360SOL    HW213980   1.364   3.188   1.233
 4361SOL     OW13981   5.251   1.970   1.815
 4361SOL    HW113982   5.278   1.888   1.766
 4361SOL    HW213983   5.204   1.945   1.900
 4362SOL     OW13984   5.986   4.359   4.258
 4362SOL    HW113985   6.052   4.285   4.246
 4362SOL    HW213986   6.032   4.447   4.247
 4363SOL     OW13987   5.351   2.083   6.281
 4363SOL    HW113988   5.365   2.011   6.349
 4363SOL    HW213989   5.439   2.107   6.240
 4364SOL     OW13990   3.407   3.781   4.658
 4364SOL    HW113991   3.322   3.774   4.710
 4364SOL    HW213992   3.415   3.873   4.620
 4365SOL     OW13993   3.333   1.523   1.913
 4365SOL    HW113994   3.270   1.601   1.915
 4365SOL    HW213995   3.413   1.548   1.859
 4366SOL     OW13996   6.072   5.420   1.076
 4366SOL    HW113997   6.065   5.410   0.977
 4366SOL    HW213998   6.031   5.340   1.120
 4367SOL     OW13999   1.654   6.221   6.554
 4367SOL    HW114000   1.635   6.183   6.645
 4367SOL    HW214001   1.721   6.294   6.562
 4368SOL     OW14002   5.692   3.933   1.795
 4368SOL    HW114003   5.677   3.903   1.890
 4368SOL    HW214004   5.656   3.864   1.733
 4369SOL     OW14005   4.185   5.691   1.854
 4369SOL    HW114006   4.205   5.607   1.804
 4369SOL    HW214007   4.122   5.672   1.929
 4370SOL     OW14008   5.968   4.816   3.044
 4370SOL    HW114009   5.975   4.819   3.144
 4370SOL    HW214010   5.998   4.903   3.006
 4371SOL     OW14011   6.158   2.096   1.701
 4371SOL    HW114012   6.139   2.129   1.794
 4371SOL    HW214013   6.254   2.068   1.694
 4372SOL     OW14014   4.227   0.818   2.871
 4372SOL    HW114015   4.320   0.801   2.837
 4372SOL    HW214016   4.161   0.793   2.799
 4373SOL     OW14017   6.795   2.080   6.354
 4373SOL    HW114018   6.887   2.114   6.374
 4373SOL    HW214019   6.737   2.157   6.327
 4374SOL     OW14020   2.568   2.266   1.484
 4374SOL    HW114021   2.532   2.246   1.575
 4374SOL    HW214022   2.530   2.352   1.450
 4375SOL     OW14023   2.750   6.602   4.425
 4375SOL    HW114024   2.763   6.616   4.327
 4375SOL    HW214025   2.704   6.683   4.464
 4376SOL     OW14026   5.717   1.359   3.450
 4376SOL    HW114027   5.691   1.266   3.427
 4376SOL    HW214028   5.806   1.359   3.495
 4377SOL     OW14029   5.176   4.735   6.413
 4377SOL    HW114030   5.269   4.750   6.377
 4377SOL    HW214031   5.169   4.780   6.502
 4378SOL     OW14032   1.883   0.759   3.929
 4378SOL    HW114033   1.976   0.793   3.941
 4378SOL    HW214034   1.885   0.660   3.914
 4379SOL     OW14035   2.539   2.169   5.248
 4379SOL    HW114036   2.585   2.171   5.160
 4379SOL    HW214037   2.506   2.260   5.272
 4380SOL     OW14038   0.313   1.142   1.763
 4380SOL    HW114039   0.330   1.211   1.834
 4380SOL    HW214040   0.228   1.163   1.716
 4381SOL     OW14041   2.033   6.119   5.843
 4381SOL    HW114042   1.986   6.207   5.844
 4381SOL    HW214043   2.090   6.110   5.924
 4382SOL     OW14044   0.155   2.884   5.188
 4382SOL    HW114045   0.173   2.945   5.265
 4382SOL    HW214046   0.240   2.838   5.161
 4383SOL     OW14047   5.930   2.789   0.056
 4383SOL    HW114048   6.006   2.851   0.078
 4383SOL    HW214049   5.889   2.816   6.990
 4384SOL     OW14050   5.981   6.536   4.186
 4384SOL    HW114051   5.946   6.513   4.095
 4384SOL    HW214052   6.079   6.557   4.180
 4385SOL     OW14053   5.115   1.387   5.082
 4385SOL    HW114054   5.168   1.375   4.998
 4385SOL    HW214055   5.018   1.386   5.060
 4386SOL     OW14056   1.065   3.437   5.066
 4386SOL    HW114057   1.004   3.399   5.136
 4386SOL    HW214058   1.038   3.531   5.047
 4387SOL     OW14059   6.635   2.076   0.516
 4387SOL    HW114060   6.614   2.162   0.563
 4387SOL    HW214061   6.697   2.094   0.440
 4388SOL     OW14062   5.764   2.590   6.617
 4388SOL    HW114063   5.845   2.593   6.675
 4388SOL    HW214064   5.682   2.606   6.673
 4389SOL     OW14065   0.669   3.576   1.374
 4389SOL    HW114066   0.628   3.606   1.288
 4389SOL    HW214067   0.731   3.646   1.408
 4390SOL     OW14068   6.489   1.255   1.440
 4390SOL    HW114069   6.499   1.158   1.464
 4390SOL    HW214070   6.531   1.272   1.351
 4391SOL     OW14071   2.164   6.389   0.209
 4391SOL    HW114072   2.129   6.472   0.165
 4391SOL    HW214073   2.235   6.348   0.152
 4392SOL     OW14074   1.782   2.315   5.303
 4392SOL    HW114075   1.853   2.386   5.306
 4392SOL    HW214076   1.709   2.344   5.242
 4393SOL     OW14077   4.837   0.936   1.897
 4393SOL    HW114078   4.742   0.910   1.881
 4393SOL    HW214079   4.860   0.920   1.993
 4394SOL     OW14080   0.975   0.707   1.891
 4394SOL    HW114081   0.947   0.615   1.864
 4394SOL    HW214082   0.997   0.761   1.810
 4395SOL     OW14083   2.684   5.367   1.272
 4395SOL    HW114084   2.685   5.289   1.335
 4395SOL    HW214085   2.600   5.364   1.218
 4396SOL     OW14086   2.609   0.130   3.370
 4396SOL    HW114087   2.581   0.077   3.450
 4396SOL    HW214088   2.681   0.081   3.321
 4397SOL     OW14089   3.242   1.511   4.384
 4397SOL    HW114090   3.301   1.431   4.368
 4397SOL    HW214091   3.232   1.561   4.298
 4398SOL     OW14092   2.043   2.648   4.863
 4398SOL    HW114093   1.958   2.595   4.863
 4398SOL    HW214094   2.116   2.593   4.903
 4399SOL     OW14095   2.850   6.963   2.509
 4399SOL    HW114096   2.795   0.009   2.460
 4399SOL    HW214097   2.885   6.895   2.444
 4400SOL     OW14098   1.652   5.445   4.568
 4400SOL    HW114099   1.711   5.512   4.522
 4400SOL    HW214100   1.693   5.354   4.560
 4401SOL     OW14101   4.089   0.374   6.334
 4401SOL    HW114102   4.099   0.379   6.433
 4401SOL    HW214103   4.007   0.424   6.306
 4402SOL     OW14104   1.183   0.667   3.217
 4402SOL    HW114105   1.104   0.673   3.278
 4402SOL    HW214106   1.169   0.594   3.150
 4403SOL     OW14107   1.366   5.118   1.529
 4403SOL    HW114108   1.296   5.150   1.465
 4403SOL    HW214109   1.457   5.141   1.494
 4404SOL     OW14110   0.782   6.815   5.821
 4404SOL    HW114111   0.724   6.844   5.897
 4404SOL    HW214112   0.823   6.727   5.842
 4405SOL     OW14113   1.735   5.400   3.127
 4405SOL    HW114114   1.720   5.379   3.223
 4405SOL    HW214115   1.745   5.315   3.075
 4406SOL     OW14116   6.516   3.736   1.801
 4406SOL    HW114117   6.497   3.813   1.862
 4406SOL    HW214118   6.600   3.755   1.749
 4407SOL     OW14119   5.628   6.049   2.051
 4407SOL    HW114120   5.670   5.959   2.053
 4407SOL    HW214121   5.546   6.047   1.994
 4408SOL     OW14122   4.285   0.865   0.255
 4408SOL    HW114123   4.379   0.897   0.268
 4408SOL    HW214124   4.285   0.789   0.190
 4409SOL     OW14125   2.894   0.370   3.285
 4409SOL    HW114126   2.948   0.444   3.323
 4409SOL    HW214127   2.831   0.406   3.216
 4410SOL     OW14128   1.389   6.603   1.185
 4410SOL    HW114129   1.437   6.537   1.243
 4410SOL    HW214130   1.339   6.555   1.113
 4411SOL     OW14131   3.502   4.551   5.395
 4411SOL    HW114132   3.560   4.490   5.341
 4411SOL    HW214133   3.411   4.511   5.405
 4412SOL     OW14134   4.588   6.218   2.619
 4412SOL    HW114135   4.575   6.273   2.701
 4412SOL    HW214136   4.634   6.132   2.642
 4413SOL     OW14137   4.373   6.179   3.839
 4413SOL    HW114138   4.328   6.112   3.899
 4413SOL    HW214139   4.441   6.133   3.783
 4414SOL     OW14140   4.371   4.124   1.485
 4414SOL    HW114141   4.354   4.194   1.416
 4414SOL    HW214142   4.318   4.146   1.567
 4415SOL     OW14143   2.297   3.070   1.277
 4415SOL    HW114144   2.358   3.077   1.356
 4415SOL    HW214145   2.232   3.146   1.278
 4416SOL     OW14146   4.372   2.395   3.351
 4416SOL    HW114147   4.308   2.339   3.298
 4416SOL    HW214148   4.357   2.379   3.448
 4417SOL     OW14149   0.404   4.199   3.332
 4417SOL    HW114150   0.318   4.186   3.381
 4417SOL    HW214151   0.418   4.297   3.314
 4418SOL     OW14152   6.478   6.600   5.944
 4418SOL    HW114153   6.504   6.608   6.040
 4418SOL    HW214154   6.512   6.514   5.907
 4419SOL     OW14155   6.053   5.385   6.266
 4419SOL    HW114156   6.035   5.478   6.295
 4419SOL    HW214157   5.977   5.326   6.294
 4420SOL     OW14158   3.800   2.217   0.913
 4420SOL    HW114159   3.799   2.250   1.007
 4420SOL    HW214160   3.881   2.252   0.866
 4421SOL     OW14161   1.471   2.151   6.048
 4421SOL    HW114162   1.397   2.087   6.028
 4421SOL    HW214163   1.450   2.241   6.011
 4422SOL     OW14164   6.627   3.677   6.636
 4422SOL    HW114165   6.700   3.610   6.620
 4422SOL    HW214166   6.665   3.769   6.631
 4423SOL     OW14167   5.360   4.006   4.748
 4423SOL    HW114168   5.444   4.057   4.729
 4423SOL    HW214169   5.371   3.955   4.834
 4424SOL     OW14170   4.940   5.888   3.193
 4424SOL    HW114171   4.894   5.977   3.184
 4424SOL    HW214172   4.912   5.844   3.278
 4425SOL     OW14173   1.635   5.186   1.419
 4425SOL    HW114174   1.681   5.259   1.469
 4425SOL    HW214175   1.598   5.222   1.333
 4426SOL     OW14176   0.552   0.387   4.962
 4426SOL    HW114177   0.467   0.345   4.995
 4426SOL    HW214178   0.537   0.485   4.948
 4427SOL     OW14179   2.491   5.917   3.003
 4427SOL    HW114180   2.575   5.866   3.018
 4427SOL    HW214181   2.437   5.873   2.931
 4428SOL     OW14182   5.316   6.920   3.165
 4428SOL    HW114183   5.227   6.951   3.200
 4428SOL    HW214184   5.363   6.867   3.236
 4429SOL     OW14185   2.338   5.703   3.377
 4429SOL    HW114186   2.428   5.709   3.334
 4429SOL    HW214187   2.344   5.735   3.471
 4430SOL     OW14188   4.778   3.984   5.546
 4430SOL    HW114189   4.718   4.063   5.535
 4430SOL    HW214190   4.737   3.905   5.502
 4431SOL     OW14191   3.191   6.858   3.668
 4431SOL    HW114192   3.199   6.775   3.614
 4431SOL    HW214193   3.279   6.879   3.711
 4432SOL     OW14194   1.057   3.657   5.784
 4432SOL    HW114195   1.118   3.580   5.769
 4432SOL    HW214196   1.087   3.709   5.864
 4433SOL     OW14197   0.206   1.093   5.517
 4433SOL    HW114198   0.283   1.071   5.458
 4433SOL    HW214199   0.241   1.126   5.605
 4434SOL     OW14200   0.101   0.257   2.344
 4434SOL    HW114201   0.070   0.351   2.329
 4434SOL    HW214202   0.054   0.219   2.424
 4435SOL     OW14203   2.170   3.947   0.236
 4435SOL    HW114204   2.200   4.023   0.294
 4435SOL    HW214205   2.184   3.970   0.140
 4436SOL     OW14206   4.129   1.870   1.772
 4436SOL    HW114207   4.166   1.793   1.719
 4436SOL    HW214208   4.029   1.864   1.773
 4437SOL     OW14209   6.895   4.119   0.555
 4437SOL    HW114210   6.858   4.044   0.499
 4437SOL    HW214211   6.993   4.105   0.568
 4438SOL     OW14212   3.484   0.647   5.870
 4438SOL    HW114213   3.518   0.740   5.875
 4438SOL    HW214214   3.387   0.647   5.846
 4439SOL     OW14215   2.638   6.619   2.596
 4439SOL    HW114216   2.584   6.536   2.588
 4439SOL    HW214217   2.732   6.595   2.622
 4440SOL     OW14218   1.569   5.318   0.500
 4440SOL    HW114219   1.489   5.347   0.552
 4440SOL    HW214220   1.586   5.383   0.426
 4441SOL     OW14221   0.176   1.555   0.294
 4441SOL    HW114222   0.270   1.526   0.276
 4441SOL    HW214223   0.152   1.536   0.389
 4442SOL     OW14224   1.670   4.646   6.389
 4442SOL    HW114225   1.706   4.659   6.482
 4442SOL    HW214226   1.584   4.696   6.380
 4443SOL     OW14227   0.615   5.540   6.256
 4443SOL    HW114228   0.704   5.571   6.291
 4443SOL    HW214229   0.587   5.599   6.180
 4444SOL     OW14230   5.426   4.729   0.181
 4444SOL    HW114231   5.352   4.732   0.113
 4444SOL    HW214232   5.392   4.762   0.269
 4445SOL     OW14233   7.001   5.255   6.960
 4445SOL    HW114234   6.997   5.156   6.952
 4445SOL    HW214235   6.963   5.297   6.878
 4446SOL     OW14236   4.916   1.369   0.842
 4446SOL    HW114237   4.940   1.321   0.757
 4446SOL    HW214238   4.999   1.383   0.896
 4447SOL     OW14239   4.787   5.527   5.895
 4447SOL    HW114240   4.721   5.492   5.961
 4447SOL    HW214241   4.741   5.547   5.808
 4448SOL     OW14242   3.618   6.293   2.208
 4448SOL    HW114243   3.604   6.214   2.148
 4448SOL    HW214244   3.581   6.375   2.164
 4449SOL     OW14245   3.441   1.137   5.569
 4449SOL    HW114246   3.404   1.070   5.633
 4449SOL    HW214247   3.529   1.171   5.604
 4450SOL     OW14248   3.750   6.774   0.382
 4450SOL    HW114249   3.803   6.743   0.303
 4450SOL    HW214250   3.769   6.871   0.400
 4451SOL     OW14251   5.244   4.352   2.861
 4451SOL    HW114252   5.293   4.423   2.811
 4451SOL    HW214253   5.173   4.313   2.802
 4452SOL     OW14254   4.483   6.390   4.498
 4452SOL    HW114255   4.384   6.375   4.504
 4452SOL    HW214256   4.502   6.458   4.427
 4453SOL     OW14257   6.494   4.168   0.687
 4453SOL    HW114258   6.406   4.121   0.690
 4453SOL    HW214259   6.549   4.142   0.767
 4454SOL     OW14260   1.106   2.413   6.834
 4454SOL    HW114261   1.083   2.318   6.815
 4454SOL    HW214262   1.121   2.461   6.747
 4455SOL     OW14263   0.653   6.652   5.505
 4455SOL    HW114264   0.650   6.658   5.405
 4455SOL    HW214265   0.748   6.642   5.535
 4456SOL     OW14266   2.329   0.344   4.887
 4456SOL    HW114267   2.278   0.305   4.811
 4456SOL    HW214268   2.296   0.437   4.905
 4457SOL     OW14269   1.577   2.199   5.043
 4457SOL    HW114270   1.631   2.132   5.094
 4457SOL    HW214271   1.629   2.285   5.037
 4458SOL     OW14272   1.508   3.676   6.823
 4458SOL    HW114273   1.548   3.688   6.732
 4458SOL    HW214274   1.563   3.609   6.875
 4459SOL     OW14275   0.795   2.888   2.914
 4459SOL    HW114276   0.747   2.924   2.994
 4459SOL    HW214277   0.851   2.810   2.941
 4460SOL     OW14278   6.904   2.971   4.617
 4460SOL    HW114279   6.830   2.909   4.645
 4460SOL    HW214280   6.965   2.925   4.553
 4461SOL     OW14281   2.795   0.985   1.100
 4461SOL    HW114282   2.833   0.905   1.054
 4461SOL    HW214283   2.701   1.000   1.068
 4462SOL     OW14284   6.407   4.529   3.176
 4462SOL    HW114285   6.480   4.596   3.167
 4462SOL    HW214286   6.447   4.437   3.175
 4463SOL     OW14287   5.978   1.575   0.337
 4463SOL    HW114288   6.009   1.504   0.274
 4463SOL    HW214289   6.057   1.620   0.378
 4464SOL     OW14290   0.285   5.580   0.883
 4464SOL    HW114291   0.188   5.602   0.874
 4464SOL    HW214292   0.338   5.664   0.893
 4465SOL     OW14293   3.110   5.523   1.000
 4465SOL    HW114294   3.056   5.526   1.085
 4465SOL    HW214295   3.205   5.504   1.022
 4466SOL     OW14296   1.786   2.459   3.403
 4466SOL    HW114297   1.740   2.459   3.492
 4466SOL    HW214298   1.837   2.374   3.391
 4467SOL     OW14299   4.273   5.877   3.363
 4467SOL    HW114300   4.349   5.869   3.298
 4467SOL    HW214301   4.243   5.972   3.368
 4468SOL     OW14302   1.856   2.826   1.825
 4468SOL    HW114303   1.855   2.882   1.908
 4468SOL    HW214304   1.950   2.816   1.793
 4469SOL     OW14305   3.516   6.259   1.265
 4469SOL    HW114306   3.602   6.260   1.317
 4469SOL    HW214307   3.529   6.207   1.181
 4470SOL     OW14308   2.163   6.640   2.786
 4470SOL    HW114309   2.195   6.611   2.876
 4470SOL    HW214310   2.177   6.566   2.720
 4471SOL     OW14311   1.359   1.086   6.314
 4471SOL    HW114312   1.354   1.023   6.391
 4471SOL    HW214313   1.370   1.180   6.349
 4472SOL     OW14314   1.640   2.732   1.114
 4472SOL    HW114315   1.708   2.787   1.162
 4472SOL    HW214316   1.662   2.730   1.016
 4473SOL     OW14317   0.928   2.640   4.290
 4473SOL    HW114318   0.943   2.584   4.208
 4473SOL    HW214319   0.830   2.653   4.304
 4474SOL     OW14320   2.930   5.636   0.672
 4474SOL    HW114321   3.010   5.676   0.716
 4474SOL    HW214322   2.932   5.654   0.574
 4475SOL     OW14323   1.359   3.889   1.267
 4475SOL    HW114324   1.309   3.806   1.242
 4475SOL    HW214325   1.293   3.963   1.284
 4476SOL     OW14326   4.892   1.172   3.698
 4476SOL    HW114327   4.893   1.076   3.668
 4476SOL    HW214328   4.947   1.182   3.781
 4477SOL     OW14329   1.569   0.966   4.898
 4477SOL    HW114330   1.543   1.011   4.984
 4477SOL    HW214331   1.490   0.916   4.862
 4478SOL     OW14332   1.783   0.625   0.613
 4478SOL    HW114333   1.761   0.534   0.650
 4478SOL    HW214334   1.836   0.615   0.529
 4479SOL     OW14335   1.126   2.715   0.208
 4479SOL    HW114336   1.056   2.663   0.160
 4479SOL    HW214337   1.099   2.727   0.304
 4480SOL     OW14338   1.009   6.294   4.140
 4480SOL    HW114339   0.922   6.262   4.101
 4480SOL    HW214340   1.001   6.299   4.240
 4481SOL     OW14341   2.049   3.619   6.069
 4481SOL    HW114342   2.024   3.656   5.979
 4481SOL    HW214343   2.145   3.639   6.087
 4482SOL     OW14344   2.484   6.200   0.368
 4482SOL    HW114345   2.440   6.151   0.292
 4482SOL    HW214346   2.417   6.258   0.414
 4483SOL     OW14347   1.308   2.936   0.375
 4483SOL    HW114348   1.215   2.961   0.400
 4483SOL    HW214349   1.360   3.018   0.352
 4484SOL     OW14350   2.557   2.246   0.206
 4484SOL    HW114351   2.518   2.318   0.148
 4484SOL    HW214352   2.630   2.199   0.156
 4485SOL     OW14353   6.073   2.424   5.148
 4485SOL    HW114354   6.060   2.523   5.153
 4485SOL    HW214355   6.006   2.384   5.084
 4486SOL     OW14356   4.321   5.068   5.015
 4486SOL    HW114357   4.285   4.980   5.047
 4486SOL    HW214358   4.256   5.110   4.952
 4487SOL     OW14359   0.726   3.137   6.836
 4487SOL    HW114360   0.818   3.101   6.821
 4487SOL    HW214361   0.675   3.076   6.896
 4488SOL     OW14362   7.015   4.210   3.915
 4488SOL    HW114363   0.014   4.226   3.818
 4488SOL    HW214364   0.015   4.292   3.967
 4489SOL     OW14365   4.534   5.793   5.596
 4489SOL    HW114366   4.601   5.854   5.555
 4489SOL    HW214367   4.503   5.831   5.684
 4490SOL     OW14368   5.300   1.712   1.631
 4490SOL    HW114369   5.275   1.697   1.535
 4490SOL    HW214370   5.258   1.640   1.687
 4491SOL     OW14371   1.203   3.422   3.865
 4491SOL    HW114372   1.296   3.449   3.842
 4491SOL    HW214373   1.146   3.504   3.874
 4492SOL     OW14374   6.442   0.306   2.207
 4492SOL    HW114375   6.442   0.405   2.220
 4492SOL    HW214376   6.480   0.284   2.117
 4493SOL     OW14377   5.495   1.981   4.750
 4493SOL    HW114378   5.490   2.042   4.671
 4493SOL    HW214379   5.533   1.893   4.723
 4494SOL     OW14380   1.374   0.812   0.937
 4494SOL    HW114381   1.359   0.819   0.838
 4494SOL    HW214382   1.472   0.801   0.955
 4495SOL     OW14383   4.592   5.757   1.410
 4495SOL    HW114384   4.605   5.856   1.405
 4495SOL    HW214385   4.627   5.714   1.327
 4496SOL     OW14386   3.538   5.929   6.531
 4496SOL    HW114387   3.591   6.007   6.498
 4496SOL    HW214388   3.440   5.952   6.528
 4497SOL     OW14389   4.709   1.148   6.176
 4497SOL    HW114390   4.682   1.244   6.185
 4497SOL    HW214391   4.693   1.100   6.262
 4498SOL     OW14392   0.372   5.475   5.183
 4498SOL    HW114393   0.321   5.558   5.161
 4498SOL    HW214394   0.327   5.396   5.141
 4499SOL     OW14395   5.916   2.200   2.607
 4499SOL    HW114396   5.982   2.197   2.532
 4499SOL    HW214397   5.914   2.111   2.653
 4500SOL     OW14398   3.777   5.383   0.018
 4500SOL    HW114399   3.788   5.283   0.021
 4500SOL    HW214400   3.861   5.427   0.046
 4501SOL     OW14401   6.052   0.606   2.724
 4501SOL    HW114402   6.117   0.575   2.654
 4501SOL    HW214403   5.971   0.547   2.723
 4502SOL     OW14404   6.908   3.931   6.569
 4502SOL    HW114405   6.895   4.030   6.573
 4502SOL    HW214406   6.989   3.907   6.623
 4503SOL     OW14407   2.968   0.892   2.885
 4503SOL    HW114408   2.994   0.797   2.904
 4503SOL    HW214409   3.008   0.920   2.798
 4504SOL     OW14410   6.625   1.182   2.578
 4504SOL    HW114411   6.669   1.093   2.589
 4504SOL    HW214412   6.528   1.169   2.559
 4505SOL     OW14413   5.434   4.696   4.152
 4505SOL    HW114414   5.374   4.765   4.110
 4505SOL    HW214415   5.516   4.686   4.097
 4506SOL     OW14416   5.049   2.534   5.524
 4506SOL    HW114417   4.980   2.584   5.472
 4506SOL    HW214418   5.137   2.538   5.478
 4507SOL     OW14419   6.260   2.939   3.444
 4507SOL    HW114420   6.284   2.953   3.348
 4507SOL    HW214421   6.300   3.012   3.499
 4508SOL     OW14422   0.781   5.829   1.012
 4508SOL    HW114423   0.802   5.795   0.920
 4508SOL    HW214424   0.698   5.885   1.008
 4509SOL     OW14425   4.947   2.826   1.912
 4509SOL    HW114426   4.872   2.890   1.928
 4509SOL    HW214427   5.016   2.838   1.984
 4510SOL     OW14428   4.242   0.898   4.093
 4510SOL    HW114429   4.309   0.834   4.131
 4510SOL    HW214430   4.252   0.987   4.137
 4511SOL     OW14431   0.406   4.455   0.569
 4511SOL    HW114432   0.414   4.464   0.668
 4511SOL    HW214433   0.317   4.489   0.539
 4512SOL     OW14434   3.282   3.128   5.467
 4512SOL    HW114435   3.325   3.052   5.420
 4512SOL    HW214436   3.184   3.128   5.447
 4513SOL     OW14437   1.256   6.312   1.005
 4513SOL    HW114438   1.200   6.319   1.087
 4513SOL    HW214439   1.340   6.261   1.027
 4514SOL     OW14440   3.320   4.456   6.727
 4514SOL    HW114441   3.248   4.430   6.663
 4514SOL    HW214442   3.385   4.380   6.737
 4515SOL     OW14443   4.515   0.792   6.115
 4515SOL    HW114444   4.584   0.821   6.049
 4515SOL    HW214445   4.560   0.764   6.200
 4516SOL     OW14446   3.379   1.672   5.513
 4516SOL    HW114447   3.388   1.771   5.505
 4516SOL    HW214448   3.324   1.637   5.437
 4517SOL     OW14449   3.649   0.790   5.497
 4517SOL    HW114450   3.679   0.882   5.472
 4517SOL    HW214451   3.692   0.723   5.436
 4518SOL     OW14452   0.620   6.853   1.301
 4518SOL    HW114453   0.544   6.793   1.326
 4518SOL    HW214454   0.696   6.799   1.266
 4519SOL     OW14455   4.812   6.922   6.898
 4519SOL    HW114456   4.812   6.876   6.809
 4519SOL    HW214457   4.885   6.990   6.900
 4520SOL     OW14458   3.940   5.469   5.365
 4520SOL    HW114459   3.900   5.509   5.447
 4520SOL    HW214460   4.032   5.507   5.350
 4521SOL     OW14461   4.094   2.211   3.851
 4521SOL    HW114462   4.173   2.272   3.854
 4521SOL    HW214463   4.123   2.119   3.825
 4522SOL     OW14464   5.531   4.271   3.423
 4522SOL    HW114465   5.455   4.230   3.475
 4522SOL    HW214466   5.615   4.220   3.441
 4523SOL     OW14467   0.328   3.364   5.712
 4523SOL    HW114468   0.318   3.460   5.737
 4523SOL    HW214469   0.416   3.329   5.745
 4524SOL     OW14470   1.205   3.881   2.687
 4524SOL    HW114471   1.138   3.807   2.680
 4524SOL    HW214472   1.295   3.848   2.661
 4525SOL     OW14473   3.510   2.468   5.347
 4525SOL    HW114474   3.464   2.383   5.320
 4525SOL    HW214475   3.473   2.499   5.435
 4526SOL     OW14476   1.104   6.825   5.544
 4526SOL    HW114477   1.038   6.870   5.604
 4526SOL    HW214478   1.172   6.892   5.514
 4527SOL     OW14479   6.732   0.944   2.563
 4527SOL    HW114480   6.704   0.856   2.600
 4527SOL    HW214481   6.798   0.930   2.489
 4528SOL     OW14482   4.615   1.219   5.426
 4528SOL    HW114483   4.683   1.194   5.357
 4528SOL    HW214484   4.551   1.286   5.386
 4529SOL     OW14485   2.080   0.999   4.041
 4529SOL    HW114486   2.130   0.973   4.124
 4529SOL    HW214487   2.144   1.037   3.974
 4530SOL     OW14488   3.545   5.669   6.383
 4530SOL    HW114489   3.541   5.759   6.428
 4530SOL    HW214490   3.472   5.611   6.419
 4531SOL     OW14491   1.323   5.387   5.752
 4531SOL    HW114492   1.321   5.306   5.811
 4531SOL    HW214493   1.314   5.469   5.809
 4532SOL     OW14494   5.638   0.418   2.749
 4532SOL    HW114495   5.609   0.357   2.824
 4532SOL    HW214496   5.571   0.491   2.739
 4533SOL     OW14497   3.162   0.322   1.440
 4533SOL    HW114498   3.241   0.381   1.460
 4533SOL    HW214499   3.153   0.312   1.341
 4534SOL     OW14500   4.039   0.680   4.132
 4534SOL    HW114501   4.108   0.735   4.084
 4534SOL    HW214502   3.972   0.646   4.067
 4535SOL     OW14503   2.253   0.853   0.956
 4535SOL    HW114504   2.241   0.934   0.899
 4535SOL    HW214505   2.286   0.778   0.901
 4536SOL     OW14506   3.259   0.144   5.524
 4536SOL    HW114507   3.187   0.209   5.498
 4536SOL    HW214508   3.320   0.187   5.591
 4537SOL     OW14509   2.890   3.559   3.577
 4537SOL    HW114510   2.907   3.513   3.665
 4537SOL    HW214511   2.892   3.492   3.503
 4538SOL     OW14512   0.348   2.013   0.921
 4538SOL    HW114513   0.372   2.050   1.011
 4538SOL    HW214514   0.372   1.916   0.917
 4539SOL     OW14515   1.342   5.978   5.479
 4539SOL    HW114516   1.326   6.074   5.504
 4539SOL    HW214517   1.323   5.965   5.382
 4540SOL     OW14518   1.069   1.354   0.370
 4540SOL    HW114519   1.086   1.438   0.319
 4540SOL    HW214520   1.098   1.275   0.315
 4541SOL     OW14521   4.368   2.747   5.767
 4541SOL    HW114522   4.336   2.747   5.673
 4541SOL    HW214523   4.427   2.668   5.783
 4542SOL     OW14524   6.997   2.020   0.215
 4542SOL    HW114525   6.997   2.066   0.126
 4542SOL    HW214526   0.054   1.957   0.219
 4543SOL     OW14527   3.697   2.482   0.274
 4543SOL    HW114528   3.608   2.526   0.270
 4543SOL    HW214529   3.751   2.522   0.348
 4544SOL     OW14530   5.466   6.689   0.429
 4544SOL    HW114531   5.413   6.656   0.507
 4544SOL    HW214532   5.563   6.694   0.454
 4545SOL     OW14533   2.106   2.868   5.017
 4545SOL    HW114534   2.074   2.792   4.961
 4545SOL    HW214535   2.205   2.875   5.011
 4546SOL     OW14536   3.005   0.841   5.532
 4546SOL    HW114537   2.938   0.886   5.591
 4546SOL    HW214538   3.091   0.892   5.534
 4547SOL     OW14539   0.073   0.159   0.014
 4547SOL    HW114540   0.113   0.068   0.028
 4547SOL    HW214541   7.006   0.163   0.061
 4548SOL     OW14542   2.571   1.694   2.910
 4548SOL    HW114543   2.523   1.624   2.964
 4548SOL    HW214544   2.631   1.650   2.844
 4549SOL     OW14545   0.212   3.597   4.368
 4549SOL    HW114546   0.178   3.532   4.435
 4549SOL    HW214547   0.201   3.559   4.276
 4550SOL     OW14548   1.792   4.905   3.604
 4550SOL    HW114549   1.730   4.860   3.539
 4550SOL    HW214550   1.763   4.885   3.697
 4551SOL     OW14551   1.823   2.616   5.172
 4551SOL    HW114552   1.759   2.661   5.234
 4551SOL    HW214553   1.897   2.574   5.225
 4552SOL     OW14554   5.581   1.443   0.623
 4552SOL    HW114555   5.535   1.375   0.565
 4552SOL    HW214556   5.657   1.484   0.572
 4553SOL     OW14557   6.968   5.308   6.668
 4553SOL    HW114558   6.891   5.354   6.714
 4553SOL    HW214559   0.004   5.376   6.623
 4554SOL     OW14560   6.166   6.677   2.952
 4554SOL    HW114561   6.110   6.697   2.871
 4554SOL    HW214562   6.165   6.757   3.013
 4555SOL     OW14563   1.843   1.013   0.962
 4555SOL    HW114564   1.853   1.024   0.863
 4555SOL    HW214565   1.747   1.025   0.987
 4556SOL     OW14566   5.834   4.479   4.724
 4556SOL    HW114567   5.827   4.497   4.626
 4556SOL    HW214568   5.793   4.555   4.775
 4557SOL     OW14569   6.920   4.687   3.988
 4557SOL    HW114570   6.980   4.765   3.971
 4557SOL    HW214571   6.825   4.716   3.981
 4558SOL     OW14572   1.172   3.934   4.593
 4558SOL    HW114573   1.239   3.978   4.652
 4558SOL    HW214574   1.080   3.965   4.617
 4559SOL     OW14575   6.813   2.926   3.610
 4559SOL    HW114576   6.836   2.972   3.696
 4559SOL    HW214577   6.789   2.994   3.541
 4560SOL     OW14578   6.060   4.113   2.460
 4560SOL    HW114579   6.008   4.153   2.535
 4560SOL    HW214580   6.113   4.184   2.414
 4561SOL     OW14581   3.851   2.146   3.740
 4561SOL    HW114582   3.936   2.180   3.780
 4561SOL    HW214583   3.788   2.119   3.813
 4562SOL     OW14584   3.713   1.236   1.336
 4562SOL    HW114585   3.648   1.247   1.260
 4562SOL    HW214586   3.711   1.141   1.368
 4563SOL     OW14587   1.038   4.602   2.579
 4563SOL    HW114588   1.102   4.535   2.541
 4563SOL    HW214589   0.946   4.563   2.578
 4564SOL     OW14590   1.660   3.458   2.007
 4564SOL    HW114591   1.733   3.522   1.984
 4564SOL    HW214592   1.572   3.497   1.981
 4565SOL     OW14593   1.843   5.927   5.951
 4565SOL    HW114594   1.809   5.928   6.044
 4565SOL    HW214595   1.868   6.020   5.923
 4566SOL     OW14596   6.309   4.814   3.087
 4566SOL    HW114597   6.388   4.817   3.025
 4566SOL    HW214598   6.237   4.758   3.046
 4567SOL     OW14599   0.004   0.417   0.036
 4567SOL    HW114600   7.003   0.425   0.133
 4567SOL    HW214601   0.021   0.321   0.013
 4568SOL     OW14602   1.673   4.807   2.759
 4568SOL    HW114603   1.708   4.885   2.810
 4568SOL    HW214604   1.739   4.779   2.689
 4569SOL     OW14605   2.309   0.754   3.285
 4569SOL    HW114606   2.317   0.825   3.215
 4569SOL    HW214607   2.299   0.665   3.240
 4570SOL     OW14608   5.163   6.098   1.761
 4570SOL    HW114609   5.206   6.095   1.671
 4570SOL    HW214610   5.074   6.144   1.754
 4571SOL     OW14611   2.715   3.095   6.575
 4571SOL    HW114612   2.656   3.147   6.635
 4571SOL    HW214613   2.797   3.148   6.554
 4572SOL     OW14614   2.872   3.330   2.017
 4572SOL    HW114615   2.789   3.277   1.999
 4572SOL    HW214616   2.947   3.297   1.960
 4573SOL     OW14617   3.140   5.807   1.222
 4573SOL    HW114618   3.125   5.837   1.316
 4573SOL    HW214619   3.188   5.880   1.172
 4574SOL     OW14620   4.940   1.134   1.366
 4574SOL    HW114621   5.033   1.098   1.370
 4574SOL    HW214622   4.907   1.128   1.272
 4575SOL     OW14623   0.370   0.117   5.715
 4575SOL    HW114624   0.454   0.133   5.663
 4575SOL    HW214625   0.334   0.205   5.747
 4576SOL     OW14626   2.679   4.806   5.531
 4576SOL    HW114627   2.724   4.886   5.571
 4576SOL    HW214628   2.732   4.774   5.453
 4577SOL     OW14629   0.788   1.912   2.308
 4577SOL    HW114630   0.740   1.935   2.393
 4577SOL    HW214631   0.801   1.994   2.254
 4578SOL     OW14632   1.785   1.892   2.123
 4578SOL    HW114633   1.797   1.971   2.063
 4578SOL    HW214634   1.866   1.881   2.180
 4579SOL     OW14635   5.120   0.446   3.446
 4579SOL    HW114636   5.147   0.511   3.517
 4579SOL    HW214637   5.105   0.356   3.487
 4580SOL     OW14638   0.218   2.171   0.744
 4580SOL    HW114639   0.267   2.112   0.808
 4580SOL    HW214640   0.262   2.261   0.742
 4581SOL     OW14641   3.300   0.822   0.856
 4581SOL    HW114642   3.311   0.734   0.902
 4581SOL    HW214643   3.215   0.822   0.804
 4582SOL     OW14644   5.781   1.471   3.855
 4582SOL    HW114645   5.804   1.565   3.833
 4582SOL    HW214646   5.685   1.453   3.832
 4583SOL     OW14647   1.572   0.405   0.109
 4583SOL    HW114648   1.531   0.334   0.167
 4583SOL    HW214649   1.671   0.396   0.111
 4584SOL     OW14650   0.940   0.981   4.434
 4584SOL    HW114651   1.018   1.039   4.412
 4584SOL    HW214652   0.858   1.016   4.389
 4585SOL     OW14653   2.044   3.323   3.743
 4585SOL    HW114654   1.953   3.315   3.784
 4585SOL    HW214655   2.107   3.261   3.789
 4586SOL     OW14656   5.775   4.988   6.800
 4586SOL    HW114657   5.729   4.925   6.863
 4586SOL    HW214658   5.796   4.940   6.715
 4587SOL     OW14659   3.162   2.990   5.088
 4587SOL    HW114660   3.235   3.059   5.088
 4587SOL    HW214661   3.126   2.980   4.995
 4588SOL     OW14662   3.225   3.553   6.166
 4588SOL    HW114663   3.216   3.481   6.235
 4588SOL    HW214664   3.232   3.642   6.211
 4589SOL     OW14665   6.199   6.427   2.096
 4589SOL    HW114666   6.245   6.348   2.056
 4589SOL    HW214667   6.100   6.420   2.080
 4590SOL     OW14668   3.064   5.035   0.627
 4590SOL    HW114669   2.997   5.049   0.553
 4590SOL    HW214670   3.069   5.117   0.683
 4591SOL     OW14671   1.867   0.181   5.187
 4591SOL    HW114672   1.826   0.090   5.200
 4591SOL    HW214673   1.918   0.182   5.101
 4592SOL     OW14674   1.542   1.781   3.573
 4592SOL    HW114675   1.454   1.819   3.545
 4592SOL    HW214676   1.615   1.847   3.554
 4593SOL     OW14677   1.615   5.701   4.659
 4593SOL    HW114678   1.631   5.731   4.565
 4593SOL    HW214679   1.563   5.616   4.659
 4594SOL     OW14680   1.483   6.908   3.937
 4594SOL    HW114681   1.509   6.894   3.841
 4594SOL    HW214682   1.563   6.892   3.995
 4595SOL     OW14683   5.560   1.721   6.122
 4595SOL    HW114684   5.582   1.782   6.198
 4595SOL    HW214685   5.479   1.667   6.145
 4596SOL     OW14686   6.426   0.606   2.223
 4596SOL    HW114687   6.465   0.688   2.180
 4596SOL    HW214688   6.438   0.612   2.322
 4597SOL     OW14689   3.288   6.342   0.196
 4597SOL    HW114690   3.215   6.366   0.260
 4597SOL    HW214691   3.258   6.360   0.103
 4598SOL     OW14692   1.632   4.475   0.347
 4598SOL    HW114693   1.578   4.511   0.270
 4598SOL    HW214694   1.691   4.548   0.382
 4599SOL     OW14695   2.337   5.712   1.634
 4599SOL    HW114696   2.345   5.635   1.570
 4599SOL    HW214697   2.299   5.680   1.720
 4600SOL     OW14698   0.629   6.462   6.028
 4600SOL    HW114699   0.668   6.422   6.111
 4600SOL    HW214700   0.625   6.561   6.037
 4601SOL     OW14701   1.706   0.812   5.266
 4601SOL    HW114702   1.670   0.826   5.358
 4601SOL    HW214703   1.798   0.774   5.272
 4602SOL     OW14704   3.128   2.242   6.074
 4602SOL    HW114705   3.126   2.342   6.082
 4602SOL    HW214706   3.122   2.201   6.165
 4603SOL     OW14707   4.714   0.055   0.723
 4603SOL    HW114708   4.750   0.148   0.724
 4603SOL    HW214709   4.640   0.046   0.789
 4604SOL     OW14710   6.225   6.840   5.119
 4604SOL    HW114711   6.259   6.772   5.054
 4604SOL    HW214712   6.192   6.920   5.070
 4605SOL     OW14713   3.905   0.553   1.501
 4605SOL    HW114714   3.936   0.647   1.512
 4605SOL    HW214715   3.819   0.540   1.551
 4606SOL     OW14716   6.840   6.438   5.098
 4606SOL    HW114717   6.894   6.448   5.014
 4606SOL    HW214718   6.743   6.440   5.075
 4607SOL     OW14719   2.374   2.361   0.672
 4607SOL    HW114720   2.277   2.386   0.667
 4607SOL    HW214721   2.393   2.290   0.605
 4608SOL     OW14722   6.712   2.788   4.700
 4608SOL    HW114723   6.631   2.761   4.648
 4608SOL    HW214724   6.691   2.785   4.797
 4609SOL     OW14725   4.785   6.033   6.362
 4609SOL    HW114726   4.714   5.967   6.385
 4609SOL    HW214727   4.758   6.124   6.396
 4610SOL     OW14728   5.386   4.018   6.821
 4610SOL    HW114729   5.403   3.957   6.898
 4610SOL    HW214730   5.390   3.966   6.736
 4611SOL     OW14731   1.097   0.668   6.380
 4611SOL    HW114732   1.159   0.672   6.459
 4611SOL    HW214733   1.079   0.572   6.358
 4612SOL     OW14734   1.943   1.782   1.594
 4612SOL    HW114735   2.018   1.848   1.589
 4612SOL    HW214736   1.856   1.829   1.576
 4613SOL     OW14737   1.628   4.362   1.562
 4613SOL    HW114738   1.535   4.380   1.591
 4613SOL    HW214739   1.685   4.340   1.641
 4614SOL     OW14740   6.411   4.097   4.767
 4614SOL    HW114741   6.463   4.060   4.843
 4614SOL    HW214742   6.464   4.089   4.683
 4615SOL     OW14743   1.084   3.553   6.443
 4615SOL    HW114744   0.993   3.511   6.436
 4615SOL    HW214745   1.144   3.492   6.495
 4616SOL     OW14746   6.777   2.455   5.840
 4616SOL    HW114747   6.870   2.419   5.852
 4616SOL    HW214748   6.783   2.552   5.817
 4617SOL     OW14749   6.702   2.686   3.232
 4617SOL    HW114750   6.776   2.744   3.198
 4617SOL    HW214751   6.732   2.641   3.316
 4618SOL     OW14752   1.954   4.053   5.909
 4618SOL    HW114753   1.942   4.143   5.868
 4618SOL    HW214754   1.985   3.988   5.839
 4619SOL     OW14755   5.000   6.077   6.230
 4619SOL    HW114756   4.920   6.057   6.287
 4619SOL    HW214757   4.972   6.088   6.135
 4620SOL     OW14758   1.004   4.883   2.544
 4620SOL    HW114759   1.028   4.790   2.516
 4620SOL    HW214760   1.010   4.945   2.466
 4621SOL     OW14761   3.629   6.742   2.688
 4621SOL    HW114762   3.654   6.739   2.785
 4621SOL    HW214763   3.687   6.679   2.637
 4622SOL     OW14764   5.440   5.947   1.247
 4622SOL    HW114765   5.502   6.025   1.244
 4622SOL    HW214766   5.471   5.882   1.317
 4623SOL     OW14767   2.648   4.616   0.982
 4623SOL    HW114768   2.684   4.529   1.018
 4623SOL    HW214769   2.600   4.600   0.896
 4624SOL     OW14770   4.334   1.173   1.985
 4624SOL    HW114771   4.287   1.104   2.041
 4624SOL    HW214772   4.418   1.202   2.032
 4625SOL     OW14773   2.265   6.187   1.441
 4625SOL    HW114774   2.364   6.194   1.440
 4625SOL    HW214775   2.224   6.278   1.430
 4626SOL     OW14776   4.441   3.749   1.639
 4626SOL    HW114777   4.469   3.831   1.689
 4626SOL    HW214778   4.516   3.683   1.640
 4627SOL     OW14779   5.866   0.305   4.874
 4627SOL    HW114780   5.934   0.253   4.821
 4627SOL    HW214781   5.784   0.250   4.884
 4628SOL     OW14782   5.326   5.168   4.285
 4628SOL    HW114783   5.287   5.215   4.364
 4628SOL    HW214784   5.286   5.076   4.278
 4629SOL     OW14785   2.201   5.973   6.766
 4629SOL    HW114786   2.127   5.942   6.707
 4629SOL    HW214787   2.207   6.073   6.763
 4630SOL     OW14788   2.051   3.121   2.149
 4630SOL    HW114789   2.046   3.218   2.173
 4630SOL    HW214790   2.134   3.081   2.187
 4631SOL     OW14791   6.945   0.490   3.021
 4631SOL    HW114792   0.014   0.457   3.046
 4631SOL    HW214793   6.881   0.470   3.094
 4632SOL     OW14794   3.249   4.933   2.705
 4632SOL    HW114795   3.163   4.900   2.743
 4632SOL    HW214796   3.238   4.948   2.606
 4633SOL     OW14797   4.480   0.801   5.016
 4633SOL    HW114798   4.482   0.885   5.069
 4633SOL    HW214799   4.491   0.822   4.919
 4634SOL     OW14800   3.015   3.991   5.039
 4634SOL    HW114801   2.951   3.927   5.081
 4634SOL    HW214802   3.010   4.080   5.085
 4635SOL     OW14803   4.557   6.783   1.798
 4635SOL    HW114804   4.595   6.753   1.885
 4635SOL    HW214805   4.615   6.752   1.723
 4636SOL     OW14806   1.888   5.039   0.509
 4636SOL    HW114807   1.858   4.945   0.495
 4636SOL    HW214808   1.986   5.046   0.489
 4637SOL     OW14809   2.911   1.620   2.973
 4637SOL    HW114810   2.894   1.614   2.874
 4637SOL    HW214811   3.009   1.610   2.990
 4638SOL     OW14812   3.965   4.912   0.393
 4638SOL    HW114813   3.945   4.980   0.463
 4638SOL    HW214814   4.052   4.934   0.348
 4639SOL     OW14815   3.563   2.386   1.493
 4639SOL    HW114816   3.653   2.419   1.522
 4639SOL    HW214817   3.512   2.356   1.574
 4640SOL     OW14818   6.807   2.742   6.866
 4640SOL    HW114819   6.726   2.687   6.886
 4640SOL    HW214820   6.870   2.690   6.808
 4641SOL     OW14821   0.637   5.808   4.300
 4641SOL    HW114822   0.702   5.759   4.358
 4641SOL    HW214823   0.545   5.768   4.312
 4642SOL     OW14824   6.889   0.977   3.673
 4642SOL    HW114825   6.940   0.996   3.757
 4642SOL    HW214826   6.911   0.884   3.642
 4643SOL     OW14827   0.504   2.063   0.251
 4643SOL    HW114828   0.468   2.092   0.162
 4643SOL    HW214829   0.545   1.972   0.242
 4644SOL     OW14830   1.573   1.230   0.317
 4644SOL    HW114831   1.602   1.325   0.328
 4644SOL    HW214832   1.633   1.184   0.251
 4645SOL     OW14833   0.797   1.778   4.355
 4645SOL    HW114834   0.767   1.688   4.387
 4645SOL    HW214835   0.800   1.779   4.255
 4646SOL     OW14836   2.067   4.835   4.157
 4646SOL    HW114837   2.010   4.755   4.140
 4646SOL    HW214838   2.078   4.848   4.256
 4647SOL     OW14839   1.313   6.417   1.847
 4647SOL    HW114840   1.287   6.513   1.844
 4647SOL    HW214841   1.411   6.409   1.862
 4648SOL     OW14842   3.053   1.608   4.525
 4648SOL    HW114843   3.119   1.564   4.465
 4648SOL    HW214844   3.080   1.594   4.620
 4649SOL     OW14845   6.697   1.369   6.622
 4649SOL    HW114846   6.662   1.319   6.543
 4649SOL    HW214847   6.720   1.463   6.595
 4650SOL     OW14848   5.146   5.869   1.224
 4650SOL    HW114849   5.242   5.899   1.223
 4650SOL    HW214850   5.120   5.845   1.317
 4651SOL     OW14851   6.850   3.129   6.412
 4651SOL    HW114852   6.911   3.057   6.380
 4651SOL    HW214853   6.783   3.091   6.476
 4652SOL     OW14854   0.386   6.349   5.180
 4652SOL    HW114855   0.485   6.346   5.168
 4652SOL    HW214856   0.346   6.413   5.114
 4653SOL     OW14857   5.975   5.384   0.328
 4653SOL    HW114858   6.041   5.424   0.392
 4653SOL    HW214859   6.015   5.380   0.236
 4654SOL     OW14860   1.076   0.247   5.567
 4654SOL    HW114861   1.058   0.314   5.495
 4654SOL    HW214862   0.996   0.189   5.579
 4655SOL     OW14863   5.187   2.971   1.157
 4655SOL    HW114864   5.234   2.939   1.240
 4655SOL    HW214865   5.154   3.064   1.172
 4656SOL     OW14866   0.264   1.419   1.552
 4656SOL    HW114867   0.345   1.394   1.499
 4656SOL    HW214868   0.292   1.477   1.629
 4657SOL     OW14869   4.563   0.402   2.500
 4657SOL    HW114870   4.488   0.468   2.500
 4657SOL    HW214871   4.632   0.430   2.433
 4658SOL     OW14872   1.350   2.717   5.739
 4658SOL    HW114873   1.406   2.778   5.683
 4658SOL    HW214874   1.282   2.672   5.681
 4659SOL     OW14875   1.808   4.396   0.056
 4659SOL    HW114876   1.737   4.329   0.032
 4659SOL    HW214877   1.822   4.458   7.000
 4660SOL     OW14878   1.021   6.378   3.507
 4660SOL    HW114879   1.042   6.325   3.425
 4660SOL    HW214880   1.079   6.460   3.510
 4661SOL     OW14881   1.001   2.023   5.439
 4661SOL    HW114882   1.096   2.004   5.412
 4661SOL    HW214883   0.940   1.958   5.395
 4662SOL     OW14884   2.339   0.036   5.660
 4662SOL    HW114885   2.244   0.061   5.639
 4662SOL    HW214886   2.399   0.069   5.588
 4663SOL     OW14887   1.812   0.304   0.292
 4663SOL    HW114888   1.797   0.210   0.322
 4663SOL    HW214889   1.762   0.367   0.352
 4664SOL     OW14890   6.699   6.699   6.986
 4664SOL    HW114891   6.618   6.680   6.931
 4664SOL    HW214892   6.735   6.789   6.962
 4665SOL     OW14893   1.866   0.486   3.935
 4665SOL    HW114894   1.813   0.433   4.002
 4665SOL    HW214895   1.964   0.478   3.957
 4666SOL     OW14896   2.454   1.952   5.026
 4666SOL    HW114897   2.415   1.951   5.118
 4666SOL    HW214898   2.530   2.016   5.023
 4667SOL     OW14899   6.911   3.447   1.273
 4667SOL    HW114900   7.002   3.486   1.289
 4667SOL    HW214901   6.855   3.461   1.355
 4668SOL     OW14902   4.269   1.662   3.752
 4668SOL    HW114903   4.367   1.648   3.737
 4668SOL    HW214904   4.256   1.749   3.801
 4669SOL     OW14905   5.849   0.293   6.455
 4669SOL    HW114906   5.826   0.390   6.465
 4669SOL    HW214907   5.863   0.272   6.358
 4670SOL     OW14908   0.598   2.604   0.449
 4670SOL    HW114909   0.604   2.703   0.466
 4670SOL    HW214910   0.683   2.573   0.407
 4671SOL     OW14911   0.705   3.554   0.772
 4671SOL    HW114912   0.614   3.515   0.761
 4671SOL    HW214913   0.724   3.616   0.696
 4672SOL     OW14914   2.453   3.956   6.345
 4672SOL    HW114915   2.520   3.957   6.420
 4672SOL    HW214916   2.362   3.939   6.382
 4673SOL     OW14917   5.844   0.923   0.142
 4673SOL    HW114918   5.821   0.871   0.059
 4673SOL    HW214919   5.933   0.967   0.130
 4674SOL     OW14920   0.951   2.386   1.686
 4674SOL    HW114921   0.870   2.330   1.670
 4674SOL    HW214922   0.981   2.427   1.600
 4675SOL     OW14923   2.284   6.216   0.046
 4675SOL    HW114924   2.239   6.126   0.045
 4675SOL    HW214925   2.324   6.234   6.978
 4676SOL     OW14926   0.358   6.235   4.250
 4676SOL    HW114927   0.311   6.323   4.238
 4676SOL    HW214928   0.405   6.211   4.164
 4677SOL     OW14929   4.361   6.645   6.818
 4677SOL    HW114930   4.363   6.545   6.821
 4677SOL    HW214931   4.271   6.677   6.849
 4678SOL     OW14932   1.928   4.560   6.308
 4678SOL    HW114933   1.962   4.516   6.391
 4678SOL    HW214934   1.832   4.584   6.320
 4679SOL     OW14935   3.030   6.925   5.815
 4679SOL    HW114936   3.113   6.969   5.781
 4679SOL    HW214937   3.030   6.828   5.790
 4680SOL     OW14938   2.079   4.455   0.793
 4680SOL    HW114939   2.025   4.500   0.864
 4680SOL    HW214940   2.032   4.463   0.705
 4681SOL     OW14941   0.191   5.675   5.094
 4681SOL    HW114942   0.091   5.684   5.092
 4681SOL    HW214943   0.232   5.739   5.029
 4682SOL     OW14944   4.469   6.505   0.432
 4682SOL    HW114945   4.374   6.534   0.421
 4682SOL    HW214946   4.476   6.444   0.511
 4683SOL     OW14947   0.083   4.194   3.433
 4683SOL    HW114948   0.007   4.220   3.493
 4683SOL    HW214949   0.057   4.207   3.338
 4684SOL     OW14950   1.549   0.670   4.416
 4684SOL    HW114951   1.454   0.640   4.424
 4684SOL    HW214952   1.555   0.747   4.353
 4685SOL     OW14953   4.793   4.665   5.051
 4685SOL    HW114954   4.720   4.612   5.009
 4685SOL    HW214955   4.852   4.604   5.104
 4686SOL     OW14956   4.271   5.586   0.078
 4686SOL    HW114957   4.318   5.504   0.045
 4686SOL    HW214958   4.339   5.653   0.109
 4687SOL     OW14959   5.399   6.222   4.728
 4687SOL    HW114960   5.333   6.254   4.795
 4687SOL    HW214961   5.386   6.272   4.642
 4688SOL     OW14962   0.508   1.778   6.827
 4688SOL    HW114963   0.420   1.749   6.788
 4688SOL    HW214964   0.582   1.730   6.781
 4689SOL     OW14965   1.468   5.229   5.560
 4689SOL    HW114966   1.425   5.312   5.596
 4689SOL    HW214967   1.567   5.237   5.567
 4690SOL     OW14968   1.547   2.784   0.658
 4690SOL    HW114969   1.584   2.826   0.575
 4690SOL    HW214970   1.611   2.797   0.733
 4691SOL     OW14971   3.895   4.456   0.542
 4691SOL    HW114972   3.881   4.524   0.470
 4691SOL    HW214973   3.926   4.503   0.625
 4692SOL     OW14974   0.076   5.598   3.241
 4692SOL    HW114975   0.051   5.567   3.333
 4692SOL    HW214976   0.014   5.556   3.174
 4693SOL     OW14977   0.409   1.012   3.549
 4693SOL    HW114978   0.473   1.089   3.553
 4693SOL    HW214979   0.457   0.930   3.519
 4694SOL     OW14980   1.921   1.570   6.576
 4694SOL    HW114981   1.841   1.524   6.616
 4694SOL    HW214982   1.896   1.664   6.553
 4695SOL     OW14983   3.429   2.928   1.615
 4695SOL    HW114984   3.411   2.925   1.517
 4695SOL    HW214985   3.527   2.937   1.632
 4696SOL     OW14986   6.345   3.239   0.013
 4696SOL    HW114987   6.380   3.158   0.059
 4696SOL    HW214988   6.378   3.321   0.060
 4697SOL     OW14989   0.766   4.996   0.067
 4697SOL    HW114990   0.793   4.910   0.025
 4697SOL    HW214991   0.777   4.990   0.166
 4698SOL     OW14992   5.828   3.138   1.097
 4698SOL    HW114993   5.839   3.231   1.133
 4698SOL    HW214994   5.768   3.140   1.018
 4699SOL     OW14995   6.463   0.289   3.482
 4699SOL    HW114996   6.535   0.220   3.486
 4699SOL    HW214997   6.418   0.296   3.571
 4700SOL     OW14998   5.540   0.313   1.315
 4700SOL    HW114999   5.517   0.392   1.373
 4700SOL    HW215000   5.590   0.345   1.234
 4701SOL     OW15001   1.514   1.209   0.862
 4701SOL    HW115002   1.545   1.165   0.778
 4701SOL    HW215003   1.416   1.228   0.855
 4702SOL     OW15004   3.364   4.128   6.915
 4702SOL    HW115005   3.335   4.042   6.872
 4702SOL    HW215006   3.335   4.130   7.010
 4703SOL     OW15007   1.828   1.064   2.027
 4703SOL    HW115008   1.825   1.158   1.991
 4703SOL    HW215009   1.757   1.052   2.096
 4704SOL     OW15010   5.012   0.006   0.233
 4704SOL    HW115011   4.994   0.097   0.271
 4704SOL    HW215012   5.018   6.961   0.308
 4705SOL     OW15013   3.522   3.854   4.291
 4705SOL    HW115014   3.425   3.861   4.268
 4705SOL    HW215015   3.557   3.945   4.316
 4706SOL     OW15016   4.360   5.001   1.152
 4706SOL    HW115017   4.360   4.915   1.101
 4706SOL    HW215018   4.268   5.018   1.189
 4707SOL     OW15019   3.556   6.294   0.696
 4707SOL    HW115020   3.508   6.254   0.774
 4707SOL    HW215021   3.516   6.258   0.611
 4708SOL     OW15022   2.364   2.249   2.319
 4708SOL    HW115023   2.421   2.316   2.367
 4708SOL    HW215024   2.422   2.193   2.259
 4709SOL     OW15025   4.158   3.962   6.159
 4709SOL    HW115026   4.078   4.021   6.171
 4709SOL    HW215027   4.141   3.873   6.200
 4710SOL     OW15028   5.088   1.836   0.971
 4710SOL    HW115029   5.092   1.761   0.905
 4710SOL    HW215030   5.076   1.800   1.063
 4711SOL     OW15031   2.857   0.215   2.690
 4711SOL    HW115032   2.916   0.164   2.627
 4711SOL    HW215033   2.859   0.171   2.780
 4712SOL     OW15034   1.381   4.731   0.171
 4712SOL    HW115035   1.374   4.779   0.258
 4712SOL    HW215036   1.387   4.632   0.187
 4713SOL     OW15037   2.362   5.555   0.503
 4713SOL    HW115038   2.461   5.547   0.513
 4713SOL    HW215039   2.317   5.508   0.580
 4714SOL     OW15040   4.034   2.323   0.796
 4714SOL    HW115041   4.091   2.329   0.878
 4714SOL    HW215042   4.017   2.414   0.760
 4715SOL     OW15043   6.255   4.047   3.968
 4715SOL    HW115044   6.212   3.965   4.006
 4715SOL    HW215045   6.309   4.023   3.887
 4716SOL     OW15046   3.342   6.070   0.153
 4716SOL    HW115047   3.312   6.028   0.239
 4716SOL    HW215048   3.339   6.169   0.161
 4717SOL     OW15049   1.058   5.853   3.948
 4717SOL    HW115050   1.011   5.770   3.977
 4717SOL    HW215051   1.155   5.834   3.933
 4718SOL     OW15052   6.125   1.048   6.351
 4718SOL    HW115053   6.054   1.021   6.415
 4718SOL    HW215054   6.101   1.019   6.259
 4719SOL     OW15055   4.721   3.211   1.160
 4719SOL    HW115056   4.640   3.264   1.186
 4719SOL    HW215057   4.785   3.270   1.111
 4720SOL     OW15058   2.859   0.951   4.092
 4720SOL    HW115059   2.817   0.921   4.178
 4720SOL    HW215060   2.946   0.997   4.112
 4721SOL     OW15061   1.565   2.298   1.220
 4721SOL    HW115062   1.614   2.373   1.264
 4721SOL    HW215063   1.609   2.211   1.241
 4722SOL     OW15064   2.407   0.140   1.058
 4722SOL    HW115065   2.506   0.125   1.055
 4722SOL    HW215066   2.372   0.151   0.965
 4723SOL     OW15067   3.068   0.316   6.755
 4723SOL    HW115068   3.146   0.360   6.712
 4723SOL    HW215069   3.072   0.330   6.854
 4724SOL     OW15070   4.317   5.068   1.553
 4724SOL    HW115071   4.336   4.970   1.545
 4724SOL    HW215072   4.230   5.081   1.599
 4725SOL     OW15073   6.320   6.112   3.853
 4725SOL    HW115074   6.336   6.123   3.755
 4725SOL    HW215075   6.396   6.060   3.893
 4726SOL     OW15076   0.473   5.843   6.632
 4726SOL    HW115077   0.425   5.762   6.665
 4726SOL    HW215078   0.428   5.925   6.667
 4727SOL     OW15079   0.367   6.432   0.082
 4727SOL    HW115080   0.365   6.484   0.167
 4727SOL    HW215081   0.449   6.457   0.029
 4728SOL     OW15082   0.448   1.510   0.315
 4728SOL    HW115083   0.433   1.601   0.352
 4728SOL    HW215084   0.543   1.501   0.286
 4729SOL     OW15085   3.877   0.424   1.250
 4729SOL    HW115086   3.886   0.471   1.338
 4729SOL    HW215087   3.780   0.413   1.228
 4730SOL     OW15088   1.540   0.286   5.601
 4730SOL    HW115089   1.537   0.226   5.521
 4730SOL    HW215090   1.514   0.236   5.682
 4731SOL     OW15091   5.439   1.540   5.729
 4731SOL    HW115092   5.539   1.541   5.732
 4731SOL    HW215093   5.406   1.446   5.731
 4732SOL     OW15094   0.205   2.220   0.454
 4732SOL    HW115095   0.236   2.204   0.548
 4732SOL    HW215096   0.283   2.215   0.392
 4733SOL     OW15097   6.699   3.020   4.136
 4733SOL    HW115098   6.789   3.002   4.174
 4733SOL    HW215099   6.672   3.114   4.156
 4734SOL     OW15100   3.972   4.478   6.209
 4734SOL    HW115101   4.020   4.529   6.280
 4734SOL    HW215102   3.947   4.541   6.135
 4735SOL     OW15103   0.417   5.226   3.506
 4735SOL    HW115104   0.445   5.142   3.552
 4735SOL    HW215105   0.450   5.225   3.411
 4736SOL     OW15106   1.623   1.188   1.337
 4736SOL    HW115107   1.651   1.283   1.328
 4736SOL    HW215108   1.689   1.138   1.393
 4737SOL     OW15109   2.964   5.444   1.254
 4737SOL    HW115110   2.873   5.485   1.256
 4737SOL    HW215111   2.955   5.345   1.265
 4738SOL     OW15112   6.695   6.465   2.718
 4738SOL    HW115113   6.655   6.557   2.721
 4738SOL    HW215114   6.707   6.437   2.622
 4739SOL     OW15115   4.621   0.658   1.131
 4739SOL    HW115116   4.629   0.702   1.220
 4739SOL    HW215117   4.525   0.638   1.112
 4740SOL     OW15118   0.584   2.459   3.538
 4740SOL    HW115119   0.595   2.378   3.596
 4740SOL    HW215120   0.633   2.536   3.579
 4741SOL     OW15121   3.567   4.073   1.163
 4741SOL    HW115122   3.627   4.028   1.229
 4741SOL    HW215123   3.617   4.087   1.077
 4742SOL     OW15124   3.472   0.256   0.384
 4742SOL    HW115125   3.514   0.173   0.348
 4742SOL    HW215126   3.516   0.336   0.343
 4743SOL     OW15127   1.383   4.814   1.234
 4743SOL    HW115128   1.482   4.817   1.247
 4743SOL    HW215129   1.338   4.809   1.323
 4744SOL     OW15130   2.533   5.510   0.791
 4744SOL    HW115131   2.599   5.527   0.864
 4744SOL    HW215132   2.483   5.425   0.810
 4745SOL     OW15133   1.058   4.471   7.014
 4745SOL    HW115134   1.112   4.437   6.937
 4745SOL    HW215135   1.084   4.565   0.013
 4746SOL     OW15136   4.535   5.728   4.281
 4746SOL    HW115137   4.580   5.767   4.200
 4746SOL    HW215138   4.538   5.794   4.356
 4747SOL     OW15139   1.411   1.894   0.189
 4747SOL    HW115140   1.472   1.973   0.203
 4747SOL    HW215141   1.413   1.866   0.093
 4748SOL     OW15142   2.090   6.623   2.396
 4748SOL    HW115143   2.024   6.645   2.469
 4748SOL    HW215144   2.078   6.688   2.321
 4749SOL     OW15145   2.660   1.627   6.578
 4749SOL    HW115146   2.579   1.602   6.632
 4749SOL    HW215147   2.734   1.652   6.640
 4750SOL     OW15148   4.925   2.717   5.841
 4750SOL    HW115149   5.008   2.725   5.896
 4750SOL    HW215150   4.936   2.771   5.757
 4751SOL     OW15151   3.783   0.613   3.380
 4751SOL    HW115152   3.765   0.515   3.370
 4751SOL    HW215153   3.765   0.658   3.293
 4752SOL     OW15154   4.792   2.206   6.344
 4752SOL    HW115155   4.725   2.195   6.270
 4752SOL    HW215156   4.875   2.155   6.322
 4753SOL     OW15157   3.574   6.568   5.922
 4753SOL    HW115158   3.507   6.503   5.958
 4753SOL    HW215159   3.656   6.518   5.893
 4754SOL     OW15160   4.637   4.937   6.875
 4754SOL    HW115161   4.697   4.935   6.955
 4754SOL    HW215162   4.592   4.849   6.865
 4755SOL     OW15163   1.038   0.854   1.665
 4755SOL    HW115164   0.988   0.829   1.582
 4755SOL    HW215165   1.050   0.953   1.669
 4756SOL     OW15166   6.401   4.160   5.759
 4756SOL    HW115167   6.389   4.256   5.733
 4756SOL    HW215168   6.474   4.119   5.704
 4757SOL     OW15169   1.752   3.675   0.900
 4757SOL    HW115170   1.702   3.673   0.813
 4757SOL    HW215171   1.832   3.616   0.894
 4758SOL     OW15172   2.485   6.231   3.026
 4758SOL    HW115173   2.489   6.140   2.985
 4758SOL    HW215174   2.576   6.272   3.025
 4759SOL     OW15175   0.650   6.186   1.643
 4759SOL    HW115176   0.691   6.207   1.554
 4759SOL    HW215177   0.598   6.266   1.675
 4760SOL     OW15178   1.315   5.950   1.203
 4760SOL    HW115179   1.379   5.874   1.215
 4760SOL    HW215180   1.356   6.034   1.237
 4761SOL     OW15181   6.425   6.290   1.657
 4761SOL    HW115182   6.513   6.319   1.619
 4761SOL    HW215183   6.428   6.192   1.678
 4762SOL     OW15184   1.348   0.649   2.707
 4762SOL    HW115185   1.301   0.737   2.713
 4762SOL    HW215186   1.375   0.633   2.612
 4763SOL     OW15187   5.391   4.793   1.914
 4763SOL    HW115188   5.314   4.841   1.872
 4763SOL    HW215189   5.361   4.747   1.997
 4764SOL     OW15190   5.021   2.873   0.889
 4764SOL    HW115191   4.940   2.817   0.907
 4764SOL    HW215192   5.065   2.897   0.976
 4765SOL     OW15193   3.686   1.643   5.066
 4765SOL    HW115194   3.606   1.592   5.099
 4765SOL    HW215195   3.724   1.596   4.987
 4766SOL     OW15196   0.726   0.099   4.222
 4766SOL    HW115197   0.626   0.094   4.218
 4766SOL    HW215198   0.753   0.177   4.278
 4767SOL     OW15199   2.293   4.240   3.604
 4767SOL    HW115200   2.374   4.272   3.555
 4767SOL    HW215201   2.234   4.189   3.542
 4768SOL     OW15202   4.438   2.698   6.721
 4768SOL    HW115203   4.340   2.690   6.700
 4768SOL    HW215204   4.486   2.620   6.681
 4769SOL     OW15205   2.630   3.965   0.449
 4769SOL    HW115206   2.631   3.882   0.393
 4769SOL    HW215207   2.570   4.033   0.408
 4770SOL     OW15208   0.735   1.087   4.874
 4770SOL    HW115209   0.636   1.093   4.883
 4770SOL    HW215210   0.766   1.149   4.802
 4771SOL     OW15211   1.314   7.018   4.614
 4771SOL    HW115212   1.320   0.000   4.514
 4771SOL    HW215213   1.382   6.954   4.649
 4772SOL     OW15214   2.925   5.132   2.226
 4772SOL    HW115215   2.928   5.125   2.325
 4772SOL    HW215216   2.999   5.079   2.186
 4773SOL     OW15217   2.004   5.238   4.781
 4773SOL    HW115218   2.077   5.225   4.848
 4773SOL    HW215219   1.974   5.334   4.783
 4774SOL     OW15220   1.381   4.475   0.226
 4774SOL    HW115221   1.409   4.400   0.285
 4774SOL    HW215222   1.328   4.439   0.149
 4775SOL     OW15223   6.171   6.481   5.353
 4775SOL    HW115224   6.262   6.507   5.320
 4775SOL    HW215225   6.169   6.383   5.372
 4776SOL     OW15226   0.015   1.437   6.142
 4776SOL    HW115227   0.015   1.443   6.042
 4776SOL    HW215228   0.025   1.529   6.181
 4777SOL     OW15229   1.247   0.265   2.371
 4777SOL    HW115230   1.316   0.201   2.404
 4777SOL    HW215231   1.184   0.286   2.446
 4778SOL     OW15232   2.095   1.472   0.042
 4778SOL    HW115233   2.077   1.569   0.061
 4778SOL    HW215234   2.017   1.417   0.074
 4779SOL     OW15235   5.512   0.639   4.860
 4779SOL    HW115236   5.536   0.607   4.952
 4779SOL    HW215237   5.585   0.617   4.796
 4780SOL     OW15238   5.154   2.689   5.161
 4780SOL    HW115239   5.162   2.615   5.094
 4780SOL    HW215240   5.075   2.671   5.220
 4781SOL     OW15241   2.408   5.709   1.927
 4781SOL    HW115242   2.490   5.678   1.879
 4781SOL    HW215243   2.393   5.654   2.008
 4782SOL     OW15244   6.421   6.936   4.099
 4782SOL    HW115245   6.474   6.890   4.170
 4782SOL    HW215246   6.465   0.001   4.075
 4783SOL     OW15247   6.813   3.323   6.181
 4783SOL    HW115248   6.727   3.374   6.172
 4783SOL    HW215249   6.827   3.300   6.278
 4784SOL     OW15250   5.468   3.305   6.682
 4784SOL    HW115251   5.520   3.256   6.612
 4784SOL    HW215252   5.391   3.352   6.639
 4785SOL     OW15253   0.070   6.697   4.264
 4785SOL    HW115254   0.002   6.708   4.337
 4785SOL    HW215255   0.150   6.753   4.286
 4786SOL     OW15256   0.744   5.954   0.057
 4786SOL    HW115257   0.751   5.889   7.002
 4786SOL    HW215258   0.835   5.990   0.078
 4787SOL     OW15259   3.454   1.617   3.776
 4787SOL    HW115260   3.394   1.564   3.716
 4787SOL    HW215261   3.436   1.714   3.763
 4788SOL     OW15262   6.496   5.998   0.307
 4788SOL    HW115263   6.400   5.996   0.333
 4788SOL    HW215264   6.553   5.986   0.388
 4789SOL     OW15265   5.711   1.285   2.895
 4789SOL    HW115266   5.704   1.384   2.885
 4789SOL    HW215267   5.805   1.261   2.921
 4790SOL     OW15268   6.714   1.517   4.793
 4790SOL    HW115269   6.672   1.583   4.730
 4790SOL    HW215270   6.648   1.490   4.863
 4791SOL     OW15271   0.228   0.197   0.441
 4791SOL    HW115272   0.144   0.205   0.495
 4791SOL    HW215273   0.223   0.259   0.363
 4792SOL     OW15274   2.065   3.199   2.941
 4792SOL    HW115275   2.015   3.240   2.864
 4792SOL    HW215276   2.010   3.207   3.024
 4793SOL     OW15277   1.081   3.288   5.533
 4793SOL    HW115278   1.122   3.353   5.598
 4793SOL    HW215279   1.137   3.284   5.451
 4794SOL     OW15280   4.504   1.858   4.928
 4794SOL    HW115281   4.525   1.764   4.955
 4794SOL    HW215282   4.563   1.921   4.979
 4795SOL     OW15283   6.983   0.933   6.680
 4795SOL    HW115284   0.056   0.911   6.657
 4795SOL    HW215285   6.972   1.032   6.682
 4796SOL     OW15286   4.431   1.412   5.328
 4796SOL    HW115287   4.485   1.490   5.360
 4796SOL    HW215288   4.364   1.442   5.260
 4797SOL     OW15289   1.632   5.019   5.411
 4797SOL    HW115290   1.557   5.022   5.477
 4797SOL    HW215291   1.596   5.039   5.320
 4798SOL     OW15292   4.116   5.182   0.054
 4798SOL    HW115293   4.187   5.250   0.036
 4798SOL    HW215294   4.082   5.144   6.990
 4799SOL     OW15295   4.589   2.812   6.902
 4799SOL    HW115296   4.538   2.757   6.836
 4799SOL    HW215297   4.561   2.788   6.994
 4800SOL     OW15298   0.411   4.023   0.503
 4800SOL    HW115299   0.386   3.930   0.478
 4800SOL    HW215300   0.378   4.043   0.595
 4801SOL     OW15301   5.441   2.513   2.057
 4801SOL    HW115302   5.461   2.430   2.110
 4801SOL    HW215303   5.477   2.504   1.965
 4802SOL     OW15304   6.465   0.530   4.050
 4802SOL    HW115305   6.558   0.566   4.052
 4802SOL    HW215306   6.399   0.606   4.054
 4803SOL     OW15307   5.317   3.811   5.913
 4803SOL    HW115308   5.378   3.750   5.964
 4803SOL    HW215309   5.368   3.891   5.883
 4804SOL     OW15310   4.692   1.840   0.508
 4804SOL    HW115311   4.740   1.832   0.420
 4804SOL    HW215312   4.679   1.749   0.547
 4805SOL     OW15313   6.672   1.489   7.013
 4805SOL    HW115314   6.692   1.569   6.956
 4805SOL    HW215315   6.696   1.509   0.086
 4806SOL     OW15316   0.770   1.019   3.504
 4806SOL    HW115317   0.831   0.953   3.462
 4806SOL    HW215318   0.726   0.978   3.584
 4807SOL     OW15319   0.362   3.889   5.291
 4807SOL    HW115320   0.279   3.945   5.291
 4807SOL    HW215321   0.377   3.852   5.200
 4808SOL     OW15322   3.734   6.161   1.434
 4808SOL    HW115323   3.786   6.197   1.512
 4808SOL    HW215324   3.672   6.090   1.467
 4809SOL     OW15325   3.288   3.947   1.354
 4809SOL    HW115326   3.296   3.889   1.273
 4809SOL    HW215327   3.376   3.949   1.402
 4810SOL     OW15328   0.580   4.843   4.052
 4810SOL    HW115329   0.641   4.849   3.973
 4810SOL    HW215330   0.602   4.760   4.105
 4811SOL     OW15331   2.963   3.687   4.333
 4811SOL    HW115332   3.028   3.762   4.337
 4811SOL    HW215333   2.901   3.692   4.412
 4812SOL     OW15334   1.080   0.261   2.998
 4812SOL    HW115335   1.161   0.306   2.961
 4812SOL    HW215336   1.007   0.329   3.010
 4813SOL     OW15337   6.832   1.793   5.585
 4813SOL    HW115338   6.876   1.762   5.501
 4813SOL    HW215339   6.782   1.717   5.627
 4814SOL     OW15340   6.180   3.982   1.439
 4814SOL    HW115341   6.244   3.905   1.442
 4814SOL    HW215342   6.090   3.949   1.409
 4815SOL     OW15343   5.455   4.475   1.716
 4815SOL    HW115344   5.458   4.377   1.697
 4815SOL    HW215345   5.542   4.504   1.756
 4816SOL     OW15346   2.729   1.517   2.745
 4816SOL    HW115347   2.768   1.432   2.708
 4816SOL    HW215348   2.755   1.594   2.687
 4817SOL     OW15349   4.198   2.336   0.494
 4817SOL    HW115350   4.189   2.303   0.400
 4817SOL    HW215351   4.174   2.263   0.558
 4818SOL     OW15352   3.908   0.533   5.223
 4818SOL    HW115353   3.959   0.572   5.146
 4818SOL    HW215354   3.816   0.573   5.225
 4819SOL     OW15355   3.840   0.250   0.916
 4819SOL    HW115356   3.805   0.218   0.829
 4819SOL    HW215357   3.940   0.250   0.914
 4820SOL     OW15358   5.942   4.005   1.975
 4820SOL    HW115359   5.959   3.966   1.885
 4820SOL    HW215360   5.868   3.955   2.020
 4821SOL     OW15361   7.013   5.248   1.552
 4821SOL    HW115362   0.008   5.329   1.496
 4821SOL    HW215363   0.002   5.166   1.495
 4822SOL     OW15364   1.251   4.083   2.287
 4822SOL    HW115365   1.221   4.101   2.381
 4822SOL    HW215366   1.213   3.996   2.256
 4823SOL     OW15367   1.590   1.013   4.013
 4823SOL    HW115368   1.657   0.970   3.953
 4823SOL    HW215369   1.534   1.077   3.961
 4824SOL     OW15370   5.370   2.750   1.687
 4824SOL    HW115371   5.281   2.712   1.713
 4824SOL    HW215372   5.396   2.823   1.751
 4825SOL     OW15373   0.696   2.904   3.174
 4825SOL    HW115374   0.600   2.914   3.148
 4825SOL    HW215375   0.709   2.815   3.219
 4826SOL     OW15376   6.597   6.138   0.100
 4826SOL    HW115377   6.663   6.204   0.134
 4826SOL    HW215378   6.579   6.069   0.170
 4827SOL     OW15379   5.757   1.218   1.113
 4827SOL    HW115380   5.673   1.179   1.076
 4827SOL    HW215381   5.773   1.308   1.072
 4828SOL     OW15382   4.848   3.588   6.678
 4828SOL    HW115383   4.765   3.593   6.734
 4828SOL    HW215384   4.924   3.632   6.726
 4829SOL     OW15385   3.509   0.106   5.227
 4829SOL    HW115386   3.453   0.174   5.274
 4829SOL    HW215387   3.574   0.153   5.167
 4830SOL     OW15388   3.978   6.617   5.226
 4830SOL    HW115389   3.888   6.650   5.195
 4830SOL    HW215390   4.023   6.569   5.151
 4831SOL     OW15391   6.597   3.982   5.641
 4831SOL    HW115392   6.681   3.975   5.587
 4831SOL    HW215393   6.552   3.893   5.645
 4832SOL     OW15394   2.378   2.629   6.528
 4832SOL    HW115395   2.359   2.678   6.442
 4832SOL    HW215396   2.297   2.577   6.555
 4833SOL     OW15397   4.896   1.602   3.021
 4833SOL    HW115398   4.973   1.636   3.074
 4833SOL    HW215399   4.850   1.529   3.072
 4834SOL     OW15400   5.802   0.535   3.031
 4834SOL    HW115401   5.743   0.607   2.994
 4834SOL    HW215402   5.764   0.446   3.009
 4835SOL     OW15403   2.170   0.688   5.938
 4835SOL    HW115404   2.211   0.603   5.904
 4835SOL    HW215405   2.212   0.712   6.026
 4836SOL     OW15406   5.471   2.719   2.938
 4836SOL    HW115407   5.542   2.724   3.009
 4836SOL    HW215408   5.482   2.795   2.874
 4837SOL     OW15409   0.960   4.108   0.597
 4837SOL    HW115410   1.005   4.176   0.655
 4837SOL    HW215411   0.948   4.145   0.505
 4838SOL     OW15412   2.577   5.995   2.709
 4838SOL    HW115413   2.653   6.048   2.747
 4838SOL    HW215414   2.608   5.902   2.690
 4839SOL     OW15415   0.519   6.719   6.482
 4839SOL    HW115416   0.517   6.817   6.502
 4839SOL    HW215417   0.501   6.667   6.565
 4840SOL     OW15418   6.947   6.320   6.603
 4840SOL    HW115419   6.921   6.392   6.539
 4840SOL    HW215420   6.906   6.337   6.693
 4841SOL     OW15421   2.384   5.881   2.406
 4841SOL    HW115422   2.461   5.883   2.342
 4841SOL    HW215423   2.308   5.934   2.369
 4842SOL     OW15424   3.282   6.482   1.305
 4842SOL    HW115425   3.255   6.528   1.389
 4842SOL    HW215426   3.378   6.504   1.285
 4843SOL     OW15427   0.378   2.914   0.266
 4843SOL    HW115428   0.328   2.862   0.196
 4843SOL    HW215429   0.316   2.982   0.307
 4844SOL     OW15430   6.870   1.870   5.859
 4844SOL    HW115431   6.845   1.870   5.762
 4844SOL    HW215432   6.846   1.958   5.899
 4845SOL     OW15433   5.779   5.756   3.785
 4845SOL    HW115434   5.834   5.768   3.867
 4845SOL    HW215435   5.801   5.668   3.742
 4846SOL     OW15436   1.042   4.725   0.783
 4846SOL    HW115437   1.030   4.815   0.741
 4846SOL    HW215438   1.106   4.732   0.860
 4847SOL     OW15439   4.463   2.272   4.729
 4847SOL    HW115440   4.481   2.323   4.645
 4847SOL    HW215441   4.402   2.196   4.709
 4848SOL     OW15442   2.924   2.182   2.271
 4848SOL    HW115443   2.846   2.139   2.315
 4848SOL    HW215444   2.892   2.246   2.200
 4849SOL     OW15445   1.339   6.276   0.369
 4849SOL    HW115446   1.345   6.233   0.459
 4849SOL    HW215447   1.432   6.294   0.334
 4850SOL     OW15448   3.849   0.373   2.507
 4850SOL    HW115449   3.890   0.290   2.470
 4850SOL    HW215450   3.796   0.419   2.436
 4851SOL     OW15451   5.073   0.114   4.896
 4851SOL    HW115452   4.978   0.083   4.891
 4851SOL    HW215453   5.080   0.189   4.961
 4852SOL     OW15454   1.639   2.045   1.263
 4852SOL    HW115455   1.678   1.994   1.340
 4852SOL    HW215456   1.558   1.998   1.229
 4853SOL     OW15457   2.849   1.080   1.747
 4853SOL    HW115458   2.852   1.163   1.690
 4853SOL    HW215459   2.937   1.069   1.793
 4854SOL     OW15460   4.833   6.910   0.563
 4854SOL    HW115461   4.780   6.969   0.624
 4854SOL    HW215462   4.775   6.836   0.528
 4855SOL     OW15463   0.385   2.268   2.718
 4855SOL    HW115464   0.336   2.355   2.705
 4855SOL    HW215465   0.439   2.249   2.636
 4856SOL     OW15466   2.247   4.403   3.809
 4856SOL    HW115467   2.269   4.324   3.752
 4856SOL    HW215468   2.190   4.466   3.757
 4857SOL     OW15469   0.370   2.085   5.554
 4857SOL    HW115470   0.350   2.114   5.460
 4857SOL    HW215471   0.437   2.147   5.594
 4858SOL     OW15472   0.909   1.195   3.709
 4858SOL    HW115473   0.979   1.241   3.765
 4858SOL    HW215474   0.949   1.115   3.665
 4859SOL     OW15475   2.538   5.287   5.328
 4859SOL    HW115476   2.568   5.208   5.276
 4859SOL    HW215477   2.511   5.258   5.420
 4860SOL     OW15478   4.579   4.712   0.813
 4860SOL    HW115479   4.562   4.614   0.804
 4860SOL    HW215480   4.512   4.763   0.760
 4861SOL     OW15481   5.051   3.750   5.857
 4861SOL    HW115482   5.008   3.742   5.947
 4861SOL    HW215483   5.150   3.761   5.868
 4862SOL     OW15484   1.837   6.480   2.082
 4862SOL    HW115485   1.842   6.544   2.005
 4862SOL    HW215486   1.867   6.389   2.052
 4863SOL     OW15487   5.931   4.541   6.297
 4863SOL    HW115488   5.884   4.625   6.269
 4863SOL    HW215489   6.028   4.561   6.312
 4864SOL     OW15490   3.120   1.322   3.620
 4864SOL    HW115491   3.201   1.371   3.589
 4864SOL    HW215492   3.130   1.300   3.717
 4865SOL     OW15493   1.852   6.684   4.845
 4865SOL    HW115494   1.895   6.635   4.769
 4865SOL    HW215495   1.859   6.630   4.928
 4866SOL     OW15496   6.017   4.478   6.828
 4866SOL    HW115497   6.012   4.401   6.764
 4866SOL    HW215498   6.082   4.457   6.901
 4867SOL     OW15499   5.215   6.731   2.673
 4867SOL    HW115500   5.228   6.819   2.628
 4867SOL    HW215501   5.248   6.737   2.768
 4868SOL     OW15502   7.014   4.751   1.163
 4868SOL    HW115503   7.012   4.677   1.229
 4868SOL    HW215504   6.962   4.725   1.081
 4869SOL     OW15505   0.629   1.189   6.976
 4869SOL    HW115506   0.652   1.171   6.881
 4869SOL    HW215507   0.595   1.283   6.985
 4870SOL     OW15508   0.737   6.118   1.909
 4870SOL    HW115509   0.767   6.204   1.868
 4870SOL    HW215510   0.766   6.042   1.850
 4871SOL     OW15511   1.764   1.580   4.646
 4871SOL    HW115512   1.728   1.503   4.699
 4871SOL    HW215513   1.845   1.549   4.595
 4872SOL     OW15514   5.705   6.976   3.018
 4872SOL    HW115515   5.739   6.942   3.106
 4872SOL    HW215516   5.620   0.005   3.031
 4873SOL     OW15517   6.971   5.596   5.537
 4873SOL    HW115518   0.008   5.631   5.465
 4873SOL    HW215519   0.004   5.581   5.620
 4874SOL     OW15520   5.448   2.477   2.805
 4874SOL    HW115521   5.479   2.559   2.854
 4874SOL    HW215522   5.518   2.406   2.810
 4875SOL     OW15523   5.465   6.272   5.201
 4875SOL    HW115524   5.380   6.220   5.203
 4875SOL    HW215525   5.451   6.361   5.244
 4876SOL     OW15526   1.436   0.812   3.025
 4876SOL    HW115527   1.440   0.782   3.121
 4876SOL    HW215528   1.341   0.808   2.993
 4877SOL     OW15529   0.219   1.897   4.947
 4877SOL    HW115530   0.206   1.977   5.005
 4877SOL    HW215531   0.317   1.882   4.932
 4878SOL     OW15532   0.341   2.457   2.507
 4878SOL    HW115533   0.416   2.404   2.467
 4878SOL    HW215534   0.352   2.553   2.483
 4879SOL     OW15535   5.178   1.465   3.165
 4879SOL    HW115536   5.192   1.509   3.076
 4879SOL    HW215537   5.116   1.387   3.153
 4880SOL     OW15538   6.772   2.717   6.423
 4880SOL    HW115539   6.718   2.709   6.340
 4880SOL    HW215540   6.712   2.740   6.500
 4881SOL     OW15541   1.877   2.326   1.630
 4881SOL    HW115542   1.814   2.398   1.659
 4881SOL    HW215543   1.862   2.306   1.533
 4882SOL     OW15544   4.128   1.806   4.346
 4882SOL    HW115545   4.174   1.819   4.259
 4882SOL    HW215546   4.185   1.750   4.406
 4883SOL     OW15547   6.528   4.316   1.414
 4883SOL    HW115548   6.582   4.232   1.425
 4883SOL    HW215549   6.583   4.385   1.366
 4884SOL     OW15550   2.152   6.429   1.354
 4884SOL    HW115551   2.078   6.403   1.292
 4884SOL    HW215552   2.119   6.498   1.419
 4885SOL     OW15553   0.975   4.771   0.358
 4885SOL    HW115554   1.073   4.793   0.356
 4885SOL    HW215555   0.922   4.853   0.336
 4886SOL     OW15556   2.522   0.887   1.997
 4886SOL    HW115557   2.529   0.799   2.043
 4886SOL    HW215558   2.428   0.901   1.967
 4887SOL     OW15559   6.538   6.771   1.096
 4887SOL    HW115560   6.584   6.740   1.014
 4887SOL    HW215561   6.601   6.823   1.153
 4888SOL     OW15562   4.103   6.381   3.311
 4888SOL    HW115563   4.020   6.390   3.257
 4888SOL    HW215564   4.156   6.466   3.305
 4889SOL     OW15565   0.011   3.191   3.966
 4889SOL    HW115566   6.956   3.143   3.925
 4889SOL    HW215567   6.999   3.268   4.021
 4890SOL     OW15568   0.306   1.169   4.768
 4890SOL    HW115569   0.245   1.134   4.839
 4890SOL    HW215570   0.271   1.142   4.678
 4891SOL     OW15571   2.763   5.653   6.284
 4891SOL    HW115572   2.752   5.678   6.188
 4891SOL    HW215573   2.720   5.723   6.342
 4892SOL     OW15574   5.064   5.872   2.876
 4892SOL    HW115575   5.131   5.946   2.887
 4892SOL    HW215576   4.992   5.882   2.945
 4893SOL     OW15577   0.888   3.363   1.375
 4893SOL    HW115578   0.820   3.428   1.410
 4893SOL    HW215579   0.868   3.342   1.279
 4894SOL     OW15580   5.088   0.479   1.757
 4894SOL    HW115581   5.128   0.475   1.665
 4894SOL    HW215582   5.161   0.482   1.825
 4895SOL     OW15583   7.007   4.369   4.430
 4895SOL    HW115584   0.045   4.326   4.499
 4895SOL    HW215585   0.024   4.458   4.404
 4896SOL     OW15586   1.740   4.979   4.525
 4896SOL    HW115587   1.778   4.923   4.599
 4896SOL    HW215588   1.679   4.923   4.469
 4897SOL     OW15589   1.816   6.516   5.077
 4897SOL    HW115590   1.817   6.422   5.041
 4897SOL    HW215591   1.747   6.524   5.148
 4898SOL     OW15592   4.813   1.752   3.743
 4898SOL    HW115593   4.741   1.755   3.674
 4898SOL    HW215594   4.845   1.845   3.761
 4899SOL     OW15595   6.878   6.023   1.821
 4899SOL    HW115596   6.905   5.940   1.868
 4899SOL    HW215597   6.876   6.099   1.886
 4900SOL     OW15598   3.571   6.138   5.951
 4900SOL    HW115599   3.655   6.189   5.968
 4900SOL    HW215600   3.542   6.151   5.856
 4901SOL     OW15601   0.596   1.618   5.855
 4901SOL    HW115602   0.548   1.597   5.940
 4901SOL    HW215603   0.544   1.687   5.804
 4902SOL     OW15604   1.505   0.140   5.834
 4902SOL    HW115605   1.529   0.046   5.859
 4902SOL    HW215606   1.495   0.195   5.917
 4903SOL     OW15607   4.960   4.045   2.452
 4903SOL    HW115608   4.936   4.000   2.538
 4903SOL    HW215609   4.924   3.991   2.375
 4904SOL     OW15610   1.763   0.024   0.405
 4904SOL    HW115611   1.692   6.974   0.405
 4904SOL    HW215612   1.824   0.009   0.327
 4905SOL     OW15613   2.944   6.209   3.023
 4905SOL    HW115614   2.929   6.132   3.085
 4905SOL    HW215615   3.020   6.265   3.058
 4906SOL     OW15616   5.027   3.491   5.054
 4906SOL    HW115617   5.094   3.513   4.983
 4906SOL    HW215618   4.949   3.553   5.047
 4907SOL     OW15619   5.157   1.870   6.790
 4907SOL    HW115620   5.075   1.824   6.823
 4907SOL    HW215621   5.238   1.831   6.834
 4908SOL     OW15622   4.488   6.412   0.159
 4908SOL    HW115623   4.509   6.422   0.256
 4908SOL    HW215624   4.408   6.468   0.136
 4909SOL     OW15625   5.114   4.669   4.449
 4909SOL    HW115626   5.163   4.636   4.530
 4909SOL    HW215627   5.073   4.758   4.470
 4910SOL     OW15628   4.686   2.028   5.674
 4910SOL    HW115629   4.698   1.933   5.704
 4910SOL    HW215630   4.765   2.082   5.703
 4911SOL     OW15631   6.821   2.577   2.300
 4911SOL    HW115632   6.721   2.579   2.302
 4911SOL    HW215633   6.856   2.663   2.337
 4912SOL     OW15634   5.527   2.343   3.758
 4912SOL    HW115635   5.472   2.276   3.709
 4912SOL    HW215636   5.609   2.364   3.704
 4913SOL     OW15637   0.051   3.296   5.674
 4913SOL    HW115638   7.017   3.349   5.738
 4913SOL    HW215639   0.148   3.315   5.690
 4914SOL     OW15640   4.502   0.665   3.376
 4914SOL    HW115641   4.538   0.646   3.468
 4914SOL    HW215642   4.425   0.729   3.384
 4915SOL     OW15643   3.637   5.182   5.835
 4915SOL    HW115644   3.649   5.223   5.926
 4915SOL    HW215645   3.683   5.239   5.767
 4916SOL     OW15646   6.324   2.656   4.054
 4916SOL    HW115647   6.363   2.748   4.046
 4916SOL    HW215648   6.286   2.628   3.966
 4917SOL     OW15649   4.320   6.258   0.411
 4917SOL    HW115650   4.334   6.167   0.374
 4917SOL    HW215651   4.233   6.262   0.459
 4918SOL     OW15652   6.152   5.021   2.990
 4918SOL    HW115653   6.232   4.973   3.027
 4918SOL    HW215654   6.183   5.093   2.928
 4919SOL     OW15655   3.400   3.811   2.332
 4919SOL    HW115656   3.379   3.760   2.415
 4919SOL    HW215657   3.493   3.848   2.338
 4920SOL     OW15658   6.553   1.062   5.775
 4920SOL    HW115659   6.577   1.157   5.798
 4920SOL    HW215660   6.636   1.009   5.759
 4921SOL     OW15661   0.086   6.611   2.401
 4921SOL    HW115662   0.104   6.659   2.487
 4921SOL    HW215663   0.096   6.675   2.325
 4922SOL     OW15664   3.463   2.097   6.613
 4922SOL    HW115665   3.454   2.020   6.676
 4922SOL    HW215666   3.499   2.176   6.663
 4923SOL     OW15667   3.543   1.598   1.799
 4923SOL    HW115668   3.530   1.582   1.701
 4923SOL    HW215669   3.576   1.692   1.813
 4924SOL     OW15670   2.640   0.639   4.920
 4924SOL    HW115671   2.610   0.621   4.826
 4924SOL    HW215672   2.669   0.553   4.962
 4925SOL     OW15673   5.687   6.266   3.560
 4925SOL    HW115674   5.767   6.208   3.574
 4925SOL    HW215675   5.651   6.295   3.649
 4926SOL     OW15676   5.528   2.616   1.089
 4926SOL    HW115677   5.511   2.546   1.159
 4926SOL    HW215678   5.440   2.649   1.053
 4927SOL     OW15679   3.537   1.371   6.931
 4927SOL    HW115680   3.565   1.448   6.873
 4927SOL    HW215681   3.611   1.304   6.935
 4928SOL     OW15682   0.023   2.274   1.109
 4928SOL    HW115683   6.952   2.270   1.146
 4928SOL    HW215684   0.086   2.308   1.179
 4929SOL     OW15685   0.644   6.470   5.016
 4929SOL    HW115686   0.686   6.383   4.989
 4929SOL    HW215687   0.573   6.495   4.949
 4930SOL     OW15688   5.461   6.490   1.984
 4930SOL    HW115689   5.397   6.494   2.061
 4930SOL    HW215690   5.486   6.583   1.957
 4931SOL     OW15691   6.566   5.633   0.416
 4931SOL    HW115692   6.575   5.639   0.516
 4931SOL    HW215693   6.477   5.594   0.393
 4932SOL     OW15694   3.002   3.203   1.804
 4932SOL    HW115695   3.068   3.130   1.784
 4932SOL    HW215696   2.934   3.208   1.731
 4933SOL     OW15697   2.744   6.357   5.757
 4933SOL    HW115698   2.713   6.311   5.674
 4933SOL    HW215699   2.730   6.297   5.836
 4934SOL     OW15700   4.300   5.264   2.676
 4934SOL    HW115701   4.322   5.356   2.645
 4934SOL    HW215702   4.290   5.204   2.596
 4935SOL     OW15703   0.162   1.307   6.308
 4935SOL    HW115704   0.106   1.234   6.347
 4935SOL    HW215705   0.110   1.357   6.239
 4936SOL     OW15706   3.731   2.910   0.468
 4936SOL    HW115707   3.648   2.908   0.413
 4936SOL    HW215708   3.707   2.922   0.565
 4937SOL     OW15709   4.526   2.638   4.992
 4937SOL    HW115710   4.521   2.654   4.894
 4937SOL    HW215711   4.516   2.540   5.011
 4938SOL     OW15712   3.878   5.115   6.635
 4938SOL    HW115713   3.785   5.078   6.638
 4938SOL    HW215714   3.875   5.215   6.639
 4939SOL     OW15715   4.635   3.065   6.143
 4939SOL    HW115716   4.666   2.975   6.174
 4939SOL    HW215717   4.566   3.100   6.207
 4940SOL     OW15718   1.819   6.056   4.594
 4940SOL    HW115719   1.808   6.088   4.500
 4940SOL    HW215720   1.733   6.069   4.644
 4941SOL     OW15721   5.271   0.467   1.036
 4941SOL    HW115722   5.286   0.398   1.106
 4941SOL    HW215723   5.199   0.530   1.066
 4942SOL     OW15724   5.417   3.437   5.561
 4942SOL    HW115725   5.333   3.381   5.562
 4942SOL    HW215726   5.392   3.533   5.572
 4943SOL     OW15727   5.095   2.545   1.466
 4943SOL    HW115728   5.108   2.463   1.522
 4943SOL    HW215729   5.054   2.617   1.521
 4944SOL     OW15730   2.339   4.448   2.743
 4944SOL    HW115731   2.410   4.498   2.693
 4944SOL    HW215732   2.373   4.424   2.834
 4945SOL     OW15733   0.735   6.152   4.753
 4945SOL    HW115734   0.791   6.234   4.762
 4945SOL    HW215735   0.763   6.102   4.671
 4946SOL     OW15736   0.891   4.560   2.248
 4946SOL    HW115737   0.908   4.472   2.292
 4946SOL    HW215738   0.975   4.615   2.250
 4947SOL     OW15739   0.155   6.972   0.702
 4947SOL    HW115740   0.219   6.979   0.778
 4947SOL    HW215741   0.194   6.914   0.630
 4948SOL     OW15742   1.521   1.507   2.102
 4948SOL    HW115743   1.462   1.426   2.096
 4948SOL    HW215744   1.509   1.563   2.021
 4949SOL     OW15745   5.046   1.620   4.561
 4949SOL    HW115746   4.956   1.655   4.586
 4949SOL    HW215747   5.116   1.690   4.578
 4950SOL     OW15748   2.881   5.330   5.448
 4950SOL    HW115749   2.900   5.404   5.383
 4950SOL    HW215750   2.877   5.243   5.398
 4951SOL     OW15751   4.584   1.807   3.581
 4951SOL    HW115752   4.503   1.862   3.560
 4951SOL    HW215753   4.629   1.781   3.495
 4952SOL     OW15754   0.455   5.529   4.821
 4952SOL    HW115755   0.470   5.621   4.784
 4952SOL    HW215756   0.529   5.506   4.883
 4953SOL     OW15757   1.737   5.905   1.616
 4953SOL    HW115758   1.809   5.835   1.619
 4953SOL    HW215759   1.730   5.942   1.523
 4954SOL     OW15760   5.713   5.732   6.728
 4954SOL    HW115761   5.781   5.800   6.755
 4954SOL    HW215762   5.708   5.727   6.629
 4955SOL     OW15763   0.837   6.859   1.574
 4955SOL    HW115764   0.867   6.954   1.572
 4955SOL    HW215765   0.890   6.806   1.507
 4956SOL     OW15766   5.402   6.208   4.328
 4956SOL    HW115767   5.396   6.294   4.378
 4956SOL    HW215768   5.337   6.142   4.366
 4957SOL     OW15769   0.997   6.720   3.813
 4957SOL    HW115770   1.066   6.684   3.876
 4957SOL    HW215771   0.911   6.669   3.825
 4958SOL     OW15772   7.013   5.941   6.708
 4958SOL    HW115773   0.055   5.999   6.758
 4958SOL    HW215774   6.930   5.928   6.762
 4959SOL     OW15775   1.002   1.062   1.159
 4959SOL    HW115776   1.050   0.981   1.126
 4959SOL    HW215777   1.064   1.117   1.215
 4960SOL     OW15778   3.713   6.280   5.032
 4960SOL    HW115779   3.752   6.224   5.105
 4960SOL    HW215780   3.732   6.239   4.943
 4961SOL     OW15781   4.315   0.276   5.637
 4961SOL    HW115782   4.234   0.326   5.669
 4961SOL    HW215783   4.377   0.339   5.591
 4962SOL     OW15784   6.487   2.114   1.596
 4962SOL    HW115785   6.474   2.019   1.626
 4962SOL    HW215786   6.482   2.175   1.675
 4963SOL     OW15787   0.091   4.687   1.901
 4963SOL    HW115788   0.142   4.758   1.950
 4963SOL    HW215789   7.020   4.681   1.939
 4964SOL     OW15790   3.483   6.434   3.074
 4964SOL    HW115791   3.528   6.501   3.015
 4964SOL    HW215792   3.552   6.392   3.135
 4965SOL     OW15793   7.001   6.496   4.858
 4965SOL    HW115794   6.942   6.440   4.799
 4965SOL    HW215795   0.006   6.579   4.810
 4966SOL     OW15796   3.837   4.975   3.780
 4966SOL    HW115797   3.874   5.027   3.857
 4966SOL    HW215798   3.912   4.937   3.727
 4967SOL     OW15799   4.607   1.812   6.064
 4967SOL    HW115800   4.692   1.864   6.063
 4967SOL    HW215801   4.592   1.769   5.975
 4968SOL     OW15802   5.706   3.881   5.722
 4968SOL    HW115803   5.721   3.976   5.750
 4968SOL    HW215804   5.770   3.857   5.649
 4969SOL     OW15805   0.748   2.120   1.787
 4969SOL    HW115806   0.795   2.061   1.720
 4969SOL    HW215807   0.691   2.186   1.739
 4970SOL     OW15808   1.183   3.055   6.294
 4970SOL    HW115809   1.209   2.994   6.219
 4970SOL    HW215810   1.153   3.143   6.256
 4971SOL     OW15811   6.527   5.962   3.989
 4971SOL    HW115812   6.574   5.887   3.943
 4971SOL    HW215813   6.575   6.048   3.972
 4972SOL     OW15814   1.499   2.434   5.949
 4972SOL    HW115815   1.528   2.436   5.853
 4972SOL    HW215816   1.466   2.524   5.977
 4973SOL     OW15817   5.900   6.160   3.145
 4973SOL    HW115818   5.906   6.119   3.235
 4973SOL    HW215819   5.980   6.134   3.090
 4974SOL     OW15820   4.612   6.931   1.417
 4974SOL    HW115821   4.620   6.970   1.325
 4974SOL    HW215822   4.579   7.001   1.480
 4975SOL     OW15823   5.530   6.094   0.523
 4975SOL    HW115824   5.533   6.085   0.623
 4975SOL    HW215825   5.545   6.190   0.497
 4976SOL     OW15826   4.152   0.155   4.625
 4976SOL    HW115827   4.124   0.249   4.604
 4976SOL    HW215828   4.115   0.128   4.714
 4977SOL     OW15829   3.350   3.999   0.501
 4977SOL    HW115830   3.401   4.010   0.416
 4977SOL    HW215831   3.408   3.955   0.569
 4978SOL     OW15832   6.004   2.894   6.006
 4978SOL    HW115833   5.997   2.916   5.909
 4978SOL    HW215834   6.089   2.932   6.043
 4979SOL     OW15835   1.445   1.991   4.899
 4979SOL    HW115836   1.451   1.897   4.931
 4979SOL    HW215837   1.506   2.049   4.952
 4980SOL     OW15838   2.638   5.418   2.247
 4980SOL    HW115839   2.661   5.380   2.337
 4980SOL    HW215840   2.568   5.361   2.205
 4981SOL     OW15841   4.743   5.936   5.503
 4981SOL    HW115842   4.759   6.033   5.517
 4981SOL    HW215843   4.821   5.884   5.538
 4982SOL     OW15844   2.231   2.578   0.427
 4982SOL    HW115845   2.306   2.526   0.466
 4982SOL    HW215846   2.266   2.645   0.361
 4983SOL     OW15847   5.235   2.924   4.432
 4983SOL    HW115848   5.263   2.831   4.455
 4983SOL    HW215849   5.188   2.965   4.510
 4984SOL     OW15850   4.960   3.903   2.681
 4984SOL    HW115851   4.887   3.951   2.729
 4984SOL    HW215852   5.003   3.837   2.743
 4985SOL     OW15853   5.780   3.769   2.871
 4985SOL    HW115854   5.838   3.705   2.821
 4985SOL    HW215855   5.758   3.847   2.813
 4986SOL     OW15856   4.835   4.456   2.715
 4986SOL    HW115857   4.898   4.483   2.643
 4986SOL    HW215858   4.741   4.471   2.684
 4987SOL     OW15859   0.585   3.665   1.128
 4987SOL    HW115860   0.655   3.597   1.108
 4987SOL    HW215861   0.494   3.627   1.108
 4988SOL     OW15862   0.577   2.480   5.166
 4988SOL    HW115863   0.657   2.490   5.107
 4988SOL    HW215864   0.597   2.521   5.255
 4989SOL     OW15865   0.450   1.062   0.175
 4989SOL    HW115866   0.452   1.141   0.114
 4989SOL    HW215867   0.474   1.091   0.268
 4990SOL     OW15868   1.078   2.543   5.267
 4990SOL    HW115869   1.001   2.584   5.218
 4990SOL    HW215870   1.120   2.473   5.210
 4991SOL     OW15871   1.688   2.469   4.458
 4991SOL    HW115872   1.739   2.555   4.457
 4991SOL    HW215873   1.597   2.484   4.418
 4992SOL     OW15874   3.414   0.590   5.395
 4992SOL    HW115875   3.456   0.561   5.481
 4992SOL    HW215876   3.363   0.675   5.409
 4993SOL     OW15877   2.872   5.562   3.939
 4993SOL    HW115878   2.777   5.592   3.928
 4993SOL    HW215879   2.902   5.513   3.858
 4994SOL     OW15880   6.890   6.492   2.292
 4994SOL    HW115881   6.960   6.525   2.356
 4994SOL    HW215882   6.867   6.564   2.227
 4995SOL     OW15883   6.160   2.686   5.480
 4995SOL    HW115884   6.141   2.784   5.487
 4995SOL    HW215885   6.091   2.636   5.532
 4996SOL     OW15886   0.318   1.340   4.386
 4996SOL    HW115887   0.264   1.344   4.470
 4996SOL    HW215888   0.262   1.301   4.312
 4997SOL     OW15889   0.219   2.365   3.460
 4997SOL    HW115890   0.274   2.431   3.510
 4997SOL    HW215891   0.154   2.321   3.522
 4998SOL     OW15892   1.359   5.258   5.121
 4998SOL    HW115893   1.434   5.193   5.134
 4998SOL    HW215894   1.380   5.343   5.169
 4999SOL     OW15895   6.427   4.462   1.090
 4999SOL    HW115896   6.526   4.452   1.082
 4999SOL    HW215897   6.405   4.551   1.130
 5000SOL     OW15898   6.890   5.368   4.344
 5000SOL    HW115899   6.917   5.272   4.355
 5000SOL    HW215900   6.944   5.409   4.271
 5001SOL     OW15901   4.605   4.157   5.893
 5001SOL    HW115902   4.695   4.125   5.863
 5001SOL    HW215903   4.534   4.108   5.843
 5002SOL     OW15904   2.353   1.567   1.472
 5002SOL    HW115905   2.283   1.526   1.530
 5002SOL    HW215906   2.443   1.543   1.506
 5003SOL     OW15907   6.293   5.406   3.037
 5003SOL    HW115908   6.286   5.335   3.107
 5003SOL    HW215909   6.202   5.442   3.017
 5004SOL     OW15910   3.299   5.158   0.316
 5004SOL    HW115911   3.220   5.144   0.257
 5004SOL    HW215912   3.368   5.088   0.297
 5005SOL     OW15913   4.720   2.405   0.062
 5005SOL    HW115914   4.788   2.415   0.135
 5005SOL    HW215915   4.632   2.379   0.102
 5006SOL     OW15916   5.202   4.751   3.461
 5006SOL    HW115917   5.234   4.665   3.501
 5006SOL    HW215918   5.107   4.766   3.486
 5007SOL     OW15919   4.249   1.621   4.806
 5007SOL    HW115920   4.317   1.548   4.805
 5007SOL    HW215921   4.167   1.591   4.855
 5008SOL     OW15922   6.836   1.297   3.986
 5008SOL    HW115923   6.756   1.238   3.987
 5008SOL    HW215924   6.824   1.370   4.053
 5009SOL     OW15925   1.986   6.358   3.809
 5009SOL    HW115926   2.058   6.324   3.748
 5009SOL    HW215927   1.912   6.398   3.754
 5010SOL     OW15928   3.368   3.423   4.524
 5010SOL    HW115929   3.343   3.479   4.445
 5010SOL    HW215930   3.336   3.330   4.511
 5011SOL     OW15931   1.344   3.080   2.935
 5011SOL    HW115932   1.306   3.127   2.855
 5011SOL    HW215933   1.278   3.014   2.970
 5012SOL     OW15934   5.914   3.101   6.708
 5012SOL    HW115935   5.871   3.089   6.619
 5012SOL    HW215936   5.855   3.062   6.779
 5013SOL     OW15937   5.243   1.204   5.996
 5013SOL    HW115938   5.212   1.110   6.010
 5013SOL    HW215939   5.169   1.258   5.956
 5014SOL     OW15940   6.315   6.774   0.123
 5014SOL    HW115941   6.223   6.777   0.163
 5014SOL    HW215942   6.353   6.866   0.121
 5015SOL     OW15943   5.356   2.323   3.463
 5015SOL    HW115944   5.271   2.336   3.513
 5015SOL    HW215945   5.344   2.253   3.393
 5016SOL     OW15946   2.568   6.820   2.042
 5016SOL    HW115947   2.544   6.870   2.125
 5016SOL    HW215948   2.485   6.790   1.995
 5017SOL     OW15949   2.383   2.525   1.489
 5017SOL    HW115950   2.404   2.604   1.431
 5017SOL    HW215951   2.421   2.540   1.580
 5018SOL     OW15952   6.822   4.999   4.548
 5018SOL    HW115953   6.891   5.041   4.489
 5018SOL    HW215954   6.825   4.899   4.536
 5019SOL     OW15955   2.815   5.178   6.222
 5019SOL    HW115956   2.757   5.259   6.231
 5019SOL    HW215957   2.758   5.096   6.228
 5020SOL     OW15958   5.049   5.222   6.332
 5020SOL    HW115959   4.983   5.147   6.322
 5020SOL    HW215960   5.028   5.295   6.267
 5021SOL     OW15961   2.318   5.095   6.062
 5021SOL    HW115962   2.250   5.127   5.996
 5021SOL    HW215963   2.320   4.995   6.062
 5022SOL     OW15964   1.578   4.982   0.888
 5022SOL    HW115965   1.677   4.989   0.879
 5022SOL    HW215966   1.549   4.889   0.866
 5023SOL     OW15967   6.617   3.297   2.987
 5023SOL    HW115968   6.717   3.298   2.981
 5023SOL    HW215969   6.588   3.357   3.062
 5024SOL     OW15970   5.699   3.469   5.712
 5024SOL    HW115971   5.658   3.465   5.621
 5024SOL    HW215972   5.799   3.475   5.703
 5025SOL     OW15973   6.427   1.807   2.867
 5025SOL    HW115974   6.444   1.843   2.958
 5025SOL    HW215975   6.417   1.707   2.872
 5026SOL     OW15976   0.589   6.230   2.633
 5026SOL    HW115977   0.667   6.229   2.571
 5026SOL    HW215978   0.602   6.160   2.704
 5027SOL     OW15979   0.837   6.545   3.276
 5027SOL    HW115980   0.898   6.501   3.210
 5027SOL    HW215981   0.753   6.492   3.285
 5028SOL     OW15982   1.301   0.411   2.916
 5028SOL    HW115983   1.303   0.437   2.820
 5028SOL    HW215984   1.391   0.374   2.943
 5029SOL     OW15985   0.142   1.031   2.801
 5029SOL    HW115986   0.223   1.058   2.854
 5029SOL    HW215987   0.147   1.071   2.710
 5030SOL     OW15988   1.682   5.667   6.971
 5030SOL    HW115989   1.630   5.679   6.886
 5030SOL    HW215990   1.647   5.587   7.020
 5031SOL     OW15991   5.555   0.335   5.240
 5031SOL    HW115992   5.596   0.269   5.303
 5031SOL    HW215993   5.460   0.308   5.222
 5032SOL     OW15994   1.107   6.260   1.243
 5032SOL    HW115995   1.040   6.187   1.229
 5032SOL    HW215996   1.180   6.227   1.303
 5033SOL     OW15997   1.236   3.916   5.713
 5033SOL    HW115998   1.299   3.981   5.671
 5033SOL    HW215999   1.273   3.823   5.705
 5034SOL     OW16000   6.608   4.073   0.178
 5034SOL    HW116001   6.706   4.093   0.179
 5034SOL    HW216002   6.585   4.023   0.094
 5035SOL     OW16003   6.261   4.238   1.369
 5035SOL    HW116004   6.356   4.242   1.400
 5035SOL    HW216005   6.228   4.144   1.375
 5036SOL     OW16006   1.956   0.833   2.408
 5036SOL    HW116007   1.952   0.753   2.468
 5036SOL    HW216008   2.051   0.854   2.386
 5037SOL     OW16009   4.631   2.444   2.947
 5037SOL    HW116010   4.554   2.384   2.922
 5037SOL    HW216011   4.625   2.465   3.045
 5038SOL     OW16012   2.600   6.371   6.229
 5038SOL    HW116013   2.660   6.371   6.309
 5038SOL    HW216014   2.506   6.392   6.257
 5039SOL     OW16015   1.716   1.568   3.670
 5039SOL    HW116016   1.787   1.628   3.705
 5039SOL    HW216017   1.655   1.620   3.610
 5040SOL     OW16018   2.720   3.648   6.425
 5040SOL    HW116019   2.674   3.657   6.336
 5040SOL    HW216020   2.702   3.557   6.462
 5041SOL     OW16021   1.086   5.478   1.280
 5041SOL    HW116022   1.144   5.472   1.199
 5041SOL    HW216023   1.010   5.541   1.262
 5042SOL     OW16024   5.872   2.006   5.965
 5042SOL    HW116025   5.789   1.951   5.955
 5042SOL    HW216026   5.919   1.980   6.049
 5043SOL     OW16027   4.630   0.252   3.290
 5043SOL    HW116028   4.551   0.192   3.279
 5043SOL    HW216029   4.672   0.269   3.201
 5044SOL     OW16030   6.023   4.275   2.952
 5044SOL    HW116031   5.997   4.285   2.857
 5044SOL    HW216032   6.018   4.364   2.998
 5045SOL     OW16033   6.344   3.284   6.032
 5045SOL    HW116034   6.362   3.236   6.118
 5045SOL    HW216035   6.323   3.380   6.050
 5046SOL     OW16036   3.008   3.113   5.379
 5046SOL    HW116037   2.924   3.166   5.364
 5046SOL    HW216038   2.999   3.024   5.333
 5047SOL     OW16039   1.251   1.287   2.791
 5047SOL    HW116040   1.167   1.273   2.844
 5047SOL    HW216041   1.255   1.218   2.718
 5048SOL     OW16042   6.127   3.495   1.387
 5048SOL    HW116043   6.176   3.422   1.339
 5048SOL    HW216044   6.134   3.479   1.486
 5049SOL     OW16045   1.453   2.515   2.623
 5049SOL    HW116046   1.539   2.472   2.595
 5049SOL    HW216047   1.467   2.566   2.707
 5050SOL     OW16048   0.969   3.263   0.847
 5050SOL    HW116049   1.064   3.236   0.840
 5050SOL    HW216050   0.912   3.202   0.793
 5051SOL     OW16051   2.875   3.859   0.543
 5051SOL    HW116052   2.873   3.864   0.643
 5051SOL    HW216053   2.796   3.909   0.506
 5052SOL     OW16054   5.679   3.523   0.579
 5052SOL    HW116055   5.664   3.424   0.579
 5052SOL    HW216056   5.773   3.542   0.606
 5053SOL     OW16057   1.880   4.641   0.312
 5053SOL    HW116058   1.883   4.702   0.232
 5053SOL    HW216059   1.919   4.552   0.288
 5054SOL     OW16060   3.809   5.823   4.918
 5054SOL    HW116061   3.736   5.869   4.968
 5054SOL    HW216062   3.870   5.775   4.982
 5055SOL     OW16063   1.749   2.311   3.904
 5055SOL    HW116064   1.727   2.281   3.996
 5055SOL    HW216065   1.825   2.256   3.868
 5056SOL     OW16066   2.109   2.258   5.471
 5056SOL    HW116067   2.090   2.166   5.439
 5056SOL    HW216068   2.069   2.270   5.562
 5057SOL     OW16069   0.639   4.567   2.933
 5057SOL    HW116070   0.595   4.485   2.896
 5057SOL    HW216071   0.675   4.547   3.024
 5058SOL     OW16072   3.394   3.475   0.052
 5058SOL    HW116073   3.419   3.515   0.140
 5058SOL    HW216074   3.476   3.436   0.009
 5059SOL     OW16075   4.246   1.670   2.780
 5059SOL    HW116076   4.293   1.591   2.819
 5059SOL    HW216077   4.165   1.639   2.729
 5060SOL     OW16078   0.079   3.524   5.354
 5060SOL    HW116079   0.150   3.460   5.383
 5060SOL    HW216080   0.101   3.616   5.386
 5061SOL     OW16081   3.761   2.214   5.506
 5061SOL    HW116082   3.850   2.235   5.465
 5061SOL    HW216083   3.688   2.245   5.445
 5062SOL     OW16084   5.168   0.962   3.792
 5062SOL    HW116085   5.266   0.969   3.813
 5062SOL    HW216086   5.121   1.044   3.824
 5063SOL     OW16087   1.076   1.560   1.549
 5063SOL    HW116088   1.130   1.553   1.633
 5063SOL    HW216089   1.018   1.479   1.540
 5064SOL     OW16090   5.224   5.662   0.576
 5064SOL    HW116091   5.148   5.622   0.525
 5064SOL    HW216092   5.270   5.730   0.518
 5065SOL     OW16093   2.411   1.039   2.561
 5065SOL    HW116094   2.318   1.071   2.578
 5065SOL    HW216095   2.412   0.939   2.561
 5066SOL     OW16096   2.387   4.708   2.617
 5066SOL    HW116097   2.439   4.775   2.564
 5066SOL    HW216098   2.396   4.728   2.715
 5067SOL     OW16099   5.545   2.918   0.821
 5067SOL    HW116100   5.460   2.911   0.770
 5067SOL    HW216101   5.619   2.874   0.769
 5068SOL     OW16102   2.686   5.741   0.393
 5068SOL    HW116103   2.675   5.704   0.301
 5068SOL    HW216104   2.682   5.666   0.460
 5069SOL     OW16105   3.608   4.950   5.049
 5069SOL    HW116106   3.526   4.916   5.002
 5069SOL    HW216107   3.616   4.905   5.138
 5070SOL     OW16108   6.062   3.525   5.014
 5070SOL    HW116109   6.135   3.556   5.076
 5070SOL    HW216110   6.007   3.455   5.059
 5071SOL     OW16111   2.628   6.780   4.024
 5071SOL    HW116112   2.540   6.804   4.065
 5071SOL    HW216113   2.617   6.699   3.966
 5072SOL     OW16114   0.997   1.508   0.890
 5072SOL    HW116115   0.922   1.506   0.824
 5072SOL    HW216116   0.987   1.589   0.948
 5073SOL     OW16117   2.644   0.445   2.373
 5073SOL    HW116118   2.590   0.455   2.457
 5073SOL    HW216119   2.588   0.401   2.303
 5074SOL     OW16120   3.425   2.304   1.732
 5074SOL    HW116121   3.507   2.322   1.787
 5074SOL    HW216122   3.362   2.246   1.785
 5075SOL     OW16123   0.344   3.429   0.012
 5075SOL    HW116124   0.354   3.338   0.053
 5075SOL    HW216125   0.427   3.482   0.027
 5076SOL     OW16126   6.311   6.992   6.310
 5076SOL    HW116127   6.267   6.978   6.399
 5076SOL    HW216128   6.328   6.903   6.267
 5077SOL     OW16129   0.645   4.642   4.208
 5077SOL    HW116130   0.593   4.562   4.238
 5077SOL    HW216131   0.717   4.661   4.275
 5078SOL     OW16132   0.396   2.202   4.039
 5078SOL    HW116133   0.424   2.108   4.022
 5078SOL    HW216134   0.472   2.252   4.081
 5079SOL     OW16135   1.716   2.704   5.759
 5079SOL    HW116136   1.708   2.608   5.785
 5079SOL    HW216137   1.624   2.743   5.747
 5080SOL     OW16138   5.702   5.957   0.059
 5080SOL    HW116139   5.753   5.909   0.130
 5080SOL    HW216140   5.625   6.005   0.100
 5081SOL     OW16141   2.629   5.360   5.592
 5081SOL    HW116142   2.607   5.456   5.607
 5081SOL    HW216143   2.719   5.353   5.549
 5082SOL     OW16144   5.314   6.044   1.541
 5082SOL    HW116145   5.376   5.984   1.490
 5082SOL    HW216146   5.332   6.139   1.516
 5083SOL     OW16147   1.530   0.226   3.388
 5083SOL    HW116148   1.492   0.183   3.470
 5083SOL    HW216149   1.589   0.161   3.341
 5084SOL     OW16150   2.447   4.483   5.609
 5084SOL    HW116151   2.352   4.510   5.595
 5084SOL    HW216152   2.496   4.558   5.655
 5085SOL     OW16153   0.388   4.332   5.130
 5085SOL    HW116154   0.443   4.257   5.093
 5085SOL    HW216155   0.396   4.412   5.070
 5086SOL     OW16156   1.865   5.213   1.802
 5086SOL    HW116157   1.958   5.205   1.838
 5086SOL    HW216158   1.843   5.310   1.788
 5087SOL     OW16159   6.359   4.631   2.221
 5087SOL    HW116160   6.383   4.534   2.219
 5087SOL    HW216161   6.263   4.641   2.249
 5088SOL     OW16162   5.115   5.829   1.841
 5088SOL    HW116163   5.016   5.820   1.848
 5088SOL    HW216164   5.138   5.922   1.811
 5089SOL     OW16165   5.345   5.385   5.628
 5089SOL    HW116166   5.428   5.338   5.659
 5089SOL    HW216167   5.270   5.365   5.692
 5090SOL     OW16168   2.870   6.659   5.422
 5090SOL    HW116169   2.874   6.617   5.513
 5090SOL    HW216170   2.809   6.606   5.363
 5091SOL     OW16171   6.910   6.960   6.417
 5091SOL    HW116172   6.921   6.863   6.396
 5091SOL    HW216173   6.914   7.013   6.333
 5092SOL     OW16174   3.122   3.111   4.056
 5092SOL    HW116175   3.184   3.036   4.078
 5092SOL    HW216176   3.063   3.130   4.134
 5093SOL     OW16177   2.698   2.082   2.628
 5093SOL    HW116178   2.664   2.160   2.575
 5093SOL    HW216179   2.665   2.089   2.722
 5094SOL     OW16180   1.526   5.673   5.083
 5094SOL    HW116181   1.573   5.668   5.171
 5094SOL    HW216182   1.587   5.713   5.015
 5095SOL     OW16183   6.520   1.285   2.996
 5095SOL    HW116184   6.590   1.317   2.933
 5095SOL    HW216185   6.535   1.189   3.017
 5096SOL     OW16186   6.009   2.684   5.234
 5096SOL    HW116187   5.947   2.758   5.262
 5096SOL    HW216188   6.066   2.657   5.311
 5097SOL     OW16189   1.189   0.616   5.632
 5097SOL    HW116190   1.246   0.615   5.550
 5097SOL    HW216191   1.199   0.529   5.680
 5098SOL     OW16192   3.510   3.320   0.652
 5098SOL    HW116193   3.577   3.297   0.581
 5098SOL    HW216194   3.548   3.388   0.713
 5099SOL     OW16195   1.572   0.332   1.968
 5099SOL    HW116196   1.474   0.325   1.947
 5099SOL    HW216197   1.598   0.429   1.970
 5100SOL     OW16198   5.174   3.533   2.237
 5100SOL    HW116199   5.192   3.590   2.157
 5100SOL    HW216200   5.140   3.591   2.312
 5101SOL     OW16201   3.902   0.869   6.621
 5101SOL    HW116202   3.861   0.804   6.685
 5101SOL    HW216203   3.834   0.936   6.592
 5102SOL     OW16204   4.717   4.655   4.263
 5102SOL    HW116205   4.696   4.558   4.252
 5102SOL    HW216206   4.645   4.709   4.219
 5103SOL     OW16207   0.420   1.228   6.595
 5103SOL    HW116208   0.467   1.291   6.656
 5103SOL    HW216209   0.458   1.236   6.503
 5104SOL     OW16210   3.743   3.251   2.253
 5104SOL    HW116211   3.701   3.218   2.169
 5104SOL    HW216212   3.721   3.188   2.328
 5105SOL     OW16213   4.126   3.010   6.166
 5105SOL    HW116214   4.159   2.956   6.089
 5105SOL    HW216215   4.036   3.048   6.144
 5106SOL     OW16216   4.467   2.244   0.604
 5106SOL    HW116217   4.438   2.249   0.700
 5106SOL    HW216218   4.406   2.301   0.549
 5107SOL     OW16219   4.928   3.814   7.016
 5107SOL    HW116220   4.968   3.845   6.929
 5107SOL    HW216221   4.850   3.755   6.998
 5108SOL     OW16222   4.539   4.705   0.397
 5108SOL    HW116223   4.547   4.646   0.317
 5108SOL    HW216224   4.456   4.760   0.390
 5109SOL     OW16225   1.270   2.876   1.326
 5109SOL    HW116226   1.317   2.867   1.414
 5109SOL    HW216227   1.306   2.808   1.262
 5110SOL     OW16228   4.667   6.995   5.466
 5110SOL    HW116229   4.663   6.906   5.510
 5110SOL    HW216230   4.681   0.045   5.535
 5111SOL     OW16231   0.257   6.566   4.620
 5111SOL    HW116232   0.249   6.468   4.604
 5111SOL    HW216233   0.322   6.605   4.555
 5112SOL     OW16234   6.651   6.344   3.264
 5112SOL    HW116235   6.563   6.390   3.265
 5112SOL    HW216236   6.686   6.341   3.170
 5113SOL     OW16237   1.378   3.818   0.011
 5113SOL    HW116238   1.458   3.847   0.064
 5113SOL    HW216239   1.408   3.762   6.955
 5114SOL     OW16240   4.847   4.736   1.152
 5114SOL    HW116241   4.748   4.751   1.141
 5114SOL    HW216242   4.883   4.804   1.216
 5115SOL     OW16243   1.829   4.164   0.870
 5115SOL    HW116244   1.791   4.081   0.910
 5115SOL    HW216245   1.801   4.243   0.924
 5116SOL     OW16246   1.193   0.444   6.043
 5116SOL    HW116247   1.169   0.525   5.989
 5116SOL    HW216248   1.117   0.420   6.104
 5117SOL     OW16249   1.034   2.763   3.601
 5117SOL    HW116250   1.074   2.687   3.550
 5117SOL    HW216251   1.101   2.837   3.608
 5118SOL     OW16252   4.438   5.532   6.595
 5118SOL    HW116253   4.387   5.617   6.584
 5118SOL    HW216254   4.402   5.464   6.531
 5119SOL     OW16255   5.518   0.724   0.576
 5119SOL    HW116256   5.488   0.754   0.666
 5119SOL    HW216257   5.470   0.640   0.551
 5120SOL     OW16258   5.463   6.423   6.782
 5120SOL    HW116259   5.369   6.402   6.756
 5120SOL    HW216260   5.523   6.410   6.703
 5121SOL     OW16261   1.393   3.488   6.476
 5121SOL    HW116262   1.351   3.417   6.420
 5121SOL    HW216263   1.436   3.445   6.556
 5122SOL     OW16264   4.964   4.855   3.550
 5122SOL    HW116265   4.953   4.918   3.627
 5122SOL    HW216266   4.885   4.793   3.546
 5123SOL     OW16267   4.932   3.456   1.430
 5123SOL    HW116268   4.844   3.413   1.447
 5123SOL    HW216269   5.002   3.416   1.490
 5124SOL     OW16270   2.257   6.396   5.212
 5124SOL    HW116271   2.238   6.463   5.284
 5124SOL    HW216272   2.205   6.313   5.229
 5125SOL     OW16273   6.603   1.761   3.592
 5125SOL    HW116274   6.596   1.681   3.650
 5125SOL    HW216275   6.511   1.798   3.574
 5126SOL     OW16276   1.889   0.300   1.535
 5126SOL    HW116277   1.903   0.393   1.500
 5126SOL    HW216278   1.927   0.294   1.628
 5127SOL     OW16279   2.085   5.231   0.124
 5127SOL    HW116280   2.090   5.303   0.194
 5127SOL    HW216281   2.086   5.273   0.034
 5128SOL     OW16282   6.190   0.203   1.997
 5128SOL    HW116283   6.191   0.291   2.044
 5128SOL    HW216284   6.119   0.204   1.926
 5129SOL     OW16285   5.852   6.725   0.904
 5129SOL    HW116286   5.770   6.780   0.894
 5129SOL    HW216287   5.894   6.711   0.814
 5130SOL     OW16288   6.966   4.523   2.898
 5130SOL    HW116289   6.917   4.557   2.979
 5130SOL    HW216290   6.937   4.430   2.877
 5131SOL     OW16291   2.513   2.434   2.726
 5131SOL    HW116292   2.432   2.387   2.689
 5131SOL    HW216293   2.491   2.473   2.815
 5132SOL     OW16294   2.972   5.993   5.606
 5132SOL    HW116295   2.969   5.898   5.575
 5132SOL    HW216296   3.067   6.026   5.600
 5133SOL     OW16297   3.834   6.120   5.677
 5133SOL    HW116298   3.817   6.034   5.724
 5133SOL    HW216299   3.888   6.104   5.595
 5134SOL     OW16300   6.214   4.351   7.002
 5134SOL    HW116301   6.313   4.341   6.995
 5134SOL    HW216302   6.182   4.310   0.066
 5135SOL     OW16303   5.597   1.821   4.478
 5135SOL    HW116304   5.591   1.787   4.385
 5135SOL    HW216305   5.523   1.783   4.533
 5136SOL     OW16306   4.277   0.885   4.427
 5136SOL    HW116307   4.231   0.899   4.515
 5136SOL    HW216308   4.275   0.788   4.404
 5137SOL     OW16309   3.667   4.232   7.021
 5137SOL    HW116310   3.737   4.166   6.994
 5137SOL    HW216311   3.580   4.184   0.016
 5138SOL     OW16312   2.441   3.155   6.053
 5138SOL    HW116313   2.479   3.135   6.144
 5138SOL    HW216314   2.365   3.219   6.063
 5139SOL     OW16315   0.648   0.228   3.196
 5139SOL    HW116316   0.689   0.295   3.135
 5139SOL    HW216317   0.556   0.205   3.164
 5140SOL     OW16318   3.835   2.709   1.587
 5140SOL    HW116319   3.790   2.622   1.605
 5140SOL    HW216320   3.885   2.703   1.500
 5141SOL     OW16321   6.693   3.701   6.200
 5141SOL    HW116322   6.663   3.606   6.197
 5141SOL    HW216323   6.744   3.717   6.285
 5142SOL     OW16324   5.406   3.348   3.945
 5142SOL    HW116325   5.501   3.362   3.915
 5142SOL    HW216326   5.362   3.437   3.959
 5143SOL     OW16327   6.903   4.740   4.522
 5143SOL    HW116328   6.834   4.669   4.538
 5143SOL    HW216329   6.982   4.700   4.475
 5144SOL     OW16330   1.493   1.221   4.527
 5144SOL    HW116331   1.487   1.321   4.527
 5144SOL    HW216332   1.525   1.190   4.437
 5145SOL     OW16333   3.222   6.040   5.917
 5145SOL    HW116334   3.191   5.949   5.889
 5145SOL    HW216335   3.303   6.065   5.864
 5146SOL     OW16336   2.230   4.346   6.847
 5146SOL    HW116337   2.293   4.371   6.774
 5146SOL    HW216338   2.259   4.260   6.889
 5147SOL     OW16339   6.362   5.217   7.014
 5147SOL    HW116340   6.442   5.276   0.001
 5147SOL    HW216341   6.380   5.130   0.038
 5148SOL     OW16342   0.768   6.985   2.005
 5148SOL    HW116343   0.693   0.008   1.957
 5148SOL    HW216344   0.823   0.033   2.053
 5149SOL     OW16345   6.436   0.760   5.355
 5149SOL    HW116346   6.399   0.715   5.437
 5149SOL    HW216347   6.523   0.802   5.378
 5150SOL     OW16348   1.549   5.208   4.287
 5150SOL    HW116349   1.532   5.114   4.318
 5150SOL    HW216350   1.590   5.205   4.196
 5151SOL     OW16351   4.352   1.071   6.173
 5151SOL    HW116352   4.409   0.990   6.157
 5151SOL    HW216353   4.346   1.089   6.271
 5152SOL     OW16354   0.942   5.366   0.381
 5152SOL    HW116355   0.889   5.442   0.342
 5152SOL    HW216356   0.960   5.385   0.478
 5153SOL     OW16357   1.695   1.857   1.043
 5153SOL    HW116358   1.677   1.942   1.092
 5153SOL    HW216359   1.761   1.874   0.970
 5154SOL     OW16360   2.182   3.063   4.480
 5154SOL    HW116361   2.210   3.132   4.547
 5154SOL    HW216362   2.184   2.973   4.523
 5155SOL     OW16363   3.374   0.894   1.817
 5155SOL    HW116364   3.468   0.922   1.796
 5155SOL    HW216365   3.310   0.953   1.769
 5156SOL     OW16366   5.996   3.284   5.690
 5156SOL    HW116367   6.033   3.238   5.770
 5156SOL    HW216368   6.000   3.383   5.704
 5157SOL     OW16369   5.744   3.089   3.853
 5157SOL    HW116370   5.832   3.075   3.897
 5157SOL    HW216371   5.719   3.008   3.799
 5158SOL     OW16372   3.698   0.943   0.501
 5158SOL    HW116373   3.750   0.996   0.569
 5158SOL    HW216374   3.691   0.848   0.531
 5159SOL     OW16375   1.434   2.898   4.481
 5159SOL    HW116376   1.509   2.898   4.415
 5159SOL    HW216377   1.441   2.819   4.541
 5160SOL     OW16378   2.132   2.742   3.829
 5160SOL    HW116379   2.085   2.715   3.912
 5160SOL    HW216380   2.081   2.709   3.749
 5161SOL     OW16381   1.621   3.050   6.824
 5161SOL    HW116382   1.544   3.109   6.798
 5161SOL    HW216383   1.704   3.083   6.779
 5162SOL     OW16384   6.141   6.202   5.375
 5162SOL    HW116385   6.166   6.136   5.447
 5162SOL    HW216386   6.167   6.164   5.286
 5163SOL     OW16387   5.379   3.491   0.862
 5163SOL    HW116388   5.450   3.438   0.908
 5163SOL    HW216389   5.327   3.431   0.801
 5164SOL     OW16390   6.080   5.273   5.877
 5164SOL    HW116391   6.043   5.328   5.952
 5164SOL    HW216392   6.128   5.194   5.914
 5165SOL     OW16393   6.405   4.308   4.074
 5165SOL    HW116394   6.320   4.333   4.029
 5165SOL    HW216395   6.440   4.223   4.033
 5166SOL     OW16396   1.227   0.603   1.983
 5166SOL    HW116397   1.156   0.649   1.929
 5166SOL    HW216398   1.189   0.575   2.071
 5167SOL     OW16399   0.842   6.544   5.825
 5167SOL    HW116400   0.752   6.525   5.863
 5167SOL    HW216401   0.913   6.517   5.890
 5168SOL     OW16402   3.781   1.961   2.866
 5168SOL    HW116403   3.771   2.031   2.796
 5168SOL    HW216404   3.697   1.954   2.920
 5169SOL     OW16405   3.699   4.446   6.225
 5169SOL    HW116406   3.799   4.443   6.236
 5169SOL    HW216407   3.656   4.419   6.311
 5170SOL     OW16408   4.690   4.405   4.180
 5170SOL    HW116409   4.727   4.314   4.196
 5170SOL    HW216410   4.753   4.456   4.121
 5171SOL     OW16411   2.736   4.737   4.849
 5171SOL    HW116412   2.787   4.681   4.914
 5171SOL    HW216413   2.656   4.687   4.817
 5172SOL     OW16414   1.832   4.779   0.554
 5172SOL    HW116415   1.873   4.720   0.485
 5172SOL    HW216416   1.860   4.749   0.645
 5173SOL     OW16417   5.918   4.080   6.058
 5173SOL    HW116418   5.944   4.175   6.073
 5173SOL    HW216419   5.879   4.070   5.966
 5174SOL     OW16420   1.229   4.416   5.732
 5174SOL    HW116421   1.304   4.360   5.697
 5174SOL    HW216422   1.172   4.360   5.793
 5175SOL     OW16423   0.281   4.943   6.510
 5175SOL    HW116424   0.288   4.930   6.609
 5175SOL    HW216425   0.298   5.039   6.488
 5176SOL     OW16426   5.188   3.328   6.998
 5176SOL    HW116427   5.202   3.233   6.970
 5176SOL    HW216428   5.178   3.333   0.075
 5177SOL     OW16429   5.803   6.846   6.899
 5177SOL    HW116430   5.732   6.778   6.883
 5177SOL    HW216431   5.761   6.932   6.928
 5178SOL     OW16432   2.901   2.076   1.480
 5178SOL    HW116433   2.862   2.066   1.389
 5178SOL    HW216434   2.947   2.165   1.487
 5179SOL     OW16435   2.809   6.033   5.821
 5179SOL    HW116436   2.889   5.994   5.776
 5179SOL    HW216437   2.739   6.053   5.753
 5180SOL     OW16438   3.589   2.683   0.855
 5180SOL    HW116439   3.504   2.690   0.803
 5180SOL    HW216440   3.569   2.646   0.946
 5181SOL     OW16441   3.388   5.520   2.431
 5181SOL    HW116442   3.334   5.497   2.511
 5181SOL    HW216443   3.424   5.613   2.440
 5182SOL     OW16444   4.937   4.292   1.610
 5182SOL    HW116445   4.863   4.360   1.605
 5182SOL    HW216446   5.000   4.316   1.683
 5183SOL     OW16447   4.069   0.605   3.117
 5183SOL    HW116448   4.109   0.697   3.125
 5183SOL    HW216449   4.082   0.572   3.023
 5184SOL     OW16450   0.708   1.860   3.221
 5184SOL    HW116451   0.641   1.822   3.158
 5184SOL    HW216452   0.736   1.951   3.190
 5185SOL     OW16453   3.933   0.081   2.384
 5185SOL    HW116454   3.992   0.115   2.310
 5185SOL    HW216455   3.954   7.006   2.400
 5186SOL     OW16456   6.024   4.171   0.538
 5186SOL    HW116457   5.965   4.161   0.458
 5186SOL    HW216458   6.100   4.232   0.516
 5187SOL     OW16459   5.114   1.902   4.050
 5187SOL    HW116460   5.138   1.806   4.034
 5187SOL    HW216461   5.193   1.950   4.088
 5188SOL     OW16462   1.131   3.326   4.729
 5188SOL    HW116463   1.133   3.319   4.629
 5188SOL    HW216464   1.040   3.302   4.762
 5189SOL     OW16465   4.855   5.429   6.618
 5189SOL    HW116466   4.876   5.521   6.584
 5189SOL    HW216467   4.793   5.384   6.554
 5190SOL     OW16468   1.237   2.553   3.719
 5190SOL    HW116469   1.298   2.539   3.797
 5190SOL    HW216470   1.292   2.582   3.640
 5191SOL     OW16471   3.997   0.804   1.536
 5191SOL    HW116472   3.988   0.849   1.447
 5191SOL    HW216473   4.010   0.874   1.606
 5192SOL     OW16474   5.740   4.463   2.247
 5192SOL    HW116475   5.772   4.424   2.333
 5192SOL    HW216476   5.642   4.450   2.239
 5193SOL     OW16477   5.028   3.751   2.897
 5193SOL    HW116478   4.981   3.665   2.876
 5193SOL    HW216479   5.033   3.764   2.996
 5194SOL     OW16480   5.691   1.205   5.909
 5194SOL    HW116481   5.735   1.293   5.889
 5194SOL    HW216482   5.593   1.212   5.890
 5195SOL     OW16483   6.369   6.751   5.582
 5195SOL    HW116484   6.359   6.826   5.647
 5195SOL    HW216485   6.373   6.788   5.489
 5196SOL     OW16486   0.863   3.130   1.946
 5196SOL    HW116487   0.879   3.189   1.867
 5196SOL    HW216488   0.949   3.116   1.996
 5197SOL     OW16489   3.429   6.000   5.058
 5197SOL    HW116490   3.467   5.908   5.068
 5197SOL    HW216491   3.400   6.034   5.148
 5198SOL     OW16492   4.304   0.059   5.846
 5198SOL    HW116493   4.273   0.039   5.753
 5198SOL    HW216494   4.246   0.009   5.911
 5199SOL     OW16495   1.051   5.054   1.643
 5199SOL    HW116496   0.994   4.992   1.698
 5199SOL    HW216497   1.134   5.076   1.694
 5200SOL     OW16498   0.133   0.539   5.379
 5200SOL    HW116499   0.217   0.536   5.324
 5200SOL    HW216500   0.116   0.633   5.409
 5201SOL     OW16501   6.276   4.682   5.178
 5201SOL    HW116502   6.248   4.588   5.158
 5201SOL    HW216503   6.317   4.723   5.096
 5202SOL     OW16504   3.786   3.006   5.624
 5202SOL    HW116505   3.752   2.934   5.564
 5202SOL    HW216506   3.744   3.093   5.599
 5203SOL     OW16507   1.974   0.424   6.459
 5203SOL    HW116508   2.054   0.409   6.517
 5203SOL    HW216509   1.910   0.348   6.471
 5204SOL     OW16510   2.862   0.450   0.860
 5204SOL    HW116511   2.892   0.358   0.886
 5204SOL    HW216512   2.935   0.497   0.810
 5205SOL     OW16513   6.829   6.354   0.997
 5205SOL    HW116514   6.752   6.307   1.041
 5205SOL    HW216515   6.842   6.318   0.905
 5206SOL     OW16516   1.155   5.063   3.713
 5206SOL    HW116517   1.170   5.103   3.622
 5206SOL    HW216518   1.096   5.124   3.766
 5207SOL     OW16519   6.603   6.646   3.963
 5207SOL    HW116520   6.641   6.738   3.958
 5207SOL    HW216521   6.613   6.611   4.057
 5208SOL     OW16522   6.101   2.218   0.617
 5208SOL    HW116523   6.077   2.298   0.673
 5208SOL    HW216524   6.090   2.135   0.672
 5209SOL     OW16525   5.961   6.057   3.451
 5209SOL    HW116526   5.988   6.144   3.491
 5209SOL    HW216527   5.946   5.990   3.524
 5210SOL     OW16528   5.501   4.167   0.265
 5210SOL    HW116529   5.521   4.128   0.355
 5210SOL    HW216530   5.560   4.124   0.197
 5211SOL     OW16531   5.587   2.327   5.181
 5211SOL    HW116532   5.518   2.260   5.152
 5211SOL    HW216533   5.673   2.309   5.134
 5212SOL     OW16534   0.584   3.632   0.066
 5212SOL    HW116535   0.542   3.710   0.112
 5212SOL    HW216536   0.665   3.661   0.016
 5213SOL     OW16537   3.918   3.503   3.072
 5213SOL    HW116538   3.950   3.585   3.119
 5213SOL    HW216539   3.996   3.445   3.048
 5214SOL     OW16540   5.825   3.532   5.401
 5214SOL    HW116541   5.777   3.453   5.362
 5214SOL    HW216542   5.758   3.600   5.431
 5215SOL     OW16543   0.539   3.835   4.963
 5215SOL    HW116544   0.637   3.815   4.966
 5215SOL    HW216545   0.490   3.771   5.021
 5216SOL     OW16546   5.280   5.094   1.274
 5216SOL    HW116547   5.262   5.077   1.371
 5216SOL    HW216548   5.246   5.017   1.220
 5217SOL     OW16549   4.535   6.157   3.092
 5217SOL    HW116550   4.445   6.114   3.085
 5217SOL    HW216551   4.606   6.088   3.078
 5218SOL     OW16552   6.508   0.121   0.610
 5218SOL    HW116553   6.445   0.123   0.532
 5218SOL    HW216554   6.505   0.031   0.652
 5219SOL     OW16555   3.348   1.159   5.102
 5219SOL    HW116556   3.291   1.079   5.081
 5219SOL    HW216557   3.361   1.166   5.201
 5220SOL     OW16558   2.204   5.440   4.632
 5220SOL    HW116559   2.155   5.384   4.566
 5220SOL    HW216560   2.189   5.537   4.610
 5221SOL     OW16561   6.278   5.502   1.224
 5221SOL    HW116562   6.195   5.461   1.186
 5221SOL    HW216563   6.281   5.599   1.200
 5222SOL     OW16564   6.618   3.845   1.216
 5222SOL    HW116565   6.623   3.762   1.161
 5222SOL    HW216566   6.544   3.836   1.283
 5223SOL     OW16567   0.033   3.050   0.444
 5223SOL    HW116568   0.065   3.096   0.526
 5223SOL    HW216569   7.002   2.968   0.469
 5224SOL     OW16570   0.222   2.209   4.549
 5224SOL    HW116571   0.123   2.195   4.562
 5224SOL    HW216572   0.250   2.168   4.462
 5225SOL     OW16573   6.831   1.485   4.223
 5225SOL    HW116574   6.793   1.556   4.283
 5225SOL    HW216575   6.930   1.484   4.230
 5226SOL     OW16576   0.615   6.569   3.784
 5226SOL    HW116577   0.687   6.561   3.854
 5226SOL    HW216578   0.614   6.486   3.728
 5227SOL     OW16579   0.444   3.779   5.515
 5227SOL    HW116580   0.404   3.839   5.445
 5227SOL    HW216581   0.491   3.836   5.583
 5228SOL     OW16582   1.079   1.168   5.235
 5228SOL    HW116583   0.986   1.131   5.239
 5228SOL    HW216584   1.080   1.247   5.174
 5229SOL     OW16585   3.103   1.776   6.454
 5229SOL    HW116586   3.090   1.711   6.529
 5229SOL    HW216587   3.014   1.816   6.429
 5230SOL     OW16588   6.897   6.810   1.654
 5230SOL    HW116589   6.837   6.762   1.718
 5230SOL    HW216590   6.869   6.789   1.561
 5231SOL     OW16591   6.453   3.081   1.878
 5231SOL    HW116592   6.532   3.088   1.818
 5231SOL    HW216593   6.455   3.157   1.943
 5232SOL     OW16594   2.231   2.592   6.039
 5232SOL    HW116595   2.321   2.582   5.997
 5232SOL    HW216596   2.161   2.558   5.977
 5233SOL     OW16597   3.240   6.308   2.596
 5233SOL    HW116598   3.155   6.338   2.553
 5233SOL    HW216599   3.260   6.367   2.674
 5234SOL     OW16600   3.129   2.097   6.721
 5234SOL    HW116601   3.196   2.073   6.792
 5234SOL    HW216602   3.177   2.123   6.638
 5235SOL     OW16603   2.486   1.967   1.381
 5235SOL    HW116604   2.402   1.925   1.344
 5235SOL    HW216605   2.484   2.066   1.364
 5236SOL     OW16606   3.129   5.178   1.030
 5236SOL    HW116607   3.157   5.217   1.117
 5236SOL    HW216608   3.045   5.124   1.043
 5237SOL     OW16609   1.941   2.188   2.469
 5237SOL    HW116610   1.882   2.127   2.521
 5237SOL    HW216611   2.032   2.146   2.458
 5238SOL     OW16612   0.411   6.741   2.516
 5238SOL    HW116613   0.399   6.656   2.466
 5238SOL    HW216614   0.495   6.738   2.568
 5239SOL     OW16615   2.331   3.707   0.967
 5239SOL    HW116616   2.405   3.641   0.967
 5239SOL    HW216617   2.347   3.776   0.896
 5240SOL     OW16618   2.489   4.087   5.684
 5240SOL    HW116619   2.551   4.147   5.634
 5240SOL    HW216620   2.524   3.993   5.682
 5241SOL     OW16621   1.033   6.283   2.330
 5241SOL    HW116622   1.074   6.301   2.241
 5241SOL    HW216623   1.099   6.302   2.402
 5242SOL     OW16624   4.512   1.079   6.662
 5242SOL    HW116625   4.529   1.078   6.563
 5242SOL    HW216626   4.531   0.989   6.699
 5243SOL     OW16627   2.606   6.122   1.866
 5243SOL    HW116628   2.608   6.203   1.808
 5243SOL    HW216629   2.573   6.148   1.957
 5244SOL     OW16630   5.238   1.265   0.178
 5244SOL    HW116631   5.220   1.210   0.260
 5244SOL    HW216632   5.269   1.356   0.205
 5245SOL     OW16633   3.422   4.040   1.631
 5245SOL    HW116634   3.448   4.096   1.710
 5245SOL    HW216635   3.323   4.028   1.630
 5246SOL     OW16636   6.535   4.112   6.335
 5246SOL    HW116637   6.467   4.039   6.328
 5246SOL    HW216638   6.512   4.185   6.271
 5247SOL     OW16639   4.089   1.713   6.188
 5247SOL    HW116640   4.066   1.625   6.231
 5247SOL    HW216641   4.008   1.750   6.143
 5248SOL     OW16642   5.623   1.087   3.397
 5248SOL    HW116643   5.605   1.088   3.299
 5248SOL    HW216644   5.548   1.133   3.445
 5249SOL     OW16645   0.369   4.861   0.635
 5249SOL    HW116646   0.295   4.928   0.629
 5249SOL    HW216647   0.365   4.800   0.557
 5250SOL     OW16648   1.998   5.525   0.983
 5250SOL    HW116649   1.912   5.574   0.970
 5250SOL    HW216650   2.049   5.565   1.058
 5251SOL     OW16651   0.702   5.435   0.661
 5251SOL    HW116652   0.715   5.424   0.760
 5251SOL    HW216653   0.791   5.455   0.619
 5252SOL     OW16654   3.875   6.209   2.332
 5252SOL    HW116655   3.887   6.242   2.426
 5252SOL    HW216656   3.790   6.248   2.294
 5253SOL     OW16657   6.748   5.869   4.812
 5253SOL    HW116658   6.662   5.829   4.843
 5253SOL    HW216659   6.773   5.945   4.872
 5254SOL     OW16660   4.989   6.499   3.501
 5254SOL    HW116661   4.976   6.455   3.412
 5254SOL    HW216662   4.980   6.598   3.491
 5255SOL     OW16663   6.344   1.628   4.892
 5255SOL    HW116664   6.341   1.588   4.984
 5255SOL    HW216665   6.388   1.718   4.897
 5256SOL     OW16666   6.728   1.556   2.100
 5256SOL    HW116667   6.827   1.572   2.100
 5256SOL    HW216668   6.710   1.460   2.121
 5257SOL     OW16669   4.289   1.622   6.044
 5257SOL    HW116670   4.381   1.619   6.083
 5257SOL    HW216671   4.222   1.633   6.117
 5258SOL     OW16672   4.286   1.229   3.634
 5258SOL    HW116673   4.351   1.305   3.644
 5258SOL    HW216674   4.253   1.225   3.540
 5259SOL     OW16675   6.239   5.041   3.799
 5259SOL    HW116676   6.309   4.991   3.851
 5259SOL    HW216677   6.211   4.986   3.720
 5260SOL     OW16678   1.968   0.638   1.221
 5260SOL    HW116679   1.969   0.607   1.126
 5260SOL    HW216680   2.010   0.729   1.227
 5261SOL     OW16681   5.619   4.704   6.488
 5261SOL    HW116682   5.693   4.644   6.520
 5261SOL    HW216683   5.572   4.743   6.568
 5262SOL     OW16684   1.522   1.559   2.607
 5262SOL    HW116685   1.510   1.565   2.508
 5262SOL    HW216686   1.564   1.643   2.641
 5263SOL     OW16687   1.651   6.507   2.284
 5263SOL    HW116688   1.627   6.419   2.324
 5263SOL    HW216689   1.727   6.495   2.220
 5264SOL     OW16690   6.550   1.416   1.655
 5264SOL    HW116691   6.572   1.514   1.656
 5264SOL    HW216692   6.527   1.388   1.563
 5265SOL     OW16693   6.909   4.896   5.244
 5265SOL    HW116694   6.968   4.816   5.251
 5265SOL    HW216695   6.864   4.912   5.332
 5266SOL     OW16696   1.852   0.632   6.271
 5266SOL    HW116697   1.899   0.574   6.338
 5266SOL    HW216698   1.803   0.705   6.318
 5267SOL     OW16699   5.264   2.421   4.204
 5267SOL    HW116700   5.199   2.489   4.236
 5267SOL    HW216701   5.214   2.338   4.178
 5268SOL     OW16702   5.417   0.214   5.987
 5268SOL    HW116703   5.417   0.313   6.003
 5268SOL    HW216704   5.440   0.167   6.072
 5269SOL     OW16705   0.279   0.115   3.404
 5269SOL    HW116706   0.199   0.165   3.438
 5269SOL    HW216707   0.258   0.018   3.398
 5270SOL     OW16708   0.628   1.136   6.352
 5270SOL    HW116709   0.717   1.151   6.310
 5270SOL    HW216710   0.601   1.041   6.342
 5271SOL     OW16711   0.758   5.362   3.143
 5271SOL    HW116712   0.740   5.407   3.230
 5271SOL    HW216713   0.740   5.264   3.152
 5272SOL     OW16714   4.239   7.011   6.829
 5272SOL    HW116715   4.296   0.044   6.891
 5272SOL    HW216716   4.297   6.951   6.774
 5273SOL     OW16717   2.336   1.845   2.545
 5273SOL    HW116718   2.324   1.745   2.542
 5273SOL    HW216719   2.367   1.871   2.637
 5274SOL     OW16720   5.136   4.878   1.155
 5274SOL    HW116721   5.098   4.880   1.062
 5274SOL    HW216722   5.194   4.797   1.166
 5275SOL     OW16723   4.631   2.164   6.576
 5275SOL    HW116724   4.683   2.205   6.501
 5275SOL    HW216725   4.553   2.114   6.540
 5276SOL     OW16726   4.251   6.641   1.496
 5276SOL    HW116727   4.220   6.726   1.538
 5276SOL    HW216728   4.220   6.638   1.401
 5277SOL     OW16729   1.839   3.001   2.035
 5277SOL    HW116730   1.915   3.061   2.056
 5277SOL    HW216731   1.759   3.055   2.011
 5278SOL     OW16732   4.235   3.560   1.709
 5278SOL    HW116733   4.273   3.470   1.685
 5278SOL    HW216734   4.284   3.631   1.660
 5279SOL     OW16735   2.017   5.960   2.585
 5279SOL    HW116736   1.961   5.928   2.508
 5279SOL    HW216737   1.958   6.007   2.651
 5280SOL     OW16738   4.373   6.791   5.485
 5280SOL    HW116739   4.394   6.794   5.387
 5280SOL    HW216740   4.359   6.884   5.519
 5281SOL     OW16741   0.050   3.003   2.749
 5281SOL    HW116742   0.131   2.948   2.731
 5281SOL    HW216743   6.992   2.944   2.758
 5282SOL     OW16744   4.938   1.422   1.830
 5282SOL    HW116745   4.984   1.493   1.776
 5282SOL    HW216746   4.876   1.371   1.771
 5283SOL     OW16747   5.570   5.465   6.238
 5283SOL    HW116748   5.558   5.387   6.300
 5283SOL    HW216749   5.668   5.475   6.217
 5284SOL     OW16750   4.902   2.529   3.368
 5284SOL    HW116751   4.916   2.447   3.423
 5284SOL    HW216752   4.803   2.543   3.354
 5285SOL     OW16753   3.766   5.741   2.383
 5285SOL    HW116754   3.839   5.674   2.397
 5285SOL    HW216755   3.693   5.724   2.449
 5286SOL     OW16756   2.453   5.254   2.118
 5286SOL    HW116757   2.442   5.311   2.037
 5286SOL    HW216758   2.520   5.182   2.101
 5287SOL     OW16759   0.355   1.838   1.756
 5287SOL    HW116760   0.289   1.869   1.824
 5287SOL    HW216761   0.346   1.740   1.743
 5288SOL     OW16762   4.330   1.222   0.566
 5288SOL    HW116763   4.424   1.209   0.535
 5288SOL    HW216764   4.267   1.182   0.500
 5289SOL     OW16765   2.427   6.107   0.972
 5289SOL    HW116766   2.483   6.029   1.001
 5289SOL    HW216767   2.431   6.115   0.872
 5290SOL     OW16768   4.816   5.822   0.877
 5290SOL    HW116769   4.852   5.871   0.956
 5290SOL    HW216770   4.733   5.866   0.844
 5291SOL     OW16771   1.711   4.998   6.606
 5291SOL    HW116772   1.664   4.963   6.687
 5291SOL    HW216773   1.646   5.044   6.547
 5292SOL     OW16774   5.312   2.301   6.681
 5292SOL    HW116775   5.241   2.275   6.615
 5292SOL    HW216776   5.272   2.363   6.749
 5293SOL     OW16777   1.169   1.061   4.065
 5293SOL    HW116778   1.197   1.010   4.146
 5293SOL    HW216779   1.084   1.110   4.083
 5294SOL     OW16780   4.904   2.662   5.309
 5294SOL    HW116781   4.823   2.615   5.343
 5294SOL    HW216782   4.880   2.757   5.286
 5295SOL     OW16783   5.695   1.099   2.412
 5295SOL    HW116784   5.747   1.164   2.468
 5295SOL    HW216785   5.636   1.150   2.348
 5296SOL     OW16786   0.229   3.421   0.606
 5296SOL    HW116787   0.138   3.451   0.636
 5296SOL    HW216788   0.245   3.451   0.512
 5297SOL     OW16789   1.624   2.919   2.538
 5297SOL    HW116790   1.715   2.882   2.517
 5297SOL    HW216791   1.617   2.936   2.636
 5298SOL     OW16792   1.366   5.739   1.603
 5298SOL    HW116793   1.315   5.790   1.672
 5298SOL    HW216794   1.311   5.662   1.571
 5299SOL     OW16795   3.387   0.480   1.443
 5299SOL    HW116796   3.322   0.548   1.478
 5299SOL    HW216797   3.460   0.467   1.509
 5300SOL     OW16798   6.723   5.265   3.719
 5300SOL    HW116799   6.743   5.309   3.631
 5300SOL    HW216800   6.661   5.188   3.705
 5301SOL     OW16801   4.784   0.299   0.680
 5301SOL    HW116802   4.694   0.311   0.640
 5301SOL    HW216803   4.823   0.388   0.702
 5302SOL     OW16804   6.439   4.676   3.581
 5302SOL    HW116805   6.405   4.743   3.515
 5302SOL    HW216806   6.426   4.584   3.545
 5303SOL     OW16807   0.642   5.514   3.356
 5303SOL    HW116808   0.548   5.484   3.369
 5303SOL    HW216809   0.645   5.591   3.293
 5304SOL     OW16810   5.189   2.222   5.331
 5304SOL    HW116811   5.265   2.281   5.359
 5304SOL    HW216812   5.104   2.259   5.367
 5305SOL     OW16813   2.524   1.041   2.819
 5305SOL    HW116814   2.476   1.106   2.878
 5305SOL    HW216815   2.516   1.069   2.724
 5306SOL     OW16816   2.661   6.942   4.855
 5306SOL    HW116817   2.623   6.983   4.938
 5306SOL    HW216818   2.625   6.991   4.775
 5307SOL     OW16819   4.502   6.827   6.945
 5307SOL    HW116820   4.453   6.842   0.010
 5307SOL    HW216821   4.456   6.756   6.893
 5308SOL     OW16822   7.001   1.249   2.399
 5308SOL    HW116823   6.936   1.325   2.387
 5308SOL    HW216824   6.963   1.166   2.358
 5309SOL     OW16825   3.824   4.064   4.492
 5309SOL    HW116826   3.852   4.087   4.585
 5309SOL    HW216827   3.871   3.981   4.462
 5310SOL     OW16828   5.684   1.859   0.480
 5310SOL    HW116829   5.732   1.935   0.523
 5310SOL    HW216830   5.719   1.846   0.387
 5311SOL     OW16831   1.616   6.236   0.129
 5311SOL    HW116832   1.653   6.183   0.205
 5311SOL    HW216833   1.608   6.332   0.156
 5312SOL     OW16834   0.213   3.010   1.786
 5312SOL    HW116835   0.217   2.950   1.706
 5312SOL    HW216836   0.289   2.989   1.847
 5313SOL     OW16837   1.191   5.987   0.474
 5313SOL    HW116838   1.291   5.990   0.473
 5313SOL    HW216839   1.159   5.910   0.418
 5314SOL     OW16840   3.561   4.628   1.057
 5314SOL    HW116841   3.606   4.549   1.017
 5314SOL    HW216842   3.523   4.685   0.984
 5315SOL     OW16843   5.165   2.622   1.762
 5315SOL    HW116844   5.190   2.534   1.804
 5315SOL    HW216845   5.080   2.655   1.804
 5316SOL     OW16846   6.037   5.128   4.896
 5316SOL    HW116847   6.125   5.126   4.848
 5316SOL    HW216848   6.031   5.050   4.958
 5317SOL     OW16849   6.012   5.402   3.008
 5317SOL    HW116850   5.965   5.487   2.984
 5317SOL    HW216851   6.006   5.338   2.931
 5318SOL     OW16852   0.530   2.263   4.308
 5318SOL    HW116853   0.432   2.245   4.314
 5318SOL    HW216854   0.565   2.286   4.399
 5319SOL     OW16855   3.715   0.160   1.130
 5319SOL    HW116856   3.626   0.133   1.094
 5319SOL    HW216857   3.774   0.190   1.056
 5320SOL     OW16858   6.378   3.922   5.395
 5320SOL    HW116859   6.389   4.022   5.387
 5320SOL    HW216860   6.340   3.900   5.484
 5321SOL     OW16861   1.523   5.130   6.376
 5321SOL    HW116862   1.586   5.060   6.344
 5321SOL    HW216863   1.559   5.220   6.352
 5322SOL     OW16864   3.041   6.020   0.838
 5322SOL    HW116865   2.948   5.987   0.856
 5322SOL    HW216866   3.094   5.947   0.795
 5323SOL     OW16867   5.960   3.767   0.332
 5323SOL    HW116868   6.059   3.777   0.322
 5323SOL    HW216869   5.940   3.739   0.426
 5324SOL     OW16870   3.962   3.210   1.539
 5324SOL    HW116871   4.015   3.218   1.623
 5324SOL    HW216872   3.866   3.231   1.557
 5325SOL     OW16873   4.537   5.867   4.522
 5325SOL    HW116874   4.488   5.949   4.493
 5325SOL    HW216875   4.487   5.824   4.598
 5326SOL     OW16876   0.248   0.012   2.353
 5326SOL    HW116877   0.310   0.033   2.429
 5326SOL    HW216878   0.182   0.087   2.343
 5327SOL     OW16879   6.724   0.568   4.138
 5327SOL    HW116880   6.820   0.547   4.152
 5327SOL    HW216881   6.714   0.640   4.069
 5328SOL     OW16882   3.814   4.911   0.913
 5328SOL    HW116883   3.893   4.862   0.950
 5328SOL    HW216884   3.846   4.996   0.869
 5329SOL     OW16885   6.739   5.788   0.263
 5329SOL    HW116886   6.689   5.736   0.332
 5329SOL    HW216887   6.678   5.855   0.221
 5330SOL     OW16888   3.605   4.761   0.215
 5330SOL    HW116889   3.668   4.825   0.171
 5330SOL    HW216890   3.525   4.810   0.248
 5331SOL     OW16891   5.081   2.728   6.568
 5331SOL    HW116892   5.041   2.819   6.571
 5331SOL    HW216893   5.032   2.668   6.632
 5332SOL     OW16894   5.484   3.295   0.142
 5332SOL    HW116895   5.408   3.306   0.078
 5332SOL    HW216896   5.493   3.378   0.196
 5333SOL     OW16897   1.743   1.819   4.434
 5333SOL    HW116898   1.782   1.732   4.464
 5333SOL    HW216899   1.745   1.884   4.509
 5334SOL     OW16900   3.296   6.139   1.692
 5334SOL    HW116901   3.342   6.206   1.750
 5334SOL    HW216902   3.289   6.175   1.598
 5335SOL     OW16903   0.424   4.546   1.597
 5335SOL    HW116904   0.439   4.505   1.507
 5335SOL    HW216905   0.373   4.482   1.655
 5336SOL     OW16906   1.793   2.775   4.941
 5336SOL    HW116907   1.861   2.737   4.878
 5336SOL    HW216908   1.805   2.735   5.032
 5337SOL     OW16909   6.989   4.298   0.924
 5337SOL    HW116910   0.045   4.237   0.939
 5337SOL    HW216911   7.015   4.370   0.859
 5338SOL     OW16912   6.395   4.080   0.356
 5338SOL    HW116913   6.463   4.100   0.286
 5338SOL    HW216914   6.438   4.027   0.430
 5339SOL     OW16915   5.663   3.300   2.335
 5339SOL    HW116916   5.658   3.209   2.376
 5339SOL    HW216917   5.571   3.338   2.326
 5340SOL     OW16918   4.748   3.452   1.796
 5340SOL    HW116919   4.653   3.434   1.774
 5340SOL    HW216920   4.805   3.375   1.766
 5341SOL     OW16921   4.540   4.380   3.631
 5341SOL    HW116922   4.490   4.447   3.575
 5341SOL    HW216923   4.476   4.338   3.696
 5342SOL     OW16924   5.973   5.807   5.362
 5342SOL    HW116925   6.024   5.724   5.381
 5342SOL    HW216926   6.034   5.874   5.318
 5343SOL     OW16927   3.794   3.080   6.407
 5343SOL    HW116928   3.823   2.985   6.419
 5343SOL    HW216929   3.733   3.087   6.327
 5344SOL     OW16930   0.264   1.745   6.703
 5344SOL    HW116931   0.236   1.717   6.611
 5344SOL    HW216932   0.208   1.696   6.770
 5345SOL     OW16933   5.148   1.440   6.373
 5345SOL    HW116934   5.148   1.380   6.452
 5345SOL    HW216935   5.081   1.513   6.385
 5346SOL     OW16936   3.205   5.472   3.118
 5346SOL    HW116937   3.283   5.533   3.104
 5346SOL    HW216938   3.151   5.504   3.196
 5347SOL     OW16939   5.475   1.600   4.075
 5347SOL    HW116940   5.521   1.671   4.023
 5347SOL    HW216941   5.432   1.640   4.156
 5348SOL     OW16942   4.963   2.891   4.889
 5348SOL    HW116943   4.956   2.991   4.886
 5348SOL    HW216944   4.883   2.854   4.935
 5349SOL     OW16945   1.085   3.542   1.795
 5349SOL    HW116946   1.088   3.608   1.720
 5349SOL    HW216947   0.992   3.537   1.831
 5350SOL     OW16948   1.087   6.245   6.929
 5350SOL    HW116949   1.081   6.184   6.850
 5350SOL    HW216950   1.163   6.217   6.988
 5351SOL     OW16951   6.684   5.926   3.392
 5351SOL    HW116952   6.607   5.982   3.362
 5351SOL    HW216953   6.761   5.985   3.417
 5352SOL     OW16954   1.161   2.832   6.079
 5352SOL    HW116955   1.102   2.886   6.019
 5352SOL    HW216956   1.244   2.807   6.030
 5353SOL     OW16957   4.196   4.914   3.376
 5353SOL    HW116958   4.252   4.989   3.341
 5353SOL    HW216959   4.102   4.946   3.389
 5354SOL     OW16960   3.831   5.702   1.443
 5354SOL    HW116961   3.854   5.651   1.361
 5354SOL    HW216962   3.833   5.641   1.522
 5355SOL     OW16963   5.106   5.460   5.017
 5355SOL    HW116964   5.121   5.517   5.098
 5355SOL    HW216965   5.133   5.366   5.038
 5356SOL     OW16966   1.014   6.272   0.811
 5356SOL    HW116967   1.098   6.317   0.843
 5356SOL    HW216968   0.935   6.330   0.833
 5357SOL     OW16969   6.429   4.052   2.580
 5357SOL    HW116970   6.427   4.105   2.665
 5357SOL    HW216971   6.339   4.012   2.564
 5358SOL     OW16972   5.185   1.277   6.596
 5358SOL    HW116973   5.236   1.192   6.589
 5358SOL    HW216974   5.092   1.258   6.628
 5359SOL     OW16975   3.507   2.518   6.954
 5359SOL    HW116976   3.586   2.575   6.931
 5359SOL    HW216977   3.508   2.435   6.897
 5360SOL     OW16978   5.455   5.085   4.029
 5360SOL    HW116979   5.446   5.104   4.127
 5360SOL    HW216980   5.546   5.112   3.998
 5361SOL     OW16981   1.425   4.913   2.885
 5361SOL    HW116982   1.495   4.870   2.828
 5361SOL    HW216983   1.352   4.949   2.828
 5362SOL     OW16984   5.711   1.555   2.865
 5362SOL    HW116985   5.740   1.636   2.915
 5362SOL    HW216986   5.612   1.554   2.856
 5363SOL     OW16987   5.109   5.604   3.660
 5363SOL    HW116988   5.137   5.510   3.639
 5363SOL    HW216989   5.181   5.667   3.630
 5364SOL     OW16990   4.139   1.965   2.528
 5364SOL    HW116991   4.220   1.921   2.567
 5364SOL    HW216992   4.163   2.008   2.441
 5365SOL     OW16993   2.978   3.167   4.667
 5365SOL    HW116994   2.983   3.083   4.613
 5365SOL    HW216995   3.042   3.160   4.744
 5366SOL     OW16996   6.532   6.094   3.221
 5366SOL    HW116997   6.444   6.120   3.181
 5366SOL    HW216998   6.578   6.175   3.258
 5367SOL     OW16999   6.127   6.052   1.287
 5367SOL    HW117000   6.115   6.046   1.188
 5367SOL    HW217001   6.070   5.983   1.331
 5368SOL     OW17002   6.989   6.262   4.481
 5368SOL    HW117003   7.006   6.187   4.417
 5368SOL    HW217004   0.049   6.320   4.485
 5369SOL     OW17005   4.082   5.950   2.710
 5369SOL    HW117006   3.998   5.942   2.655
 5369SOL    HW217007   4.126   6.037   2.691
 5370SOL     OW17008   1.839   3.086   0.647
 5370SOL    HW117009   1.789   3.039   0.574
 5370SOL    HW217010   1.793   3.173   0.668
 5371SOL     OW17011   6.487   5.799   4.879
 5371SOL    HW117012   6.456   5.710   4.911
 5371SOL    HW217013   6.419   5.839   4.818
 5372SOL     OW17014   1.913   6.756   3.159
 5372SOL    HW117015   1.900   6.661   3.132
 5372SOL    HW217016   1.833   6.810   3.131
 5373SOL     OW17017   2.269   0.922   6.264
 5373SOL    HW117018   2.209   0.853   6.306
 5373SOL    HW217019   2.347   0.877   6.221
 5374SOL     OW17020   1.548   3.730   1.474
 5374SOL    HW117021   1.576   3.693   1.386
 5374SOL    HW217022   1.459   3.692   1.499
 5375SOL     OW17023   2.495   4.400   5.291
 5375SOL    HW117024   2.489   4.441   5.382
 5375SOL    HW217025   2.471   4.303   5.296
 5376SOL     OW17026   0.884   0.106   6.839
 5376SOL    HW117027   0.928   0.035   6.894
 5376SOL    HW217028   0.826   0.063   6.770
 5377SOL     OW17029   1.279   2.060   3.186
 5377SOL    HW117030   1.260   2.091   3.093
 5377SOL    HW217031   1.230   2.119   3.251
 5378SOL     OW17032   4.568   6.963   2.498
 5378SOL    HW117033   4.610   6.883   2.455
 5378SOL    HW217034   4.517   7.015   2.429
 5379SOL     OW17035   1.966   1.991   3.954
 5379SOL    HW117036   2.046   2.018   4.008
 5379SOL    HW217037   1.887   1.980   4.015
 5380SOL     OW17038   4.357   5.690   1.522
 5380SOL    HW117039   4.444   5.694   1.474
 5380SOL    HW217040   4.321   5.783   1.535
 5381SOL     OW17041   3.215   0.974   3.364
 5381SOL    HW117042   3.267   1.017   3.290
 5381SOL    HW217043   3.152   1.040   3.404
 5382SOL     OW17044   4.494   0.822   2.802
 5382SOL    HW117045   4.474   0.914   2.766
 5382SOL    HW217046   4.592   0.814   2.819
 5383SOL     OW17047   2.233   2.819   4.603
 5383SOL    HW117048   2.283   2.799   4.688
 5383SOL    HW217049   2.274   2.766   4.528
 5384SOL     OW17050   5.171   5.752   5.784
 5384SOL    HW117051   5.107   5.675   5.792
 5384SOL    HW217052   5.120   5.834   5.760
 5385SOL     OW17053   4.190   3.582   6.452
 5385SOL    HW117054   4.151   3.528   6.527
 5385SOL    HW217055   4.288   3.563   6.445
 5386SOL     OW17056   4.134   4.743   3.871
 5386SOL    HW117057   4.127   4.805   3.792
 5386SOL    HW217058   4.056   4.758   3.932
 5387SOL     OW17059   1.163   1.813   4.162
 5387SOL    HW117060   1.107   1.815   4.244
 5387SOL    HW217061   1.235   1.883   4.169
 5388SOL     OW17062   6.636   6.524   4.222
 5388SOL    HW117063   6.720   6.470   4.224
 5388SOL    HW217064   6.558   6.463   4.232
 5389SOL     OW17065   5.340   1.080   4.183
 5389SOL    HW117066   5.413   1.078   4.251
 5389SOL    HW217067   5.359   1.152   4.116
 5390SOL     OW17068   6.819   3.950   3.347
 5390SOL    HW117069   6.840   3.905   3.433
 5390SOL    HW217070   6.756   3.893   3.293
 5391SOL     OW17071   3.233   2.638   1.019
 5391SOL    HW117072   3.167   2.614   0.948
 5391SOL    HW217073   3.190   2.631   1.109
 5392SOL     OW17074   5.512   0.792   4.416
 5392SOL    HW117075   5.473   0.721   4.358
 5392SOL    HW217076   5.458   0.799   4.501
 5393SOL     OW17077   4.195   1.435   3.861
 5393SOL    HW117078   4.125   1.439   3.932
 5393SOL    HW217079   4.223   1.528   3.837
 5394SOL     OW17080   0.241   2.743   1.691
 5394SOL    HW117081   0.158   2.738   1.747
 5394SOL    HW217082   0.225   2.802   1.612
 5395SOL     OW17083   6.896   1.743   0.779
 5395SOL    HW117084   6.961   1.753   0.853
 5395SOL    HW217085   6.845   1.828   0.766
 5396SOL     OW17086   4.177   3.107   0.669
 5396SOL    HW117087   4.243   3.111   0.744
 5396SOL    HW217088   4.193   3.025   0.614
 5397SOL     OW17089   6.674   0.235   2.436
 5397SOL    HW117090   6.690   0.308   2.502
 5397SOL    HW217091   6.680   0.272   2.343
 5398SOL     OW17092   6.891   3.375   2.592
 5398SOL    HW117093   6.903   3.377   2.492
 5398SOL    HW217094   6.807   3.325   2.614
 5399SOL     OW17095   1.943   3.205   1.001
 5399SOL    HW117096   1.968   3.117   0.960
 5399SOL    HW217097   1.904   3.190   1.092
 5400SOL     OW17098   4.670   3.306   1.496
 5400SOL    HW117099   4.617   3.312   1.411
 5400SOL    HW217100   4.608   3.299   1.574
 5401SOL     OW17101   5.615   2.817   1.294
 5401SOL    HW117102   5.598   2.719   1.285
 5401SOL    HW217103   5.591   2.863   1.208
 5402SOL     OW17104   1.152   5.934   2.528
 5402SOL    HW117105   1.218   5.873   2.570
 5402SOL    HW217106   1.121   5.896   2.440
 5403SOL     OW17107   5.143   2.427   6.924
 5403SOL    HW117108   5.174   2.491   6.994
 5403SOL    HW217109   5.164   2.333   6.952
 5404SOL     OW17110   5.222   6.986   0.045
 5404SOL    HW117111   5.322   6.997   0.046
 5404SOL    HW217112   5.187   6.995   0.139
 5405SOL     OW17113   0.233   5.123   0.264
 5405SOL    HW117114   0.317   5.178   0.262
 5405SOL    HW217115   0.243   5.045   0.203
 5406SOL     OW17116   2.525   1.117   5.814
 5406SOL    HW117117   2.519   1.213   5.842
 5406SOL    HW217118   2.583   1.067   5.878
 5407SOL     OW17119   1.165   6.609   3.559
 5407SOL    HW117120   1.236   6.573   3.619
 5407SOL    HW217121   1.088   6.641   3.614
 5408SOL     OW17122   2.985   1.869   4.544
 5408SOL    HW117123   2.907   1.883   4.605
 5408SOL    HW217124   3.007   1.771   4.540
 5409SOL     OW17125   1.031   2.285   2.564
 5409SOL    HW117126   0.942   2.331   2.567
 5409SOL    HW217127   1.017   2.187   2.552
 5410SOL     OW17128   6.342   2.811   0.706
 5410SOL    HW117129   6.403   2.809   0.626
 5410SOL    HW217130   6.264   2.869   0.687
 5411SOL     OW17131   3.628   5.653   0.058
 5411SOL    HW117132   3.650   5.746   0.027
 5411SOL    HW217133   3.702   5.591   0.032
 5412SOL     OW17134   0.811   2.115   5.595
 5412SOL    HW117135   0.877   2.094   5.523
 5412SOL    HW217136   0.858   2.162   5.670
 5413SOL     OW17137   0.739   5.058   4.831
 5413SOL    HW117138   0.653   5.107   4.845
 5413SOL    HW217139   0.802   5.114   4.778
 5414SOL     OW17140   5.746   4.202   5.459
 5414SOL    HW117141   5.711   4.114   5.428
 5414SOL    HW217142   5.675   4.249   5.512
 5415SOL     OW17143   2.605   1.371   0.309
 5415SOL    HW117144   2.696   1.358   0.348
 5415SOL    HW217145   2.540   1.310   0.353
 5416SOL     OW17146   3.344   5.284   6.932
 5416SOL    HW117147   3.379   5.378   6.934
 5416SOL    HW217148   3.254   5.283   6.889
 5417SOL     OW17149   5.123   6.794   3.872
 5417SOL    HW117150   5.142   6.756   3.782
 5417SOL    HW217151   5.045   6.746   3.913
 5418SOL     OW17152   7.001   3.067   5.501
 5418SOL    HW117153   0.043   3.082   5.424
 5418SOL    HW217154   6.997   3.150   5.557
 5419SOL     OW17155   4.024   1.590   6.560
 5419SOL    HW117156   3.949   1.585   6.493
 5419SOL    HW217157   4.023   1.507   6.617
 5420SOL     OW17158   1.651   2.163   2.083
 5420SOL    HW117159   1.701   2.172   1.997
 5420SOL    HW217160   1.558   2.132   2.065
 5421SOL     OW17161   3.730   5.299   1.995
 5421SOL    HW117162   3.687   5.300   2.085
 5421SOL    HW217163   3.808   5.237   1.995
 5422SOL     OW17164   2.414   5.121   3.948
 5422SOL    HW117165   2.350   5.055   3.985
 5422SOL    HW217166   2.448   5.089   3.860
 5423SOL     OW17167   4.902   6.842   1.481
 5423SOL    HW117168   4.836   6.772   1.508
 5423SOL    HW217169   4.858   6.932   1.481
 5424SOL     OW17170   4.104   4.004   5.439
 5424SOL    HW117171   4.034   3.969   5.501
 5424SOL    HW217172   4.113   3.942   5.360
 5425SOL     OW17173   1.388   4.615   6.123
 5425SOL    HW117174   1.348   4.592   6.212
 5425SOL    HW217175   1.487   4.612   6.130
 5426SOL     OW17176   6.657   4.869   1.481
 5426SOL    HW117177   6.733   4.841   1.540
 5426SOL    HW217178   6.570   4.854   1.529
 5427SOL     OW17179   4.708   3.154   0.519
 5427SOL    HW117180   4.724   3.094   0.597
 5427SOL    HW217181   4.792   3.202   0.495
 5428SOL     OW17182   5.252   5.131   3.170
 5428SOL    HW117183   5.317   5.065   3.132
 5428SOL    HW217184   5.160   5.108   3.140
 5429SOL     OW17185   3.197   0.191   4.432
 5429SOL    HW117186   3.233   0.193   4.525
 5429SOL    HW217187   3.115   0.135   4.429
 5430SOL     OW17188   2.110   3.530   5.634
 5430SOL    HW117189   2.139   3.440   5.664
 5430SOL    HW217190   2.056   3.573   5.706
 5431SOL     OW17191   4.865   4.413   0.310
 5431SOL    HW117192   4.890   4.316   0.313
 5431SOL    HW217193   4.780   4.427   0.361
 5432SOL     OW17194   0.672   5.267   6.704
 5432SOL    HW117195   0.682   5.222   6.615
 5432SOL    HW217196   0.577   5.293   6.717
 5433SOL     OW17197   3.864   0.096   1.367
 5433SOL    HW117198   3.830   0.112   1.459
 5433SOL    HW217199   3.804   0.141   1.301
 5434SOL     OW17200   4.993   6.912   4.169
 5434SOL    HW117201   5.048   6.971   4.110
 5434SOL    HW217202   5.018   6.929   4.265
 5435SOL     OW17203   6.771   5.085   0.230
 5435SOL    HW117204   6.734   5.017   0.294
 5435SOL    HW217205   6.864   5.109   0.258
 5436SOL     OW17206   1.999   4.942   2.340
 5436SOL    HW117207   2.066   5.015   2.328
 5436SOL    HW217208   2.015   4.871   2.270
 5437SOL     OW17209   3.376   6.695   0.851
 5437SOL    HW117210   3.450   6.630   0.833
 5437SOL    HW217211   3.370   6.760   0.776
 5438SOL     OW17212   4.295   6.418   1.652
 5438SOL    HW117213   4.221   6.354   1.629
 5438SOL    HW217214   4.274   6.508   1.614
 5439SOL     OW17215   1.166   4.019   1.023
 5439SOL    HW117216   1.133   4.037   1.115
 5439SOL    HW217217   1.089   3.991   0.965
 5440SOL     OW17218   5.482   6.510   3.570
 5440SOL    HW117219   5.469   6.515   3.471
 5440SOL    HW217220   5.469   6.601   3.610
 5441SOL     OW17221   5.855   2.114   4.592
 5441SOL    HW117222   5.909   2.142   4.671
 5441SOL    HW217223   5.859   2.014   4.583
 5442SOL     OW17224   2.462   0.588   6.550
 5442SOL    HW117225   2.467   0.665   6.614
 5442SOL    HW217226   2.553   0.547   6.541
 5443SOL     OW17227   5.581   0.777   2.960
 5443SOL    HW117228   5.597   0.816   2.870
 5443SOL    HW217229   5.641   0.820   3.027
 5444SOL     OW17230   6.994   1.646   6.575
 5444SOL    HW117231   6.921   1.582   6.599
 5444SOL    HW217232   0.045   1.598   6.527
 5445SOL     OW17233   5.809   6.510   5.645
 5445SOL    HW117234   5.773   6.452   5.719
 5445SOL    HW217235   5.766   6.600   5.651
 5446SOL     OW17236   0.596   4.333   5.986
 5446SOL    HW117237   0.546   4.418   6.007
 5446SOL    HW217238   0.610   4.326   5.888
 5447SOL     OW17239   6.603   1.676   1.608
 5447SOL    HW117240   6.692   1.655   1.568
 5447SOL    HW217241   6.552   1.737   1.548
 5448SOL     OW17242   5.562   5.208   2.393
 5448SOL    HW117243   5.481   5.256   2.426
 5448SOL    HW217244   5.642   5.238   2.445
 5449SOL     OW17245   2.533   1.001   1.288
 5449SOL    HW117246   2.544   1.021   1.191
 5449SOL    HW217247   2.467   0.927   1.300
 5450SOL     OW17248   4.698   5.911   1.964
 5450SOL    HW117249   4.741   5.983   2.017
 5450SOL    HW217250   4.602   5.901   1.993
 5451SOL     OW17251   6.476   6.452   3.617
 5451SOL    HW117252   6.482   6.494   3.527
 5451SOL    HW217253   6.556   6.477   3.672
 5452SOL     OW17254   2.207   4.102   2.893
 5452SOL    HW117255   2.196   4.137   2.987
 5452SOL    HW217256   2.174   4.008   2.889
 5453SOL     OW17257   6.503   4.733   4.453
 5453SOL    HW117258   6.564   4.678   4.396
 5453SOL    HW217259   6.428   4.676   4.486
 5454SOL     OW17260   6.139   4.441   3.422
 5454SOL    HW117261   6.236   4.436   3.444
 5454SOL    HW217262   6.119   4.382   3.343
 5455SOL     OW17263   2.902   1.966   3.381
 5455SOL    HW117264   2.884   1.881   3.430
 5455SOL    HW217265   2.868   1.958   3.287
 5456SOL     OW17266   6.081   2.592   0.529
 5456SOL    HW117267   6.058   2.689   0.538
 5456SOL    HW217268   6.042   2.541   0.606
 5457SOL     OW17269   6.328   1.278   6.424
 5457SOL    HW117270   6.419   1.291   6.385
 5457SOL    HW217271   6.285   1.197   6.383
 5458SOL     OW17272   5.577   4.372   6.973
 5458SOL    HW117273   5.487   4.330   6.979
 5458SOL    HW217274   5.589   4.438   0.026
 5459SOL     OW17275   2.163   3.280   4.685
 5459SOL    HW117276   2.075   3.253   4.724
 5459SOL    HW217277   2.237   3.252   4.746
 5460SOL     OW17278   0.485   0.522   1.445
 5460SOL    HW117279   0.390   0.493   1.437
 5460SOL    HW217280   0.489   0.621   1.456
 5461SOL     OW17281   6.371   1.282   6.046
 5461SOL    HW117282   6.447   1.248   6.101
 5461SOL    HW217283   6.362   1.227   5.964
 5462SOL     OW17284   5.063   4.933   6.227
 5462SOL    HW117285   5.103   4.872   6.295
 5462SOL    HW217286   5.042   4.883   6.144
 5463SOL     OW17287   0.799   3.556   5.784
 5463SOL    HW117288   0.895   3.579   5.774
 5463SOL    HW217289   0.753   3.625   5.839
 5464SOL     OW17290   1.831   5.323   5.411
 5464SOL    HW117291   1.916   5.275   5.391
 5464SOL    HW217292   1.779   5.335   5.326
 5465SOL     OW17293   0.532   6.984   4.828
 5465SOL    HW117294   0.491   7.001   4.917
 5465SOL    HW217295   0.598   0.034   4.807
 5466SOL     OW17296   5.611   1.790   3.956
 5466SOL    HW117297   5.678   1.757   3.889
 5466SOL    HW217298   5.659   1.831   4.033
 5467SOL     OW17299   4.914   3.238   4.294
 5467SOL    HW117300   4.896   3.334   4.273
 5467SOL    HW217301   4.952   3.231   4.387
 5468SOL     OW17302   0.080   1.529   1.388
 5468SOL    HW117303   0.112   1.511   1.295
 5468SOL    HW217304   0.142   1.487   1.453
 5469SOL     OW17305   3.831   0.810   4.273
 5469SOL    HW117306   3.860   0.756   4.194
 5469SOL    HW217307   3.758   0.873   4.245
 5470SOL     OW17308   4.319   4.918   4.091
 5470SOL    HW117309   4.242   4.864   4.055
 5470SOL    HW217310   4.405   4.871   4.071
 5471SOL     OW17311   5.123   0.815   2.873
 5471SOL    HW117312   5.212   0.783   2.904
 5471SOL    HW217313   5.056   0.805   2.947
 5472SOL     OW17314   3.136   3.564   6.872
 5472SOL    HW117315   3.198   3.507   6.926
 5472SOL    HW217316   3.041   3.539   6.892
 5473SOL     OW17317   3.032   5.137   1.704
 5473SOL    HW117318   3.083   5.222   1.691
 5473SOL    HW217319   3.092   5.059   1.684
 5474SOL     OW17320   1.032   5.184   2.348
 5474SOL    HW117321   1.102   5.231   2.401
 5474SOL    HW217322   0.954   5.246   2.333
 5475SOL     OW17323   1.127   0.930   5.075
 5475SOL    HW117324   1.090   0.872   5.148
 5475SOL    HW217325   1.146   1.021   5.111
 5476SOL     OW17326   2.325   6.776   5.088
 5476SOL    HW117327   2.264   6.706   5.052
 5476SOL    HW217328   2.280   6.865   5.087
 5477SOL     OW17329   1.916   3.548   4.013
 5477SOL    HW117330   2.000   3.599   4.035
 5477SOL    HW217331   1.836   3.603   4.038
 5478SOL     OW17332   5.192   4.824   5.802
 5478SOL    HW117333   5.183   4.920   5.775
 5478SOL    HW217334   5.288   4.798   5.802
 5479SOL     OW17335   5.361   2.007   4.224
 5479SOL    HW117336   5.324   2.035   4.312
 5479SOL    HW217337   5.440   2.064   4.201
 5480SOL     OW17338   1.212   3.304   4.264
 5480SOL    HW117339   1.134   3.243   4.251
 5480SOL    HW217340   1.181   3.399   4.261
 5481SOL     OW17341   4.405   1.674   6.415
 5481SOL    HW117342   4.371   1.586   6.383
 5481SOL    HW217343   4.338   1.746   6.394
 5482SOL     OW17344   5.280   3.205   1.780
 5482SOL    HW117345   5.205   3.209   1.847
 5482SOL    HW217346   5.353   3.267   1.808
 5483SOL     OW17347   6.755   3.009   6.866
 5483SOL    HW117348   6.737   3.054   6.954
 5483SOL    HW217349   6.798   2.920   6.883
 5484SOL     OW17350   6.612   6.798   4.885
 5484SOL    HW117351   6.536   6.812   4.822
 5484SOL    HW217352   6.617   6.874   4.949
 5485SOL     OW17353   3.822   0.191   5.059
 5485SOL    HW117354   3.728   0.195   5.025
 5485SOL    HW217355   3.881   0.244   4.999
 5486SOL     OW17356   1.045   0.673   4.225
 5486SOL    HW117357   1.090   0.762   4.235
 5486SOL    HW217358   1.009   0.664   4.132
 5487SOL     OW17359   4.587   5.122   0.533
 5487SOL    HW117360   4.604   5.120   0.435
 5487SOL    HW217361   4.490   5.108   0.551
 5488SOL     OW17362   5.069   0.877   5.958
 5488SOL    HW117363   4.971   0.896   5.966
 5488SOL    HW217364   5.088   0.841   5.867
 5489SOL     OW17365   0.226   4.561   3.097
 5489SOL    HW117366   0.282   4.642   3.078
 5489SOL    HW217367   0.135   4.573   3.057
 5490SOL     OW17368   2.167   2.638   6.901
 5490SOL    HW117369   2.208   2.546   6.896
 5490SOL    HW217370   2.099   2.647   6.828
 5491SOL     OW17371   0.468   5.794   1.960
 5491SOL    HW117372   0.372   5.807   1.937
 5491SOL    HW217373   0.496   5.863   2.028
 5492SOL     OW17374   1.794   1.106   5.175
 5492SOL    HW117375   1.757   1.016   5.200
 5492SOL    HW217376   1.803   1.162   5.257
 5493SOL     OW17377   3.056   3.052   6.765
 5493SOL    HW117378   3.067   2.959   6.731
 5493SOL    HW217379   2.975   3.057   6.824
 5494SOL     OW17380   5.842   2.874   2.454
 5494SOL    HW117381   5.877   2.804   2.517
 5494SOL    HW217382   5.745   2.889   2.472
 5495SOL     OW17383   3.598   2.913   2.878
 5495SOL    HW117384   3.587   2.872   2.787
 5495SOL    HW217385   3.508   2.937   2.914
 5496SOL     OW17386   3.540   5.432   1.232
 5496SOL    HW117387   3.571   5.368   1.302
 5496SOL    HW217388   3.617   5.485   1.198
 5497SOL     OW17389   6.493   6.803   1.776
 5497SOL    HW117390   6.531   6.750   1.700
 5497SOL    HW217391   6.395   6.814   1.762
 5498SOL     OW17392   4.163   0.014   5.258
 5498SOL    HW117393   4.081   0.062   5.289
 5498SOL    HW217394   4.243   0.054   5.302
 5499SOL     OW17395   0.126   1.711   4.772
 5499SOL    HW117396   0.189   1.776   4.815
 5499SOL    HW217397   0.117   1.630   4.829
 5500SOL     OW17398   2.159   5.726   1.138
 5500SOL    HW117399   2.221   5.695   1.066
 5500SOL    HW217400   2.204   5.795   1.194
 5501SOL     OW17401   1.784   6.852   2.667
 5501SOL    HW117402   1.697   6.829   2.710
 5501SOL    HW217403   1.833   6.918   2.723
 5502SOL     OW17404   4.657   3.603   0.410
 5502SOL    HW117405   4.610   3.516   0.425
 5502SOL    HW217406   4.592   3.668   0.370
 5503SOL     OW17407   0.726   6.098   4.481
 5503SOL    HW117408   0.747   6.087   4.383
 5503SOL    HW217409   0.702   6.009   4.519
 5504SOL     OW17410   3.615   2.110   4.482
 5504SOL    HW117411   3.610   2.028   4.426
 5504SOL    HW217412   3.526   2.128   4.523
 5505SOL     OW17413   3.403   5.026   5.964
 5505SOL    HW117414   3.355   5.049   5.880
 5505SOL    HW217415   3.446   4.936   5.954
 5506SOL     OW17416   6.852   0.198   5.562
 5506SOL    HW117417   6.903   0.282   5.544
 5506SOL    HW217418   6.880   0.159   5.650
 5507SOL     OW17419   3.229   5.583   4.618
 5507SOL    HW117420   3.210   5.485   4.612
 5507SOL    HW217421   3.211   5.614   4.712
 5508SOL     OW17422   2.545   0.594   5.851
 5508SOL    HW117423   2.571   0.546   5.935
 5508SOL    HW217424   2.451   0.627   5.860
 5509SOL     OW17425   6.129   6.069   6.910
 5509SOL    HW117426   6.149   6.124   6.828
 5509SOL    HW217427   6.051   6.009   6.892
 5510SOL     OW17428   5.065   0.482   5.827
 5510SOL    HW117429   5.076   0.444   5.736
 5510SOL    HW217430   5.016   0.417   5.885
 5511SOL     OW17431   0.153   1.791   1.979
 5511SOL    HW117432   0.118   1.751   1.895
 5511SOL    HW217433   0.084   1.783   2.051
 5512SOL     OW17434   1.159   6.821   0.823
 5512SOL    HW117435   1.077   6.840   0.877
 5512SOL    HW217436   1.140   6.836   0.726
 5513SOL     OW17437   3.278   5.081   4.612
 5513SOL    HW117438   3.375   5.065   4.593
 5513SOL    HW217439   3.238   5.132   4.536
 5514SOL     OW17440   5.911   5.540   3.651
 5514SOL    HW117441   5.945   5.533   3.557
 5514SOL    HW217442   5.985   5.517   3.714
 5515SOL     OW17443   6.692   3.131   2.185
 5515SOL    HW117444   6.780   3.108   2.145
 5515SOL    HW217445   6.681   3.083   2.272
 5516SOL     OW17446   1.357   3.578   5.986
 5516SOL    HW117447   1.302   3.658   5.962
 5516SOL    HW217448   1.394   3.537   5.903
 5517SOL     OW17449   2.077   1.172   2.175
 5517SOL    HW117450   1.990   1.150   2.130
 5517SOL    HW217451   2.153   1.140   2.120
 5518SOL     OW17452   5.427   4.814   5.346
 5518SOL    HW117453   5.488   4.748   5.391
 5518SOL    HW217454   5.449   4.906   5.378
 5519SOL     OW17455   5.139   3.479   3.595
 5519SOL    HW117456   5.153   3.483   3.496
 5519SOL    HW217457   5.062   3.419   3.615
 5520SOL     OW17458   1.638   3.310   1.342
 5520SOL    HW117459   1.641   3.350   1.433
 5520SOL    HW217460   1.568   3.239   1.338
 5521SOL     OW17461   5.033   5.651   1.606
 5521SOL    HW117462   5.026   5.609   1.696
 5521SOL    HW217463   5.019   5.582   1.535
 5522SOL     OW17464   1.981   3.721   2.513
 5522SOL    HW117465   2.053   3.753   2.451
 5522SOL    HW217466   1.899   3.778   2.502
 5523SOL     OW17467   3.176   0.733   1.148
 5523SOL    HW117468   3.150   0.795   1.074
 5523SOL    HW217469   3.099   0.722   1.210
 5524SOL     OW17470   6.421   5.868   6.209
 5524SOL    HW117471   6.493   5.802   6.187
 5524SOL    HW217472   6.431   5.949   6.152
 5525SOL     OW17473   6.766   5.597   4.795
 5525SOL    HW117474   6.803   5.555   4.712
 5525SOL    HW217475   6.787   5.695   4.794
 5526SOL     OW17476   5.568   2.687   4.966
 5526SOL    HW117477   5.653   2.721   4.924
 5526SOL    HW217478   5.532   2.612   4.910
 5527SOL     OW17479   2.102   3.555   1.335
 5527SOL    HW117480   2.035   3.621   1.369
 5527SOL    HW217481   2.114   3.568   1.236
 5528SOL     OW17482   0.578   3.581   3.200
 5528SOL    HW117483   0.599   3.636   3.280
 5528SOL    HW217484   0.654   3.519   3.180
 5529SOL     OW17485   1.694   1.330   5.029
 5529SOL    HW117486   1.639   1.305   4.950
 5529SOL    HW217487   1.710   1.250   5.086
 5530SOL     OW17488   1.099   2.891   0.727
 5530SOL    HW117489   1.084   2.939   0.641
 5530SOL    HW217490   1.189   2.916   0.764
 5531SOL     OW17491   3.042   2.752   5.890
 5531SOL    HW117492   3.006   2.690   5.821
 5531SOL    HW217493   3.138   2.774   5.870
 5532SOL     OW17494   2.637   1.815   1.243
 5532SOL    HW117495   2.576   1.867   1.302
 5532SOL    HW217496   2.591   1.732   1.212
 5533SOL     OW17497   4.234   0.038   0.719
 5533SOL    HW117498   4.261   0.124   0.676
 5533SOL    HW217499   4.138   0.044   0.747
 5534SOL     OW17500   0.079   4.544   5.801
 5534SOL    HW117501   0.177   4.555   5.781
 5534SOL    HW217502   0.062   4.451   5.833
 5535SOL     OW17503   5.632   3.215   3.510
 5535SOL    HW117504   5.558   3.147   3.510
 5535SOL    HW217505   5.644   3.251   3.602
 5536SOL     OW17506   1.757   0.571   3.381
 5536SOL    HW117507   1.837   0.562   3.441
 5536SOL    HW217508   1.673   0.563   3.435
 5537SOL     OW17509   4.356   1.100   4.847
 5537SOL    HW117510   4.298   1.138   4.775
 5537SOL    HW217511   4.391   1.011   4.818
 5538SOL     OW17512   5.506   1.861   0.915
 5538SOL    HW117513   5.440   1.915   0.863
 5538SOL    HW217514   5.560   1.805   0.852
 5539SOL     OW17515   3.201   6.555   7.015
 5539SOL    HW117516   3.279   6.599   0.039
 5539SOL    HW217517   3.144   6.626   6.973
 5540SOL     OW17518   5.105   0.554   6.651
 5540SOL    HW117519   5.052   0.496   6.590
 5540SOL    HW217520   5.105   0.648   6.617
 5541SOL     OW17521   4.765   3.455   6.146
 5541SOL    HW117522   4.810   3.367   6.134
 5541SOL    HW217523   4.832   3.528   6.138
 5542SOL     OW17524   4.246   4.276   0.024
 5542SOL    HW117525   4.249   4.211   0.100
 5542SOL    HW217526   4.155   4.317   0.018
 5543SOL     OW17527   1.620   0.372   0.528
 5543SOL    HW117528   1.639   0.341   0.621
 5543SOL    HW217529   1.575   0.461   0.531
 5544SOL     OW17530   3.806   5.545   6.480
 5544SOL    HW117531   3.801   5.580   6.574
 5544SOL    HW217532   3.752   5.604   6.420
 5545SOL     OW17533   4.169   0.448   3.335
 5545SOL    HW117534   4.205   0.521   3.393
 5545SOL    HW217535   4.131   0.488   3.251
 5546SOL     OW17536   0.458   4.898   4.710
 5546SOL    HW117537   0.466   4.977   4.771
 5546SOL    HW217538   0.363   4.888   4.680
 5547SOL     OW17539   5.008   1.355   4.622
 5547SOL    HW117540   5.027   1.446   4.586
 5547SOL    HW217541   5.041   1.286   4.557
 5548SOL     OW17542   0.280   3.963   4.925
 5548SOL    HW117543   0.356   3.898   4.922
 5548SOL    HW217544   0.221   3.948   4.845
 5549SOL     OW17545   4.482   2.962   0.680
 5549SOL    HW117546   4.471   2.978   0.581
 5549SOL    HW217547   4.574   2.992   0.708
 5550SOL     OW17548   1.887   4.028   1.904
 5550SOL    HW117549   1.959   3.976   1.950
 5550SOL    HW217550   1.831   4.074   1.973
 5551SOL     OW17551   1.874   5.342   3.451
 5551SOL    HW117552   1.785   5.358   3.407
 5551SOL    HW217553   1.893   5.244   3.454
 5552SOL     OW17554   0.474   6.646   6.927
 5552SOL    HW117555   0.543   6.718   6.923
 5552SOL    HW217556   0.485   6.584   6.849
 5553SOL     OW17557   4.659   0.388   6.919
 5553SOL    HW117558   4.636   0.303   6.967
 5553SOL    HW217559   4.717   0.445   6.977
 5554SOL     OW17560   5.436   2.292   1.451
 5554SOL    HW117561   5.483   2.218   1.500
 5554SOL    HW217562   5.358   2.322   1.505
 5555SOL     OW17563   1.520   4.657   2.230
 5555SOL    HW117564   1.478   4.621   2.147
 5555SOL    HW217565   1.539   4.755   2.219
 5556SOL     OW17566   0.122   1.054   4.930
 5556SOL    HW117567   0.117   0.957   4.954
 5556SOL    HW217568   0.045   1.078   4.871
 5557SOL     OW17569   3.224   5.935   2.756
 5557SOL    HW117570   3.192   6.024   2.790
 5557SOL    HW217571   3.314   5.915   2.795
 5558SOL     OW17572   4.088   4.530   0.237
 5558SOL    HW117573   4.027   4.594   0.283
 5558SOL    HW217574   4.084   4.545   0.138
 5559SOL     OW17575   2.201   0.023   2.347
 5559SOL    HW117576   2.285   0.043   2.296
 5559SOL    HW217577   2.207   0.063   2.438
 5560SOL     OW17578   1.122   6.230   2.627
 5560SOL    HW117579   1.141   6.148   2.681
 5560SOL    HW217580   1.050   6.284   2.671
 5561SOL     OW17581   3.486   6.653   3.410
 5561SOL    HW117582   3.399   6.610   3.389
 5561SOL    HW217583   3.478   6.752   3.400
 5562SOL     OW17584   3.950   4.137   1.016
 5562SOL    HW117585   3.987   4.092   1.097
 5562SOL    HW217586   4.019   4.196   0.976
 5563SOL     OW17587   2.540   4.656   3.295
 5563SOL    HW117588   2.483   4.732   3.262
 5563SOL    HW217589   2.636   4.685   3.297
 5564SOL     OW17590   5.352   0.520   5.874
 5564SOL    HW117591   5.254   0.516   5.889
 5564SOL    HW217592   5.400   0.523   5.962
 5565SOL     OW17593   3.209   2.192   6.477
 5565SOL    HW117594   3.136   2.249   6.440
 5565SOL    HW217595   3.248   2.137   6.404
 5566SOL     OW17596   1.587   3.677   6.545
 5566SOL    HW117597   1.536   3.592   6.546
 5566SOL    HW217598   1.544   3.741   6.482
 5567SOL     OW17599   0.100   4.249   1.472
 5567SOL    HW117600   0.096   4.282   1.378
 5567SOL    HW217601   0.170   4.178   1.480
 5568SOL     OW17602   4.211   6.045   1.396
 5568SOL    HW117603   4.145   5.975   1.424
 5568SOL    HW217604   4.301   6.023   1.434
 5569SOL     OW17605   2.239   3.032   3.992
 5569SOL    HW117606   2.181   3.054   4.071
 5569SOL    HW217607   2.265   2.936   3.995
 5570SOL     OW17608   0.750   4.026   2.751
 5570SOL    HW117609   0.735   4.055   2.845
 5570SOL    HW217610   0.662   4.013   2.705
 5571SOL     OW17611   6.204   4.891   1.743
 5571SOL    HW117612   6.240   4.973   1.699
 5571SOL    HW217613   6.110   4.876   1.715
 5572SOL     OW17614   1.568   3.445   5.030
 5572SOL    HW117615   1.506   3.447   4.952
 5572SOL    HW217616   1.621   3.360   5.029
 5573SOL     OW17617   3.005   5.232   4.136
 5573SOL    HW117618   2.905   5.234   4.140
 5573SOL    HW217619   3.035   5.203   4.045
 5574SOL     OW17620   0.375   2.423   6.485
 5574SOL    HW117621   0.347   2.361   6.411
 5574SOL    HW217622   0.402   2.369   6.565
 5575SOL     OW17623   0.603   0.312   1.570
 5575SOL    HW117624   0.641   0.353   1.653
 5575SOL    HW217625   0.559   0.384   1.515
 5576SOL     OW17626   2.246   4.512   3.289
 5576SOL    HW117627   2.157   4.540   3.323
 5576SOL    HW217628   2.259   4.546   3.196
 5577SOL     OW17629   1.664   2.809   6.047
 5577SOL    HW117630   1.719   2.893   6.041
 5577SOL    HW217631   1.710   2.735   5.998
 5578SOL     OW17632   4.046   3.658   3.268
 5578SOL    HW117633   3.991   3.737   3.295
 5578SOL    HW217634   4.091   3.620   3.349
 5579SOL     OW17635   0.590   3.247   1.464
 5579SOL    HW117636   0.670   3.198   1.497
 5579SOL    HW217637   0.561   3.314   1.532
 5580SOL     OW17638   5.012   1.832   5.238
 5580SOL    HW117639   4.948   1.838   5.314
 5580SOL    HW217640   5.096   1.883   5.260
 5581SOL     OW17641   1.188   1.665   6.906
 5581SOL    HW117642   1.225   1.668   6.813
 5581SOL    HW217643   1.136   1.749   6.923
 5582SOL     OW17644   2.605   2.476   6.498
 5582SOL    HW117645   2.562   2.564   6.520
 5582SOL    HW217646   2.704   2.488   6.494
 5583SOL     OW17647   5.386   0.993   2.287
 5583SOL    HW117648   5.338   0.966   2.204
 5583SOL    HW217649   5.444   1.072   2.267
 5584SOL     OW17650   0.850   3.827   4.889
 5584SOL    HW117651   0.910   3.905   4.907
 5584SOL    HW217652   0.899   3.759   4.835
 5585SOL     OW17653   4.497   4.791   2.357
 5585SOL    HW117654   4.401   4.777   2.330
 5585SOL    HW217655   4.506   4.877   2.406
 5586SOL     OW17656   6.671   3.067   6.610
 5586SOL    HW117657   6.713   3.098   6.696
 5586SOL    HW217658   6.608   2.991   6.629
 5587SOL     OW17659   5.318   0.495   6.342
 5587SOL    HW117660   5.262   0.412   6.343
 5587SOL    HW217661   5.378   0.496   6.422
 5588SOL     OW17662   3.477   0.064   1.721
 5588SOL    HW117663   3.574   0.068   1.698
 5588SOL    HW217664   3.452   6.991   1.744
 5589SOL     OW17665   6.015   5.088   6.380
 5589SOL    HW117666   5.991   4.996   6.411
 5589SOL    HW217667   6.108   5.109   6.410
 5590SOL     OW17668   5.488   5.430   4.481
 5590SOL    HW117669   5.467   5.510   4.424
 5590SOL    HW217670   5.445   5.442   4.571
 5591SOL     OW17671   6.289   1.455   1.168
 5591SOL    HW117672   6.327   1.374   1.122
 5591SOL    HW217673   6.240   1.426   1.250
 5592SOL     OW17674   0.779   4.823   3.241
 5592SOL    HW117675   0.752   4.787   3.330
 5592SOL    HW217676   0.809   4.747   3.182
 5593SOL     OW17677   6.295   2.731   0.134
 5593SOL    HW117678   6.303   2.689   0.225
 5593SOL    HW217679   6.291   2.660   0.065
 5594SOL     OW17680   5.678   2.398   5.466
 5594SOL    HW117681   5.642   2.319   5.516
 5594SOL    HW217682   5.646   2.395   5.371
 5595SOL     OW17683   0.602   2.639   5.554
 5595SOL    HW117684   0.568   2.545   5.563
 5595SOL    HW217685   0.597   2.685   5.643
 5596SOL     OW17686   4.190   6.421   2.584
 5596SOL    HW117687   4.182   6.519   2.599
 5596SOL    HW217688   4.280   6.400   2.546
 5597SOL     OW17689   5.515   3.667   3.403
 5597SOL    HW117690   5.502   3.766   3.411
 5597SOL    HW217691   5.515   3.626   3.493
 5598SOL     OW17692   5.314   2.237   5.089
 5598SOL    HW117693   5.260   2.244   5.172
 5598SOL    HW217694   5.292   2.152   5.041
 5599SOL     OW17695   0.569   1.598   4.072
 5599SOL    HW117696   0.539   1.503   4.070
 5599SOL    HW217697   0.667   1.603   4.051
 5600SOL     OW17698   1.287   2.332   4.028
 5600SOL    HW117699   1.250   2.279   3.952
 5600SOL    HW217700   1.375   2.372   4.001
 5601SOL     OW17701   2.220   1.133   5.558
 5601SOL    HW117702   2.151   1.068   5.588
 5601SOL    HW217703   2.307   1.113   5.605
 5602SOL     OW17704   0.958   1.788   0.927
 5602SOL    HW117705   0.927   1.861   0.988
 5602SOL    HW217706   1.029   1.824   0.866
 5603SOL     OW17707   5.969   2.441   6.401
 5603SOL    HW117708   5.951   2.483   6.490
 5603SOL    HW217709   5.884   2.409   6.361
 5604SOL     OW17710   6.395   1.876   5.658
 5604SOL    HW117711   6.446   1.832   5.584
 5604SOL    HW217712   6.298   1.855   5.649
 5605SOL     OW17713   0.651   2.151   4.539
 5605SOL    HW117714   0.620   2.067   4.583
 5605SOL    HW217715   0.749   2.162   4.553
 5606SOL     OW17716   4.588   0.051   1.679
 5606SOL    HW117717   4.510   7.012   1.696
 5606SOL    HW217718   4.671   0.011   1.718
 5607SOL     OW17719   5.804   1.335   1.395
 5607SOL    HW117720   5.872   1.271   1.359
 5607SOL    HW217721   5.824   1.428   1.364
 5608SOL     OW17722   4.133   6.447   5.418
 5608SOL    HW117723   4.182   6.374   5.370
 5608SOL    HW217724   4.084   6.503   5.352
 5609SOL     OW17725   2.733   6.134   6.418
 5609SOL    HW117726   2.776   6.224   6.427
 5609SOL    HW217727   2.792   6.074   6.365
 5610SOL     OW17728   4.784   1.031   6.787
 5610SOL    HW117729   4.733   0.948   6.763
 5610SOL    HW217730   4.746   1.069   6.872
 5611SOL     OW17731   1.821   4.711   3.304
 5611SOL    HW117732   1.779   4.703   3.394
 5611SOL    HW217733   1.800   4.630   3.250
 5612SOL     OW17734   2.698   6.953   5.900
 5612SOL    HW117735   2.738   7.013   5.831
 5612SOL    HW217736   2.722   6.858   5.880
 5613SOL     OW17737   3.973   4.663   1.815
 5613SOL    HW117738   3.957   4.725   1.892
 5613SOL    HW217739   4.070   4.639   1.811
 5614SOL     OW17740   4.616   1.647   2.949
 5614SOL    HW117741   4.713   1.649   2.971
 5614SOL    HW217742   4.563   1.674   3.030
 5615SOL     OW17743   1.607   0.779   1.120
 5615SOL    HW117744   1.596   0.878   1.126
 5615SOL    HW217745   1.526   0.734   1.158
 5616SOL     OW17746   1.901   0.836   4.566
 5616SOL    HW117747   1.806   0.864   4.580
 5616SOL    HW217748   1.936   0.797   4.651
 5617SOL     OW17749   1.860   1.010   4.917
 5617SOL    HW117750   1.775   0.981   4.874
 5617SOL    HW217751   1.840   1.057   5.003
 5618SOL     OW17752   0.413   4.473   3.298
 5618SOL    HW117753   0.358   4.511   3.373
 5618SOL    HW217754   0.362   4.482   3.212
 5619SOL     OW17755   2.243   3.464   5.285
 5619SOL    HW117756   2.145   3.485   5.285
 5619SOL    HW217757   2.295   3.547   5.268
 5620SOL     OW17758   3.349   1.948   6.399
 5620SOL    HW117759   3.399   2.001   6.468
 5620SOL    HW217760   3.269   1.906   6.440
 5621SOL     OW17761   1.946   2.266   5.723
 5621SOL    HW117762   1.961   2.174   5.759
 5621SOL    HW217763   1.874   2.263   5.654
 5622SOL     OW17764   6.040   0.469   5.904
 5622SOL    HW117765   6.029   0.470   6.003
 5622SOL    HW217766   5.986   0.543   5.864
 5623SOL     OW17767   1.082   5.807   6.900
 5623SOL    HW117768   1.078   5.751   6.817
 5623SOL    HW217769   1.062   5.750   6.979
 5624SOL     OW17770   0.883   4.510   3.661
 5624SOL    HW117771   0.901   4.471   3.570
 5624SOL    HW217772   0.958   4.485   3.722
 5625SOL     OW17773   6.833   2.591   4.994
 5625SOL    HW117774   6.823   2.679   5.042
 5625SOL    HW217775   6.746   2.568   4.949
 5626SOL     OW17776   4.206   6.721   4.987
 5626SOL    HW117777   4.272   6.720   4.912
 5626SOL    HW217778   4.169   6.813   4.998
 5627SOL     OW17779   1.606   6.408   1.232
 5627SOL    HW117780   1.582   6.390   1.327
 5627SOL    HW217781   1.674   6.341   1.201
 5628SOL     OW17782   2.012   1.644   4.049
 5628SOL    HW117783   2.000   1.662   3.951
 5628SOL    HW217784   2.101   1.601   4.064
 5629SOL     OW17785   3.605   3.764   2.675
 5629SOL    HW117786   3.546   3.709   2.615
 5629SOL    HW217787   3.697   3.725   2.676
 5630SOL     OW17788   0.673   4.353   1.565
 5630SOL    HW117789   0.646   4.389   1.476
 5630SOL    HW217790   0.730   4.272   1.553
 5631SOL     OW17791   4.820   0.967   0.316
 5631SOL    HW117792   4.750   0.942   0.383
 5631SOL    HW217793   4.803   1.060   0.283
 5632SOL     OW17794   4.065   3.771   6.765
 5632SOL    HW117795   4.074   3.713   6.684
 5632SOL    HW217796   4.132   3.845   6.762
 5633SOL     OW17797   6.242   2.651   4.344
 5633SOL    HW117798   6.326   2.634   4.396
 5633SOL    HW217799   6.265   2.683   4.252
 5634SOL     OW17800   3.824   5.345   4.385
 5634SOL    HW117801   3.896   5.278   4.404
 5634SOL    HW217802   3.859   5.437   4.404
 5635SOL     OW17803   2.881   2.230   4.859
 5635SOL    HW117804   2.934   2.221   4.775
 5635SOL    HW217805   2.938   2.270   4.930
 5636SOL     OW17806   3.771   5.705   3.370
 5636SOL    HW117807   3.715   5.724   3.451
 5636SOL    HW217808   3.866   5.731   3.388
 5637SOL     OW17809   5.573   0.328   3.341
 5637SOL    HW117810   5.625   0.260   3.288
 5637SOL    HW217811   5.521   0.386   3.279
 5638SOL     OW17812   5.712   3.232   6.085
 5638SOL    HW117813   5.677   3.300   6.149
 5638SOL    HW217814   5.810   3.220   6.099
 5639SOL     OW17815   2.052   1.187   6.462
 5639SOL    HW117816   2.008   1.100   6.439
 5639SOL    HW217817   2.127   1.204   6.398
 5640SOL     OW17818   2.419   0.341   3.243
 5640SOL    HW117819   2.391   0.356   3.337
 5640SOL    HW217820   2.495   0.276   3.241
 5641SOL     OW17821   6.409   5.542   4.950
 5641SOL    HW117822   6.327   5.494   4.981
 5641SOL    HW217823   6.472   5.477   4.909
 5642SOL     OW17824   1.244   1.807   6.226
 5642SOL    HW117825   1.185   1.865   6.170
 5642SOL    HW217826   1.271   1.856   6.308
 5643SOL     OW17827   5.687   2.554   4.715
 5643SOL    HW117828   5.651   2.643   4.685
 5643SOL    HW217829   5.631   2.481   4.676
 5644SOL     OW17830   3.742   0.479   6.625
 5644SOL    HW117831   3.644   0.499   6.621
 5644SOL    HW217832   3.784   0.498   6.536
 5645SOL     OW17833   5.541   2.359   4.240
 5645SOL    HW117834   5.446   2.374   4.210
 5645SOL    HW217835   5.603   2.378   4.164
 5646SOL     OW17836   1.811   4.519   3.099
 5646SOL    HW117837   1.717   4.488   3.082
 5646SOL    HW217838   1.871   4.440   3.108
 5647SOL     OW17839   6.844   5.757   2.619
 5647SOL    HW117840   6.827   5.855   2.609
 5647SOL    HW217841   6.780   5.706   2.560
 5648SOL     OW17842   4.134   6.642   3.170
 5648SOL    HW117843   4.106   6.737   3.156
 5648SOL    HW217844   4.192   6.636   3.250
 5649SOL     OW17845   0.828   6.555   3.946
 5649SOL    HW117846   0.823   6.559   4.046
 5649SOL    HW217847   0.893   6.485   3.919
 5650SOL     OW17848   6.475   4.361   0.025
 5650SOL    HW117849   6.554   4.374   6.986
 5650SOL    HW217850   6.499   4.391   0.117
 5651SOL     OW17851   1.649   0.602   2.033
 5651SOL    HW117852   1.731   0.648   1.999
 5651SOL    HW217853   1.576   0.670   2.046
 5652SOL     OW17854   1.341   5.934   1.799
 5652SOL    HW117855   1.291   6.011   1.761
 5652SOL    HW217856   1.437   5.960   1.813
 5653SOL     OW17857   6.958   6.867   0.973
 5653SOL    HW117858   6.950   6.782   0.922
 5653SOL    HW217859   6.888   6.932   0.941
 5654SOL     OW17860   2.461   6.145   4.971
 5654SOL    HW117861   2.402   6.096   5.035
 5654SOL    HW217862   2.484   6.234   5.008
 5655SOL     OW17863   6.452   2.903   4.758
 5655SOL    HW117864   6.377   2.965   4.781
 5655SOL    HW217865   6.539   2.952   4.762
 5656SOL     OW17866   6.910   3.344   6.975
 5656SOL    HW117867   6.941   3.286   6.900
 5656SOL    HW217868   6.830   3.396   6.946
 5657SOL     OW17869   4.569   5.534   5.349
 5657SOL    HW117870   4.573   5.632   5.332
 5657SOL    HW217871   4.487   5.512   5.402
 5658SOL     OW17872   2.290   2.574   5.671
 5658SOL    HW117873   2.351   2.609   5.600
 5658SOL    HW217874   2.343   2.538   5.747
 5659SOL     OW17875   4.017   4.200   6.220
 5659SOL    HW117876   4.021   4.294   6.185
 5659SOL    HW217877   3.944   4.192   6.287
 5660SOL     OW17878   4.273   0.677   6.043
 5660SOL    HW117879   4.361   0.722   6.048
 5660SOL    HW217880   4.283   0.580   6.068
 5661SOL     OW17881   1.005   5.067   5.579
 5661SOL    HW117882   0.999   5.166   5.564
 5661SOL    HW217883   1.053   5.049   5.664
 5662SOL     OW17884   2.363   6.374   1.942
 5662SOL    HW117885   2.327   6.449   1.999
 5662SOL    HW217886   2.288   6.331   1.892
 5663SOL     OW17887   0.728   2.970   6.598
 5663SOL    HW117888   0.750   2.999   6.505
 5663SOL    HW217889   0.802   2.996   6.659
 5664SOL     OW17890   4.902   3.911   4.411
 5664SOL    HW117891   4.871   3.989   4.465
 5664SOL    HW217892   4.918   3.941   4.317
 5665SOL     OW17893   2.266   1.824   0.844
 5665SOL    HW117894   2.287   1.845   0.939
 5665SOL    HW217895   2.350   1.825   0.790
 5666SOL     OW17896   5.093   1.032   4.832
 5666SOL    HW117897   5.134   1.118   4.802
 5666SOL    HW217898   5.041   0.992   4.757
 5667SOL     OW17899   2.393   5.035   4.532
 5667SOL    HW117900   2.342   5.059   4.449
 5667SOL    HW217901   2.381   5.108   4.600
 5668SOL     OW17902   5.189   3.183   3.865
 5668SOL    HW117903   5.279   3.215   3.896
 5668SOL    HW217904   5.117   3.235   3.912
 5669SOL     OW17905   6.414   4.503   6.720
 5669SOL    HW117906   6.508   4.495   6.752
 5669SOL    HW217907   6.365   4.418   6.737
 5670SOL     OW17908   0.324   1.755   2.782
 5670SOL    HW117909   0.311   1.656   2.784
 5670SOL    HW217910   0.248   1.801   2.828
 5671SOL     OW17911   7.013   6.451   3.567
 5671SOL    HW117912   6.941   6.478   3.504
 5671SOL    HW217913   7.006   6.354   3.587
 5672SOL     OW17914   4.949   3.250   5.174
 5672SOL    HW117915   4.976   3.326   5.115
 5672SOL    HW217916   4.903   3.286   5.255
 5673SOL     OW17917   0.535   0.957   1.200
 5673SOL    HW117918   0.504   1.052   1.192
 5673SOL    HW217919   0.484   0.900   1.135
 5674SOL     OW17920   1.995   5.346   5.761
 5674SOL    HW117921   1.909   5.312   5.722
 5674SOL    HW217922   1.977   5.429   5.814
 5675SOL     OW17923   2.582   2.095   0.662
 5675SOL    HW117924   2.514   2.122   0.593
 5675SOL    HW217925   2.663   2.153   0.653
 5676SOL     OW17926   2.781   2.027   1.715
 5676SOL    HW117927   2.840   2.031   1.635
 5676SOL    HW217928   2.685   2.020   1.685
 5677SOL     OW17929   6.786   1.084   1.049
 5677SOL    HW117930   6.802   1.069   0.952
 5677SOL    HW217931   6.874   1.101   1.095
 5678SOL     OW17932   3.260   2.116   1.844
 5678SOL    HW117933   3.161   2.129   1.835
 5678SOL    HW217934   3.278   2.057   1.923
 5679SOL     OW17935   6.261   3.611   5.179
 5679SOL    HW117936   6.334   3.543   5.173
 5679SOL    HW217937   6.220   3.609   5.270
 5680SOL     OW17938   1.573   6.104   5.250
 5680SOL    HW117939   1.672   6.115   5.240
 5680SOL    HW217940   1.538   6.051   5.173
 5681SOL     OW17941   1.012   3.919   3.744
 5681SOL    HW117942   0.936   3.910   3.809
 5681SOL    HW217943   0.985   3.880   3.656
 5682SOL     OW17944   2.016   4.350   1.968
 5682SOL    HW117945   1.958   4.432   1.966
 5682SOL    HW217946   2.033   4.324   2.063
 5683SOL     OW17947   6.530   1.716   6.107
 5683SOL    HW117948   6.546   1.802   6.154
 5683SOL    HW217949   6.616   1.666   6.098
 5684SOL     OW17950   2.147   2.731   5.259
 5684SOL    HW117951   2.128   2.636   5.282
 5684SOL    HW217952   2.108   2.751   5.169
 5685SOL     OW17953   2.197   1.642   3.067
 5685SOL    HW117954   2.184   1.714   3.136
 5685SOL    HW217955   2.185   1.681   2.976
 5686SOL     OW17956   3.327   5.676   6.021
 5686SOL    HW117957   3.288   5.599   5.972
 5686SOL    HW217958   3.257   5.718   6.079
 5687SOL     OW17959   1.938   6.388   6.883
 5687SOL    HW117960   1.950   6.450   6.961
 5687SOL    HW217961   1.850   6.407   6.838
 5688SOL     OW17962   2.323   2.420   3.160
 5688SOL    HW117963   2.242   2.443   3.213
 5688SOL    HW217964   2.313   2.328   3.122
 5689SOL     OW17965   0.710   2.511   1.397
 5689SOL    HW117966   0.769   2.574   1.446
 5689SOL    HW217967   0.728   2.517   1.298
 5690SOL     OW17968   1.565   5.526   0.331
 5690SOL    HW117969   1.634   5.591   0.361
 5690SOL    HW217970   1.589   5.490   0.241
 5691SOL     OW17971   3.080   1.210   2.516
 5691SOL    HW117972   3.015   1.138   2.492
 5691SOL    HW217973   3.135   1.180   2.594
 5692SOL     OW17974   4.241   4.796   1.502
 5692SOL    HW117975   4.236   4.696   1.504
 5692SOL    HW217976   4.200   4.832   1.586
 5693SOL     OW17977   4.373   0.606   1.117
 5693SOL    HW117978   4.396   0.544   1.192
 5693SOL    HW217979   4.275   0.598   1.097
 5694SOL     OW17980   1.061   6.255   1.796
 5694SOL    HW117981   1.125   6.330   1.812
 5694SOL    HW217982   1.074   6.185   1.866
 5695SOL     OW17983   1.626   0.280   1.046
 5695SOL    HW117984   1.649   0.192   1.006
 5695SOL    HW217985   1.526   0.291   1.048
 5696SOL     OW17986   1.667   0.346   3.746
 5696SOL    HW117987   1.580   0.348   3.795
 5696SOL    HW217988   1.734   0.403   3.795
 5697SOL     OW17989   6.511   3.031   0.049
 5697SOL    HW117990   6.489   2.949   0.102
 5697SOL    HW217991   6.589   3.078   0.090
 5698SOL     OW17992   2.718   2.421   3.992
 5698SOL    HW117993   2.628   2.452   3.962
 5698SOL    HW217994   2.772   2.393   3.912
 5699SOL     OW17995   2.101   2.469   3.296
 5699SOL    HW117996   2.078   2.417   3.378
 5699SOL    HW217997   2.032   2.540   3.281
 5700SOL     OW17998   6.258   0.735   3.172
 5700SOL    HW117999   6.167   0.768   3.149
 5700SOL    HW218000   6.256   0.636   3.184
 5701SOL     OW18001   0.267   1.145   1.060
 5701SOL    HW118002   0.198   1.216   1.060
 5701SOL    HW218003   0.351   1.179   1.103
 5702SOL     OW18004   2.597   6.802   4.501
 5702SOL    HW118005   2.548   6.878   4.460
 5702SOL    HW218006   2.532   6.736   4.538
 5703SOL     OW18007   6.990   2.918   6.282
 5703SOL    HW118008   0.044   2.881   6.336
 5703SOL    HW218009   6.933   2.843   6.248
 5704SOL     OW18010   4.391   4.636   3.833
 5704SOL    HW118011   4.293   4.654   3.829
 5704SOL    HW218012   4.407   4.546   3.873
 5705SOL     OW18013   6.385   6.887   5.350
 5705SOL    HW118014   6.323   6.838   5.287
 5705SOL    HW218015   6.376   6.985   5.336
 5706SOL     OW18016   4.916   2.139   0.166
 5706SOL    HW118017   4.824   2.103   0.148
 5706SOL    HW218018   4.983   2.089   0.112
 5707SOL     OW18019   5.478   5.537   2.487
 5707SOL    HW118020   5.489   5.633   2.462
 5707SOL    HW218021   5.406   5.496   2.431
 5708SOL     OW18022   4.366   5.982   2.540
 5708SOL    HW118023   4.322   6.028   2.618
 5708SOL    HW218024   4.464   6.001   2.542
 5709SOL     OW18025   7.010   1.672   2.194
 5709SOL    HW118026   6.954   1.755   2.200
 5709SOL    HW218027   0.013   1.641   2.286
 5710SOL     OW18028   3.375   2.058   1.133
 5710SOL    HW118029   3.399   2.114   1.213
 5710SOL    HW218030   3.357   2.117   1.055
 5711SOL     OW18031   5.558   1.619   2.065
 5711SOL    HW118032   5.558   1.569   2.151
 5711SOL    HW218033   5.606   1.706   2.077
 5712SOL     OW18034   6.273   6.925   1.501
 5712SOL    HW118035   6.348   6.990   1.491
 5712SOL    HW218036   6.250   6.887   1.411
 5713SOL     OW18037   2.602   0.004   0.403
 5713SOL    HW118038   2.676   6.965   0.372
 5713SOL    HW218039   2.616   0.027   0.499
 5714SOL     OW18040   6.281   6.955   0.988
 5714SOL    HW118041   6.183   6.934   0.991
 5714SOL    HW218042   6.329   6.903   1.059
 5715SOL     OW18043   0.336   0.190   1.308
 5715SOL    HW118044   0.239   0.206   1.291
 5715SOL    HW218045   0.350   0.172   1.405
 5716SOL     OW18046   6.555   4.851   5.499
 5716SOL    HW118047   6.654   4.865   5.505
 5716SOL    HW218048   6.509   4.939   5.503
 5717SOL     OW18049   1.417   5.040   3.132
 5717SOL    HW118050   1.427   4.994   3.044
 5717SOL    HW218051   1.347   5.111   3.124
 5718SOL     OW18052   0.557   3.506   0.292
 5718SOL    HW118053   0.596   3.415   0.303
 5718SOL    HW218054   0.589   3.546   0.206
 5719SOL     OW18055   2.331   3.392   0.809
 5719SOL    HW118056   2.356   3.456   0.736
 5719SOL    HW218057   2.386   3.412   0.890
 5720SOL     OW18058   2.503   4.795   6.583
 5720SOL    HW118059   2.466   4.870   6.528
 5720SOL    HW218060   2.497   4.710   6.532
 5721SOL     OW18061   2.724   3.633   0.603
 5721SOL    HW118062   2.769   3.563   0.549
 5721SOL    HW218063   2.769   3.721   0.588
 5722SOL     OW18064   1.227   1.236   6.110
 5722SOL    HW118065   1.274   1.242   6.198
 5722SOL    HW218066   1.237   1.144   6.073
 5723SOL     OW18067   4.239   3.380   0.414
 5723SOL    HW118068   4.230   3.374   0.514
 5723SOL    HW218069   4.269   3.472   0.390
 5724SOL     OW18070   5.557   2.409   4.515
 5724SOL    HW118071   5.584   2.417   4.419
 5724SOL    HW218072   5.462   2.378   4.521
 5725SOL     OW18073   6.680   4.006   4.708
 5725SOL    HW118074   6.633   3.988   4.622
 5725SOL    HW218075   6.658   3.934   4.774
 5726SOL     OW18076   5.257   4.565   2.502
 5726SOL    HW118077   5.157   4.560   2.500
 5726SOL    HW218078   5.291   4.542   2.593
 5727SOL     OW18079   0.673   2.021   5.052
 5727SOL    HW118080   0.727   1.956   5.107
 5727SOL    HW218081   0.734   2.091   5.015
 5728SOL     OW18082   4.660   6.461   4.922
 5728SOL    HW118083   4.752   6.424   4.937
 5728SOL    HW218084   4.658   6.557   4.953
 5729SOL     OW18085   2.086   1.995   5.220
 5729SOL    HW118086   2.018   2.020   5.289
 5729SOL    HW218087   2.042   1.940   5.149
 5730SOL     OW18088   6.701   3.734   4.639
 5730SOL    HW118089   6.765   3.702   4.570
 5730SOL    HW218090   6.734   3.708   4.730
 5731SOL     OW18091   0.310   6.442   2.387
 5731SOL    HW118092   0.397   6.466   2.344
 5731SOL    HW218093   0.242   6.512   2.367
 5732SOL     OW18094   0.742   7.019   3.311
 5732SOL    HW118095   0.661   7.018   3.370
 5732SOL    HW218096   0.737   0.074   3.247
 5733SOL     OW18097   3.237   0.699   5.761
 5733SOL    HW118098   3.213   0.648   5.678
 5733SOL    HW218099   3.153   0.729   5.806
 5734SOL     OW18100   2.206   6.153   3.425
 5734SOL    HW118101   2.267   6.100   3.365
 5734SOL    HW218102   2.134   6.196   3.369
 5735SOL     OW18103   2.623   1.114   1.892
 5735SOL    HW118104   2.705   1.081   1.847
 5735SOL    HW218105   2.577   1.038   1.938
 5736SOL     OW18106   1.287   4.992   6.433
 5736SOL    HW118107   1.251   5.022   6.521
 5736SOL    HW218108   1.363   5.051   6.406
 5737SOL     OW18109   5.354   4.432   0.785
 5737SOL    HW118110   5.319   4.501   0.722
 5737SOL    HW218111   5.363   4.473   0.876
 5738SOL     OW18112   1.617   3.901   6.142
 5738SOL    HW118113   1.561   3.974   6.103
 5738SOL    HW218114   1.710   3.934   6.157
 5739SOL     OW18115   0.777   1.681   1.341
 5739SOL    HW118116   0.875   1.680   1.322
 5739SOL    HW218117   0.759   1.627   1.424
 5740SOL     OW18118   3.843   5.876   6.243
 5740SOL    HW118119   3.877   5.934   6.317
 5740SOL    HW218120   3.913   5.808   6.219
 5741SOL     OW18121   0.100   4.742   3.367
 5741SOL    HW118122   0.082   4.792   3.282
 5741SOL    HW218123   0.024   4.681   3.386
 5742SOL     OW18124   6.817   6.499   4.560
 5742SOL    HW118125   6.874   6.434   4.510
 5742SOL    HW218126   6.720   6.483   4.538
 5743SOL     OW18127   1.809   6.963   4.888
 5743SOL    HW118128   1.861   6.881   4.866
 5743SOL    HW218129   1.808   0.002   4.808
 5744SOL     OW18130   5.551   6.719   1.877
 5744SOL    HW118131   5.622   6.769   1.927
 5744SOL    HW218132   5.593   6.664   1.805
 5745SOL     OW18133   1.295   1.901   3.508
 5745SOL    HW118134   1.213   1.859   3.546
 5745SOL    HW218135   1.307   1.873   3.413
 5746SOL     OW18136   6.124   4.196   0.190
 5746SOL    HW118137   6.051   4.256   0.222
 5746SOL    HW218138   6.152   4.136   0.264
 5747SOL     OW18139   1.033   6.039   2.885
 5747SOL    HW118140   0.962   6.052   2.954
 5747SOL    HW218141   1.114   5.998   2.926
 5748SOL     OW18142   2.227   6.169   3.078
 5748SOL    HW118143   2.211   6.147   2.982
 5748SOL    HW218144   2.319   6.206   3.089
 5749SOL     OW18145   2.377   1.724   3.433
 5749SOL    HW118146   2.409   1.818   3.440
 5749SOL    HW218147   2.453   1.665   3.404
 5750SOL     OW18148   6.382   5.409   2.697
 5750SOL    HW118149   6.327   5.365   2.768
 5750SOL    HW218150   6.460   5.456   2.739
 5751SOL     OW18151   2.146   2.928   6.393
 5751SOL    HW118152   2.231   2.973   6.420
 5751SOL    HW218153   2.071   2.964   6.448
 5752SOL     OW18154   6.865   0.645   7.010
 5752SOL    HW118155   6.922   0.562   7.008
 5752SOL    HW218156   6.902   0.709   0.055
 5753SOL     OW18157   3.871   2.253   0.442
 5753SOL    HW118158   3.811   2.329   0.465
 5753SOL    HW218159   3.912   2.217   0.526
 5754SOL     OW18160   6.150   4.445   0.930
 5754SOL    HW118161   6.245   4.462   0.904
 5754SOL    HW218162   6.144   4.434   1.029
 5755SOL     OW18163   3.467   3.700   1.455
 5755SOL    HW118164   3.503   3.757   1.529
 5755SOL    HW218165   3.442   3.610   1.493
 5756SOL     OW18166   0.327   6.262   3.908
 5756SOL    HW118167   0.333   6.359   3.884
 5756SOL    HW218168   0.413   6.233   3.950
 5757SOL     OW18169   0.352   5.428   1.696
 5757SOL    HW118170   0.256   5.401   1.703
 5757SOL    HW218171   0.363   5.495   1.623
 5758SOL     OW18172   0.951   1.653   5.494
 5758SOL    HW118173   0.969   1.584   5.424
 5758SOL    HW218174   0.855   1.682   5.488
 5759SOL     OW18175   5.708   2.040   5.170
 5759SOL    HW118176   5.677   2.071   5.080
 5759SOL    HW218177   5.692   1.942   5.178
 5760SOL     OW18178   1.925   5.723   1.619
 5760SOL    HW118179   1.905   5.658   1.692
 5760SOL    HW218180   1.992   5.683   1.557
 5761SOL     OW18181   5.123   0.355   5.034
 5761SOL    HW118182   5.184   0.410   4.977
 5761SOL    HW218183   5.030   0.359   4.997
 5762SOL     OW18184   5.594   6.172   1.241
 5762SOL    HW118185   5.688   6.196   1.263
 5762SOL    HW218186   5.548   6.252   1.200
 5763SOL     OW18187   1.577   1.768   1.396
 5763SOL    HW118188   1.522   1.754   1.478
 5763SOL    HW218189   1.618   1.681   1.369
 5764SOL     OW18190   4.844   3.245   5.526
 5764SOL    HW118191   4.797   3.162   5.557
 5764SOL    HW218192   4.794   3.285   5.449
 5765SOL     OW18193   5.793   4.626   0.590
 5765SOL    HW118194   5.821   4.578   0.673
 5765SOL    HW218195   5.754   4.560   0.525
 5766SOL     OW18196   2.731   1.136   3.564
 5766SOL    HW118197   2.744   1.204   3.636
 5766SOL    HW218198   2.735   1.180   3.475
 5767SOL     OW18199   6.745   0.006   0.897
 5767SOL    HW118200   6.660   0.030   0.849
 5767SOL    HW218201   6.763   0.074   0.968
 5768SOL     OW18202   6.366   0.535   2.757
 5768SOL    HW118203   6.452   0.495   2.791
 5768SOL    HW218204   6.313   0.463   2.711
 5769SOL     OW18205   2.108   5.697   3.720
 5769SOL    HW118206   2.019   5.652   3.709
 5769SOL    HW218207   2.107   5.784   3.672
 5770SOL     OW18208   6.304   0.746   1.707
 5770SOL    HW118209   6.274   0.781   1.618
 5770SOL    HW218210   6.246   0.669   1.734
 5771SOL     OW18211   0.848   1.434   2.193
 5771SOL    HW118212   0.835   1.353   2.135
 5771SOL    HW218213   0.904   1.409   2.272
 5772SOL     OW18214   0.136   4.260   7.004
 5772SOL    HW118215   0.074   4.250   0.059
 5772SOL    HW218216   0.115   4.192   6.934
 5773SOL     OW18217   5.695   5.864   4.678
 5773SOL    HW118218   5.679   5.900   4.586
 5773SOL    HW218219   5.789   5.884   4.706
 5774SOL     OW18220   2.636   5.090   2.801
 5774SOL    HW118221   2.620   5.041   2.887
 5774SOL    HW218222   2.608   5.032   2.725
 5775SOL     OW18223   0.745   0.433   0.256
 5775SOL    HW118224   0.828   0.395   0.214
 5775SOL    HW218225   0.733   0.394   0.347
 5776SOL     OW18226   5.548   1.042   6.131
 5776SOL    HW118227   5.484   0.967   6.114
 5776SOL    HW218228   5.506   1.109   6.192
 5777SOL     OW18229   5.890   0.572   5.094
 5777SOL    HW118230   5.977   0.559   5.143
 5777SOL    HW218231   5.829   0.495   5.115
 5778SOL     OW18232   2.254   6.718   3.817
 5778SOL    HW118233   2.194   6.678   3.886
 5778SOL    HW218234   2.258   6.817   3.830
 5779SOL     OW18235   3.995   0.557   2.157
 5779SOL    HW118236   3.989   0.608   2.071
 5779SOL    HW218237   3.924   0.590   2.220
 5780SOL     OW18238   5.988   3.748   1.355
 5780SOL    HW118239   6.040   3.678   1.404
 5780SOL    HW218240   5.998   3.734   1.256
 5781SOL     OW18241   2.576   4.915   5.006
 5781SOL    HW118242   2.483   4.879   5.002
 5781SOL    HW218243   2.640   4.850   4.966
 5782SOL     OW18244   2.739   1.349   3.062
 5782SOL    HW118245   2.750   1.444   3.092
 5782SOL    HW218246   2.761   1.342   2.965
 5783SOL     OW18247   2.686   6.483   1.201
 5783SOL    HW118248   2.635   6.563   1.170
 5783SOL    HW218249   2.683   6.477   1.301
 5784SOL     OW18250   1.679   5.805   0.310
 5784SOL    HW118251   1.776   5.812   0.329
 5784SOL    HW218252   1.664   5.809   0.211
 5785SOL     OW18253   2.724   1.607   0.576
 5785SOL    HW118254   2.753   1.701   0.595
 5785SOL    HW218255   2.647   1.608   0.513
 5786SOL     OW18256   0.696   3.226   0.314
 5786SOL    HW118257   0.765   3.287   0.352
 5786SOL    HW218258   0.740   3.157   0.256
 5787SOL     OW18259   0.265   3.111   5.323
 5787SOL    HW118260   0.333   3.103   5.250
 5787SOL    HW218261   0.265   3.205   5.358
 5788SOL     OW18262   2.097   2.622   1.952
 5788SOL    HW118263   2.077   2.647   1.857
 5788SOL    HW218264   2.012   2.600   1.999
 5789SOL     OW18265   2.974   5.302   6.934
 5789SOL    HW118266   3.020   5.242   6.869
 5789SOL    HW218267   2.928   5.247   7.003
 5790SOL     OW18268   6.238   5.987   3.401
 5790SOL    HW118269   6.139   5.985   3.386
 5790SOL    HW218270   6.270   6.082   3.406
 5791SOL     OW18271   4.227   1.908   1.282
 5791SOL    HW118272   4.287   1.856   1.222
 5791SOL    HW218273   4.163   1.845   1.327
 5792SOL     OW18274   4.297   2.152   2.890
 5792SOL    HW118275   4.305   2.055   2.911
 5792SOL    HW218276   4.369   2.178   2.825
 5793SOL     OW18277   4.106   2.637   6.631
 5793SOL    HW118278   4.169   2.591   6.693
 5793SOL    HW218279   4.015   2.641   6.673
 5794SOL     OW18280   3.434   6.294   6.914
 5794SOL    HW118281   3.358   6.231   6.897
 5794SOL    HW218282   3.414   6.383   6.873
 5795SOL     OW18283   2.017   6.471   1.725
 5795SOL    HW118284   2.010   6.480   1.825
 5795SOL    HW218285   1.965   6.391   1.695
 5796SOL     OW18286   4.815   0.709   6.555
 5796SOL    HW118287   4.802   0.661   6.642
 5796SOL    HW218288   4.900   0.761   6.558
 5797SOL     OW18289   6.933   2.861   0.603
 5797SOL    HW118290   6.945   2.893   0.697
 5797SOL    HW218291   7.000   2.790   0.583
 5798SOL     OW18292   1.597   3.640   4.572
 5798SOL    HW118293   1.521   3.679   4.520
 5798SOL    HW218294   1.626   3.555   4.529
 5799SOL     OW18295   2.681   0.179   3.840
 5799SOL    HW118296   2.646   0.192   3.747
 5799SOL    HW218297   2.743   0.100   3.842
 5800SOL     OW18298   1.155   0.354   1.260
 5800SOL    HW118299   1.162   0.255   1.261
 5800SOL    HW218300   1.059   0.381   1.271
 5801SOL     OW18301   1.772   1.720   2.405
 5801SOL    HW118302   1.752   1.634   2.360
 5801SOL    HW218303   1.860   1.755   2.374
 5802SOL     OW18304   0.624   0.234   2.507
 5802SOL    HW118305   0.580   0.148   2.483
 5802SOL    HW218306   0.690   0.219   2.580
 5803SOL     OW18307   0.272   6.287   4.521
 5803SOL    HW118308   0.311   6.229   4.593
 5803SOL    HW218309   0.313   6.262   4.433
 5804SOL     OW18310   5.900   2.087   2.874
 5804SOL    HW118311   5.942   2.019   2.934
 5804SOL    HW218312   5.804   2.097   2.897
 5805SOL     OW18313   1.177   2.828   2.320
 5805SOL    HW118314   1.186   2.924   2.293
 5805SOL    HW218315   1.266   2.794   2.349
 5806SOL     OW18316   6.604   4.136   2.085
 5806SOL    HW118317   6.697   4.144   2.119
 5806SOL    HW218318   6.606   4.126   1.985
 5807SOL     OW18319   1.542   1.244   2.380
 5807SOL    HW118320   1.566   1.333   2.418
 5807SOL    HW218321   1.527   1.179   2.455
 5808SOL     OW18322   6.613   0.390   5.991
 5808SOL    HW118323   6.533   0.439   6.026
 5808SOL    HW218324   6.665   0.352   6.068
 5809SOL     OW18325   0.231   2.765   4.593
 5809SOL    HW118326   0.241   2.667   4.577
 5809SOL    HW218327   0.279   2.791   4.676
 5810SOL     OW18328   2.901   6.201   5.163
 5810SOL    HW118329   2.863   6.182   5.254
 5810SOL    HW218330   2.976   6.267   5.172
 5811SOL     OW18331   3.818   4.185   6.417
 5811SOL    HW118332   3.720   4.169   6.403
 5811SOL    HW218333   3.830   4.256   6.487
 5812SOL     OW18334   5.884   2.957   6.247
 5812SOL    HW118335   5.916   2.877   6.298
 5812SOL    HW218336   5.917   2.951   6.153
 5813SOL     OW18337   5.194   5.541   0.817
 5813SOL    HW118338   5.100   5.530   0.850
 5813SOL    HW218339   5.196   5.609   0.744
 5814SOL     OW18340   5.999   1.017   2.347
 5814SOL    HW118341   5.904   1.048   2.340
 5814SOL    HW218342   6.031   0.987   2.257
 5815SOL     OW18343   6.215   3.351   4.258
 5815SOL    HW118344   6.186   3.355   4.163
 5815SOL    HW218345   6.167   3.421   4.311
 5816SOL     OW18346   0.230   3.941   2.235
 5816SOL    HW118347   0.312   3.924   2.290
 5816SOL    HW218348   0.249   3.921   2.139
 5817SOL     OW18349   6.361   3.621   3.065
 5817SOL    HW118350   6.295   3.678   3.018
 5817SOL    HW218351   6.338   3.524   3.051
 5818SOL     OW18352   2.512   0.326   4.552
 5818SOL    HW118353   2.429   0.305   4.500
 5818SOL    HW218354   2.566   0.394   4.502
 5819SOL     OW18355   3.766   3.809   0.358
 5819SOL    HW118356   3.713   3.742   0.305
 5819SOL    HW218357   3.822   3.761   0.425
 5820SOL     OW18358   6.035   6.932   2.567
 5820SOL    HW118359   6.090   6.921   2.484
 5820SOL    HW218360   5.938   6.934   2.542
 5821SOL     OW18361   6.861   0.259   1.973
 5821SOL    HW118362   6.768   0.294   1.981
 5821SOL    HW218363   6.860   0.166   1.935
 5822SOL     OW18364   1.287   4.103   2.548
 5822SOL    HW118365   1.258   4.031   2.612
 5822SOL    HW218366   1.386   4.100   2.537
 5823SOL     OW18367   2.120   6.575   3.999
 5823SOL    HW118368   2.070   6.507   3.945
 5823SOL    HW218369   2.196   6.531   4.046
 5824SOL     OW18370   1.795   6.779   2.249
 5824SOL    HW118371   1.888   6.776   2.212
 5824SOL    HW218372   1.760   6.686   2.257
 5825SOL     OW18373   4.801   1.509   3.993
 5825SOL    HW118374   4.864   1.458   4.051
 5825SOL    HW218375   4.774   1.453   3.915
 5826SOL     OW18376   1.498   6.910   5.477
 5826SOL    HW118377   1.496   6.859   5.391
 5826SOL    HW218378   1.414   6.964   5.485
 5827SOL     OW18379   2.132   4.067   3.465
 5827SOL    HW118380   2.133   3.969   3.483
 5827SOL    HW218381   2.037   4.100   3.465
 5828SOL     OW18382   4.398   0.518   5.538
 5828SOL    HW118383   4.450   0.542   5.620
 5828SOL    HW218384   4.453   0.539   5.457
 5829SOL     OW18385   1.919   0.300   2.807
 5829SOL    HW118386   1.978   0.274   2.731
 5829SOL    HW218387   1.846   0.360   2.774
 5830SOL     OW18388   4.065   5.233   4.193
 5830SOL    HW118389   4.092   5.316   4.242
 5830SOL    HW218390   4.145   5.192   4.149
 5831SOL     OW18391   2.216   2.249   5.126
 5831SOL    HW118392   2.172   2.159   5.134
 5831SOL    HW218393   2.254   2.275   5.215
 5832SOL     OW18394   3.002   5.403   2.133
 5832SOL    HW118395   2.962   5.314   2.157
 5832SOL    HW218396   3.097   5.390   2.105
 5833SOL     OW18397   3.400   5.548   6.979
 5833SOL    HW118398   3.476   5.607   7.004
 5833SOL    HW218399   3.331   5.602   6.929
 5834SOL     OW18400   6.655   2.852   6.041
 5834SOL    HW118401   6.607   2.764   6.032
 5834SOL    HW218402   6.655   2.880   6.137
 5835SOL     OW18403   4.528   1.720   3.228
 5835SOL    HW118404   4.492   1.813   3.244
 5835SOL    HW218405   4.619   1.712   3.268
 5836SOL     OW18406   5.279   6.243   1.967
 5836SOL    HW118407   5.358   6.294   1.932
 5836SOL    HW218408   5.246   6.180   1.897
 5837SOL     OW18409   3.018   4.630   6.585
 5837SOL    HW118410   3.056   4.540   6.606
 5837SOL    HW218411   3.067   4.670   6.508
 5838SOL     OW18412   4.263   2.820   0.439
 5838SOL    HW118413   4.302   2.911   0.426
 5838SOL    HW218414   4.167   2.828   0.466
 5839SOL     OW18415   1.934   2.205   0.991
 5839SOL    HW118416   1.910   2.300   0.969
 5839SOL    HW218417   1.976   2.163   0.911
 5840SOL     OW18418   0.385   3.719   3.765
 5840SOL    HW118419   0.340   3.663   3.696
 5840SOL    HW218420   0.484   3.715   3.752
 5841SOL     OW18421   5.215   1.315   0.464
 5841SOL    HW118422   5.315   1.315   0.462
 5841SOL    HW218423   5.181   1.394   0.413
 5842SOL     OW18424   3.216   1.690   1.266
 5842SOL    HW118425   3.166   1.771   1.235
 5842SOL    HW218426   3.181   1.610   1.218
 5843SOL     OW18427   3.677   3.292   0.400
 5843SOL    HW118428   3.632   3.228   0.338
 5843SOL    HW218429   3.772   3.265   0.412
 5844SOL     OW18430   0.382   5.933   5.203
 5844SOL    HW118431   0.351   6.017   5.248
 5844SOL    HW218432   0.346   5.930   5.109
 5845SOL     OW18433   1.439   6.711   2.431
 5845SOL    HW118434   1.517   6.762   2.393
 5845SOL    HW218435   1.416   6.635   2.371
 5846SOL     OW18436   1.057   4.343   5.164
 5846SOL    HW118437   0.962   4.315   5.160
 5846SOL    HW218438   1.084   4.356   5.260
 5847SOL     OW18439   1.531   3.913   6.383
 5847SOL    HW118440   1.562   3.900   6.289
 5847SOL    HW218441   1.438   3.951   6.381
 5848SOL     OW18442   2.150   5.639   1.806
 5848SOL    HW118443   2.110   5.729   1.787
 5848SOL    HW218444   2.139   5.618   1.903
 5849SOL     OW18445   2.674   5.769   6.506
 5849SOL    HW118446   2.619   5.706   6.562
 5849SOL    HW218447   2.771   5.746   6.517
 5850SOL     OW18448   0.384   1.553   1.774
 5850SOL    HW118449   0.333   1.495   1.837
 5850SOL    HW218450   0.482   1.548   1.797
 5851SOL     OW18451   6.327   3.777   4.664
 5851SOL    HW118452   6.362   3.684   4.666
 5851SOL    HW218453   6.399   3.840   4.696
 5852SOL     OW18454   4.899   4.301   2.341
 5852SOL    HW118455   4.907   4.202   2.356
 5852SOL    HW218456   4.831   4.319   2.271
 5853SOL     OW18457   4.880   4.895   6.525
 5853SOL    HW118458   4.974   4.904   6.555
 5853SOL    HW218459   4.862   4.800   6.501
 5854SOL     OW18460   3.512   4.843   5.326
 5854SOL    HW118461   3.425   4.851   5.277
 5854SOL    HW218462   3.529   4.747   5.348
 5855SOL     OW18463   2.190   2.700   2.867
 5855SOL    HW118464   2.182   2.794   2.900
 5855SOL    HW218465   2.245   2.698   2.784
 5856SOL     OW18466   0.938   6.363   2.763
 5856SOL    HW118467   0.896   6.453   2.763
 5856SOL    HW218468   0.909   6.313   2.845
 5857SOL     OW18469   5.715   5.112   6.566
 5857SOL    HW118470   5.786   5.058   6.521
 5857SOL    HW218471   5.712   5.089   6.663
 5858SOL     OW18472   1.705   0.907   2.964
 5858SOL    HW118473   1.766   0.907   3.043
 5858SOL    HW218474   1.631   0.841   2.979
 5859SOL     OW18475   5.388   5.497   2.195
 5859SOL    HW118476   5.308   5.501   2.135
 5859SOL    HW218477   5.421   5.590   2.212
 5860SOL     OW18478   0.488   4.260   2.871
 5860SOL    HW118479   0.495   4.262   2.771
 5860SOL    HW218480   0.574   4.224   2.909
 5861SOL     OW18481   4.676   0.737   5.500
 5861SOL    HW118482   4.663   0.663   5.566
 5861SOL    HW218483   4.713   0.817   5.546
 5862SOL     OW18484   6.257   5.207   3.228
 5862SOL    HW118485   6.189   5.138   3.253
 5862SOL    HW218486   6.312   5.229   3.308
 5863SOL     OW18487   3.856   6.857   6.593
 5863SOL    HW118488   3.948   6.897   6.594
 5863SOL    HW218489   3.804   6.893   6.516
 5864SOL     OW18490   3.502   3.606   2.497
 5864SOL    HW118491   3.457   3.517   2.489
 5864SOL    HW218492   3.586   3.607   2.442
 5865SOL     OW18493   6.581   0.308   6.623
 5865SOL    HW118494   6.537   0.380   6.676
 5865SOL    HW218495   6.565   0.325   6.525
 5866SOL     OW18496   3.217   2.899   2.385
 5866SOL    HW118497   3.164   2.817   2.364
 5866SOL    HW218498   3.209   2.918   2.483
 5867SOL     OW18499   3.309   1.652   1.522
 5867SOL    HW118500   3.259   1.709   1.586
 5867SOL    HW218501   3.276   1.669   1.429
 5868SOL     OW18502   0.825   0.931   6.997
 5868SOL    HW118503   0.733   0.897   7.019
 5868SOL    HW218504   0.884   0.920   0.055
 5869SOL     OW18505   1.104   5.920   3.368
 5869SOL    HW118506   1.133   5.877   3.453
 5869SOL    HW218507   1.138   5.867   3.290
 5870SOL     OW18508   3.969   6.255   4.224
 5870SOL    HW118509   3.916   6.336   4.201
 5870SOL    HW218510   3.930   6.175   4.178
 5871SOL     OW18511   3.784   3.195   3.720
 5871SOL    HW118512   3.770   3.105   3.762
 5871SOL    HW218513   3.715   3.210   3.650
 5872SOL     OW18514   4.770   6.376   0.414
 5872SOL    HW118515   4.838   6.326   0.359
 5872SOL    HW218516   4.708   6.311   0.458
 5873SOL     OW18517   4.054   6.055   2.183
 5873SOL    HW118518   4.081   6.109   2.102
 5873SOL    HW218519   3.976   6.099   2.228
 5874SOL     OW18520   0.789   3.930   5.621
 5874SOL    HW118521   0.713   3.898   5.677
 5874SOL    HW218522   0.757   4.005   5.562
 5875SOL     OW18523   3.773   1.862   1.469
 5875SOL    HW118524   3.823   1.949   1.469
 5875SOL    HW218525   3.765   1.828   1.375
 5876SOL     OW18526   3.413   3.287   1.796
 5876SOL    HW118527   3.393   3.197   1.833
 5876SOL    HW218528   3.380   3.357   1.859
 5877SOL     OW18529   5.891   4.596   1.269
 5877SOL    HW118530   5.968   4.533   1.262
 5877SOL    HW218531   5.870   4.634   1.179
 5878SOL     OW18532   2.091   3.998   2.576
 5878SOL    HW118533   2.140   4.085   2.590
 5878SOL    HW218534   2.129   3.951   2.496
 5879SOL     OW18535   0.675   4.098   4.109
 5879SOL    HW118536   0.586   4.089   4.065
 5879SOL    HW218537   0.708   4.192   4.099
 5880SOL     OW18538   3.362   5.908   0.519
 5880SOL    HW118539   3.290   5.923   0.451
 5880SOL    HW218540   3.418   5.830   0.492
 5881SOL     OW18541   1.098   5.581   4.295
 5881SOL    HW118542   1.148   5.667   4.297
 5881SOL    HW218543   1.135   5.523   4.222
 5882SOL     OW18544   4.791   0.863   2.945
 5882SOL    HW118545   4.753   0.815   3.023
 5882SOL    HW218546   4.866   0.922   2.975
 5883SOL     OW18547   0.630   3.564   5.159
 5883SOL    HW118548   0.704   3.630   5.146
 5883SOL    HW218549   0.657   3.475   5.122
 5884SOL     OW18550   0.627   0.921   3.738
 5884SOL    HW118551   0.679   0.841   3.767
 5884SOL    HW218552   0.529   0.901   3.743
 5885SOL     OW18553   5.816   6.487   1.251
 5885SOL    HW118554   5.837   6.399   1.207
 5885SOL    HW218555   5.751   6.538   1.194
 5886SOL     OW18556   0.557   0.864   6.410
 5886SOL    HW118557   0.521   0.841   6.501
 5886SOL    HW218558   0.633   0.802   6.388
 5887SOL     OW18559   4.559   6.416   3.049
 5887SOL    HW118560   4.554   6.320   3.075
 5887SOL    HW218561   4.590   6.470   3.127
 5888SOL     OW18562   0.788   0.993   2.781
 5888SOL    HW118563   0.867   0.978   2.722
 5888SOL    HW218564   0.755   0.906   2.817
 5889SOL     OW18565   2.699   0.332   0.125
 5889SOL    HW118566   2.652   0.329   0.214
 5889SOL    HW218567   2.785   0.281   0.132
 5890SOL     OW18568   3.501   4.941   5.686
 5890SOL    HW118569   3.426   4.990   5.642
 5890SOL    HW218570   3.566   5.006   5.725
 5891SOL     OW18571   2.342   3.678   6.501
 5891SOL    HW118572   2.296   3.764   6.478
 5891SOL    HW218573   2.290   3.601   6.463
 5892SOL     OW18574   1.536   6.778   2.705
 5892SOL    HW118575   1.539   6.724   2.621
 5892SOL    HW218576   1.487   6.727   2.776
 5893SOL     OW18577   1.794   0.789   3.216
 5893SOL    HW118578   1.763   0.705   3.261
 5893SOL    HW218579   1.751   0.868   3.259
 5894SOL     OW18580   0.741   3.694   4.092
 5894SOL    HW118581   0.674   3.729   4.157
 5894SOL    HW218582   0.723   3.598   4.073
 5895SOL     OW18583   5.426   3.531   3.653
 5895SOL    HW118584   5.344   3.477   3.633
 5895SOL    HW218585   5.487   3.478   3.712
 5896SOL     OW18586   4.882   2.133   5.867
 5896SOL    HW118587   4.847   2.055   5.919
 5896SOL    HW218588   4.980   2.122   5.852
 5897SOL     OW18589   4.241   0.011   1.441
 5897SOL    HW118590   4.267   6.979   1.521
 5897SOL    HW218591   4.176   6.980   1.385
 5898SOL     OW18592   2.346   6.437   2.909
 5898SOL    HW118593   2.388   6.365   2.963
 5898SOL    HW218594   2.332   6.405   2.815
 5899SOL     OW18595   5.748   0.387   3.531
 5899SOL    HW118596   5.773   0.483   3.540
 5899SOL    HW218597   5.675   0.377   3.463
 5900SOL     OW18598   3.847   4.946   2.298
 5900SOL    HW118599   3.797   4.951   2.211
 5900SOL    HW218600   3.799   5.000   2.367
 5901SOL     OW18601   3.343   6.270   4.988
 5901SOL    HW118602   3.414   6.296   4.922
 5901SOL    HW218603   3.353   6.172   5.009
 5902SOL     OW18604   6.413   1.527   6.848
 5902SOL    HW118605   6.510   1.543   6.865
 5902SOL    HW218606   6.381   1.590   6.777
 5903SOL     OW18607   6.400   3.340   6.753
 5903SOL    HW118608   6.368   3.327   6.847
 5903SOL    HW218609   6.328   3.315   6.689
 5904SOL     OW18610   0.571   4.201   2.312
 5904SOL    HW118611   0.533   4.109   2.302
 5904SOL    HW218612   0.502   4.268   2.284
 5905SOL     OW18613   6.520   4.855   1.892
 5905SOL    HW118614   6.524   4.953   1.875
 5905SOL    HW218615   6.495   4.807   1.808
 5906SOL     OW18616   0.059   1.566   4.196
 5906SOL    HW118617   0.105   1.615   4.270
 5906SOL    HW218618   0.124   1.506   4.150
 5907SOL     OW18619   2.093   6.834   2.216
 5907SOL    HW118620   2.154   6.902   2.258
 5907SOL    HW218621   2.081   6.856   2.119
 5908SOL     OW18622   0.076   2.568   6.067
 5908SOL    HW118623   0.110   2.605   5.980
 5908SOL    HW218624   0.131   2.604   6.142
 5909SOL     OW18625   6.779   4.041   0.781
 5909SOL    HW118626   6.828   3.980   0.843
 5909SOL    HW218627   6.830   4.049   0.695
 5910SOL     OW18628   2.291   1.433   3.733
 5910SOL    HW118629   2.204   1.400   3.771
 5910SOL    HW218630   2.354   1.356   3.722
 5911SOL     OW18631   6.818   5.928   6.208
 5911SOL    HW118632   6.808   5.847   6.266
 5911SOL    HW218633   6.805   6.011   6.263
 5912SOL     OW18634   1.119   0.443   3.839
 5912SOL    HW118635   1.198   0.381   3.840
 5912SOL    HW218636   1.151   0.538   3.842
 5913SOL     OW18637   6.167   1.833   6.952
 5913SOL    HW118638   6.136   1.859   0.021
 5913SOL    HW218639   6.246   1.889   6.926
 5914SOL     OW18640   0.923   6.547   0.623
 5914SOL    HW118641   1.012   6.509   0.599
 5914SOL    HW218642   0.919   6.565   0.722
 5915SOL     OW18643   4.040   1.503   5.902
 5915SOL    HW118644   4.127   1.544   5.930
 5915SOL    HW218645   3.988   1.567   5.846
 5916SOL     OW18646   0.883   6.417   2.059
 5916SOL    HW118647   0.968   6.367   2.076
 5916SOL    HW218648   0.836   6.434   2.146
 5917SOL     OW18649   3.650   4.351   0.465
 5917SOL    HW118650   3.659   4.258   0.430
 5917SOL    HW218651   3.739   4.385   0.494
 5918SOL     OW18652   2.807   6.345   4.859
 5918SOL    HW118653   2.811   6.385   4.767
 5918SOL    HW218654   2.869   6.394   4.919
 5919SOL     OW18655   3.243   3.508   5.045
 5919SOL    HW118656   3.322   3.553   5.087
 5919SOL    HW218657   3.232   3.541   4.951
 5920SOL     OW18658   6.352   0.426   5.366
 5920SOL    HW118659   6.341   0.332   5.396
 5920SOL    HW218660   6.389   0.428   5.273
 5921SOL     OW18661   2.633   4.244   6.544
 5921SOL    HW118662   2.605   4.164   6.596
 5921SOL    HW218663   2.607   4.232   6.448
 5922SOL     OW18664   5.145   2.813   2.101
 5922SOL    HW118665   5.202   2.890   2.131
 5922SOL    HW218666   5.164   2.733   2.158
 5923SOL     OW18667   6.317   0.799   3.473
 5923SOL    HW118668   6.342   0.703   3.477
 5923SOL    HW218669   6.274   0.819   3.385
 5924SOL     OW18670   4.988   6.779   3.416
 5924SOL    HW118671   4.897   6.820   3.411
 5924SOL    HW218672   5.054   6.847   3.447
 5925SOL     OW18673   4.601   1.161   1.188
 5925SOL    HW118674   4.599   1.255   1.221
 5925SOL    HW218675   4.616   1.161   1.089
 5926SOL     OW18676   4.839   4.475   3.649
 5926SOL    HW118677   4.900   4.437   3.580
 5926SOL    HW218678   4.776   4.403   3.680
 5927SOL     OW18679   0.479   4.553   2.007
 5927SOL    HW118680   0.515   4.476   1.955
 5927SOL    HW218681   0.477   4.635   1.949
 5928SOL     OW18682   2.709   0.644   0.092
 5928SOL    HW118683   2.657   0.652   0.007
 5928SOL    HW218684   2.703   0.550   0.125
 5929SOL     OW18685   1.719   0.846   0.090
 5929SOL    HW118686   1.645   0.782   0.112
 5929SOL    HW218687   1.733   0.848   7.012
 5930SOL     OW18688   1.706   3.816   2.442
 5930SOL    HW118689   1.648   3.735   2.452
 5930SOL    HW218690   1.689   3.857   2.352
 5931SOL     OW18691   4.888   6.628   3.158
 5931SOL    HW118692   4.890   6.662   3.064
 5931SOL    HW218693   4.939   6.690   3.217
 5932SOL     OW18694   3.048   1.094   6.220
 5932SOL    HW118695   3.083   1.002   6.205
 5932SOL    HW218696   3.068   1.150   6.139
 5933SOL     OW18697   6.173   6.328   4.735
 5933SOL    HW118698   6.209   6.333   4.642
 5933SOL    HW218699   6.109   6.404   4.750
 5934SOL     OW18700   3.614   3.446   6.820
 5934SOL    HW118701   3.635   3.482   6.729
 5934SOL    HW218702   3.645   3.351   6.826
 5935SOL     OW18703   1.338   6.226   6.084
 5935SOL    HW118704   1.424   6.241   6.035
 5935SOL    HW218705   1.283   6.160   6.034
 5936SOL     OW18706   3.607   3.239   2.002
 5936SOL    HW118707   3.613   3.139   2.007
 5936SOL    HW218708   3.528   3.265   1.946
 5937SOL     OW18709   0.403   3.270   0.979
 5937SOL    HW118710   0.470   3.287   1.052
 5937SOL    HW218711   0.366   3.178   0.988
 5938SOL     OW18712   0.420   4.426   4.009
 5938SOL    HW118713   0.441   4.328   4.011
 5938SOL    HW218714   0.350   4.446   4.078
 5939SOL     OW18715   4.038   1.597   5.234
 5939SOL    HW118716   3.977   1.673   5.254
 5939SOL    HW218717   4.007   1.515   5.284
 5940SOL     OW18718   4.757   5.397   1.987
 5940SOL    HW118719   4.699   5.456   1.930
 5940SOL    HW218720   4.833   5.451   2.024
 5941SOL     OW18721   0.007   2.205   2.887
 5941SOL    HW118722   0.061   2.146   2.828
 5941SOL    HW218723   0.012   2.172   2.981
 5942SOL     OW18724   5.291   3.166   5.829
 5942SOL    HW118725   5.362   3.236   5.820
 5942SOL    HW218726   5.237   3.163   5.744
 5943SOL     OW18727   2.922   4.349   1.650
 5943SOL    HW118728   2.919   4.413   1.727
 5943SOL    HW218729   2.865   4.269   1.671
 5944SOL     OW18730   6.611   3.318   6.465
 5944SOL    HW118731   6.563   3.380   6.528
 5944SOL    HW218732   6.667   3.255   6.517
 5945SOL     OW18733   6.492   6.463   4.771
 5945SOL    HW118734   6.450   6.553   4.780
 5945SOL    HW218735   6.511   6.445   4.675
 5946SOL     OW18736   2.433   3.587   0.631
 5946SOL    HW118737   2.393   3.678   0.641
 5946SOL    HW218738   2.530   3.590   0.654
 5947SOL     OW18739   3.939   3.245   4.796
 5947SOL    HW118740   3.936   3.145   4.789
 5947SOL    HW218741   3.847   3.282   4.783
 5948SOL     OW18742   5.030   3.227   1.921
 5948SOL    HW118743   4.992   3.176   1.999
 5948SOL    HW218744   4.978   3.204   1.839
 5949SOL     OW18745   0.362   4.517   2.669
 5949SOL    HW118746   0.314   4.548   2.751
 5949SOL    HW218747   0.312   4.440   2.628
 5950SOL     OW18748   3.912   6.997   4.832
 5950SOL    HW118749   3.845   7.018   4.903
 5950SOL    HW218750   4.004   6.999   4.870
 5951SOL     OW18751   0.515   3.661   6.718
 5951SOL    HW118752   0.482   3.720   6.643
 5951SOL    HW218753   0.436   3.619   6.764
 5952SOL     OW18754   4.282   4.570   0.861
 5952SOL    HW118755   4.280   4.647   0.925
 5952SOL    HW218756   4.313   4.602   0.772
 5953SOL     OW18757   6.470   3.155   5.051
 5953SOL    HW118758   6.414   3.083   5.093
 5953SOL    HW218759   6.510   3.121   4.966
 5954SOL     OW18760   1.804   6.090   4.078
 5954SOL    HW118761   1.745   6.080   3.998
 5954SOL    HW218762   1.880   6.026   4.071
 5955SOL     OW18763   5.351   3.633   0.307
 5955SOL    HW118764   5.286   3.677   0.245
 5955SOL    HW218765   5.353   3.683   0.394
 5956SOL     OW18766   5.273   2.529   5.393
 5956SOL    HW118767   5.239   2.593   5.324
 5956SOL    HW218768   5.355   2.567   5.436
 5957SOL     OW18769   6.728   2.138   3.077
 5957SOL    HW118770   6.653   2.115   3.139
 5957SOL    HW218771   6.708   2.225   3.032
 5958SOL     OW18772   3.135   0.369   2.750
 5958SOL    HW118773   3.054   0.323   2.713
 5958SOL    HW218774   3.177   0.311   2.821
 5959SOL     OW18775   4.779   2.315   4.144
 5959SOL    HW118776   4.782   2.415   4.146
 5959SOL    HW218777   4.684   2.285   4.141
 5960SOL     OW18778   4.241   6.982   6.335
 5960SOL    HW118779   4.176   0.013   6.280
 5960SOL    HW218780   4.192   6.929   6.403
 5961SOL     OW18781   2.689   2.385   3.190
 5961SOL    HW118782   2.648   2.476   3.183
 5961SOL    HW218783   2.737   2.364   3.104
 5962SOL     OW18784   5.292   5.895   0.842
 5962SOL    HW118785   5.366   5.879   0.908
 5962SOL    HW218786   5.307   5.838   0.761
 5963SOL     OW18787   2.793   3.938   6.984
 5963SOL    HW118788   2.756   4.031   6.980
 5963SOL    HW218789   2.844   3.919   6.900
 5964SOL     OW18790   2.927   6.735   2.371
 5964SOL    HW118791   2.832   6.706   2.356
 5964SOL    HW218792   2.980   6.720   2.288
 5965SOL     OW18793   1.937   0.394   0.071
 5965SOL    HW118794   1.995   0.334   0.015
 5965SOL    HW218795   1.888   0.339   0.139
 5966SOL     OW18796   2.714   1.296   4.650
 5966SOL    HW118797   2.728   1.278   4.747
 5966SOL    HW218798   2.618   1.315   4.632
 5967SOL     OW18799   3.860   1.744   4.405
 5967SOL    HW118800   3.949   1.763   4.365
 5967SOL    HW218801   3.869   1.736   4.504
 5968SOL     OW18802   5.849   2.763   1.686
 5968SOL    HW118803   5.938   2.773   1.642
 5968SOL    HW218804   5.820   2.667   1.682
 5969SOL     OW18805   5.647   0.503   0.803
 5969SOL    HW118806   5.593   0.576   0.762
 5969SOL    HW218807   5.711   0.467   0.735
 5970SOL     OW18808   6.941   3.438   0.657
 5970SOL    HW118809   6.977   3.478   0.741
 5970SOL    HW218810   6.869   3.372   0.678
 5971SOL     OW18811   0.018   6.371   3.979
 5971SOL    HW118812   0.117   6.374   3.966
 5971SOL    HW218813   7.003   6.465   3.978
 5972SOL     OW18814   5.009   4.741   0.918
 5972SOL    HW118815   4.943   4.731   0.992
 5972SOL    HW218816   4.968   4.792   0.842
 5973SOL     OW18817   3.093   1.511   2.372
 5973SOL    HW118818   3.007   1.551   2.404
 5973SOL    HW218819   3.122   1.439   2.435
 5974SOL     OW18820   5.140   1.727   5.548
 5974SOL    HW118821   5.108   1.672   5.472
 5974SOL    HW218822   5.194   1.804   5.514
 5975SOL     OW18823   4.559   5.097   0.794
 5975SOL    HW118824   4.633   5.127   0.855
 5975SOL    HW218825   4.588   5.109   0.699
 5976SOL     OW18826   2.387   2.845   5.713
 5976SOL    HW118827   2.312   2.889   5.762
 5976SOL    HW218828   2.435   2.783   5.775
 5977SOL     OW18829   6.394   4.508   0.808
 5977SOL    HW118830   6.469   4.483   0.870
 5977SOL    HW218831   6.412   4.468   0.718
 5978SOL     OW18832   2.434   3.516   0.168
 5978SOL    HW118833   2.452   3.614   0.162
 5978SOL    HW218834   2.498   3.467   0.109
 5979SOL     OW18835   5.844   0.953   1.630
 5979SOL    HW118836   5.923   0.979   1.686
 5979SOL    HW218837   5.767   1.014   1.650
 5980SOL     OW18838   2.997   2.879   1.278
 5980SOL    HW118839   3.062   2.833   1.218
 5980SOL    HW218840   3.011   2.849   1.372
 5981SOL     OW18841   3.099   2.563   0.494
 5981SOL    HW118842   3.165   2.489   0.481
 5981SOL    HW218843   3.014   2.541   0.447
 5982SOL     OW18844   5.405   3.129   0.386
 5982SOL    HW118845   5.354   3.205   0.347
 5982SOL    HW218846   5.393   3.048   0.329
 5983SOL     OW18847   6.926   0.764   3.514
 5983SOL    HW118848   7.006   0.725   3.470
 5983SOL    HW218849   6.843   0.736   3.466
 5984SOL     OW18850   5.823   6.977   4.142
 5984SOL    HW118851   5.882   6.909   4.099
 5984SOL    HW218852   5.871   0.043   4.148
 5985SOL     OW18853   6.382   3.356   2.330
 5985SOL    HW118854   6.365   3.369   2.427
 5985SOL    HW218855   6.408   3.443   2.288
 5986SOL     OW18856   4.102   3.579   4.941
 5986SOL    HW118857   4.178   3.644   4.944
 5986SOL    HW218858   4.094   3.542   4.849
 5987SOL     OW18859   0.330   6.838   5.491
 5987SOL    HW118860   0.244   6.880   5.519
 5987SOL    HW218861   0.316   6.739   5.479
 5988SOL     OW18862   0.873   2.936   6.160
 5988SOL    HW118863   0.925   2.958   6.078
 5988SOL    HW218864   0.929   2.882   6.223
 5989SOL     OW18865   0.764   6.024   5.841
 5989SOL    HW118866   0.675   6.040   5.884
 5989SOL    HW218867   0.776   6.088   5.765
 5990SOL     OW18868   3.128   4.896   1.644
 5990SOL    HW118869   3.163   4.937   1.559
 5990SOL    HW218870   3.200   4.838   1.684
 5991SOL     OW18871   4.510   0.348   0.624
 5991SOL    HW118872   4.473   0.376   0.713
 5991SOL    HW218873   4.442   0.293   0.576
 5992SOL     OW18874   3.435   6.489   2.093
 5992SOL    HW118875   3.435   6.572   2.037
 5992SOL    HW218876   3.372   6.500   2.170
 5993SOL     OW18877   5.830   1.959   0.255
 5993SOL    HW118878   5.788   2.045   0.285
 5993SOL    HW218879   5.792   1.932   0.167
 5994SOL     OW18880   0.050   3.415   0.187
 5994SOL    HW118881   0.096   3.328   0.206
 5994SOL    HW218882   0.003   3.408   0.099
 5995SOL     OW18883   4.985   3.754   1.580
 5995SOL    HW118884   4.931   3.816   1.638
 5995SOL    HW218885   5.008   3.800   1.494
 5996SOL     OW18886   2.691   5.590   1.015
 5996SOL    HW118887   2.709   5.505   1.064
 5996SOL    HW218888   2.738   5.665   1.062
 5997SOL     OW18889   6.098   0.577   3.766
 5997SOL    HW118890   6.047   0.663   3.765
 5997SOL    HW218891   6.194   0.594   3.788
 5998SOL     OW18892   6.117   5.995   0.791
 5998SOL    HW118893   6.148   5.999   0.696
 5998SOL    HW218894   6.118   5.900   0.822
 5999SOL     OW18895   4.988   2.926   1.434
 5999SOL    HW118896   5.085   2.913   1.413
 5999SOL    HW218897   4.966   2.877   1.519
 6000SOL     OW18898   0.460   4.208   1.062
 6000SOL    HW118899   0.523   4.277   1.096
 6000SOL    HW218900   0.492   4.117   1.088
 6001SOL     OW18901   6.667   5.510   5.662
 6001SOL    HW118902   6.570   5.486   5.672
 6001SOL    HW218903   6.715   5.436   5.616
 6002SOL     OW18904   6.014   4.657   5.296
 6002SOL    HW118905   6.017   4.694   5.389
 6002SOL    HW218906   6.101   4.677   5.250
 6003SOL     OW18907   1.798   2.511   4.770
 6003SOL    HW118908   1.718   2.563   4.740
 6003SOL    HW218909   1.870   2.517   4.701
 6004SOL     OW18910   5.035   2.223   4.209
 6004SOL    HW118911   4.938   2.247   4.215
 6004SOL    HW218912   5.060   2.167   4.288
 6005SOL     OW18913   4.236   4.797   6.831
 6005SOL    HW118914   4.288   4.721   6.793
 6005SOL    HW218915   4.180   4.838   6.759
 6006SOL     OW18916   3.109   6.230   6.384
 6006SOL    HW118917   3.169   6.154   6.360
 6006SOL    HW218918   3.107   6.296   6.309
 6007SOL     OW18919   2.574   5.954   6.306
 6007SOL    HW118920   2.600   5.877   6.364
 6007SOL    HW218921   2.635   6.031   6.322
 6008SOL     OW18922   3.451   4.023   6.288
 6008SOL    HW118923   3.429   3.947   6.349
 6008SOL    HW218924   3.402   4.012   6.202
 6009SOL     OW18925   3.724   5.238   3.144
 6009SOL    HW118926   3.761   5.146   3.154
 6009SOL    HW218927   3.797   5.305   3.156
 6010SOL     OW18928   0.473   5.398   4.124
 6010SOL    HW118929   0.552   5.459   4.121
 6010SOL    HW218930   0.494   5.317   4.178
 6011SOL     OW18931   6.353   1.901   1.736
 6011SOL    HW118932   6.345   1.834   1.662
 6011SOL    HW218933   6.364   1.854   1.823
 6012SOL     OW18934   6.776   0.286   6.217
 6012SOL    HW118935   6.698   0.228   6.242
 6012SOL    HW218936   6.783   0.362   6.283
 6013SOL     OW18937   5.842   1.705   2.184
 6013SOL    HW118938   5.861   1.629   2.245
 6013SOL    HW218939   5.790   1.775   2.232
 6014SOL     OW18940   3.571   3.828   3.946
 6014SOL    HW118941   3.584   3.919   3.985
 6014SOL    HW218942   3.473   3.809   3.938
 6015SOL     OW18943   5.786   0.837   4.343
 6015SOL    HW118944   5.806   0.809   4.249
 6015SOL    HW218945   5.692   0.812   4.365
 6016SOL     OW18946   4.445   1.378   4.809
 6016SOL    HW118947   4.452   1.295   4.865
 6016SOL    HW218948   4.411   1.354   4.718
 6017SOL     OW18949   0.124   2.200   5.639
 6017SOL    HW118950   0.042   2.159   5.677
 6017SOL    HW218951   0.128   2.182   5.541
 6018SOL     OW18952   2.450   1.337   4.563
 6018SOL    HW118953   2.446   1.242   4.533
 6018SOL    HW218954   2.368   1.359   4.615
 6019SOL     OW18955   6.381   4.123   6.908
 6019SOL    HW118956   6.386   4.186   6.986
 6019SOL    HW218957   6.351   4.173   6.827
 6020SOL     OW18958   0.778   4.884   6.413
 6020SOL    HW118959   0.857   4.871   6.354
 6020SOL    HW218960   0.759   4.800   6.463
 6021SOL     OW18961   5.807   6.904   3.541
 6021SOL    HW118962   5.907   6.897   3.534
 6021SOL    HW218963   5.773   6.829   3.598
 6022SOL     OW18964   6.505   1.875   1.178
 6022SOL    HW118965   6.605   1.875   1.175
 6022SOL    HW218966   6.470   1.919   1.095
 6023SOL     OW18967   3.840   0.265   1.821
 6023SOL    HW118968   3.930   0.277   1.863
 6023SOL    HW218969   3.782   0.343   1.845
 6024SOL     OW18970   1.372   6.166   0.647
 6024SOL    HW118971   1.389   6.265   0.638
 6024SOL    HW218972   1.451   6.123   0.690
 6025SOL     OW18973   3.175   0.687   4.431
 6025SOL    HW118974   3.229   0.667   4.512
 6025SOL    HW218975   3.182   0.610   4.367
 6026SOL     OW18976   5.786   5.394   4.462
 6026SOL    HW118977   5.702   5.396   4.516
 6026SOL    HW218978   5.861   5.432   4.516
 6027SOL     OW18979   5.497   4.418   6.582
 6027SOL    HW118980   5.586   4.393   6.622
 6027SOL    HW218981   5.453   4.486   6.640
 6028SOL     OW18982   5.810   5.524   6.094
 6028SOL    HW118983   5.869   5.605   6.105
 6028SOL    HW218984   5.732   5.548   6.037
 6029SOL     OW18985   2.412   0.765   2.535
 6029SOL    HW118986   2.362   0.679   2.520
 6029SOL    HW218987   2.508   0.751   2.514
 6030SOL     OW18988   5.785   3.463   4.273
 6030SOL    HW118989   5.687   3.472   4.251
 6030SOL    HW218990   5.810   3.366   4.275
 6031SOL     OW18991   0.371   5.750   5.457
 6031SOL    HW118992   0.354   5.652   5.451
 6031SOL    HW218993   0.365   5.790   5.366
 6032SOL     OW18994   3.619   5.752   3.595
 6032SOL    HW118995   3.530   5.708   3.600
 6032SOL    HW218996   3.613   5.844   3.632
 6033SOL     OW18997   1.387   1.849   2.463
 6033SOL    HW118998   1.344   1.760   2.477
 6033SOL    HW218999   1.437   1.848   2.377
 6034SOL     OW19000   1.077   0.197   0.846
 6034SOL    HW119001   0.992   0.191   0.794
 6034SOL    HW219002   1.079   0.283   0.897
 6035SOL     OW19003   2.265   0.088   2.611
 6035SOL    HW119004   2.263   0.002   2.662
 6035SOL    HW219005   2.357   0.129   2.618
 6036SOL     OW19006   0.017   3.192   0.916
 6036SOL    HW119007   6.961   3.255   0.924
 6036SOL    HW219008   0.065   3.188   1.004
 6037SOL     OW19009   5.110   2.128   6.841
 6037SOL    HW119010   5.109   2.169   6.750
 6037SOL    HW219011   5.135   2.031   6.833
 6038SOL     OW19012   1.045   2.221   5.931
 6038SOL    HW119013   1.048   2.304   5.875
 6038SOL    HW219014   0.973   2.161   5.896
 6039SOL     OW19015   4.058   3.260   3.617
 6039SOL    HW119016   3.962   3.245   3.643
 6039SOL    HW219017   4.067   3.249   3.518
 6040SOL     OW19018   0.734   1.490   0.245
 6040SOL    HW119019   0.779   1.537   0.322
 6040SOL    HW219020   0.783   1.406   0.224
 6041SOL     OW19021   2.380   3.204   5.615
 6041SOL    HW119022   2.307   3.191   5.548
 6041SOL    HW219023   2.380   3.128   5.680
 6042SOL     OW19024   3.181   5.684   3.929
 6042SOL    HW119025   3.158   5.586   3.924
 6042SOL    HW219026   3.151   5.720   4.017
 6043SOL     OW19027   2.602   0.629   3.431
 6043SOL    HW119028   2.507   0.597   3.429
 6043SOL    HW219029   2.610   0.703   3.498
 6044SOL     OW19030   1.227   3.340   1.214
 6044SOL    HW119031   1.236   3.333   1.313
 6044SOL    HW219032   1.161   3.271   1.181
 6045SOL     OW19033   4.987   1.606   3.497
 6045SOL    HW119034   4.982   1.591   3.596
 6045SOL    HW219035   5.022   1.524   3.452
 6046SOL     OW19036   3.557   2.902   2.615
 6046SOL    HW119037   3.479   2.964   2.623
 6046SOL    HW219038   3.583   2.893   2.519
 6047SOL     OW19039   6.511   1.980   0.920
 6047SOL    HW119040   6.607   2.000   0.901
 6047SOL    HW219041   6.459   1.978   0.835
 6048SOL     OW19042   5.388   5.641   4.289
 6048SOL    HW119043   5.289   5.656   4.287
 6048SOL    HW219044   5.434   5.730   4.290
 6049SOL     OW19045   4.630   4.926   5.581
 6049SOL    HW119046   4.579   4.985   5.518
 6049SOL    HW219047   4.665   4.846   5.532
 6050SOL     OW19048   3.526   6.008   2.372
 6050SOL    HW119049   3.504   5.975   2.280
 6050SOL    HW219050   3.578   5.939   2.422
 6051SOL     OW19051   0.500   1.230   3.387
 6051SOL    HW119052   0.556   1.246   3.306
 6051SOL    HW219053   0.449   1.313   3.410
 6052SOL     OW19054   5.044   6.550   0.301
 6052SOL    HW119055   5.050   6.462   0.350
 6052SOL    HW219056   4.948   6.569   0.280
 6053SOL     OW19057   4.220   2.558   5.964
 6053SOL    HW119058   4.141   2.529   5.910
 6053SOL    HW219059   4.287   2.602   5.905
 6054SOL     OW19060   3.693   4.149   0.907
 6054SOL    HW119061   3.698   4.130   0.809
 6054SOL    HW219062   3.784   4.140   0.947
 6055SOL     OW19063   3.368   3.821   1.131
 6055SOL    HW119064   3.328   3.866   1.051
 6055SOL    HW219065   3.463   3.849   1.141
 6056SOL     OW19066   5.495   5.908   4.017
 6056SOL    HW119067   5.589   5.938   3.999
 6056SOL    HW219068   5.449   5.889   3.931
 6057SOL     OW19069   4.681   7.015   4.234
 6057SOL    HW119070   4.663   0.090   4.215
 6057SOL    HW219071   4.702   6.967   4.149
 6058SOL     OW19072   5.804   2.426   5.797
 6058SOL    HW119073   5.723   2.453   5.847
 6058SOL    HW219074   5.859   2.363   5.853
 6059SOL     OW19075   4.507   2.772   0.136
 6059SOL    HW119076   4.514   2.718   0.220
 6059SOL    HW219077   4.411   2.780   0.109
 6060SOL     OW19078   2.174   3.243   0.259
 6060SOL    HW119079   2.234   3.217   0.184
 6060SOL    HW219080   2.199   3.335   0.290
 6061SOL     OW19081   2.821   4.493   0.096
 6061SOL    HW119082   2.797   4.584   0.062
 6061SOL    HW219083   2.822   4.429   0.019
 6062SOL     OW19084   1.868   2.391   0.079
 6062SOL    HW119085   1.895   2.371   0.174
 6062SOL    HW219086   1.947   2.377   0.019
 6063SOL     OW19087   4.629   4.454   6.184
 6063SOL    HW119088   4.625   4.380   6.250
 6063SOL    HW219089   4.709   4.442   6.125
 6064SOL     OW19090   6.485   5.259   1.023
 6064SOL    HW119091   6.532   5.296   1.103
 6064SOL    HW219092   6.427   5.182   1.051
 6065SOL     OW19093   1.297   0.175   2.094
 6065SOL    HW119094   1.277   0.082   2.123
 6065SOL    HW219095   1.230   0.237   2.134
 6066SOL     OW19096   5.342   5.698   3.584
 6066SOL    HW119097   5.392   5.715   3.669
 6066SOL    HW219098   5.373   5.761   3.514
 6067SOL     OW19099   5.711   6.997   6.173
 6067SOL    HW119100   5.642   6.932   6.141
 6067SOL    HW219101   5.800   6.970   6.138
 6068SOL     OW19102   4.442   2.041   4.380
 6068SOL    HW119103   4.375   2.115   4.392
 6068SOL    HW219104   4.414   1.962   4.434
 6069SOL     OW19105   0.254   3.893   6.169
 6069SOL    HW119106   0.163   3.936   6.171
 6069SOL    HW219107   0.324   3.964   6.176
 6070SOL     OW19108   2.839   1.303   0.459
 6070SOL    HW119109   2.894   1.283   0.378
 6070SOL    HW219110   2.855   1.397   0.487
 6071SOL     OW19111   6.158   0.902   5.871
 6071SOL    HW119112   6.176   0.822   5.813
 6071SOL    HW219113   6.130   0.978   5.814
 6072SOL     OW19114   0.063   2.654   0.486
 6072SOL    HW119115   0.150   2.605   0.498
 6072SOL    HW219116   7.010   2.597   0.521
 6073SOL     OW19117   4.901   2.585   0.542
 6073SOL    HW119118   4.886   2.668   0.488
 6073SOL    HW219119   4.833   2.516   0.516
 6074SOL     OW19120   0.801   6.451   2.327
 6074SOL    HW119121   0.890   6.414   2.352
 6074SOL    HW219122   0.790   6.542   2.367
 6075SOL     OW19123   5.196   0.280   6.465
 6075SOL    HW119124   5.209   0.269   6.564
 6075SOL    HW219125   5.214   0.193   6.419
 6076SOL     OW19126   1.211   5.778   3.133
 6076SOL    HW119127   1.236   5.683   3.112
 6076SOL    HW219128   1.271   5.840   3.083
 6077SOL     OW19129   5.210   6.833   2.110
 6077SOL    HW119130   5.299   6.810   2.151
 6077SOL    HW219131   5.142   6.845   2.183
 6078SOL     OW19132   3.974   4.203   0.499
 6078SOL    HW119133   3.897   4.150   0.532
 6078SOL    HW219134   3.952   4.301   0.503
 6079SOL     OW19135   3.297   3.157   0.390
 6079SOL    HW119136   3.224   3.137   0.455
 6079SOL    HW219137   3.259   3.207   0.312
 6080SOL     OW19138   6.924   5.049   6.640
 6080SOL    HW119139   6.945   5.147   6.644
 6080SOL    HW219140   6.941   5.008   6.730
 6081SOL     OW19141   1.382   3.930   3.841
 6081SOL    HW119142   1.343   4.016   3.874
 6081SOL    HW219143   1.401   3.869   3.918
 6082SOL     OW19144   4.428   0.921   1.037
 6082SOL    HW119145   4.479   1.002   1.007
 6082SOL    HW219146   4.470   0.884   1.120
 6083SOL     OW19147   4.551   0.328   6.279
 6083SOL    HW119148   4.608   0.400   6.239
 6083SOL    HW219149   4.581   0.312   6.373
 6084SOL     OW19150   0.243   6.167   2.406
 6084SOL    HW119151   0.247   6.267   2.412
 6084SOL    HW219152   0.323   6.134   2.356
 6085SOL     OW19153   0.913   6.879   1.020
 6085SOL    HW119154   0.856   6.943   0.968
 6085SOL    HW219155   0.984   6.929   1.068
 6086SOL     OW19156   3.529   4.257   6.720
 6086SOL    HW119157   3.617   4.269   6.766
 6086SOL    HW219158   3.466   4.211   6.782
 6087SOL     OW19159   5.089   6.639   0.763
 6087SOL    HW119160   5.100   6.737   0.781
 6087SOL    HW219161   5.011   6.624   0.703
 6088SOL     OW19162   5.434   5.867   3.409
 6088SOL    HW119163   5.384   5.897   3.328
 6088SOL    HW219164   5.447   5.944   3.471
 6089SOL     OW19165   6.107   3.954   3.661
 6089SOL    HW119166   6.129   3.969   3.564
 6089SOL    HW219167   6.182   3.987   3.718
 6090SOL     OW19168   3.813   5.805   4.236
 6090SOL    HW119169   3.841   5.730   4.297
 6090SOL    HW219170   3.742   5.858   4.280
 6091SOL     OW19171   1.387   1.546   2.360
 6091SOL    HW119172   1.390   1.568   2.262
 6091SOL    HW219173   1.297   1.571   2.397
 6092SOL     OW19174   3.135   6.330   0.839
 6092SOL    HW119175   3.189   6.331   0.923
 6092SOL    HW219176   3.087   6.243   0.831
 6093SOL     OW19177   2.182   2.072   2.400
 6093SOL    HW119178   2.231   2.013   2.464
 6093SOL    HW219179   2.245   2.141   2.364
 6094SOL     OW19180   0.214   6.193   4.933
 6094SOL    HW119181   0.225   6.261   5.006
 6094SOL    HW219182   0.157   6.232   4.860
 6095SOL     OW19183   4.894   5.000   1.667
 6095SOL    HW119184   4.866   4.908   1.695
 6095SOL    HW219185   4.871   5.016   1.571
 6096SOL     OW19186   5.334   6.463   3.044
 6096SOL    HW119187   5.389   6.389   3.005
 6096SOL    HW219188   5.239   6.434   3.051
 6097SOL     OW19189   1.901   5.328   1.489
 6097SOL    HW119190   1.971   5.367   1.549
 6097SOL    HW219191   1.941   5.314   1.398
 6098SOL     OW19192   6.294   0.732   4.233
 6098SOL    HW119193   6.293   0.832   4.228
 6098SOL    HW219194   6.310   0.704   4.328
 6099SOL     OW19195   3.784   0.710   6.108
 6099SOL    HW119196   3.706   0.762   6.144
 6099SOL    HW219197   3.792   0.725   6.010
 6100SOL     OW19198   0.298   6.152   5.334
 6100SOL    HW119199   0.322   6.242   5.298
 6100SOL    HW219200   0.311   6.151   5.433
 6101SOL     OW19201   0.039   2.817   1.865
 6101SOL    HW119202   0.101   2.896   1.861
 6101SOL    HW219203   6.970   2.845   1.835
 6102SOL     OW19204   4.352   6.879   2.838
 6102SOL    HW119205   4.439   6.858   2.883
 6102SOL    HW219206   4.309   6.957   2.884
 6103SOL     OW19207   6.498   1.686   2.131
 6103SOL    HW119208   6.585   1.641   2.113
 6103SOL    HW219209   6.469   1.666   2.224
 6104SOL     OW19210   0.002   0.553   4.002
 6104SOL    HW119211   0.031   0.603   3.921
 6104SOL    HW219212   6.967   0.475   3.975
 6105SOL     OW19213   3.166   4.621   5.308
 6105SOL    HW119214   3.088   4.581   5.261
 6105SOL    HW219215   3.212   4.686   5.246
 6106SOL     OW19216   6.169   5.444   5.655
 6106SOL    HW119217   6.200   5.533   5.690
 6106SOL    HW219218   6.112   5.399   5.725
 6107SOL     OW19219   5.604   5.226   5.253
 6107SOL    HW119220   5.529   5.204   5.316
 6107SOL    HW219221   5.571   5.220   5.159
 6108SOL     OW19222   2.462   1.684   0.507
 6108SOL    HW119223   2.450   1.747   0.584
 6108SOL    HW219224   2.414   1.599   0.527
 6109SOL     OW19225   6.500   6.951   3.433
 6109SOL    HW119226   6.410   6.989   3.453
 6109SOL    HW219227   6.567   6.991   3.495
 6110SOL     OW19228   1.610   1.503   3.977
 6110SOL    HW119229   1.565   1.569   3.917
 6110SOL    HW219230   1.660   1.436   3.922
 6111SOL     OW19231   1.955   4.409   0.542
 6111SOL    HW119232   1.973   4.407   0.444
 6111SOL    HW219233   1.927   4.318   0.573
 6112SOL     OW19234   5.056   0.351   2.863
 6112SOL    HW119235   5.077   0.370   2.959
 6112SOL    HW219236   5.025   0.256   2.854
 6113SOL     OW19237   2.669   5.297   0.186
 6113SOL    HW119238   2.658   5.391   0.155
 6113SOL    HW219239   2.750   5.257   0.144
 6114SOL     OW19240   4.762   1.685   0.283
 6114SOL    HW119241   4.738   1.628   0.204
 6114SOL    HW219242   4.860   1.702   0.284
 6115SOL     OW19243   0.918   0.640   5.687
 6115SOL    HW119244   0.872   0.568   5.636
 6115SOL    HW219245   1.013   0.647   5.657
 6116SOL     OW19246   5.133   2.067   5.821
 6116SOL    HW119247   5.137   2.000   5.895
 6116SOL    HW219248   5.170   2.154   5.853
 6117SOL     OW19249   1.923   2.227   1.271
 6117SOL    HW119250   1.954   2.137   1.300
 6117SOL    HW219251   1.888   2.222   1.178
 6118SOL     OW19252   6.083   0.922   0.973
 6118SOL    HW119253   6.137   1.004   0.995
 6118SOL    HW219254   6.145   0.844   0.961
 6119SOL     OW19255   6.967   2.131   0.500
 6119SOL    HW119256   6.964   2.089   0.409
 6119SOL    HW219257   0.035   2.171   0.515
 6120SOL     OW19258   2.476   0.871   4.563
 6120SOL    HW119259   2.447   0.913   4.648
 6120SOL    HW219260   2.476   0.772   4.573
 6121SOL     OW19261   0.610   3.139   4.611
 6121SOL    HW119262   0.549   3.074   4.566
 6121SOL    HW219263   0.653   3.095   4.690
 6122SOL     OW19264   5.163   5.094   5.730
 6122SOL    HW119265   5.205   5.164   5.788
 6122SOL    HW219266   5.071   5.123   5.705
 6123SOL     OW19267   5.358   1.273   5.198
 6123SOL    HW119268   5.353   1.344   5.269
 6123SOL    HW219269   5.278   1.280   5.139
 6124SOL     OW19270   2.637   6.298   3.971
 6124SOL    HW119271   2.588   6.305   3.884
 6124SOL    HW219272   2.581   6.248   4.037
 6125SOL     OW19273   2.287   2.376   6.741
 6125SOL    HW119274   2.227   2.419   6.673
 6125SOL    HW219275   2.378   2.416   6.736
 6126SOL     OW19276   6.280   2.991   5.153
 6126SOL    HW119277   6.316   2.911   5.201
 6126SOL    HW219278   6.189   2.972   5.118
 6127SOL     OW19279   4.304   2.445   1.794
 6127SOL    HW119280   4.351   2.418   1.877
 6127SOL    HW219281   4.324   2.541   1.773
 6128SOL     OW19282   5.841   5.681   0.504
 6128SOL    HW119283   5.864   5.693   0.601
 6128SOL    HW219284   5.905   5.615   0.463
 6129SOL     OW19285   1.513   5.525   2.095
 6129SOL    HW119286   1.416   5.550   2.099
 6129SOL    HW219287   1.550   5.519   2.187
 6130SOL     OW19288   6.018   2.405   0.310
 6130SOL    HW119289   6.018   2.455   0.397
 6130SOL    HW219290   6.062   2.316   0.323
 6131SOL     OW19291   6.380   1.539   2.921
 6131SOL    HW119292   6.386   1.458   2.862
 6131SOL    HW219293   6.308   1.526   2.989
 6132SOL     OW19294   3.799   1.283   6.812
 6132SOL    HW119295   3.728   1.327   6.757
 6132SOL    HW219296   3.889   1.314   6.782
 6133SOL     OW19297   1.928   1.742   3.760
 6133SOL    HW119298   1.988   1.801   3.815
 6133SOL    HW219299   1.942   1.761   3.663
 6134SOL     OW19300   5.892   6.790   6.508
 6134SOL    HW119301   5.907   6.832   6.598
 6134SOL    HW219302   5.863   6.695   6.520
 6135SOL     OW19303   6.478   0.236   6.979
 6135SOL    HW119304   6.541   0.308   7.010
 6135SOL    HW219305   6.410   0.276   6.918
 6136SOL     OW19306   1.657   3.391   2.947
 6136SOL    HW119307   1.706   3.330   2.885
 6136SOL    HW219308   1.697   3.385   3.039
 6137SOL     OW19309   6.938   3.891   2.117
 6137SOL    HW119310   6.872   3.869   2.189
 6137SOL    HW219311   6.927   3.986   2.089
 6138SOL     OW19312   4.349   0.042   1.976
 6138SOL    HW119313   4.292   6.984   1.953
 6138SOL    HW219314   4.314   0.123   1.928
 6139SOL     OW19315   1.297   0.380   5.678
 6139SOL    HW119316   1.379   0.326   5.663
 6139SOL    HW219317   1.216   0.326   5.652
 6140SOL     OW19318   1.146   0.218   3.565
 6140SOL    HW119319   1.056   0.188   3.597
 6140SOL    HW219320   1.212   0.210   3.640
 6141SOL     OW19321   0.285   1.212   5.761
 6141SOL    HW119322   0.208   1.275   5.766
 6141SOL    HW219323   0.369   1.261   5.787
 6142SOL     OW19324   0.184   0.483   1.458
 6142SOL    HW119325   0.164   0.577   1.487
 6142SOL    HW219326   0.106   0.446   1.408
 6143SOL     OW19327   6.771   3.987   5.911
 6143SOL    HW119328   6.744   4.062   5.972
 6143SOL    HW219329   6.791   4.024   5.820
 6144SOL     OW19330   4.196   5.323   3.120
 6144SOL    HW119331   4.173   5.333   3.217
 6144SOL    HW219332   4.145   5.246   3.082
 6145SOL     OW19333   4.806   2.918   3.894
 6145SOL    HW119334   4.888   2.884   3.848
 6145SOL    HW219335   4.761   2.986   3.836
 6146SOL     OW19336   5.662   6.709   4.963
 6146SOL    HW119337   5.670   6.761   4.878
 6146SOL    HW219338   5.569   6.717   4.998
 6147SOL     OW19339   1.485   2.152   3.791
 6147SOL    HW119340   1.574   2.150   3.745
 6147SOL    HW219341   1.499   2.143   3.890
 6148SOL     OW19342   3.165   5.953   0.328
 6148SOL    HW119343   3.122   6.024   0.273
 6148SOL    HW219344   3.097   5.884   0.352
 6149SOL     OW19345   3.034   0.132   1.627
 6149SOL    HW119346   3.082   0.201   1.572
 6149SOL    HW219347   3.062   0.141   1.722
 6150SOL     OW19348   7.002   4.283   5.841
 6150SOL    HW119349   0.026   4.198   5.868
 6150SOL    HW219350   6.959   4.271   5.751
 6151SOL     OW19351   4.234   5.137   3.963
 6151SOL    HW119352   4.278   5.050   3.983
 6151SOL    HW219353   4.251   5.163   3.868
 6152SOL     OW19354   1.109   4.989   4.288
 6152SOL    HW119355   1.151   5.055   4.226
 6152SOL    HW219356   1.095   5.030   4.378
 6153SOL     OW19357   5.104   5.455   1.436
 6153SOL    HW119358   5.134   5.384   1.499
 6153SOL    HW219359   5.127   5.428   1.342
 6154SOL     OW19360   5.514   2.988   2.076
 6154SOL    HW119361   5.598   3.040   2.095
 6154SOL    HW219362   5.446   3.009   2.146
 6155SOL     OW19363   1.760   1.575   3.097
 6155SOL    HW119364   1.719   1.565   3.187
 6155SOL    HW219365   1.822   1.654   3.097
 6156SOL     OW19366   5.154   4.981   1.747
 6156SOL    HW119367   5.058   4.994   1.722
 6156SOL    HW219368   5.183   5.052   1.810
 6157SOL     OW19369   1.792   2.606   2.152
 6157SOL    HW119370   1.782   2.590   2.250
 6157SOL    HW219371   1.744   2.690   2.126
 6158SOL     OW19372   2.764   2.607   5.367
 6158SOL    HW119373   2.739   2.664   5.445
 6158SOL    HW219374   2.847   2.555   5.389
 6159SOL     OW19375   6.130   3.027   0.695
 6159SOL    HW119376   6.092   3.099   0.636
 6159SOL    HW219377   6.194   3.069   0.760
 6160SOL     OW19378   1.473   0.607   0.546
 6160SOL    HW119379   1.398   0.673   0.555
 6160SOL    HW219380   1.560   0.656   0.538
 6161SOL     OW19381   4.491   3.212   6.315
 6161SOL    HW119382   4.554   3.261   6.375
 6161SOL    HW219383   4.397   3.230   6.342
 6162SOL     OW19384   5.852   5.250   3.180
 6162SOL    HW119385   5.762   5.253   3.137
 6162SOL    HW219386   5.919   5.295   3.121
 6163SOL     OW19387   5.635   6.456   3.804
 6163SOL    HW119388   5.582   6.477   3.722
 6163SOL    HW219389   5.587   6.490   3.885
 6164SOL     OW19390   3.226   4.107   4.572
 6164SOL    HW119391   3.196   4.202   4.562
 6164SOL    HW219392   3.210   4.077   4.666
 6165SOL     OW19393   3.830   1.546   0.401
 6165SOL    HW119394   3.827   1.614   0.328
 6165SOL    HW219395   3.780   1.580   0.480
 6166SOL     OW19396   1.731   2.614   6.638
 6166SOL    HW119397   1.730   2.674   6.558
 6166SOL    HW219398   1.647   2.628   6.691
 6167SOL     OW19399   1.332   3.934   3.591
 6167SOL    HW119400   1.361   3.945   3.686
 6167SOL    HW219401   1.271   4.009   3.566
 6168SOL     OW19402   0.151   3.995   3.992
 6168SOL    HW119403   0.090   4.065   3.955
 6168SOL    HW219404   0.154   3.917   3.929
 6169SOL     OW19405   2.449   0.009   0.126
 6169SOL    HW119406   2.357   0.047   0.123
 6169SOL    HW219407   2.473   7.007   0.220
 6170SOL     OW19408   3.378   4.046   0.233
 6170SOL    HW119409   3.402   3.960   0.188
 6170SOL    HW219410   3.282   4.043   0.262
 6171SOL     OW19411   2.313   4.331   2.432
 6171SOL    HW119412   2.390   4.394   2.427
 6171SOL    HW219413   2.291   4.314   2.528
 6172SOL     OW19414   1.391   6.063   2.659
 6172SOL    HW119415   1.443   6.149   2.655
 6172SOL    HW219416   1.332   6.057   2.579
 6173SOL     OW19417   1.770   5.917   2.493
 6173SOL    HW119418   1.748   5.847   2.426
 6173SOL    HW219419   1.754   6.008   2.454
 6174SOL     OW19420   5.448   5.491   2.887
 6174SOL    HW119421   5.364   5.543   2.897
 6174SOL    HW219422   5.507   5.534   2.818
 6175SOL     OW19423   5.067   0.137   3.700
 6175SOL    HW119424   5.133   0.073   3.661
 6175SOL    HW219425   4.982   0.133   3.647
 6176SOL     OW19426   6.514   3.719   5.643
 6176SOL    HW119427   6.569   3.650   5.690
 6176SOL    HW219428   6.440   3.675   5.593
 6177SOL     OW19429   6.347   2.742   6.745
 6177SOL    HW119430   6.337   2.673   6.816
 6177SOL    HW219431   6.375   2.829   6.787
 6178SOL     OW19432   6.364   3.076   0.836
 6178SOL    HW119433   6.386   3.006   0.904
 6178SOL    HW219434   6.409   3.053   0.750
 6179SOL     OW19435   0.170   2.635   5.809
 6179SOL    HW119436   0.208   2.727   5.824
 6179SOL    HW219437   0.087   2.642   5.753
 6180SOL     OW19438   4.228   6.595   0.482
 6180SOL    HW119439   4.234   6.695   0.476
 6180SOL    HW219440   4.132   6.567   0.471
 6181SOL     OW19441   4.769   6.727   6.717
 6181SOL    HW119442   4.716   6.656   6.671
 6181SOL    HW219443   4.862   6.693   6.735
 6182SOL     OW19444   4.632   6.231   6.875
 6182SOL    HW119445   4.676   6.161   6.820
 6182SOL    HW219446   4.690   6.253   6.954
 6183SOL     OW19447   3.546   0.417   3.682
 6183SOL    HW119448   3.519   0.329   3.643
 6183SOL    HW219449   3.538   0.487   3.611
 6184SOL     OW19450   0.489   6.990   6.519
 6184SOL    HW119451   0.450   7.021   6.606
 6184SOL    HW219452   0.445   0.017   6.443
 6185SOL     OW19453   6.853   3.723   5.966
 6185SOL    HW119454   6.817   3.713   6.059
 6185SOL    HW219455   6.817   3.807   5.925
 6186SOL     OW19456   5.243   6.944   4.789
 6186SOL    HW119457   5.178   6.995   4.845
 6186SOL    HW219458   5.306   7.007   4.744
 6187SOL     OW19459   4.257   5.171   3.697
 6187SOL    HW119460   4.282   5.237   3.626
 6187SOL    HW219461   4.337   5.115   3.720
 6188SOL     OW19462   2.877   6.360   1.074
 6188SOL    HW119463   2.808   6.422   1.111
 6188SOL    HW219464   2.836   6.305   1.001
 6189SOL     OW19465   5.900   4.813   3.321
 6189SOL    HW119466   5.803   4.808   3.298
 6189SOL    HW219467   5.916   4.778   3.413
 6190SOL     OW19468   5.268   2.547   0.126
 6190SOL    HW119469   5.277   2.609   0.205
 6190SOL    HW219470   5.322   2.582   0.050
 6191SOL     OW19471   6.539   2.145   6.994
 6191SOL    HW119472   6.447   2.119   0.003
 6191SOL    HW219473   6.602   2.070   7.012
 6192SOL     OW19474   2.876   2.449   6.410
 6192SOL    HW119475   2.924   2.445   6.498
 6192SOL    HW219476   2.921   2.516   6.351
 6193SOL     OW19477   5.191   0.453   1.493
 6193SOL    HW119478   5.211   0.356   1.508
 6193SOL    HW219479   5.276   0.502   1.473
 6194SOL     OW19480   1.980   0.794   0.165
 6194SOL    HW119481   1.890   0.818   0.128
 6194SOL    HW219482   2.037   0.754   0.094
 6195SOL     OW19483   3.005   0.725   6.558
 6195SOL    HW119484   2.961   0.717   6.647
 6195SOL    HW219485   2.941   0.766   6.493
 6196SOL     OW19486   0.563   1.197   5.981
 6196SOL    HW119487   0.618   1.114   5.973
 6196SOL    HW219488   0.474   1.175   6.020
 6197SOL     OW19489   2.262   3.126   0.805
 6197SOL    HW119490   2.299   3.219   0.811
 6197SOL    HW219491   2.307   3.067   0.872
 6198SOL     OW19492   4.041   4.797   2.460
 6198SOL    HW119493   4.121   4.762   2.410
 6198SOL    HW219494   3.971   4.825   2.394
 6199SOL     OW19495   1.555   0.204   6.828
 6199SOL    HW119496   1.511   0.133   6.774
 6199SOL    HW219497   1.490   0.277   6.848
 6200SOL     OW19498   4.046   0.720   6.216
 6200SOL    HW119499   4.127   0.744   6.163
 6200SOL    HW219500   3.966   0.719   6.156
 6201SOL     OW19501   2.150   3.782   5.447
 6201SOL    HW119502   2.187   3.713   5.510
 6201SOL    HW219503   2.171   3.756   5.353
 6202SOL     OW19504   3.610   1.884   0.942
 6202SOL    HW119505   3.548   1.834   1.004
 6202SOL    HW219506   3.556   1.930   0.871
 6203SOL     OW19507   4.981   1.370   4.152
 6203SOL    HW119508   4.897   1.333   4.193
 6203SOL    HW219509   5.049   1.384   4.224
 6204SOL     OW19510   1.920   6.378   5.842
 6204SOL    HW119511   1.849   6.431   5.795
 6204SOL    HW219512   1.902   6.380   5.941
 6205SOL     OW19513   5.521   6.081   6.811
 6205SOL    HW119514   5.458   6.005   6.831
 6205SOL    HW219515   5.496   6.160   6.866
 6206SOL     OW19516   5.229   0.059   2.286
 6206SOL    HW119517   5.148   0.003   2.268
 6206SOL    HW219518   5.203   0.156   2.285
 6207SOL     OW19519   1.772   4.121   4.841
 6207SOL    HW119520   1.692   4.094   4.786
 6207SOL    HW219521   1.759   4.089   4.935
 6208SOL     OW19522   6.090   6.782   5.840
 6208SOL    HW119523   6.065   6.846   5.768
 6208SOL    HW219524   6.114   6.694   5.799
 6209SOL     OW19525   3.774   5.946   0.711
 6209SOL    HW119526   3.744   5.933   0.617
 6209SOL    HW219527   3.711   5.897   0.772
 6210SOL     OW19528   5.590   4.541   3.420
 6210SOL    HW119529   5.573   4.443   3.410
 6210SOL    HW219530   5.579   4.566   3.516
 6211SOL     OW19531   3.033   7.007   4.444
 6211SOL    HW119532   2.974   0.020   4.517
 6211SOL    HW219533   3.059   6.912   4.464
 6212SOL     OW19534   6.360   6.727   3.941
 6212SOL    HW119535   6.441   6.668   3.937
 6212SOL    HW219536   6.384   6.813   3.986
 6213SOL     OW19537   6.753   0.048   6.975
 6213SOL    HW119538   6.753   0.118   6.905
 6213SOL    HW219539   6.786   0.087   0.040
 6214SOL     OW19540   6.438   4.585   2.574
 6214SOL    HW119541   6.530   4.558   2.547
 6214SOL    HW219542   6.403   4.653   2.508
 6215SOL     OW19543   3.386   2.953   0.653
 6215SOL    HW119544   3.392   3.004   0.567
 6215SOL    HW219545   3.476   2.949   0.695
 6216SOL     OW19546   5.570   1.506   2.320
 6216SOL    HW119547   5.486   1.541   2.362
 6216SOL    HW219548   5.649   1.534   2.375
 6217SOL     OW19549   5.483   2.952   1.088
 6217SOL    HW119550   5.383   2.955   1.081
 6217SOL    HW219551   5.521   2.916   1.002
 6218SOL     OW19552   2.918   5.299   4.877
 6218SOL    HW119553   2.970   5.295   4.791
 6218SOL    HW219554   2.824   5.272   4.860
 6219SOL     OW19555   0.982   1.784   4.832
 6219SOL    HW119556   1.069   1.785   4.882
 6219SOL    HW219557   0.972   1.867   4.778
 6220SOL     OW19558   2.162   4.268   5.418
 6220SOL    HW119559   2.154   4.182   5.368
 6220SOL    HW219560   2.225   4.255   5.495
 6221SOL     OW19561   3.634   5.177   4.333
 6221SOL    HW119562   3.545   5.221   4.344
 6221SOL    HW219563   3.705   5.236   4.370
 6222SOL     OW19564   6.968   0.450   1.302
 6222SOL    HW119565   6.984   0.395   1.220
 6222SOL    HW219566   6.870   0.446   1.325
 6223SOL     OW19567   4.727   2.818   4.693
 6223SOL    HW119568   4.671   2.739   4.667
 6223SOL    HW219569   4.698   2.851   4.783
 6224SOL     OW19570   2.803   1.529   5.027
 6224SOL    HW119571   2.744   1.462   4.983
 6224SOL    HW219572   2.892   1.530   4.982
 6225SOL     OW19573   3.558   3.243   0.109
 6225SOL    HW119574   3.491   3.179   0.072
 6225SOL    HW219575   3.632   3.255   0.042
 6226SOL     OW19576   5.553   0.564   5.118
 6226SOL    HW119577   5.527   0.477   5.159
 6226SOL    HW219578   5.527   0.639   5.179
 6227SOL     OW19579   3.567   4.685   5.924
 6227SOL    HW119580   3.577   4.587   5.943
 6227SOL    HW219581   3.492   4.698   5.859
 6228SOL     OW19582   0.119   0.414   3.375
 6228SOL    HW119583   0.130   0.510   3.401
 6228SOL    HW219584   0.145   0.402   3.280
 6229SOL     OW19585   2.472   2.585   2.309
 6229SOL    HW119586   2.398   2.584   2.242
 6229SOL    HW219587   2.551   2.537   2.272
 6230SOL     OW19588   2.833   2.326   3.749
 6230SOL    HW119589   2.776   2.244   3.748
 6230SOL    HW219590   2.803   2.387   3.676
 6231SOL     OW19591   6.760   5.194   1.667
 6231SOL    HW119592   6.826   5.255   1.623
 6231SOL    HW219593   6.756   5.107   1.617
 6232SOL     OW19594   0.555   0.835   0.034
 6232SOL    HW119595   0.477   0.784   7.019
 6232SOL    HW219596   0.521   0.911   0.089
 6233SOL     OW19597   4.567   2.147   6.838
 6233SOL    HW119598   4.633   2.214   6.871
 6233SOL    HW219599   4.569   2.146   6.738
 6234SOL     OW19600   2.537   1.777   4.050
 6234SOL    HW119601   2.499   1.708   3.988
 6234SOL    HW219602   2.543   1.738   4.143
 6235SOL     OW19603   2.550   0.004   2.783
 6235SOL    HW119604   2.540   0.097   2.747
 6235SOL    HW219605   2.521   6.960   2.713
 6236SOL     OW19606   0.131   4.459   0.523
 6236SOL    HW119607   0.123   4.361   0.543
 6236SOL    HW219608   0.050   4.490   0.474
 6237SOL     OW19609   4.389   6.840   0.758
 6237SOL    HW119610   4.292   6.854   0.742
 6237SOL    HW219611   4.412   6.744   0.746
 6238SOL     OW19612   4.927   5.387   1.014
 6238SOL    HW119613   4.967   5.467   1.059
 6238SOL    HW219614   4.878   5.332   1.081
 6239SOL     OW19615   2.637   0.198   3.044
 6239SOL    HW119616   2.619   0.125   3.110
 6239SOL    HW219617   2.691   0.163   2.968
 6240SOL     OW19618   1.608   3.685   0.647
 6240SOL    HW119619   1.523   3.653   0.606
 6240SOL    HW219620   1.685   3.635   0.608
 6241SOL     OW19621   4.272   0.207   1.772
 6241SOL    HW119622   4.202   0.233   1.705
 6241SOL    HW219623   4.358   0.254   1.750
 6242SOL     OW19624   4.809   2.588   3.716
 6242SOL    HW119625   4.800   2.547   3.807
 6242SOL    HW219626   4.873   2.664   3.719
 6243SOL     OW19627   6.076   6.093   4.230
 6243SOL    HW119628   6.112   6.002   4.211
 6243SOL    HW219629   6.040   6.096   4.323
 6244SOL     OW19630   2.774   1.945   2.270
 6244SOL    HW119631   2.709   1.876   2.302
 6244SOL    HW219632   2.854   1.945   2.330
 6245SOL     OW19633   3.100   4.547   0.589
 6245SOL    HW119634   3.160   4.621   0.557
 6245SOL    HW219635   3.015   4.548   0.536
 6246SOL     OW19636   2.414   1.604   5.720
 6246SOL    HW119637   2.443   1.695   5.751
 6246SOL    HW219638   2.475   1.535   5.759
 6247SOL     OW19639   0.169   6.276   3.055
 6247SOL    HW119640   0.089   6.331   3.077
 6247SOL    HW219641   0.247   6.336   3.038
 6248SOL     OW19642   0.617   5.031   1.519
 6248SOL    HW119643   0.599   4.934   1.506
 6248SOL    HW219644   0.535   5.083   1.494
 6249SOL     OW19645   6.039   4.331   6.580
 6249SOL    HW119646   6.028   4.241   6.537
 6249SOL    HW219647   6.029   4.402   6.511
 6250SOL     OW19648   6.249   6.414   0.071
 6250SOL    HW119649   6.323   6.354   0.041
 6250SOL    HW219650   6.195   6.441   7.013
 6251SOL     OW19651   4.862   1.855   6.939
 6251SOL    HW119652   4.775   1.891   6.972
 6251SOL    HW219653   4.929   1.857   7.013
 6252SOL     OW19654   2.677   5.869   5.165
 6252SOL    HW119655   2.743   5.937   5.133
 6252SOL    HW219656   2.613   5.847   5.092
 6253SOL     OW19657   2.263   4.120   2.221
 6253SOL    HW119658   2.315   4.180   2.282
 6253SOL    HW219659   2.172   4.159   2.205
 6254SOL     OW19660   5.727   0.542   0.196
 6254SOL    HW119661   5.667   0.474   0.238
 6254SOL    HW219662   5.755   0.609   0.266
 6255SOL     OW19663   0.493   1.421   2.605
 6255SOL    HW119664   0.557   1.362   2.654
 6255SOL    HW219665   0.542   1.497   2.564
 6256SOL     OW19666   3.569   5.237   2.926
 6256SOL    HW119667   3.627   5.238   3.008
 6256SOL    HW219668   3.538   5.329   2.905
 6257SOL     OW19669   5.561   2.812   6.673
 6257SOL    HW119670   5.566   2.894   6.616
 6257SOL    HW219671   5.480   2.817   6.732
 6258SOL     OW19672   4.677   1.537   2.321
 6258SOL    HW119673   4.597   1.543   2.381
 6258SOL    HW219674   4.646   1.516   2.228
 6259SOL     OW19675   2.983   2.295   1.629
 6259SOL    HW119676   2.924   2.354   1.574
 6259SOL    HW219677   2.980   2.323   1.725
 6260SOL     OW19678   3.823   3.994   6.986
 6260SOL    HW119679   3.792   3.974   6.893
 6260SOL    HW219680   3.819   3.911   0.020
 6261SOL     OW19681   4.165   1.066   0.405
 6261SOL    HW119682   4.183   0.976   0.364
 6261SOL    HW219683   4.080   1.103   0.366
 6262SOL     OW19684   1.020   4.784   6.648
 6262SOL    HW119685   0.928   4.794   6.685
 6262SOL    HW219686   1.056   4.874   6.622
 6263SOL     OW19687   6.895   6.964   0.633
 6263SOL    HW119688   6.991   6.970   0.663
 6263SOL    HW219689   6.837   7.015   0.696
 6264SOL     OW19690   2.823   1.878   0.560
 6264SOL    HW119691   2.807   1.959   0.503
 6264SOL    HW219692   2.857   1.907   0.649
 6265SOL     OW19693   3.821   3.211   1.266
 6265SOL    HW119694   3.836   3.253   1.355
 6265SOL    HW219695   3.769   3.127   1.277
 6266SOL     OW19696   2.743   0.451   3.066
 6266SOL    HW119697   2.697   0.364   3.047
 6266SOL    HW219698   2.776   0.490   2.980
 6267SOL     OW19699   3.612   0.319   6.364
 6267SOL    HW119700   3.649   0.410   6.347
 6267SOL    HW219701   3.674   0.268   6.424
 6268SOL     OW19702   3.712   5.106   2.508
 6268SOL    HW119703   3.758   5.037   2.565
 6268SOL    HW219704   3.685   5.183   2.565
 6269SOL     OW19705   6.058   5.354   1.777
 6269SOL    HW119706   6.147   5.383   1.812
 6269SOL    HW219707   6.071   5.307   1.690
 6270SOL     OW19708   0.606   0.288   4.694
 6270SOL    HW119709   0.698   0.297   4.656
 6270SOL    HW219710   0.611   0.287   4.794
 6271SOL     OW19711   6.223   1.619   0.614
 6271SOL    HW119712   6.251   1.536   0.663
 6271SOL    HW219713   6.218   1.696   0.678
 6272SOL     OW19714   2.170   2.181   3.127
 6272SOL    HW119715   2.083   2.215   3.164
 6272SOL    HW219716   2.188   2.089   3.164
 6273SOL     OW19717   3.642   1.300   1.749
 6273SOL    HW119718   3.698   1.333   1.673
 6273SOL    HW219719   3.612   1.378   1.805
 6274SOL     OW19720   3.863   6.952   6.286
 6274SOL    HW119721   3.775   6.991   6.260
 6274SOL    HW219722   3.937   7.012   6.254
 6275SOL     OW19723   2.050   0.381   4.523
 6275SOL    HW119724   2.105   0.456   4.487
 6275SOL    HW219725   1.961   0.416   4.553
 6276SOL     OW19726   1.216   5.173   4.129
 6276SOL    HW119727   1.220   5.148   4.033
 6276SOL    HW219728   1.240   5.269   4.140
 6277SOL     OW19729   5.355   3.221   2.765
 6277SOL    HW119730   5.417   3.300   2.755
 6277SOL    HW219731   5.293   3.237   2.841
 6278SOL     OW19732   4.995   0.636   4.429
 6278SOL    HW119733   4.921   0.579   4.396
 6278SOL    HW219734   5.067   0.641   4.359
 6279SOL     OW19735   4.473   1.895   0.223
 6279SOL    HW119736   4.393   1.924   0.275
 6279SOL    HW219737   4.476   1.795   0.218
 6280SOL     OW19738   0.705   4.655   6.043
 6280SOL    HW119739   0.660   4.633   6.130
 6280SOL    HW219740   0.702   4.753   6.028
 6281SOL     OW19741   2.713   6.684   5.795
 6281SOL    HW119742   2.628   6.714   5.751
 6281SOL    HW219743   2.767   6.631   5.730
 6282SOL     OW19744   1.883   6.963   4.566
 6282SOL    HW119745   1.849   6.934   4.476
 6282SOL    HW219746   1.983   6.954   4.569
 6283SOL     OW19747   6.614   2.498   4.902
 6283SOL    HW119748   6.676   2.430   4.864
 6283SOL    HW219749   6.520   2.478   4.873
 6284SOL     OW19750   1.447   4.246   5.642
 6284SOL    HW119751   1.469   4.255   5.545
 6284SOL    HW219752   1.500   4.172   5.682
 6285SOL     OW19753   1.763   4.082   2.954
 6285SOL    HW119754   1.855   4.042   2.952
 6285SOL    HW219755   1.756   4.153   2.884
 6286SOL     OW19756   5.491   1.018   3.717
 6286SOL    HW119757   5.579   0.977   3.693
 6286SOL    HW219758   5.445   1.051   3.635
 6287SOL     OW19759   4.408   4.434   1.663
 6287SOL    HW119760   4.500   4.435   1.625
 6287SOL    HW219761   4.403   4.363   1.734
 6288SOL     OW19762   5.821   3.703   0.847
 6288SOL    HW119763   5.770   3.617   0.854
 6288SOL    HW219764   5.776   3.762   0.779
 6289SOL     OW19765   1.557   1.315   3.356
 6289SOL    HW119766   1.512   1.321   3.267
 6289SOL    HW219767   1.490   1.288   3.425
 6290SOL     OW19768   5.249   3.722   3.283
 6290SOL    HW119769   5.266   3.812   3.244
 6290SOL    HW219770   5.335   3.680   3.310
 6291SOL     OW19771   3.304   4.060   3.485
 6291SOL    HW119772   3.319   4.082   3.582
 6291SOL    HW219773   3.231   3.992   3.478
 6292SOL     OW19774   1.157   2.004   2.385
 6292SOL    HW119775   1.118   1.983   2.474
 6292SOL    HW219776   1.243   1.954   2.373
 6293SOL     OW19777   4.854   0.204   0.420
 6293SOL    HW119778   4.941   0.248   0.395
 6293SOL    HW219779   4.830   0.230   0.514
 6294SOL     OW19780   4.406   5.312   2.929
 6294SOL    HW119781   4.341   5.309   3.005
 6294SOL    HW219782   4.362   5.279   2.846
 6295SOL     OW19783   5.901   6.532   6.295
 6295SOL    HW119784   5.856   6.443   6.297
 6295SOL    HW219785   5.992   6.524   6.338
 6296SOL     OW19786   6.405   1.380   3.408
 6296SOL    HW119787   6.424   1.386   3.506
 6296SOL    HW219788   6.428   1.288   3.375
 6297SOL     OW19789   5.600   6.812   5.383
 6297SOL    HW119790   5.508   6.793   5.418
 6297SOL    HW219791   5.637   6.730   5.340
 6298SOL     OW19792   1.161   2.360   5.063
 6298SOL    HW119793   1.157   2.286   4.996
 6298SOL    HW219794   1.243   2.416   5.046
 6299SOL     OW19795   6.412   2.988   6.823
 6299SOL    HW119796   6.457   2.999   6.912
 6299SOL    HW219797   6.321   3.031   6.827
 6300SOL     OW19798   5.125   0.320   3.913
 6300SOL    HW119799   5.176   0.388   3.860
 6300SOL    HW219800   5.091   0.248   3.852
 6301SOL     OW19801   2.957   0.189   0.895
 6301SOL    HW119802   2.999   0.190   0.805
 6301SOL    HW219803   2.940   0.095   0.924
 6302SOL     OW19804   1.522   1.346   3.099
 6302SOL    HW119805   1.540   1.409   3.023
 6302SOL    HW219806   1.502   1.255   3.063
 6303SOL     OW19807   2.110   6.094   5.190
 6303SOL    HW119808   2.140   6.005   5.223
 6303SOL    HW219809   2.084   6.087   5.094
 6304SOL     OW19810   2.702   1.185   6.797
 6304SOL    HW119811   2.669   1.194   6.891
 6304SOL    HW219812   2.658   1.254   6.740
 6305SOL     OW19813   6.525   0.508   1.201
 6305SOL    HW119814   6.566   0.560   1.126
 6305SOL    HW219815   6.435   0.475   1.172
 6306SOL     OW19816   6.416   3.082   3.672
 6306SOL    HW119817   6.493   3.042   3.722
 6306SOL    HW219818   6.333   3.075   3.728
 6307SOL     OW19819   2.215   4.826   0.262
 6307SOL    HW119820   2.188   4.733   0.289
 6307SOL    HW219821   2.283   4.821   0.190
 6308SOL     OW19822   3.372   2.244   5.300
 6308SOL    HW119823   3.400   2.158   5.258
 6308SOL    HW219824   3.286   2.275   5.260
 6309SOL     OW19825   5.715   2.273   3.965
 6309SOL    HW119826   5.649   2.272   3.890
 6309SOL    HW219827   5.735   2.368   3.990
 6310SOL     OW19828   1.743   5.051   4.904
 6310SOL    HW119829   1.658   5.019   4.860
 6310SOL    HW219830   1.817   4.988   4.882
 6311SOL     OW19831   5.808   0.770   4.936
 6311SOL    HW119832   5.753   0.740   4.858
 6311SOL    HW219833   5.824   0.692   4.997
 6312SOL     OW19834   3.909   5.138   5.583
 6312SOL    HW119835   3.911   5.106   5.678
 6312SOL    HW219836   3.822   5.183   5.565
 6313SOL     OW19837   2.053   5.363   2.943
 6313SOL    HW119838   2.081   5.295   2.875
 6313SOL    HW219839   1.990   5.428   2.901
 6314SOL     OW19840   2.625   6.489   3.247
 6314SOL    HW119841   2.575   6.446   3.323
 6314SOL    HW219842   2.687   6.422   3.206
 6315SOL     OW19843   3.030   3.102   0.522
 6315SOL    HW119844   2.933   3.125   0.513
 6315SOL    HW219845   3.041   3.003   0.530
 6316SOL     OW19846   5.217   2.371   5.777
 6316SOL    HW119847   5.220   2.346   5.680
 6316SOL    HW219848   5.135   2.425   5.796
 6317SOL     OW19849   5.903   6.396   4.631
 6317SOL    HW119850   5.816   6.375   4.677
 6317SOL    HW219851   5.903   6.492   4.601
 6318SOL     OW19852   2.547   1.860   4.673
 6318SOL    HW119853   2.645   1.860   4.692
 6318SOL    HW219854   2.514   1.954   4.668
 6319SOL     OW19855   0.082   1.652   3.386
 6319SOL    HW119856   0.035   1.739   3.402
 6319SOL    HW219857   0.068   1.624   3.291
 6320SOL     OW19858   6.342   3.350   2.995
 6320SOL    HW119859   6.308   3.257   3.006
 6320SOL    HW219860   6.437   3.348   2.963
 6321SOL     OW19861   2.479   4.151   0.340
 6321SOL    HW119862   2.416   4.164   0.417
 6321SOL    HW219863   2.517   4.240   0.314
 6322SOL     OW19864   1.269   0.805   7.021
 6322SOL    HW119865   1.176   0.774   0.021
 6322SOL    HW219866   1.328   0.791   0.079
 6323SOL     OW19867   3.824   2.639   0.469
 6323SOL    HW119868   3.910   2.628   0.519
 6323SOL    HW219869   3.802   2.736   0.461
 6324SOL     OW19870   4.246   1.017   6.430
 6324SOL    HW119871   4.222   1.034   6.526
 6324SOL    HW219872   4.249   0.918   6.414
 6325SOL     OW19873   0.556   2.169   2.472
 6325SOL    HW119874   0.644   2.200   2.436
 6325SOL    HW219875   0.531   2.082   2.429
 6326SOL     OW19876   5.074   5.900   1.514
 6326SOL    HW119877   5.162   5.943   1.535
 6326SOL    HW219878   5.072   5.807   1.551
 6327SOL     OW19879   5.289   5.639   5.557
 6327SOL    HW119880   5.253   5.682   5.639
 6327SOL    HW219881   5.315   5.544   5.577
 6328SOL     OW19882   3.029   4.057   6.434
 6328SOL    HW119883   3.057   3.975   6.385
 6328SOL    HW219884   3.065   4.138   6.387
 6329SOL     OW19885   0.596   1.637   3.391
 6329SOL    HW119886   0.577   1.721   3.341
 6329SOL    HW219887   0.632   1.568   3.327
 6330SOL     OW19888   3.948   1.563   7.008
 6330SOL    HW119889   3.866   1.619   6.995
 6330SOL    HW219890   4.012   1.579   6.933
 6331SOL     OW19891   6.472   2.806   1.893
 6331SOL    HW119892   6.379   2.772   1.875
 6331SOL    HW219893   6.473   2.906   1.888
 6332SOL     OW19894   5.957   5.930   1.454
 6332SOL    HW119895   5.896   5.851   1.455
 6332SOL    HW219896   5.928   5.997   1.522
 6333SOL     OW19897   3.561   4.957   2.974
 6333SOL    HW119898   3.561   4.912   2.885
 6333SOL    HW219899   3.543   5.055   2.962
 6334SOL     OW19900   1.950   1.197   2.808
 6334SOL    HW119901   1.882   1.213   2.736
 6334SOL    HW219902   1.908   1.209   2.897
 6335SOL     OW19903   6.711   1.615   6.540
 6335SOL    HW119904   6.645   1.690   6.542
 6335SOL    HW219905   6.733   1.592   6.446
 6336SOL     OW19906   0.217   2.483   4.593
 6336SOL    HW119907   0.121   2.506   4.609
 6336SOL    HW219908   0.229   2.384   4.595
 6337SOL     OW19909   6.118   4.926   5.549
 6337SOL    HW119910   6.127   4.828   5.565
 6337SOL    HW219911   6.123   4.944   5.451
 6338SOL     OW19912   3.767   1.021   3.470
 6338SOL    HW119913   3.826   0.988   3.397
 6338SOL    HW219914   3.742   1.116   3.453
 6339SOL     OW19915   6.692   1.866   3.947
 6339SOL    HW119916   6.632   1.802   3.900
 6339SOL    HW219917   6.775   1.819   3.976
 6340SOL     OW19918   2.002   5.626   4.039
 6340SOL    HW119919   1.985   5.544   4.094
 6340SOL    HW219920   2.088   5.615   3.989
 6341SOL     OW19921   0.281   4.533   3.527
 6341SOL    HW119922   0.277   4.527   3.627
 6341SOL    HW219923   0.232   4.615   3.497
 6342SOL     OW19924   1.352   2.678   1.122
 6342SOL    HW119925   1.331   2.611   1.193
 6342SOL    HW219926   1.450   2.698   1.123
 6343SOL     OW19927   3.710   1.013   6.856
 6343SOL    HW119928   3.755   1.102   6.850
 6343SOL    HW219929   3.622   1.017   6.810
 6344SOL     OW19930   0.840   4.426   4.366
 6344SOL    HW119931   0.877   4.502   4.313
 6344SOL    HW219932   0.740   4.426   4.357
 6345SOL     OW19933   3.583   1.646   2.067
 6345SOL    HW119934   3.559   1.578   1.997
 6345SOL    HW219935   3.646   1.606   2.133
 6346SOL     OW19936   0.685   4.724   3.473
 6346SOL    HW119937   0.678   4.624   3.471
 6346SOL    HW219938   0.660   4.757   3.564
 6347SOL     OW19939   2.937   0.495   1.398
 6347SOL    HW119940   2.876   0.432   1.351
 6347SOL    HW219941   3.020   0.447   1.425
 6348SOL     OW19942   1.008   3.146   4.223
 6348SOL    HW119943   0.914   3.153   4.189
 6348SOL    HW219944   1.047   3.059   4.195
 6349SOL     OW19945   2.930   0.481   0.361
 6349SOL    HW119946   2.866   0.540   0.312
 6349SOL    HW219947   2.967   0.530   0.440
 6350SOL     OW19948   1.545   6.189   2.117
 6350SOL    HW119949   1.464   6.191   2.176
 6350SOL    HW219950   1.605   6.115   2.146
 6351SOL     OW19951   6.879   1.062   2.814
 6351SOL    HW119952   6.840   1.024   2.730
 6351SOL    HW219953   6.978   1.051   2.813
 6352SOL     OW19954   0.186   5.720   1.938
 6352SOL    HW119955   0.132   5.730   1.854
 6352SOL    HW219956   0.216   5.626   1.947
 6353SOL     OW19957   0.168   6.721   1.519
 6353SOL    HW119958   0.257   6.764   1.534
 6353SOL    HW219959   0.124   6.762   1.440
 6354SOL     OW19960   0.431   6.586   3.409
 6354SOL    HW119961   0.505   6.520   3.397
 6354SOL    HW219962   0.359   6.544   3.465
 6355SOL     OW19963   1.911   2.194   3.258
 6355SOL    HW119964   1.922   2.095   3.249
 6355SOL    HW219965   1.826   2.222   3.212
 6356SOL     OW19966   3.684   3.294   1.536
 6356SOL    HW119967   3.636   3.227   1.478
 6356SOL    HW219968   3.624   3.370   1.557
 6357SOL     OW19969   4.672   2.013   0.047
 6357SOL    HW119970   4.620   2.044   6.990
 6357SOL    HW219971   4.613   1.957   0.106
 6358SOL     OW19972   6.618   2.269   3.422
 6358SOL    HW119973   6.550   2.201   3.393
 6358SOL    HW219974   6.668   2.234   3.501
 6359SOL     OW19975   6.890   1.237   6.760
 6359SOL    HW119976   6.812   1.283   6.717
 6359SOL    HW219977   6.975   1.270   6.718
 6360SOL     OW19978   2.874   5.701   4.302
 6360SOL    HW119979   2.916   5.700   4.393
 6360SOL    HW219980   2.893   5.614   4.257
 6361SOL     OW19981   4.763   6.404   6.193
 6361SOL    HW119982   4.681   6.422   6.247
 6361SOL    HW219983   4.844   6.413   6.252
 6362SOL     OW19984   6.013   5.717   6.871
 6362SOL    HW119985   5.956   5.794   6.844
 6362SOL    HW219986   5.962   5.632   6.860
 6363SOL     OW19987   0.869   5.669   4.413
 6363SOL    HW119988   0.910   5.650   4.502
 6363SOL    HW219989   0.935   5.648   4.341
 6364SOL     OW19990   2.506   2.315   5.940
 6364SOL    HW119991   2.571   2.239   5.947
 6364SOL    HW219992   2.415   2.279   5.916
 6365SOL     OW19993   4.867   6.491   2.840
 6365SOL    HW119994   4.923   6.492   2.757
 6365SOL    HW219995   4.770   6.496   2.815
 6366SOL     OW19996   0.627   5.176   5.458
 6366SOL    HW119997   0.700   5.137   5.514
 6366SOL    HW219998   0.594   5.260   5.501
 6367SOL     OW19999   5.692   6.779   3.858
 6367SOL    HW120000   5.785   6.773   3.894
 6367SOL    HW220001   5.634   6.828   3.922
 6368SOL     OW20002   3.017   6.812   4.165
 6368SOL    HW120003   2.999   6.896   4.114
 6368SOL    HW220004   3.113   6.811   4.193
 6369SOL     OW20005   2.358   5.117   4.254
 6369SOL    HW120006   2.307   5.122   4.167
 6369SOL    HW220007   2.417   5.037   4.254
 6370SOL     OW20008   6.091   2.652   1.563
 6370SOL    HW120009   6.088   2.681   1.467
 6370SOL    HW220010   6.071   2.554   1.569
 6371SOL     OW20011   5.096   2.299   2.729
 6371SOL    HW120012   5.063   2.394   2.729
 6371SOL    HW220013   5.020   2.237   2.711
 6372SOL     OW20014   2.966   5.943   2.601
 6372SOL    HW120015   2.942   5.942   2.504
 6372SOL    HW220016   3.061   5.972   2.612
 6373SOL     OW20017   4.194   4.455   6.567
 6373SOL    HW120018   4.265   4.511   6.610
 6373SOL    HW220019   4.237   4.391   6.504
 6374SOL     OW20020   3.010   3.208   2.276
 6374SOL    HW120021   2.987   3.114   2.302
 6374SOL    HW220022   2.973   3.227   2.185
 6375SOL     OW20023   1.854   6.141   2.753
 6375SOL    HW120024   1.765   6.101   2.776
 6375SOL    HW220025   1.840   6.225   2.701
 6376SOL     OW20026   0.191   2.463   5.194
 6376SOL    HW120027   0.191   2.478   5.293
 6376SOL    HW220028   0.099   2.439   5.164
 6377SOL     OW20029   0.154   1.187   4.213
 6377SOL    HW120030   0.105   1.106   4.180
 6377SOL    HW220031   0.162   1.254   4.139
 6378SOL     OW20032   4.931   4.021   3.639
 6378SOL    HW120033   5.013   4.001   3.585
 6378SOL    HW220034   4.877   4.092   3.593
 6379SOL     OW20035   2.404   4.618   3.529
 6379SOL    HW120036   2.463   4.652   3.456
 6379SOL    HW220037   2.351   4.540   3.496
 6380SOL     OW20038   0.206   0.909   5.806
 6380SOL    HW120039   0.243   1.002   5.796
 6380SOL    HW220040   0.268   0.855   5.862
 6381SOL     OW20041   3.128   4.058   2.476
 6381SOL    HW120042   3.032   4.041   2.455
 6381SOL    HW220043   3.183   4.047   2.393
 6382SOL     OW20044   0.864   3.491   5.487
 6382SOL    HW120045   0.854   3.452   5.578
 6382SOL    HW220046   0.893   3.587   5.495
 6383SOL     OW20047   3.090   0.955   4.549
 6383SOL    HW120048   2.999   0.996   4.540
 6383SOL    HW220049   3.134   0.954   4.459
 6384SOL     OW20050   6.679   4.704   3.211
 6384SOL    HW120051   6.640   4.751   3.132
 6384SOL    HW220052   6.641   4.742   3.295
 6385SOL     OW20053   0.162   5.900   4.575
 6385SOL    HW120054   0.164   5.800   4.571
 6385SOL    HW220055   0.208   5.938   4.495
 6386SOL     OW20056   2.874   5.060   1.059
 6386SOL    HW120057   2.878   4.965   1.030
 6386SOL    HW220058   2.781   5.095   1.046
 6387SOL     OW20059   6.595   0.553   5.213
 6387SOL    HW120060   6.532   0.617   5.257
 6387SOL    HW220061   6.689   0.587   5.222
 6388SOL     OW20062   2.889   4.790   2.501
 6388SOL    HW120063   2.977   4.758   2.465
 6388SOL    HW220064   2.903   4.827   2.593
 6389SOL     OW20065   0.713   5.089   3.200
 6389SOL    HW120066   0.738   4.993   3.217
 6389SOL    HW220067   0.614   5.098   3.205
 6390SOL     OW20068   0.714   3.417   4.028
 6390SOL    HW120069   0.628   3.412   3.979
 6390SOL    HW220070   0.717   3.345   4.098
 6391SOL     OW20071   3.120   1.638   0.129
 6391SOL    HW120072   3.055   1.696   0.079
 6391SOL    HW220073   3.110   1.544   0.097
 6392SOL     OW20074   1.758   0.117   3.991
 6392SOL    HW120075   1.791   0.121   3.897
 6392SOL    HW220076   1.743   0.021   4.017
 6393SOL     OW20077   5.956   6.679   0.365
 6393SOL    HW120078   5.989   6.772   0.346
 6393SOL    HW220079   6.034   6.618   0.377
 6394SOL     OW20080   2.563   4.749   0.281
 6394SOL    HW120081   2.472   4.780   0.253
 6394SOL    HW220082   2.554   4.683   0.356
 6395SOL     OW20083   6.209   1.834   0.812
 6395SOL    HW120084   6.269   1.895   0.760
 6395SOL    HW220085   6.216   1.857   0.909
 6396SOL     OW20086   5.366   4.326   5.352
 6396SOL    HW120087   5.327   4.253   5.298
 6396SOL    HW220088   5.427   4.382   5.295
 6397SOL     OW20089   0.494   1.277   1.179
 6397SOL    HW120090   0.477   1.322   1.267
 6397SOL    HW220091   0.488   1.344   1.105
 6398SOL     OW20092   3.121   1.407   1.511
 6398SOL    HW120093   3.153   1.473   1.442
 6398SOL    HW220094   3.191   1.398   1.582
 6399SOL     OW20095   2.597   5.467   6.575
 6399SOL    HW120096   2.654   5.453   6.656
 6399SOL    HW220097   2.507   5.500   6.603
 6400SOL     OW20098   2.607   5.594   3.885
 6400SOL    HW120099   2.538   5.523   3.901
 6400SOL    HW220100   2.606   5.618   3.788
 6401SOL     OW20101   0.327   4.946   4.021
 6401SOL    HW120102   0.424   4.926   4.032
 6401SOL    HW220103   0.289   4.887   3.950
 6402SOL     OW20104   2.220   0.926   3.035
 6402SOL    HW120105   2.149   0.887   2.977
 6402SOL    HW220106   2.306   0.930   2.985
 6403SOL     OW20107   7.013   5.843   0.201
 6403SOL    HW120108   0.019   5.936   0.175
 6403SOL    HW220109   6.919   5.844   0.235
 6404SOL     OW20110   5.373   1.021   3.043
 6404SOL    HW120111   5.281   1.061   3.050
 6404SOL    HW220112   5.366   0.921   3.045
 6405SOL     OW20113   2.474   1.275   2.460
 6405SOL    HW120114   2.436   1.186   2.486
 6405SOL    HW220115   2.475   1.335   2.540
 6406SOL     OW20116   2.598   2.135   3.761
 6406SOL    HW120117   2.613   2.052   3.708
 6406SOL    HW220118   2.581   2.111   3.857
 6407SOL     OW20119   3.912   5.351   6.301
 6407SOL    HW120120   4.011   5.363   6.311
 6407SOL    HW220121   3.866   5.399   6.376
 6408SOL     OW20122   6.209   1.930   6.595
 6408SOL    HW120123   6.219   1.994   6.519
 6408SOL    HW220124   6.246   1.971   6.678
 6409SOL     OW20125   1.321   4.493   2.032
 6409SOL    HW120126   1.330   4.403   2.074
 6409SOL    HW220127   1.258   4.488   1.954
 6410SOL     OW20128   1.212   1.408   1.061
 6410SOL    HW120129   1.140   1.442   1.000
 6410SOL    HW220130   1.273   1.483   1.086
 6411SOL     OW20131   1.044   0.860   3.493
 6411SOL    HW120132   1.092   0.836   3.577
 6411SOL    HW220133   1.066   0.954   3.467
 6412SOL     OW20134   0.384   2.361   4.978
 6412SOL    HW120135   0.297   2.405   4.957
 6412SOL    HW220136   0.431   2.412   5.050
 6413SOL     OW20137   6.936   4.735   0.615
 6413SOL    HW120138   6.962   4.750   0.520
 6413SOL    HW220139   6.858   4.795   0.638
 6414SOL     OW20140   5.574   6.522   2.618
 6414SOL    HW120141   5.620   6.434   2.619
 6414SOL    HW220142   5.622   6.586   2.678
 6415SOL     OW20143   2.038   2.031   2.041
 6415SOL    HW120144   2.109   2.007   2.107
 6415SOL    HW220145   2.061   2.118   1.997
 6416SOL     OW20146   1.517   0.530   6.453
 6416SOL    HW120147   1.600   0.497   6.498
 6416SOL    HW220148   1.439   0.475   6.481
 6417SOL     OW20149   0.655   6.727   2.615
 6417SOL    HW120150   0.739   6.709   2.562
 6417SOL    HW220151   0.676   6.791   2.689
 6418SOL     OW20152   6.029   6.133   2.313
 6418SOL    HW120153   6.023   6.100   2.407
 6418SOL    HW220154   5.986   6.224   2.307
 6419SOL     OW20155   3.149   5.113   1.411
 6419SOL    HW120156   3.200   5.175   1.351
 6419SOL    HW220157   3.102   5.167   1.482
 6420SOL     OW20158   1.606   3.888   0.160
 6420SOL    HW120159   1.694   3.934   0.147
 6420SOL    HW220160   1.554   3.936   0.230
 6421SOL     OW20161   5.380   1.764   1.101
 6421SOL    HW120162   5.374   1.837   1.169
 6421SOL    HW220163   5.425   1.799   1.019
 6422SOL     OW20164   6.001   1.364   3.496
 6422SOL    HW120165   6.069   1.435   3.513
 6422SOL    HW220166   6.031   1.308   3.418
 6423SOL     OW20167   4.874   3.869   0.251
 6423SOL    HW120168   4.929   3.813   0.313
 6423SOL    HW220169   4.897   3.847   0.156
 6424SOL     OW20170   6.825   4.669   5.688
 6424SOL    HW120171   6.879   4.610   5.749
 6424SOL    HW220172   6.765   4.728   5.743
 6425SOL     OW20173   0.889   4.905   1.796
 6425SOL    HW120174   0.914   4.842   1.870
 6425SOL    HW220175   0.790   4.922   1.799
 6426SOL     OW20176   0.438   2.835   3.480
 6426SOL    HW120177   0.344   2.863   3.503
 6426SOL    HW220178   0.501   2.908   3.507
 6427SOL     OW20179   2.119   3.318   4.990
 6427SOL    HW120180   2.035   3.263   5.000
 6427SOL    HW220181   2.173   3.310   5.074
 6428SOL     OW20182   6.647   3.592   2.400
 6428SOL    HW120183   6.647   3.652   2.480
 6428SOL    HW220184   6.567   3.611   2.344
 6429SOL     OW20185   1.530   0.583   4.130
 6429SOL    HW120186   1.494   0.655   4.189
 6429SOL    HW220187   1.533   0.497   4.181
 6430SOL     OW20188   6.053   3.356   0.829
 6430SOL    HW120189   6.093   3.376   0.919
 6430SOL    HW220190   6.126   3.354   0.760
 6431SOL     OW20191   5.272   6.977   2.565
 6431SOL    HW120192   5.250   7.016   2.475
 6431SOL    HW220193   5.371   6.962   2.571
 6432SOL     OW20194   5.251   3.253   0.695
 6432SOL    HW120195   5.244   3.323   0.624
 6432SOL    HW220196   5.276   3.166   0.653
 6433SOL     OW20197   2.671   3.817   1.548
 6433SOL    HW120198   2.586   3.849   1.590
 6433SOL    HW220199   2.716   3.752   1.610
 6434SOL     OW20200   1.176   4.746   1.021
 6434SOL    HW120201   1.092   4.731   1.073
 6434SOL    HW220202   1.245   4.786   1.080
 6435SOL     OW20203   5.079   4.294   6.684
 6435SOL    HW120204   5.012   4.261   6.617
 6435SOL    HW220205   5.172   4.275   6.650
 6436SOL     OW20206   2.056   2.881   3.279
 6436SOL    HW120207   2.034   2.945   3.352
 6436SOL    HW220208   1.972   2.855   3.231
 6437SOL     OW20209   1.184   0.936   6.537
 6437SOL    HW120210   1.202   1.023   6.583
 6437SOL    HW220211   1.249   0.867   6.569
 6438SOL     OW20212   1.142   3.681   3.794
 6438SOL    HW120213   1.242   3.679   3.803
 6438SOL    HW220214   1.112   3.776   3.783
 6439SOL     OW20215   0.719   0.075   1.364
 6439SOL    HW120216   0.677   7.007   1.349
 6439SOL    HW220217   0.659   0.131   1.422
 6440SOL     OW20218   1.085   1.736   2.763
 6440SOL    HW120219   1.072   1.683   2.846
 6440SOL    HW220220   1.174   1.781   2.765
 6441SOL     OW20221   2.511   1.290   3.403
 6441SOL    HW120222   2.420   1.296   3.444
 6441SOL    HW220223   2.513   1.215   3.337
 6442SOL     OW20224   3.159   1.277   3.895
 6442SOL    HW120225   3.100   1.259   3.973
 6442SOL    HW220226   3.232   1.340   3.922
 6443SOL     OW20227   2.742   2.073   0.362
 6443SOL    HW120228   2.735   2.145   0.432
 6443SOL    HW220229   2.717   2.111   0.273
 6444SOL     OW20230   0.402   1.072   3.146
 6444SOL    HW120231   0.343   1.146   3.179
 6444SOL    HW220232   0.469   1.048   3.216
 6445SOL     OW20233   4.210   3.472   5.635
 6445SOL    HW120234   4.162   3.391   5.669
 6445SOL    HW220235   4.309   3.458   5.642
 6446SOL     OW20236   6.544   1.363   0.296
 6446SOL    HW120237   6.497   1.447   0.269
 6446SOL    HW220238   6.530   1.346   0.393
 6447SOL     OW20239   1.070   0.550   2.960
 6447SOL    HW120240   1.155   0.500   2.943
 6447SOL    HW220241   1.068   0.632   2.902
 6448SOL     OW20242   5.622   2.884   3.102
 6448SOL    HW120243   5.552   2.955   3.105
 6448SOL    HW220244   5.604   2.816   3.173
 6449SOL     OW20245   3.647   2.909   0.745
 6449SOL    HW120246   3.656   2.990   0.802
 6449SOL    HW220247   3.631   2.828   0.802
 6450SOL     OW20248   6.527   3.421   0.461
 6450SOL    HW120249   6.521   3.417   0.561
 6450SOL    HW220250   6.570   3.337   0.427
 6451SOL     OW20251   2.492   6.597   4.869
 6451SOL    HW120252   2.503   6.686   4.914
 6451SOL    HW220253   2.566   6.536   4.899
 6452SOL     OW20254   3.598   6.271   3.818
 6452SOL    HW120255   3.570   6.350   3.763
 6452SOL    HW220256   3.664   6.216   3.767
 6453SOL     OW20257   1.702   5.878   6.532
 6453SOL    HW120258   1.663   5.944   6.467
 6453SOL    HW220259   1.778   5.921   6.581
 6454SOL     OW20260   3.186   1.662   5.309
 6454SOL    HW120261   3.113   1.721   5.273
 6454SOL    HW220262   3.206   1.591   5.242
 6455SOL     OW20263   5.979   2.496   5.542
 6455SOL    HW120264   5.899   2.449   5.506
 6455SOL    HW220265   6.009   2.452   5.627
 6456SOL     OW20266   0.182   0.419   4.158
 6456SOL    HW120267   0.244   0.383   4.088
 6456SOL    HW220268   0.108   0.469   4.114
 6457SOL     OW20269   6.574   2.633   0.871
 6457SOL    HW120270   6.538   2.608   0.781
 6457SOL    HW220271   6.599   2.550   0.921
 6458SOL     OW20272   1.539   5.765   2.928
 6458SOL    HW120273   1.585   5.775   2.840
 6458SOL    HW220274   1.527   5.667   2.948
 6459SOL     OW20275   5.261   5.004   0.145
 6459SOL    HW120276   5.306   5.036   0.062
 6459SOL    HW220277   5.314   5.033   0.225
 6460SOL     OW20278   3.551   5.127   6.172
 6460SOL    HW120279   3.494   5.105   6.092
 6460SOL    HW220280   3.607   5.207   6.152
 6461SOL     OW20281   3.513   5.514   4.970
 6461SOL    HW120282   3.576   5.453   5.019
 6461SOL    HW220283   3.534   5.511   4.872
 6462SOL     OW20284   2.147   3.675   4.147
 6462SOL    HW120285   2.218   3.605   4.137
 6462SOL    HW220286   2.146   3.707   4.242
 6463SOL     OW20287   1.430   4.609   5.829
 6463SOL    HW120288   1.419   4.598   5.928
 6463SOL    HW220289   1.371   4.544   5.782
 6464SOL     OW20290   0.339   5.470   3.323
 6464SOL    HW120291   0.254   5.514   3.294
 6464SOL    HW220292   0.318   5.382   3.364
 6465SOL     OW20293   6.621   1.026   2.919
 6465SOL    HW120294   6.719   1.031   2.901
 6465SOL    HW220295   6.571   1.021   2.833
 6466SOL     OW20296   0.044   2.359   4.941
 6466SOL    HW120297   0.045   2.419   4.860
 6466SOL    HW220298   6.982   2.375   4.993
 6467SOL     OW20299   2.530   0.834   6.714
 6467SOL    HW120300   2.457   0.898   6.737
 6467SOL    HW220301   2.584   0.870   6.637
 6468SOL     OW20302   4.934   5.045   0.749
 6468SOL    HW120303   5.016   5.029   0.804
 6468SOL    HW220304   4.907   4.959   0.706
 6469SOL     OW20305   7.002   1.463   5.607
 6469SOL    HW120306   6.914   1.502   5.636
 6469SOL    HW220307   6.986   1.378   5.558
 6470SOL     OW20308   6.676   6.885   5.681
 6470SOL    HW120309   6.736   6.807   5.662
 6470SOL    HW220310   6.618   6.865   5.759
 6471SOL     OW20311   5.718   5.015   5.883
 6471SOL    HW120312   5.709   5.113   5.903
 6471SOL    HW220313   5.782   5.002   5.808
 6472SOL     OW20314   1.233   6.106   1.605
 6472SOL    HW120315   1.190   6.175   1.663
 6472SOL    HW220316   1.163   6.060   1.550
 6473SOL     OW20317   2.195   1.768   6.386
 6473SOL    HW120318   2.285   1.745   6.422
 6473SOL    HW220319   2.165   1.695   6.323
 6474SOL     OW20320   1.791   3.015   5.320
 6474SOL    HW120321   1.862   3.042   5.257
 6474SOL    HW220322   1.829   2.954   5.390
 6475SOL     OW20323   4.185   6.129   4.294
 6475SOL    HW120324   4.241   6.161   4.217
 6475SOL    HW220325   4.095   6.171   4.289
 6476SOL     OW20326   4.837   4.992   2.865
 6476SOL    HW120327   4.910   4.990   2.933
 6476SOL    HW220328   4.748   4.988   2.911
 6477SOL     OW20329   6.581   5.452   7.019
 6477SOL    HW120330   6.520   5.526   6.989
 6477SOL    HW220331   6.592   5.455   0.096
 6478SOL     OW20332   4.788   6.662   0.849
 6478SOL    HW120333   4.799   6.610   0.764
 6478SOL    HW220334   4.842   6.620   0.922
 6479SOL     OW20335   4.012   5.202   2.760
 6479SOL    HW120336   4.014   5.110   2.799
 6479SOL    HW220337   4.085   5.212   2.692
 6480SOL     OW20338   2.906   2.382   0.049
 6480SOL    HW120339   2.998   2.341   0.056
 6480SOL    HW220340   2.907   2.454   7.001
 6481SOL     OW20341   4.901   1.211   1.098
 6481SOL    HW120342   4.859   1.215   1.007
 6481SOL    HW220343   4.887   1.298   1.145
 6482SOL     OW20344   0.209   0.343   6.675
 6482SOL    HW120345   0.154   0.418   6.712
 6482SOL    HW220346   0.150   0.269   6.644
 6483SOL     OW20347   1.837   6.318   3.062
 6483SOL    HW120348   1.857   6.340   2.967
 6483SOL    HW220349   1.742   6.291   3.072
 6484SOL     OW20350   4.799   6.822   3.691
 6484SOL    HW120351   4.785   6.729   3.725
 6484SOL    HW220352   4.776   6.887   3.763
 6485SOL     OW20353   1.465   2.637   3.282
 6485SOL    HW120354   1.444   2.669   3.190
 6485SOL    HW220355   1.458   2.538   3.285
 6486SOL     OW20356   1.646   3.644   3.805
 6486SOL    HW120357   1.668   3.647   3.902
 6486SOL    HW220358   1.729   3.625   3.752
 6487SOL     OW20359   5.876   6.412   3.957
 6487SOL    HW120360   5.801   6.444   3.899
 6487SOL    HW220361   5.844   6.338   4.017
 6488SOL     OW20362   3.236   5.502   5.827
 6488SOL    HW120363   3.284   5.415   5.813
 6488SOL    HW220364   3.138   5.487   5.823
 6489SOL     OW20365   1.823   1.788   5.288
 6489SOL    HW120366   1.802   1.699   5.247
 6489SOL    HW220367   1.912   1.783   5.335
 6490SOL     OW20368   3.362   0.994   0.457
 6490SOL    HW120369   3.416   0.910   0.452
 6490SOL    HW220370   3.388   1.055   0.382
 6491SOL     OW20371   3.732   1.904   6.672
 6491SOL    HW120372   3.819   1.919   6.718
 6491SOL    HW220373   3.658   1.947   6.724
 6492SOL     OW20374   5.653   6.404   0.040
 6492SOL    HW120375   5.731   6.342   0.031
 6492SOL    HW220376   5.623   6.434   6.971
 6493SOL     OW20377   0.980   6.491   6.048
 6493SOL    HW120378   1.076   6.471   6.067
 6493SOL    HW220379   0.921   6.432   6.103
 6494SOL     OW20380   1.085   0.494   3.539
 6494SOL    HW120381   1.120   0.401   3.556
 6494SOL    HW220382   1.043   0.530   3.622
 6495SOL     OW20383   5.596   4.740   2.616
 6495SOL    HW120384   5.546   4.824   2.595
 6495SOL    HW220385   5.693   4.762   2.628
 6496SOL     OW20386   1.663   6.926   2.431
 6496SOL    HW120387   1.719   6.889   2.357
 6496SOL    HW220388   1.710   6.913   2.519
 6497SOL     OW20389   1.180   4.487   0.524
 6497SOL    HW120390   1.131   4.556   0.471
 6497SOL    HW220391   1.234   4.430   0.462
 6498SOL     OW20392   1.753   4.704   4.141
 6498SOL    HW120393   1.837   4.650   4.130
 6498SOL    HW220394   1.704   4.673   4.222
 6499SOL     OW20395   5.851   1.381   4.101
 6499SOL    HW120396   5.772   1.387   4.162
 6499SOL    HW220397   5.826   1.418   4.011
 6500SOL     OW20398   5.236   5.063   3.449
 6500SOL    HW120399   5.214   4.966   3.448
 6500SOL    HW220400   5.209   5.104   3.363
 6501SOL     OW20401   0.195   4.053   1.227
 6501SOL    HW120402   0.101   4.054   1.259
 6501SOL    HW220403   0.197   4.063   1.127
 6502SOL     OW20404   1.076   5.263   2.721
 6502SOL    HW120405   1.025   5.177   2.730
 6502SOL    HW220406   1.174   5.244   2.727
 6503SOL     OW20407   4.471   6.925   4.930
 6503SOL    HW120408   4.442   6.996   4.867
 6503SOL    HW220409   4.436   6.836   4.899
 6504SOL     OW20410   3.096   0.940   0.682
 6504SOL    HW120411   3.074   1.032   0.651
 6504SOL    HW220412   3.076   0.874   0.610
 6505SOL     OW20413   6.199   5.088   0.930
 6505SOL    HW120414   6.122   5.092   0.994
 6505SOL    HW220415   6.260   5.013   0.956
 6506SOL     OW20416   2.177   2.317   1.073
 6506SOL    HW120417   2.092   2.267   1.056
 6506SOL    HW220418   2.200   2.310   1.170
 6507SOL     OW20419   2.194   0.555   1.666
 6507SOL    HW120420   2.096   0.534   1.671
 6507SOL    HW220421   2.232   0.520   1.581
 6508SOL     OW20422   2.176   1.806   2.834
 6508SOL    HW120423   2.274   1.799   2.817
 6508SOL    HW220424   2.142   1.893   2.797
 6509SOL     OW20425   0.414   2.655   4.221
 6509SOL    HW120426   0.465   2.575   4.191
 6509SOL    HW220427   0.440   2.679   4.315
 6510SOL     OW20428   5.546   4.889   6.065
 6510SOL    HW120429   5.613   4.941   6.010
 6510SOL    HW220430   5.503   4.950   6.131
 6511SOL     OW20431   6.066   6.199   6.359
 6511SOL    HW120432   6.100   6.106   6.344
 6511SOL    HW220433   6.140   6.264   6.346
 6512SOL     OW20434   4.827   6.361   3.687
 6512SOL    HW120435   4.905   6.411   3.650
 6512SOL    HW220436   4.860   6.287   3.746
 6513SOL     OW20437   3.411   6.895   2.988
 6513SOL    HW120438   3.447   6.806   2.960
 6513SOL    HW220439   3.464   6.968   2.943
 6514SOL     OW20440   3.555   0.042   4.118
 6514SOL    HW120441   3.640   0.042   4.170
 6514SOL    HW220442   3.519   0.135   4.113
 6515SOL     OW20443   1.032   6.887   5.107
 6515SOL    HW120444   1.092   6.813   5.136
 6515SOL    HW220445   0.968   6.852   5.038
 6516SOL     OW20446   0.499   1.382   5.315
 6516SOL    HW120447   0.457   1.388   5.405
 6516SOL    HW220448   0.593   1.415   5.319
 6517SOL     OW20449   1.003   1.738   0.289
 6517SOL    HW120450   1.073   1.799   0.324
 6517SOL    HW220451   1.046   1.660   0.243
 6518SOL     OW20452   6.384   5.990   1.377
 6518SOL    HW120453   6.294   6.029   1.358
 6518SOL    HW220454   6.404   6.000   1.475
 6519SOL     OW20455   2.444   2.012   3.383
 6519SOL    HW120456   2.518   1.966   3.433
 6519SOL    HW220457   2.409   2.088   3.438
 6520SOL     OW20458   5.488   5.273   1.227
 6520SOL    HW120459   5.572   5.225   1.252
 6520SOL    HW220460   5.410   5.215   1.249
 6521SOL     OW20461   0.168   1.614   5.288
 6521SOL    HW120462   0.149   1.516   5.295
 6521SOL    HW220463   0.258   1.627   5.245
 6522SOL     OW20464   2.583   5.404   6.039
 6522SOL    HW120465   2.569   5.402   6.138
 6522SOL    HW220466   2.605   5.497   6.010
 6523SOL     OW20467   2.018   2.026   6.156
 6523SOL    HW120468   2.003   1.927   6.146
 6523SOL    HW220469   1.941   2.066   6.205
 6524SOL     OW20470   3.930   4.005   4.089
 6524SOL    HW120471   3.971   3.964   4.008
 6524SOL    HW220472   3.968   3.962   4.171
 6525SOL     OW20473   0.003   2.790   3.537
 6525SOL    HW120474   0.083   2.850   3.536
 6525SOL    HW220475   6.944   2.841   3.567
 6526SOL     OW20476   1.513   6.011   5.002
 6526SOL    HW120477   1.549   6.061   4.924
 6526SOL    HW220478   1.413   6.008   4.996
 6527SOL     OW20479   1.636   0.880   4.586
 6527SOL    HW120480   1.587   0.963   4.558
 6527SOL    HW220481   1.603   0.803   4.532
 6528SOL     OW20482   6.718   1.197   4.317
 6528SOL    HW120483   6.731   1.273   4.381
 6528SOL    HW220484   6.753   1.223   4.227
 6529SOL     OW20485   6.855   2.293   2.343
 6529SOL    HW120486   6.802   2.213   2.314
 6529SOL    HW220487   6.809   2.376   2.312
 6530SOL     OW20488   6.778   2.026   0.791
 6530SOL    HW120489   6.874   2.055   0.795
 6530SOL    HW220490   6.732   2.072   0.715
 6531SOL     OW20491   4.674   2.733   4.291
 6531SOL    HW120492   4.681   2.674   4.371
 6531SOL    HW220493   4.723   2.818   4.308
 6532SOL     OW20494   6.987   1.920   6.489
 6532SOL    HW120495   6.975   1.822   6.503
 6532SOL    HW220496   6.898   1.962   6.469
 6533SOL     OW20497   4.455   0.328   1.119
 6533SOL    HW120498   4.535   0.268   1.129
 6533SOL    HW220499   4.432   0.367   1.209
 6534SOL     OW20500   2.181   4.028   0.925
 6534SOL    HW120501   2.163   4.125   0.913
 6534SOL    HW220502   2.115   3.975   0.872
 6535SOL     OW20503   0.998   4.040   5.755
 6535SOL    HW120504   1.085   3.996   5.732
 6535SOL    HW220505   0.927   4.008   5.692
 6536SOL     OW20506   6.595   2.580   7.000
 6536SOL    HW120507   6.497   2.565   6.999
 6536SOL    HW220508   6.641   2.501   0.019
 6537SOL     OW20509   1.204   0.215   0.574
 6537SOL    HW120510   1.167   0.206   0.667
 6537SOL    HW220511   1.254   0.133   0.549
 6538SOL     OW20512   2.559   3.165   6.781
 6538SOL    HW120513   2.550   3.255   6.824
 6538SOL    HW220514   2.468   3.130   6.758
 6539SOL     OW20515   2.345   2.008   0.043
 6539SOL    HW120516   2.420   1.948   0.072
 6539SOL    HW220517   2.366   2.045   6.974
 6540SOL     OW20518   3.330   1.310   4.849
 6540SOL    HW120519   3.339   1.261   4.936
 6540SOL    HW220520   3.421   1.327   4.811
 6541SOL     OW20521   1.972   2.422   6.223
 6541SOL    HW120522   2.025   2.378   6.150
 6541SOL    HW220523   1.888   2.371   6.238
 6542SOL     OW20524   5.884   4.407   3.445
 6542SOL    HW120525   5.833   4.480   3.399
 6542SOL    HW220526   5.982   4.427   3.438
 6543SOL     OW20527   6.395   5.924   6.994
 6543SOL    HW120528   6.299   5.951   7.004
 6543SOL    HW220529   6.449   5.965   0.046
 6544SOL     OW20530   6.338   6.601   4.416
 6544SOL    HW120531   6.319   6.693   4.449
 6544SOL    HW220532   6.303   6.591   4.323
 6545SOL     OW20533   4.864   1.578   5.891
 6545SOL    HW120534   4.892   1.612   5.980
 6545SOL    HW220535   4.892   1.482   5.882
 6546SOL     OW20536   3.128   4.281   6.304
 6546SOL    HW120537   3.061   4.322   6.242
 6546SOL    HW220538   3.207   4.248   6.251
 6547SOL     OW20539   4.680   2.480   6.793
 6547SOL    HW120540   4.691   2.469   6.892
 6547SOL    HW220541   4.768   2.504   6.752
 6548SOL     OW20542   6.832   4.887   5.509
 6548SOL    HW120543   6.859   4.803   5.556
 6548SOL    HW220544   6.841   4.965   5.571
 6549SOL     OW20545   3.918   1.660   0.883
 6549SOL    HW120546   3.987   1.621   0.945
 6549SOL    HW220547   3.832   1.610   0.894
 6550SOL     OW20548   0.707   5.701   3.166
 6550SOL    HW120549   0.804   5.720   3.157
 6550SOL    HW220550   0.670   5.673   3.077
 6551SOL     OW20551   2.065   4.753   2.166
 6551SOL    HW120552   2.140   4.687   2.178
 6551SOL    HW220553   1.998   4.717   2.101
 6552SOL     OW20554   2.764   4.982   5.870
 6552SOL    HW120555   2.796   4.986   5.775
 6552SOL    HW220556   2.697   5.055   5.885
 6553SOL     OW20557   0.366   3.009   2.635
 6553SOL    HW120558   0.465   3.005   2.635
 6553SOL    HW220559   0.332   3.001   2.728
 6554SOL     OW20560   0.184   2.609   5.444
 6554SOL    HW120561   0.257   2.561   5.492
 6554SOL    HW220562   0.202   2.708   5.447
 6555SOL     OW20563   0.425   1.521   2.149
 6555SOL    HW120564   0.496   1.524   2.219
 6555SOL    HW220565   0.389   1.613   2.134
 6556SOL     OW20566   4.115   6.516   4.750
 6556SOL    HW120567   4.188   6.583   4.768
 6556SOL    HW220568   4.133   6.432   4.802
 6557SOL     OW20569   6.608   5.386   1.239
 6557SOL    HW120570   6.662   5.459   1.281
 6557SOL    HW220571   6.554   5.340   1.309
 6558SOL     OW20572   6.237   5.597   6.798
 6558SOL    HW120573   6.180   5.673   6.828
 6558SOL    HW220574   6.181   5.516   6.786
 6559SOL     OW20575   4.042   3.502   0.910
 6559SOL    HW120576   4.031   3.549   0.998
 6559SOL    HW220577   3.972   3.535   0.846
 6560SOL     OW20578   3.825   2.379   0.060
 6560SOL    HW120579   3.831   2.285   0.094
 6560SOL    HW220580   3.743   2.422   0.096
 6561SOL     OW20581   4.081   3.631   3.997
 6561SOL    HW120582   4.056   3.591   4.085
 6561SOL    HW220583   4.079   3.560   3.926
 6562SOL     OW20584   6.265   4.087   5.977
 6562SOL    HW120585   6.328   4.115   5.905
 6562SOL    HW220586   6.191   4.033   5.937
 6563SOL     OW20587   1.789   5.503   1.808
 6563SOL    HW120588   1.786   5.482   1.906
 6563SOL    HW220589   1.701   5.542   1.780
 6564SOL     OW20590   1.245   5.561   2.102
 6564SOL    HW120591   1.246   5.589   2.198
 6564SOL    HW220592   1.166   5.501   2.085
 6565SOL     OW20593   6.613   3.061   5.364
 6565SOL    HW120594   6.529   3.114   5.375
 6565SOL    HW220595   6.663   3.062   5.451
 6566SOL     OW20596   3.615   6.910   0.749
 6566SOL    HW120597   3.624   7.001   0.710
 6566SOL    HW220598   3.704   6.864   0.747
 6567SOL     OW20599   5.572   3.045   1.466
 6567SOL    HW120600   5.604   3.031   1.560
 6567SOL    HW220601   5.558   2.956   1.422
 6568SOL     OW20602   3.895   4.372   1.299
 6568SOL    HW120603   3.816   4.418   1.338
 6568SOL    HW220604   3.935   4.310   1.367
 6569SOL     OW20605   0.549   4.561   6.826
 6569SOL    HW120606   0.631   4.519   6.867
 6569SOL    HW220607   0.515   4.502   6.753
 6570SOL     OW20608   6.043   2.227   1.214
 6570SOL    HW120609   6.049   2.147   1.274
 6570SOL    HW220610   6.133   2.246   1.174
 6571SOL     OW20611   2.563   5.645   3.615
 6571SOL    HW120612   2.466   5.623   3.625
 6571SOL    HW220613   2.614   5.563   3.588
 6572SOL     OW20614   0.816   4.169   6.044
 6572SOL    HW120615   0.888   4.191   5.978
 6572SOL    HW220616   0.732   4.216   6.020
 6573SOL     OW20617   1.765   1.684   2.706
 6573SOL    HW120618   1.761   1.690   2.607
 6573SOL    HW220619   1.830   1.613   2.733
 6574SOL     OW20620   2.864   5.226   3.148
 6574SOL    HW120621   2.878   5.205   3.244
 6574SOL    HW220622   2.780   5.280   3.137
 6575SOL     OW20623   0.701   1.865   2.878
 6575SOL    HW120624   0.644   1.815   2.944
 6575SOL    HW220625   0.642   1.909   2.810
 6576SOL     OW20626   1.156   6.042   5.971
 6576SOL    HW120627   1.153   6.039   5.872
 6576SOL    HW220628   1.141   5.950   6.008
 6577SOL     OW20629   6.313   2.450   3.474
 6577SOL    HW120630   6.397   2.396   3.471
 6577SOL    HW220631   6.285   2.473   3.381
 6578SOL     OW20632   6.000   5.197   3.856
 6578SOL    HW120633   6.060   5.127   3.817
 6578SOL    HW220634   5.910   5.158   3.872
 6579SOL     OW20635   0.495   3.935   2.629
 6579SOL    HW120636   0.484   3.853   2.686
 6579SOL    HW220637   0.416   3.994   2.641
 6580SOL     OW20638   6.072   2.397   1.679
 6580SOL    HW120639   6.065   2.428   1.774
 6580SOL    HW220640   6.083   2.298   1.677
 6581SOL     OW20641   2.668   1.569   6.031
 6581SOL    HW120642   2.695   1.497   6.095
 6581SOL    HW220643   2.578   1.604   6.056
 6582SOL     OW20644   6.463   0.017   2.860
 6582SOL    HW120645   6.394   0.021   2.787
 6582SOL    HW220646   6.533   6.972   2.836
 6583SOL     OW20647   5.732   1.522   5.756
 6583SOL    HW120648   5.823   1.546   5.789
 6583SOL    HW220649   5.731   1.524   5.656
 6584SOL     OW20650   6.010   1.720   6.297
 6584SOL    HW120651   6.098   1.682   6.267
 6584SOL    HW220652   6.005   1.816   6.269
 6585SOL     OW20653   1.695   1.196   6.599
 6585SOL    HW120654   1.652   1.254   6.529
 6585SOL    HW220655   1.712   1.250   6.681
 6586SOL     OW20656   6.595   2.533   6.052
 6586SOL    HW120657   6.653   2.477   5.994
 6586SOL    HW220658   6.499   2.524   6.024
 6587SOL     OW20659   2.172   6.489   3.105
 6587SOL    HW120660   2.138   6.405   3.146
 6587SOL    HW220661   2.241   6.467   3.036
 6588SOL     OW20662   1.620   3.119   0.248
 6588SOL    HW120663   1.679   3.070   0.184
 6588SOL    HW220664   1.533   3.141   0.204
 6589SOL     OW20665   4.588   1.513   5.954
 6589SOL    HW120666   4.679   1.551   5.937
 6589SOL    HW220667   4.523   1.555   5.891
 6590SOL     OW20668   6.973   1.161   5.203
 6590SOL    HW120669   6.905   1.169   5.130
 6590SOL    HW220670   0.029   1.221   5.183
 6591SOL     OW20671   5.603   1.150   3.110
 6591SOL    HW120672   5.640   1.193   3.027
 6591SOL    HW220673   5.518   1.102   3.088
 6592SOL     OW20674   4.850   5.681   4.233
 6592SOL    HW120675   4.819   5.598   4.280
 6592SOL    HW220676   4.788   5.701   4.157
 6593SOL     OW20677   3.467   1.110   2.037
 6593SOL    HW120678   3.379   1.130   2.080
 6593SOL    HW220679   3.539   1.162   2.083
 6594SOL     OW20680   5.747   0.566   6.479
 6594SOL    HW120681   5.747   0.648   6.422
 6594SOL    HW220682   5.655   0.525   6.479
 6595SOL     OW20683   1.361   3.875   0.911
 6595SOL    HW120684   1.310   3.923   0.982
 6595SOL    HW220685   1.337   3.778   0.914
 6596SOL     OW20686   4.142   6.987   4.998
 6596SOL    HW120687   4.145   6.998   5.097
 6596SOL    HW220688   4.171   0.051   4.954
 6597SOL     OW20689   0.035   4.667   5.305
 6597SOL    HW120690   7.019   4.585   5.263
 6597SOL    HW220691   0.111   4.643   5.365
 6598SOL     OW20692   1.809   5.927   5.422
 6598SOL    HW120693   1.875   5.933   5.497
 6598SOL    HW220694   1.809   6.013   5.371
 6599SOL     OW20695   4.009   4.254   5.845
 6599SOL    HW120696   4.088   4.290   5.894
 6599SOL    HW220697   3.967   4.181   5.899
 6600SOL     OW20698   4.787   6.094   4.108
 6600SOL    HW120699   4.873   6.077   4.156
 6600SOL    HW220700   4.731   6.158   4.161
 6601SOL     OW20701   1.276   0.454   0.654
 6601SOL    HW120702   1.354   0.490   0.603
 6601SOL    HW220703   1.263   0.358   0.632
 6602SOL     OW20704   6.293   1.598   1.601
 6602SOL    HW120705   6.274   1.509   1.560
 6602SOL    HW220706   6.263   1.599   1.696
 6603SOL     OW20707   2.118   3.582   3.691
 6603SOL    HW120708   2.152   3.645   3.761
 6603SOL    HW220709   2.081   3.500   3.736
 6604SOL     OW20710   3.584   5.729   2.591
 6604SOL    HW120711   3.490   5.756   2.610
 6604SOL    HW220712   3.606   5.647   2.643
 6605SOL     OW20713   5.862   6.216   0.020
 6605SOL    HW120714   5.840   6.119   0.026
 6605SOL    HW220715   5.913   6.244   0.102
 6606SOL     OW20716   5.029   1.000   2.655
 6606SOL    HW120717   5.106   1.045   2.609
 6606SOL    HW220718   5.063   0.945   2.731
 6607SOL     OW20719   1.147   2.404   2.789
 6607SOL    HW120720   1.070   2.401   2.852
 6607SOL    HW220721   1.125   2.352   2.706
 6608SOL     OW20722   5.741   3.711   4.130
 6608SOL    HW120723   5.786   3.627   4.161
 6608SOL    HW220724   5.728   3.706   4.031
 6609SOL     OW20725   5.825   1.997   6.551
 6609SOL    HW120726   5.810   1.900   6.571
 6609SOL    HW220727   5.738   2.046   6.555
 6610SOL     OW20728   2.522   0.878   0.079
 6610SOL    HW120729   2.448   0.924   0.030
 6610SOL    HW220730   2.570   0.817   0.016
 6611SOL     OW20731   5.519   2.940   2.794
 6611SOL    HW120732   5.475   3.027   2.818
 6611SOL    HW220733   5.617   2.946   2.811
 6612SOL     OW20734   1.675   6.577   6.793
 6612SOL    HW120735   1.631   6.569   6.883
 6612SOL    HW220736   1.719   6.666   6.786
 6613SOL     OW20737   4.881   5.306   1.772
 6613SOL    HW120738   4.827   5.340   1.850
 6613SOL    HW220739   4.822   5.298   1.692
 6614SOL     OW20740   5.447   5.826   6.132
 6614SOL    HW120741   5.495   5.838   6.218
 6614SOL    HW220742   5.367   5.767   6.146
 6615SOL     OW20743   0.995   4.031   4.974
 6615SOL    HW120744   0.909   4.083   4.970
 6615SOL    HW220745   1.068   4.092   5.006
 6616SOL     OW20746   4.711   0.354   4.662
 6616SOL    HW120747   4.793   0.411   4.662
 6616SOL    HW220748   4.710   0.295   4.581
 6617SOL     OW20749   3.835   0.441   5.622
 6617SOL    HW120750   3.837   0.348   5.586
 6617SOL    HW220751   3.925   0.482   5.613
 6618SOL     OW20752   0.883   4.516   1.674
 6618SOL    HW120753   0.808   4.581   1.683
 6618SOL    HW220754   0.856   4.442   1.612
 6619SOL     OW20755   4.985   5.796   2.578
 6619SOL    HW120756   4.932   5.723   2.622
 6619SOL    HW220757   5.014   5.862   2.648
 6620SOL     OW20758   2.021   2.474   5.317
 6620SOL    HW120759   2.086   2.398   5.313
 6620SOL    HW220760   2.009   2.504   5.411
 6621SOL     OW20761   2.484   3.792   0.202
 6621SOL    HW120762   2.581   3.795   0.226
 6621SOL    HW220763   2.433   3.854   0.261
 6622SOL     OW20764   0.126   6.559   0.413
 6622SOL    HW120765   0.028   6.546   0.400
 6622SOL    HW220766   0.164   6.611   0.336
 6623SOL     OW20767   3.531   3.646   2.007
 6623SOL    HW120768   3.496   3.739   1.999
 6623SOL    HW220769   3.455   3.581   2.001
 6624SOL     OW20770   4.117   4.861   4.341
 6624SOL    HW120771   4.063   4.806   4.277
 6624SOL    HW220772   4.210   4.871   4.307
 6625SOL     OW20773   6.716   0.692   0.592
 6625SOL    HW120774   6.619   0.688   0.568
 6625SOL    HW220775   6.726   0.713   0.689
 6626SOL     OW20776   3.445   4.936   3.493
 6626SOL    HW120777   3.459   4.859   3.555
 6626SOL    HW220778   3.452   4.905   3.398
 6627SOL     OW20779   1.948   6.405   1.163
 6627SOL    HW120780   2.024   6.401   1.099
 6627SOL    HW220781   1.895   6.320   1.158
 6628SOL     OW20782   3.936   5.864   2.939
 6628SOL    HW120783   3.986   5.892   2.858
 6628SOL    HW220784   3.916   5.766   2.934
 6629SOL     OW20785   3.528   4.626   0.469
 6629SOL    HW120786   3.579   4.541   0.484
 6629SOL    HW220787   3.464   4.614   0.394
 6630SOL     OW20788   3.102   2.186   0.069
 6630SOL    HW120789   3.058   2.096   0.075
 6630SOL    HW220790   3.189   2.177   0.021
 6631SOL     OW20791   4.708   0.814   2.306
 6631SOL    HW120792   4.694   0.899   2.255
 6631SOL    HW220793   4.632   0.801   2.370
 6632SOL     OW20794   6.629   1.818   1.876
 6632SOL    HW120795   6.607   1.766   1.793
 6632SOL    HW220796   6.678   1.760   1.940
 6633SOL     OW20797   0.695   0.261   1.079
 6633SOL    HW120798   0.637   0.186   1.110
 6633SOL    HW220799   0.674   0.343   1.133
 6634SOL     OW20800   6.798   3.018   5.861
 6634SOL    HW120801   6.787   3.117   5.855
 6634SOL    HW220802   6.731   2.981   5.926
 6635SOL     OW20803   4.736   4.101   3.300
 6635SOL    HW120804   4.677   4.156   3.242
 6635SOL    HW220805   4.792   4.041   3.243
 6636SOL     OW20806   2.179   2.417   3.899
 6636SOL    HW120807   2.117   2.436   3.823
 6636SOL    HW220808   2.134   2.441   3.985
 6637SOL     OW20809   6.553   0.964   0.778
 6637SOL    HW120810   6.510   0.979   0.867
 6637SOL    HW220811   6.645   1.004   0.778
 6638SOL     OW20812   2.725   5.662   6.025
 6638SOL    HW120813   2.663   5.681   5.948
 6638SOL    HW220814   2.814   5.634   5.989
 6639SOL     OW20815   5.721   5.643   0.020
 6639SOL    HW120816   5.702   5.736   7.010
 6639SOL    HW220817   5.678   5.630   0.110
 6640SOL     OW20818   5.881   3.024   3.174
 6640SOL    HW120819   5.854   2.938   3.216
 6640SOL    HW220820   5.813   3.094   3.196
 6641SOL     OW20821   1.937   4.302   5.826
 6641SOL    HW120822   1.849   4.328   5.787
 6641SOL    HW220823   2.011   4.341   5.770
 6642SOL     OW20824   0.335   6.217   0.216
 6642SOL    HW120825   0.325   6.287   0.146
 6642SOL    HW220826   0.354   6.129   0.172
 6643SOL     OW20827   4.936   4.525   6.775
 6643SOL    HW120828   4.856   4.501   6.830
 6643SOL    HW220829   4.986   4.441   6.751
 6644SOL     OW20830   3.114   4.874   2.215
 6644SOL    HW120831   3.045   4.880   2.143
 6644SOL    HW220832   3.202   4.850   2.175
 6645SOL     OW20833   0.657   5.217   5.829
 6645SOL    HW120834   0.616   5.286   5.769
 6645SOL    HW220835   0.724   5.261   5.889
 6646SOL     OW20836   2.556   5.844   3.984
 6646SOL    HW120837   2.637   5.901   3.999
 6646SOL    HW220838   2.583   5.758   3.941
 6647SOL     OW20839   3.072   1.945   2.106
 6647SOL    HW120840   3.026   2.024   2.064
 6647SOL    HW220841   3.035   1.931   2.198
 6648SOL     OW20842   5.003   5.469   2.368
 6648SOL    HW120843   4.992   5.488   2.271
 6648SOL    HW220844   5.015   5.371   2.382
 6649SOL     OW20845   3.798   2.331   6.572
 6649SOL    HW120846   3.861   2.345   6.496
 6649SOL    HW220847   3.836   2.371   6.656
 6650SOL     OW20848   3.313   2.053   2.650
 6650SOL    HW120849   3.310   1.983   2.579
 6650SOL    HW220850   3.398   2.106   2.642
 6651SOL     OW20851   1.120   2.735   6.564
 6651SOL    HW120852   1.182   2.660   6.589
 6651SOL    HW220853   1.136   2.813   6.624
 6652SOL     OW20854   6.841   5.476   3.174
 6652SOL    HW120855   6.796   5.519   3.096
 6652SOL    HW220856   6.845   5.540   3.251
 6653SOL     OW20857   3.309   3.651   4.062
 6653SOL    HW120858   3.398   3.609   4.045
 6653SOL    HW220859   3.259   3.659   3.976
 6654SOL     OW20860   2.130   3.290   1.779
 6654SOL    HW120861   2.159   3.357   1.847
 6654SOL    HW220862   2.183   3.206   1.790
 6655SOL     OW20863   2.692   6.210   1.378
 6655SOL    HW120864   2.714   6.300   1.417
 6655SOL    HW220865   2.612   6.218   1.318
 6656SOL     OW20866   6.348   2.479   1.150
 6656SOL    HW120867   6.299   2.489   1.063
 6656SOL    HW220868   6.438   2.439   1.133
 6657SOL     OW20869   2.881   6.327   6.529
 6657SOL    HW120870   2.967   6.283   6.501
 6657SOL    HW220871   2.898   6.423   6.551
 6658SOL     OW20872   5.071   0.746   5.726
 6658SOL    HW120873   5.095   0.654   5.755
 6658SOL    HW220874   5.014   0.741   5.644
 6659SOL     OW20875   1.835   2.804   6.835
 6659SOL    HW120876   1.787   2.819   6.749
 6659SOL    HW220877   1.920   2.857   6.836
 6660SOL     OW20878   6.912   6.685   3.030
 6660SOL    HW120879   6.976   6.611   3.010
 6660SOL    HW220880   6.820   6.647   3.044
 6661SOL     OW20881   0.628   6.143   3.775
 6661SOL    HW120882   0.559   6.148   3.703
 6661SOL    HW220883   0.716   6.115   3.736
 6662SOL     OW20884   1.562   2.391   0.122
 6662SOL    HW120885   1.497   2.463   0.143
 6662SOL    HW220886   1.653   2.430   0.109
 6663SOL     OW20887   0.498   5.505   2.508
 6663SOL    HW120888   0.412   5.556   2.518
 6663SOL    HW220889   0.482   5.422   2.454
 6664SOL     OW20890   1.144   1.363   3.127
 6664SOL    HW120891   1.130   1.290   3.060
 6664SOL    HW220892   1.239   1.363   3.157
 6665SOL     OW20893   2.520   6.673   3.089
 6665SOL    HW120894   2.508   6.611   3.011
 6665SOL    HW220895   2.531   6.619   3.172
 6666SOL     OW20896   6.670   0.440   0.048
 6666SOL    HW120897   6.733   0.509   0.011
 6666SOL    HW220898   6.616   0.482   0.121
 6667SOL     OW20899   6.704   4.316   4.744
 6667SOL    HW120900   6.713   4.220   4.716
 6667SOL    HW220901   6.716   4.375   4.664
 6668SOL     OW20902   0.684   4.690   1.680
 6668SOL    HW120903   0.603   4.659   1.631
 6668SOL    HW220904   0.656   4.738   1.764
 6669SOL     OW20905   2.321   5.974   2.694
 6669SOL    HW120906   2.317   5.934   2.602
 6669SOL    HW220907   2.417   5.985   2.721
 6670SOL     OW20908   3.848   4.661   0.344
 6670SOL    HW120909   3.897   4.746   0.365
 6670SOL    HW220910   3.757   4.684   0.309
 6671SOL     OW20911   0.075   3.158   4.666
 6671SOL    HW120912   0.000   3.094   4.649
 6671SOL    HW220913   0.134   3.121   4.738
 6672SOL     OW20914   1.536   1.144   5.551
 6672SOL    HW120915   1.599   1.221   5.555
 6672SOL    HW220916   1.481   1.142   5.634
 6673SOL     OW20917   4.530   4.503   1.306
 6673SOL    HW120918   4.609   4.508   1.367
 6673SOL    HW220919   4.486   4.592   1.301
 6674SOL     OW20920   0.558   6.860   3.915
 6674SOL    HW120921   0.557   6.949   3.869
 6674SOL    HW220922   0.563   6.787   3.846
 6675SOL     OW20923   5.776   4.916   0.251
 6675SOL    HW120924   5.711   4.913   0.175
 6675SOL    HW220925   5.733   4.881   0.334
 6676SOL     OW20926   0.907   2.581   5.898
 6676SOL    HW120927   0.917   2.630   5.811
 6676SOL    HW220928   0.997   2.549   5.928
 6677SOL     OW20929   0.286   3.539   0.359
 6677SOL    HW120930   0.383   3.518   0.348
 6677SOL    HW220931   0.232   3.487   0.292
 6678SOL     OW20932   0.873   3.099   5.567
 6678SOL    HW120933   0.967   3.132   5.562
 6678SOL    HW220934   0.810   3.177   5.565
 6679SOL     OW20935   1.804   1.871   4.163
 6679SOL    HW120936   1.808   1.875   4.263
 6679SOL    HW220937   1.845   1.786   4.131
 6680SOL     OW20938   2.882   6.633   6.537
 6680SOL    HW120939   2.865   6.607   6.442
 6680SOL    HW220940   2.876   6.732   6.545
 6681SOL     OW20941   5.039   4.853   0.352
 6681SOL    HW120942   4.945   4.881   0.374
 6681SOL    HW220943   5.052   4.856   0.253
 6682SOL     OW20944   0.202   6.727   1.806
 6682SOL    HW120945   0.162   6.713   1.716
 6682SOL    HW220946   0.163   6.810   1.847
 6683SOL     OW20947   5.173   2.039   3.763
 6683SOL    HW120948   5.261   2.006   3.798
 6683SOL    HW220949   5.125   2.088   3.835
 6684SOL     OW20950   1.958   0.023   2.839
 6684SOL    HW120951   2.054   0.002   2.856
 6684SOL    HW220952   1.949   0.116   2.802
 6685SOL     OW20953   4.871   3.689   6.416
 6685SOL    HW120954   4.970   3.707   6.416
 6685SOL    HW220955   4.845   3.650   6.504
 6686SOL     OW20956   6.505   3.852   3.506
 6686SOL    HW120957   6.583   3.841   3.445
 6686SOL    HW220958   6.448   3.770   3.503
 6687SOL     OW20959   0.916   2.055   0.272
 6687SOL    HW120960   0.932   1.959   0.249
 6687SOL    HW220961   0.868   2.059   0.360
 6688SOL     OW20962   0.825   5.111   2.588
 6688SOL    HW120963   0.892   5.038   2.574
 6688SOL    HW220964   0.759   5.112   2.513
 6689SOL     OW20965   4.542   4.693   6.835
 6689SOL    HW120966   4.479   4.696   6.757
 6689SOL    HW220967   4.513   4.621   6.898
 6690SOL     OW20968   1.884   2.545   0.918
 6690SOL    HW120969   1.955   2.575   0.981
 6690SOL    HW220970   1.800   2.526   0.969
 6691SOL     OW20971   2.185   4.462   1.469
 6691SOL    HW120972   2.107   4.508   1.512
 6691SOL    HW220973   2.180   4.364   1.488
 6692SOL     OW20974   3.283   3.985   5.770
 6692SOL    HW120975   3.187   4.002   5.745
 6692SOL    HW220976   3.322   3.919   5.706
 6693SOL     OW20977   4.247   3.498   5.364
 6693SOL    HW120978   4.317   3.560   5.329
 6693SOL    HW220979   4.242   3.507   5.464
 6694SOL     OW20980   3.559   6.091   1.016
 6694SOL    HW120981   3.639   6.143   0.986
 6694SOL    HW220982   3.589   6.002   1.052
 6695SOL     OW20983   1.594   2.277   6.883
 6695SOL    HW120984   1.577   2.300   6.978
 6695SOL    HW220985   1.681   2.228   6.875
 6696SOL     OW20986   2.075   2.937   1.621
 6696SOL    HW120987   2.004   2.999   1.586
 6696SOL    HW220988   2.154   2.989   1.651
 6697SOL     OW20989   4.740   1.399   3.110
 6697SOL    HW120990   4.763   1.312   3.068
 6697SOL    HW220991   4.641   1.406   3.121
 6698SOL     OW20992   4.003   3.273   0.296
 6698SOL    HW120993   4.002   3.304   0.201
 6698SOL    HW220994   4.088   3.304   0.339
 6699SOL     OW20995   1.252   4.199   6.998
 6699SOL    HW120996   1.349   4.217   7.014
 6699SOL    HW220997   1.239   4.161   6.907
 6700SOL     OW20998   6.842   6.116   0.275
 6700SOL    HW120999   6.908   6.089   0.345
 6700SOL    HW221000   6.892   6.147   0.193
 6701SOL     OW21001   0.474   1.933   0.542
 6701SOL    HW121002   0.429   2.023   0.543
 6701SOL    HW221003   0.411   1.863   0.574
 6702SOL     OW21004   3.131   1.964   1.248
 6702SOL    HW121005   3.213   1.997   1.200
 6702SOL    HW221006   3.112   2.025   1.326
 6703SOL     OW21007   0.405   1.906   0.006
 6703SOL    HW121008   0.420   2.003   0.025
 6703SOL    HW221009   0.450   1.881   6.942
 6704SOL     OW21010   5.276   1.799   2.206
 6704SOL    HW121011   5.352   1.847   2.249
 6704SOL    HW221012   5.245   1.725   2.265
 6705SOL     OW21013   5.669   1.538   0.122
 6705SOL    HW121014   5.690   1.449   0.164
 6705SOL    HW221015   5.753   1.577   0.084
 6706SOL     OW21016   0.614   4.632   6.297
 6706SOL    HW121017   0.659   4.609   6.383
 6706SOL    HW221018   0.532   4.686   6.316
 6707SOL     OW21019   1.493   6.262   2.455
 6707SOL    HW121020   1.419   6.207   2.417
 6707SOL    HW221021   1.456   6.325   2.524
 6708SOL     OW21022   2.273   5.970   1.270
 6708SOL    HW121023   2.363   5.959   1.227
 6708SOL    HW221024   2.270   6.058   1.318
 6709SOL     OW21025   4.319   1.446   2.900
 6709SOL    HW121026   4.403   1.430   2.848
 6709SOL    HW221027   4.276   1.358   2.921
 6710SOL     OW21028   3.087   2.596   0.774
 6710SOL    HW121029   3.045   2.685   0.787
 6710SOL    HW221030   3.098   2.578   0.676
 6711SOL     OW21031   3.753   4.051   0.645
 6711SOL    HW121032   3.772   3.954   0.660
 6711SOL    HW221033   3.670   4.061   0.590
 6712SOL     OW21034   3.502   5.750   0.299
 6712SOL    HW121035   3.424   5.687   0.301
 6712SOL    HW221036   3.561   5.727   0.222
 6713SOL     OW21037   1.993   1.867   2.297
 6713SOL    HW121038   2.043   1.940   2.344
 6713SOL    HW221039   2.056   1.793   2.275
 6714SOL     OW21040   6.466   0.932   3.980
 6714SOL    HW121041   6.415   0.913   3.896
 6714SOL    HW221042   6.412   0.995   4.037
 6715SOL     OW21043   0.662   1.622   1.110
 6715SOL    HW121044   0.705   1.629   1.199
 6715SOL    HW221045   0.694   1.539   1.064
 6716SOL     OW21046   2.182   5.894   0.413
 6716SOL    HW121047   2.092   5.861   0.384
 6716SOL    HW221048   2.253   5.835   0.375
 6717SOL     OW21049   3.365   1.661   6.798
 6717SOL    HW121050   3.280   1.623   6.762
 6717SOL    HW221051   3.378   1.632   6.893
 6718SOL     OW21052   3.555   0.011   0.219
 6718SOL    HW121053   3.468   7.006   0.177
 6718SOL    HW221054   3.629   7.018   0.154
 6719SOL     OW21055   0.317   0.377   5.721
 6719SOL    HW121056   0.253   0.332   5.658
 6719SOL    HW221057   0.309   0.476   5.709
 6720SOL     OW21058   2.236   4.995   2.058
 6720SOL    HW121059   2.324   4.965   2.021
 6720SOL    HW221060   2.187   4.916   2.095
 6721SOL     OW21061   5.990   6.298   3.561
 6721SOL    HW121062   6.038   6.282   3.647
 6721SOL    HW221063   5.941   6.385   3.566
 6722SOL     OW21064   4.622   3.517   0.079
 6722SOL    HW121065   4.626   3.586   0.152
 6722SOL    HW221066   4.575   3.436   0.114
 6723SOL     OW21067   4.056   6.299   1.898
 6723SOL    HW121068   4.126   6.351   1.946
 6723SOL    HW221069   3.966   6.337   1.920
 6724SOL     OW21070   3.270   5.172   5.275
 6724SOL    HW121071   3.204   5.213   5.212
 6724SOL    HW221072   3.273   5.073   5.260
 6725SOL     OW21073   0.506   4.579   2.273
 6725SOL    HW121074   0.575   4.651   2.274
 6725SOL    HW221075   0.487   4.553   2.178
 6726SOL     OW21076   2.423   1.893   2.801
 6726SOL    HW121077   2.481   1.821   2.840
 6726SOL    HW221078   2.444   1.980   2.845
 6727SOL     OW21079   3.792   3.731   6.725
 6727SOL    HW121080   3.887   3.753   6.746
 6727SOL    HW221081   3.739   3.726   6.810
 6728SOL     OW21082   4.392   1.243   3.931
 6728SOL    HW121083   4.439   1.179   3.870
 6728SOL    HW221084   4.321   1.291   3.879
 6729SOL     OW21085   5.659   0.169   2.115
 6729SOL    HW121086   5.593   0.237   2.146
 6729SOL    HW221087   5.624   0.122   2.034
 6730SOL     OW21088   1.917   0.599   0.359
 6730SOL    HW121089   1.942   0.532   0.289
 6730SOL    HW221090   1.933   0.691   0.324
 6731SOL     OW21091   2.904   4.876   2.026
 6731SOL    HW121092   2.885   4.778   2.024
 6731SOL    HW221093   2.937   4.905   1.936
 6732SOL     OW21094   2.074   4.590   1.063
 6732SOL    HW121095   2.118   4.632   1.143
 6732SOL    HW221096   2.121   4.620   0.980
 6733SOL     OW21097   5.432   5.830   5.852
 6733SOL    HW121098   5.342   5.816   5.811
 6733SOL    HW221099   5.424   5.823   5.952
 6734SOL     OW21100   1.996   3.296   5.837
 6734SOL    HW121101   1.957   3.215   5.793
 6734SOL    HW221102   2.059   3.268   5.909
 6735SOL     OW21103   0.005   5.038   5.937
 6735SOL    HW121104   0.060   4.968   5.891
 6735SOL    HW221105   0.040   5.052   6.030
 6736SOL     OW21106   2.083   3.587   2.742
 6736SOL    HW121107   2.076   3.495   2.703
 6736SOL    HW221108   2.038   3.652   2.681
 6737SOL     OW21109   2.541   1.027   1.009
 6737SOL    HW121110   2.592   0.990   0.932
 6737SOL    HW221111   2.502   1.116   0.984
 6738SOL     OW21112   3.072   1.247   1.912
 6738SOL    HW121113   3.164   1.236   1.876
 6738SOL    HW221114   3.075   1.300   1.997
 6739SOL     OW21115   3.978   6.175   5.035
 6739SOL    HW121116   4.027   6.103   5.085
 6739SOL    HW221117   4.002   6.264   5.072
 6740SOL     OW21118   6.336   2.355   4.039
 6740SOL    HW121119   6.245   2.351   4.079
 6740SOL    HW221120   6.341   2.434   3.977
 6741SOL     OW21121   6.700   0.015   6.590
 6741SOL    HW121122   6.671   0.107   6.562
 6741SOL    HW221123   6.770   7.003   6.527
 6742SOL     OW21124   6.571   6.125   5.688
 6742SOL    HW121125   6.501   6.131   5.760
 6742SOL    HW221126   6.606   6.032   5.683
 6743SOL     OW21127   4.898   3.401   1.040
 6743SOL    HW121128   4.964   3.451   1.096
 6743SOL    HW221129   4.850   3.465   0.981
 6744SOL     OW21130   4.799   5.191   5.912
 6744SOL    HW121131   4.808   5.185   5.813
 6744SOL    HW221132   4.827   5.104   5.953
 6745SOL     OW21133   6.951   4.330   3.620
 6745SOL    HW121134   6.882   4.370   3.681
 6745SOL    HW221135   7.009   4.403   3.584
 6746SOL     OW21136   0.189   1.458   1.121
 6746SOL    HW121137   0.252   1.519   1.169
 6746SOL    HW221138   0.217   1.448   1.026
 6747SOL     OW21139   5.488   6.254   5.876
 6747SOL    HW121140   5.417   6.312   5.917
 6747SOL    HW221141   5.570   6.308   5.861
 6748SOL     OW21142   0.317   0.297   1.906
 6748SOL    HW121143   0.277   0.271   1.818
 6748SOL    HW221144   0.262   0.259   1.980
 6749SOL     OW21145   3.521   6.607   1.239
 6749SOL    HW121146   3.509   6.705   1.250
 6749SOL    HW221147   3.573   6.589   1.155
 6750SOL     OW21148   2.504   3.270   5.349
 6750SOL    HW121149   2.492   3.230   5.440
 6750SOL    HW221150   2.460   3.213   5.281
 6751SOL     OW21151   3.410   1.945   5.499
 6751SOL    HW121152   3.415   1.993   5.587
 6751SOL    HW221153   3.323   1.966   5.454
 6752SOL     OW21154   6.281   2.089   0.048
 6752SOL    HW121155   6.306   2.030   0.125
 6752SOL    HW221156   6.186   2.117   0.058
 6753SOL     OW21157   5.159   2.206   6.454
 6753SOL    HW121158   5.133   2.301   6.440
 6753SOL    HW221159   5.226   2.178   6.385
 6754SOL     OW21160   5.981   0.502   0.024
 6754SOL    HW121161   5.926   0.525   0.104
 6754SOL    HW221162   5.966   0.406   7.021
 6755SOL     OW21163   4.760   1.737   3.364
 6755SOL    HW121164   4.758   1.836   3.381
 6755SOL    HW221165   4.855   1.708   3.352
 6756SOL     OW21166   5.036   4.206   3.941
 6756SOL    HW121167   4.958   4.144   3.947
 6756SOL    HW221168   5.084   4.208   4.029
 6757SOL     OW21169   5.440   5.239   1.819
 6757SOL    HW121170   5.521   5.182   1.832
 6757SOL    HW221171   5.468   5.329   1.784
 6758SOL     OW21172   5.431   2.093   3.051
 6758SOL    HW121173   5.354   2.030   3.048
 6758SOL    HW221174   5.404   2.175   3.102
 6759SOL     OW21175   0.280   4.736   3.787
 6759SOL    HW121176   0.266   4.637   3.789
 6759SOL    HW221177   0.217   4.778   3.722
 6760SOL     OW21178   0.380   4.549   4.995
 6760SOL    HW121179   0.465   4.592   4.964
 6760SOL    HW221180   0.327   4.615   5.050
 6761SOL     OW21181   5.720   3.421   6.524
 6761SOL    HW121182   5.782   3.375   6.587
 6761SOL    HW221183   5.757   3.511   6.501
 6762SOL     OW21184   5.762   5.261   4.057
 6762SOL    HW121185   5.734   5.246   4.151
 6762SOL    HW221186   5.738   5.354   4.030
 6763SOL     OW21187   5.277   6.091   6.021
 6763SOL    HW121188   5.283   6.004   6.069
 6763SOL    HW221189   5.344   6.093   5.947
 6764SOL     OW21190   2.228   3.740   6.919
 6764SOL    HW121191   2.167   3.735   6.998
 6764SOL    HW221192   2.193   3.681   6.846
 6765SOL     OW21193   4.967   5.152   2.642
 6765SOL    HW121194   4.903   5.079   2.667
 6765SOL    HW221195   4.968   5.163   2.543
 6766SOL     OW21196   1.372   1.222   5.334
 6766SOL    HW121197   1.291   1.164   5.347
 6766SOL    HW221198   1.431   1.213   5.414
 6767SOL     OW21199   1.172   2.492   5.932
 6767SOL    HW121200   1.249   2.471   5.991
 6767SOL    HW221201   1.198   2.476   5.836
 6768SOL     OW21202   0.030   0.317   5.895
 6768SOL    HW121203   0.047   0.404   5.848
 6768SOL    HW221204   0.071   0.320   5.986
 6769SOL     OW21205   1.499   3.212   6.455
 6769SOL    HW121206   1.459   3.122   6.434
 6769SOL    HW221207   1.460   3.280   6.393
 6770SOL     OW21208   6.964   1.624   3.775
 6770SOL    HW121209   6.901   1.549   3.753
 6770SOL    HW221210   0.035   1.598   3.747
 6771SOL     OW21211   3.889   1.236   2.395
 6771SOL    HW121212   3.823   1.232   2.469
 6771SOL    HW221213   3.966   1.293   2.422
 6772SOL     OW21214   0.709   1.259   1.874
 6772SOL    HW121215   0.797   1.233   1.913
 6772SOL    HW221216   0.682   1.193   1.804
 6773SOL     OW21217   0.888   0.941   1.420
 6773SOL    HW121218   0.922   0.976   1.333
 6773SOL    HW221219   0.869   0.843   1.412
 6774SOL     OW21220   2.820   1.503   5.294
 6774SOL    HW121221   2.786   1.588   5.335
 6774SOL    HW221222   2.817   1.512   5.194
 6775SOL     OW21223   0.704   3.018   4.865
 6775SOL    HW121224   0.779   2.963   4.829
 6775SOL    HW221225   0.679   2.985   4.957
 6776SOL     OW21226   3.413   3.726   3.406
 6776SOL    HW121227   3.333   3.783   3.388
 6776SOL    HW221228   3.496   3.775   3.379
 6777SOL     OW21229   0.168   6.126   6.827
 6777SOL    HW121230   0.162   6.224   6.844
 6777SOL    HW221231   0.169   6.077   6.914
 6778SOL     OW21232   5.676   5.713   2.028
 6778SOL    HW121233   5.588   5.708   2.075
 6778SOL    HW221234   5.744   5.754   2.089
 6779SOL     OW21235   4.890   4.335   6.492
 6779SOL    HW121236   4.881   4.279   6.409
 6779SOL    HW221237   4.821   4.307   6.558
 6780SOL     OW21238   3.248   1.201   2.225
 6780SOL    HW121239   3.217   1.134   2.293
 6780SOL    HW221240   3.173   1.264   2.204
 6781SOL     OW21241   5.845   2.646   3.045
 6781SOL    HW121242   5.907   2.722   3.031
 6781SOL    HW221243   5.790   2.662   3.127
 6782SOL     OW21244   7.014   2.118   3.131
 6782SOL    HW121245   6.915   2.126   3.118
 6782SOL    HW221246   0.021   2.024   3.113
 6783SOL     OW21247   0.488   6.017   5.969
 6783SOL    HW121248   0.492   6.080   6.047
 6783SOL    HW221249   0.396   6.020   5.929
 6784SOL     OW21250   1.624   3.996   1.234
 6784SOL    HW121251   1.595   4.089   1.256
 6784SOL    HW221252   1.545   3.935   1.236
 6785SOL     OW21253   5.323   4.857   3.942
 6785SOL    HW121254   5.375   4.938   3.967
 6785SOL    HW221255   5.352   4.825   3.851
 6786SOL     OW21256   6.291   2.168   5.644
 6786SOL    HW121257   6.194   2.145   5.651
 6786SOL    HW221258   6.344   2.100   5.693
 6787SOL     OW21259   3.223   1.864   0.289
 6787SOL    HW121260   3.194   1.784   0.238
 6787SOL    HW221261   3.211   1.847   0.387
 6788SOL     OW21262   0.572   4.449   1.311
 6788SOL    HW121263   0.504   4.497   1.255
 6788SOL    HW221264   0.663   4.471   1.278
 6789SOL     OW21265   5.841   4.791   2.722
 6789SOL    HW121266   5.928   4.747   2.745
 6789SOL    HW221267   5.792   4.813   2.806
 6790SOL     OW21268   0.389   5.962   0.126
 6790SOL    HW121269   0.430   5.878   0.090
 6790SOL    HW221270   0.389   5.959   0.225
 6791SOL     OW21271   2.660   6.627   3.594
 6791SOL    HW121272   2.751   6.632   3.552
 6791SOL    HW221273   2.599   6.573   3.536
 6792SOL     OW21274   4.046   0.093   6.195
 6792SOL    HW121275   4.027   0.085   6.097
 6792SOL    HW221276   4.056   0.189   6.219
 6793SOL     OW21277   1.944   3.330   6.224
 6793SOL    HW121278   1.876   3.260   6.202
 6793SOL    HW221279   1.922   3.415   6.176
 6794SOL     OW21280   5.811   2.474   4.962
 6794SOL    HW121281   5.847   2.568   4.964
 6794SOL    HW221282   5.739   2.467   4.893
 6795SOL     OW21283   1.283   0.903   1.483
 6795SOL    HW121284   1.242   0.867   1.566
 6795SOL    HW221285   1.264   0.842   1.406
 6796SOL     OW21286   6.673   1.716   2.718
 6796SOL    HW121287   6.620   1.659   2.782
 6796SOL    HW221288   6.666   1.811   2.746
 6797SOL     OW21289   1.150   3.073   1.170
 6797SOL    HW121290   1.203   2.995   1.203
 6797SOL    HW221291   1.055   3.046   1.158
 6798SOL     OW21292   5.007   1.126   2.306
 6798SOL    HW121293   4.979   1.039   2.266
 6798SOL    HW221294   5.012   1.196   2.234
 6799SOL     OW21295   6.414   7.002   3.145
 6799SOL    HW121296   6.489   6.984   3.210
 6799SOL    HW221297   6.453   0.004   3.056
 6800SOL     OW21298   6.601   3.182   1.340
 6800SOL    HW121299   6.612   3.268   1.391
 6800SOL    HW221300   6.531   3.126   1.385
 6801SOL     OW21301   0.987   6.204   6.177
 6801SOL    HW121302   1.005   6.168   6.269
 6801SOL    HW221303   1.045   6.157   6.111
 6802SOL     OW21304   2.869   4.741   1.668
 6802SOL    HW121305   2.962   4.776   1.654
 6802SOL    HW221306   2.872   4.666   1.734
 6803SOL     OW21307   5.225   5.714   6.413
 6803SOL    HW121308   5.196   5.698   6.319
 6803SOL    HW221309   5.296   5.647   6.438
 6804SOL     OW21310   3.461   5.119   2.125
 6804SOL    HW121311   3.422   5.163   2.044
 6804SOL    HW221312   3.445   5.176   2.205
 6805SOL     OW21313   0.894   4.167   4.414
 6805SOL    HW121314   0.810   4.113   4.404
 6805SOL    HW221315   0.875   4.263   4.392
 6806SOL     OW21316   5.984   3.291   1.763
 6806SOL    HW121317   6.041   3.210   1.773
 6806SOL    HW221318   6.042   3.373   1.759
 6807SOL     OW21319   3.327   4.116   2.701
 6807SOL    HW121320   3.240   4.115   2.650
 6807SOL    HW221321   3.403   4.122   2.637
 6808SOL     OW21322   3.269   0.524   3.584
 6808SOL    HW121323   3.303   0.570   3.502
 6808SOL    HW221324   3.334   0.537   3.659
 6809SOL     OW21325   5.770   3.216   0.264
 6809SOL    HW121326   5.753   3.301   0.215
 6809SOL    HW221327   5.705   3.207   0.339
 6810SOL     OW21328   2.674   0.539   4.432
 6810SOL    HW121329   2.742   0.608   4.452
 6810SOL    HW221330   2.709   0.475   4.363
 6811SOL     OW21331   6.479   1.456   0.964
 6811SOL    HW121332   6.561   1.514   0.957
 6811SOL    HW221333   6.413   1.500   1.024
 6812SOL     OW21334   3.280   4.899   5.180
 6812SOL    HW121335   3.296   4.896   5.082
 6812SOL    HW221336   3.182   4.904   5.199
 6813SOL     OW21337   0.131   4.190   2.292
 6813SOL    HW121338   0.183   4.106   2.279
 6813SOL    HW221339   0.174   4.264   2.241
 6814SOL     OW21340   6.029   1.262   0.440
 6814SOL    HW121341   6.114   1.292   0.395
 6814SOL    HW221342   6.037   1.277   0.539
 6815SOL     OW21343   0.943   5.908   6.522
 6815SOL    HW121344   0.860   5.872   6.564
 6815SOL    HW221345   1.012   5.836   6.519
 6816SOL     OW21346   6.907   0.168   4.381
 6816SOL    HW121347   6.976   0.146   4.311
 6816SOL    HW221348   6.911   0.266   4.401
 6817SOL     OW21349   4.534   2.190   1.064
 6817SOL    HW121350   4.472   2.213   0.990
 6817SOL    HW221351   4.623   2.235   1.048
 6818SOL     OW21352   0.843   0.029   4.747
 6818SOL    HW121353   0.826   6.953   4.764
 6818SOL    HW221354   0.939   0.051   4.765
 6819SOL     OW21355   4.934   4.445   1.985
 6819SOL    HW121356   5.010   4.504   2.015
 6819SOL    HW221357   4.967   4.381   1.915
 6820SOL     OW21358   2.687   5.153   1.437
 6820SOL    HW121359   2.716   5.140   1.532
 6820SOL    HW221360   2.602   5.104   1.421
 6821SOL     OW21361   3.412   2.901   5.338
 6821SOL    HW121362   3.346   2.826   5.347
 6821SOL    HW221363   3.463   2.891   5.253
 6822SOL     OW21364   5.907   3.764   5.268
 6822SOL    HW121365   5.935   3.775   5.173
 6822SOL    HW221366   5.884   3.669   5.286
 6823SOL     OW21367   0.642   2.948   5.133
 6823SOL    HW121368   0.614   2.910   5.221
 6823SOL    HW221369   0.588   3.030   5.113
 6824SOL     OW21370   0.909   0.106   5.152
 6824SOL    HW121371   0.948   0.023   5.110
 6824SOL    HW221372   0.970   0.138   5.224
 6825SOL     OW21373   4.049   4.189   1.441
 6825SOL    HW121374   4.062   4.156   1.347
 6825SOL    HW221375   4.095   4.127   1.505
 6826SOL     OW21376   6.263   0.043   3.450
 6826SOL    HW121377   6.245   0.122   3.393
 6826SOL    HW221378   6.239   0.064   3.545
 6827SOL     OW21379   4.794   5.732   5.160
 6827SOL    HW121380   4.735   5.802   5.200
 6827SOL    HW221381   4.884   5.772   5.141
 6828SOL     OW21382   3.540   2.033   2.241
 6828SOL    HW121383   3.638   2.033   2.221
 6828SOL    HW221384   3.491   1.985   2.167
 6829SOL     OW21385   3.812   6.927   3.206
 6829SOL    HW121386   3.765   6.839   3.194
 6829SOL    HW221387   3.791   6.963   3.297
 6830SOL     OW21388   4.254   4.702   2.261
 6830SOL    HW121389   4.189   4.768   2.224
 6830SOL    HW221390   4.275   4.633   2.192
 6831SOL     OW21391   1.618   1.615   6.591
 6831SOL    HW121392   1.580   1.707   6.581
 6831SOL    HW221393   1.615   1.568   6.503
 6832SOL     OW21394   3.000   2.420   6.684
 6832SOL    HW121395   2.960   2.333   6.714
 6832SOL    HW221396   3.099   2.408   6.672
 6833SOL     OW21397   3.698   5.333   6.089
 6833SOL    HW121398   3.655   5.421   6.109
 6833SOL    HW221399   3.788   5.329   6.132
 6834SOL     OW21400   6.506   6.555   6.339
 6834SOL    HW121401   6.518   6.590   6.432
 6834SOL    HW221402   6.511   6.632   6.274
 6835SOL     OW21403   3.287   0.886   4.023
 6835SOL    HW121404   3.225   0.821   3.979
 6835SOL    HW221405   3.315   0.955   3.957
 6836SOL     OW21406   0.827   4.452   6.845
 6836SOL    HW121407   0.905   4.425   6.902
 6836SOL    HW221408   0.850   4.440   6.749
 6837SOL     OW21409   5.821   0.749   2.083
 6837SOL    HW121410   5.815   0.652   2.062
 6837SOL    HW221411   5.765   0.769   2.164
 6838SOL     OW21412   3.103   3.893   5.490
 6838SOL    HW121413   3.119   3.914   5.394
 6838SOL    HW221414   3.096   3.978   5.542
 6839SOL     OW21415   6.188   3.066   4.846
 6839SOL    HW121416   6.138   3.058   4.933
 6839SOL    HW221417   6.216   3.161   4.833
 6840SOL     OW21418   2.966   6.122   4.723
 6840SOL    HW121419   2.890   6.158   4.670
 6840SOL    HW221420   2.988   6.184   4.798
 6841SOL     OW21421   4.609   6.880   0.935
 6841SOL    HW121422   4.526   6.882   0.879
 6841SOL    HW221423   4.667   6.804   0.906
 6842SOL     OW21424   0.514   3.874   4.670
 6842SOL    HW121425   0.538   3.795   4.614
 6842SOL    HW221426   0.532   3.853   4.766
 6843SOL     OW21427   4.744   2.386   1.373
 6843SOL    HW121428   4.804   2.362   1.297
 6843SOL    HW221429   4.784   2.354   1.459
 6844SOL     OW21430   3.374   5.133   3.967
 6844SOL    HW121431   3.469   5.167   3.971
 6844SOL    HW221432   3.346   5.102   4.058
 6845SOL     OW21433   3.712   4.442   0.899
 6845SOL    HW121434   3.802   4.473   0.867
 6845SOL    HW221435   3.713   4.342   0.907
 6846SOL     OW21436   4.061   3.115   2.439
 6846SOL    HW121437   3.985   3.057   2.412
 6846SOL    HW221438   4.145   3.084   2.394
 6847SOL     OW21439   6.460   3.440   1.709
 6847SOL    HW121440   6.457   3.532   1.748
 6847SOL    HW221441   6.548   3.398   1.731
 6848SOL     OW21442   6.377   6.196   3.585
 6848SOL    HW121443   6.369   6.294   3.568
 6848SOL    HW221444   6.468   6.165   3.556
 6849SOL     OW21445   3.328   6.345   4.277
 6849SOL    HW121446   3.279   6.337   4.190
 6849SOL    HW221447   3.411   6.290   4.274
 6850SOL     OW21448   5.231   3.298   1.286
 6850SOL    HW121449   5.175   3.277   1.206
 6850SOL    HW221450   5.322   3.256   1.274
 6851SOL     OW21451   1.285   5.592   5.297
 6851SOL    HW121452   1.356   5.525   5.318
 6851SOL    HW221453   1.319   5.656   5.228
 6852SOL     OW21454   0.249   4.885   2.000
 6852SOL    HW121455   0.347   4.867   2.003
 6852SOL    HW221456   0.230   4.953   1.929
 6853SOL     OW21457   6.565   3.560   5.327
 6853SOL    HW121458   6.525   3.513   5.249
 6853SOL    HW221459   6.494   3.610   5.376
 6854SOL     OW21460   0.390   2.222   6.816
 6854SOL    HW121461   0.291   2.231   6.817
 6854SOL    HW221462   0.432   2.311   6.831
 6855SOL     OW21463   3.050   6.366   2.149
 6855SOL    HW121464   2.959   6.331   2.173
 6855SOL    HW221465   3.040   6.447   2.091
 6856SOL     OW21466   0.562   4.871   5.068
 6856SOL    HW121467   0.649   4.889   5.115
 6856SOL    HW221468   0.563   4.914   4.978
 6857SOL     OW21469   3.899   1.277   5.855
 6857SOL    HW121470   3.941   1.240   5.772
 6857SOL    HW221471   3.936   1.368   5.874
 6858SOL     OW21472   3.778   2.547   5.298
 6858SOL    HW121473   3.828   2.539   5.384
 6858SOL    HW221474   3.686   2.510   5.309
 6859SOL     OW21475   3.630   0.442   0.237
 6859SOL    HW121476   3.587   0.531   0.222
 6859SOL    HW221477   3.717   0.438   0.188
 6860SOL     OW21478   4.394   4.793   0.104
 6860SOL    HW121479   4.430   4.705   0.072
 6860SOL    HW221480   4.332   4.830   0.035
 6861SOL     OW21481   5.691   4.297   0.708
 6861SOL    HW121482   5.666   4.373   0.649
 6861SOL    HW221483   5.656   4.211   0.669
 6862SOL     OW21484   3.386   5.386   3.770
 6862SOL    HW121485   3.462   5.419   3.827
 6862SOL    HW221486   3.411   5.299   3.728
 6863SOL     OW21487   0.591   3.068   3.610
 6863SOL    HW121488   0.682   3.030   3.631
 6863SOL    HW221489   0.601   3.156   3.565
 6864SOL     OW21490   4.379   5.604   5.698
 6864SOL    HW121491   4.459   5.638   5.650
 6864SOL    HW221492   4.352   5.515   5.660
 6865SOL     OW21493   6.119   3.355   4.609
 6865SOL    HW121494   6.173   3.436   4.633
 6865SOL    HW221495   6.173   3.273   4.625
 6866SOL     OW21496   0.856   3.551   1.928
 6866SOL    HW121497   0.810   3.499   1.856
 6866SOL    HW221498   0.845   3.504   2.016
 6867SOL     OW21499   2.520   4.497   2.388
 6867SOL    HW121500   2.545   4.573   2.448
 6867SOL    HW221501   2.602   4.460   2.345
 6868SOL     OW21502   1.926   5.167   5.077
 6868SOL    HW121503   1.928   5.091   5.142
 6868SOL    HW221504   1.864   5.144   5.002
 6869SOL     OW21505   6.516   3.522   4.888
 6869SOL    HW121506   6.488   3.521   4.792
 6869SOL    HW221507   6.616   3.522   4.893
 6870SOL     OW21508   5.391   3.907   2.265
 6870SOL    HW121509   5.426   3.828   2.214
 6870SOL    HW221510   5.295   3.921   2.242
 6871SOL     OW21511   4.715   0.319   1.364
 6871SOL    HW121512   4.628   0.281   1.393
 6871SOL    HW221513   4.712   0.419   1.372
 6872SOL     OW21514   2.888   3.512   7.011
 6872SOL    HW121515   2.830   3.567   6.951
 6872SOL    HW221516   2.832   3.443   0.036
 6873SOL     OW21517   5.434   4.001   5.799
 6873SOL    HW121518   5.520   3.952   5.785
 6873SOL    HW221519   5.453   4.095   5.826
 6874SOL     OW21520   1.192   2.644   5.499
 6874SOL    HW121521   1.129   2.581   5.454
 6874SOL    HW221522   1.155   2.737   5.497
 6875SOL     OW21523   2.914   1.655   3.913
 6875SOL    HW121524   2.886   1.583   3.977
 6875SOL    HW221525   2.947   1.612   3.829
 6876SOL     OW21526   3.564   6.524   5.543
 6876SOL    HW121527   3.581   6.487   5.634
 6876SOL    HW221528   3.604   6.462   5.475
 6877SOL     OW21529   2.575   3.815   6.905
 6877SOL    HW121530   2.670   3.829   6.933
 6877SOL    HW221531   2.518   3.801   6.986
 6878SOL     OW21532   1.503   1.737   4.999
 6878SOL    HW121533   1.553   1.754   4.914
 6878SOL    HW221534   1.553   1.669   5.054
 6879SOL     OW21535   0.937   1.344   5.767
 6879SOL    HW121536   0.945   1.281   5.844
 6879SOL    HW221537   0.930   1.438   5.801
 6880SOL     OW21538   1.918   4.260   5.129
 6880SOL    HW121539   1.963   4.202   5.197
 6880SOL    HW221540   1.982   4.280   5.055
 6881SOL     OW21541   6.457   4.783   1.636
 6881SOL    HW121542   6.440   4.687   1.657
 6881SOL    HW221543   6.374   4.836   1.653
 6882SOL     OW21544   2.183   6.996   5.119
 6882SOL    HW121545   2.240   0.033   5.176
 6882SOL    HW221546   2.139   0.029   5.048
 6883SOL     OW21547   3.149   5.913   1.453
 6883SOL    HW121548   3.201   5.998   1.466
 6883SOL    HW221549   3.122   5.876   1.542
 6884SOL     OW21550   2.909   4.941   3.073
 6884SOL    HW121551   2.938   4.883   3.149
 6884SOL    HW221552   2.901   5.036   3.104
 6885SOL     OW21553   3.691   5.324   5.061
 6885SOL    HW121554   3.753   5.300   5.136
 6885SOL    HW221555   3.603   5.279   5.075
 6886SOL     OW21556   5.360   2.210   2.382
 6886SOL    HW121557   5.336   2.276   2.453
 6886SOL    HW221558   5.291   2.214   2.309
 6887SOL     OW21559   4.915   0.540   4.696
 6887SOL    HW121560   4.845   0.597   4.739
 6887SOL    HW221561   4.950   0.586   4.614
 6888SOL     OW21562   5.094   5.863   4.846
 6888SOL    HW121563   5.186   5.828   4.860
 6888SOL    HW221564   5.085   5.895   4.751
 6889SOL     OW21565   1.380   4.124   6.273
 6889SOL    HW121566   1.318   4.115   6.194
 6889SOL    HW221567   1.389   4.221   6.296
 6890SOL     OW21568   2.239   0.593   0.275
 6890SOL    HW121569   2.324   0.641   0.297
 6890SOL    HW221570   2.165   0.660   0.263
 6891SOL     OW21571   3.252   5.262   4.838
 6891SOL    HW121572   3.338   5.308   4.857
 6891SOL    HW221573   3.266   5.194   4.765
 6892SOL     OW21574   4.177   1.178   4.075
 6892SOL    HW121575   4.265   1.200   4.031
 6892SOL    HW221576   4.126   1.115   4.017
 6893SOL     OW21577   6.207   6.966   2.338
 6893SOL    HW121578   6.247   6.881   2.372
 6893SOL    HW221579   6.183   6.956   2.242
 6894SOL     OW21580   6.131   4.632   6.046
 6894SOL    HW121581   6.147   4.645   6.144
 6894SOL    HW221582   6.122   4.534   6.027
 6895SOL     OW21583   4.097   5.163   6.803
 6895SOL    HW121584   4.129   5.256   6.790
 6895SOL    HW221585   4.007   5.152   6.761
 6896SOL     OW21586   4.287   6.661   3.395
 6896SOL    HW121587   4.338   6.610   3.465
 6896SOL    HW221588   4.218   6.719   3.440
 6897SOL     OW21589   3.681   2.130   0.686
 6897SOL    HW121590   3.684   2.226   0.659
 6897SOL    HW221591   3.686   2.123   0.785
 6898SOL     OW21592   4.025   1.567   2.689
 6898SOL    HW121593   3.996   1.648   2.639
 6898SOL    HW221594   4.023   1.488   2.629
 6899SOL     OW21595   5.565   6.641   6.902
 6899SOL    HW121596   5.520   6.558   6.867
 6899SOL    HW221597   5.533   6.660   6.995
 6900SOL     OW21598   4.009   1.357   5.330
 6900SOL    HW121599   4.098   1.357   5.377
 6900SOL    HW221600   3.994   1.268   5.287
 6901SOL     OW21601   1.646   0.610   0.273
 6901SOL    HW121602   1.742   0.583   0.270
 6901SOL    HW221603   1.592   0.546   0.217
 6902SOL     OW21604   6.342   5.375   1.490
 6902SOL    HW121605   6.310   5.391   1.396
 6902SOL    HW221606   6.392   5.456   1.522
 6903SOL     OW21607   4.128   4.014   1.219
 6903SOL    HW121608   4.222   4.001   1.186
 6903SOL    HW221609   4.103   3.937   1.278
 6904SOL     OW21610   0.052   1.556   3.140
 6904SOL    HW121611   0.083   1.506   3.059
 6904SOL    HW221612   6.991   1.512   3.176
 6905SOL     OW21613   4.311   4.813   0.971
 6905SOL    HW121614   4.351   4.825   0.880
 6905SOL    HW221615   4.212   4.828   0.965
 6906SOL     OW21616   4.187   5.938   3.893
 6906SOL    HW121617   4.179   5.849   3.939
 6906SOL    HW221618   4.236   5.925   3.806
 6907SOL     OW21619   3.665   1.580   1.508
 6907SOL    HW121620   3.648   1.604   1.412
 6907SOL    HW221621   3.758   1.606   1.533
 6908SOL     OW21622   7.005   6.621   6.733
 6908SOL    HW121623   6.918   6.609   6.686
 6908SOL    HW221624   0.025   6.708   6.706
 6909SOL     OW21625   4.831   3.206   6.794
 6909SOL    HW121626   4.774   3.167   6.865
 6909SOL    HW221627   4.880   3.286   6.830
 6910SOL     OW21628   6.576   1.325   2.197
 6910SOL    HW121629   6.477   1.339   2.198
 6910SOL    HW221630   6.597   1.234   2.234
 6911SOL     OW21631   4.114   0.938   5.184
 6911SOL    HW121632   4.177   0.872   5.143
 6911SOL    HW221633   4.086   0.905   5.275
 6912SOL     OW21634   4.956   5.138   1.418
 6912SOL    HW121635   5.003   5.184   1.493
 6912SOL    HW221636   4.982   5.041   1.417
 6913SOL     OW21637   4.810   5.426   5.246
 6913SOL    HW121638   4.716   5.435   5.279
 6913SOL    HW221639   4.848   5.517   5.227
 6914SOL     OW21640   6.141   4.779   0.276
 6914SOL    HW121641   6.148   4.731   0.364
 6914SOL    HW221642   6.166   4.718   0.202
 6915SOL     OW21643   1.129   5.771   1.390
 6915SOL    HW121644   1.173   5.691   1.432
 6915SOL    HW221645   1.174   5.793   1.304
 6916SOL     OW21646   6.740   1.690   6.835
 6916SOL    HW121647   6.735   1.641   6.747
 6916SOL    HW221648   6.817   1.753   6.833
 6917SOL     OW21649   5.036   6.978   6.663
 6917SOL    HW121650   4.949   7.006   6.622
 6917SOL    HW221651   5.042   7.016   6.756
 6918SOL     OW21652   2.293   2.788   3.492
 6918SOL    HW121653   2.257   2.879   3.476
 6918SOL    HW221654   2.338   2.755   3.408
 6919SOL     OW21655   1.385   6.200   3.408
 6919SOL    HW121656   1.436   6.285   3.419
 6919SOL    HW221657   1.446   6.128   3.376
 6920SOL     OW21658   4.616   6.265   4.738
 6920SOL    HW121659   4.636   6.352   4.783
 6920SOL    HW221660   4.565   6.281   4.654
 6921SOL     OW21661   0.105   6.539   2.911
 6921SOL    HW121662   0.143   6.515   2.822
 6921SOL    HW221663   0.179   6.564   2.973
 6922SOL     OW21664   1.332   5.648   0.136
 6922SOL    HW121665   1.384   5.707   0.199
 6922SOL    HW221666   1.382   5.640   0.050
 6923SOL     OW21667   4.541   6.657   4.313
 6923SOL    HW121668   4.634   6.676   4.281
 6923SOL    HW221669   4.510   6.731   4.372
 6924SOL     OW21670   6.571   5.761   1.500
 6924SOL    HW121671   6.625   5.807   1.571
 6924SOL    HW221672   6.542   5.828   1.432
 6925SOL     OW21673   5.857   5.650   3.022
 6925SOL    HW121674   5.925   5.707   3.067
 6925SOL    HW221675   5.768   5.695   3.026
 6926SOL     OW21676   2.992   3.638   4.931
 6926SOL    HW121677   2.943   3.557   4.899
 6926SOL    HW221678   2.940   3.681   5.006
 6927SOL     OW21679   4.544   3.602   6.146
 6927SOL    HW121680   4.452   3.562   6.141
 6927SOL    HW221681   4.611   3.535   6.116
 6928SOL     OW21682   6.191   6.935   6.572
 6928SOL    HW121683   6.273   6.927   6.629
 6928SOL    HW221684   6.110   6.946   6.630
 6929SOL     OW21685   3.638   5.083   0.216
 6929SOL    HW121686   3.700   5.059   0.142
 6929SOL    HW221687   3.587   5.166   0.191
 6930SOL     OW21688   1.127   6.605   3.032
 6930SOL    HW121689   1.063   6.529   3.045
 6930SOL    HW221690   1.191   6.609   3.109
 6931SOL     OW21691   1.328   0.987   1.863
 6931SOL    HW121692   1.263   1.009   1.791
 6931SOL    HW221693   1.365   1.072   1.901
 6932SOL     OW21694   2.766   2.143   0.081
 6932SOL    HW121695   2.832   2.077   0.118
 6932SOL    HW221696   2.811   2.232   0.071
 6933SOL     OW21697   3.662   6.559   6.800
 6933SOL    HW121698   3.729   6.561   6.726
 6933SOL    HW221699   3.571   6.545   6.762
 6934SOL     OW21700   6.096   4.378   5.981
 6934SOL    HW121701   6.131   4.320   6.055
 6934SOL    HW221702   5.997   4.387   5.990
 6935SOL     OW21703   4.373   5.393   3.503
 6935SOL    HW121704   4.417   5.403   3.592
 6935SOL    HW221705   4.443   5.383   3.432
 6936SOL     OW21706   1.517   4.240   1.356
 6936SOL    HW121707   1.426   4.280   1.363
 6936SOL    HW221708   1.576   4.277   1.428
 6937SOL     OW21709   4.336   6.767   6.148
 6937SOL    HW121710   4.310   6.812   6.234
 6937SOL    HW221711   4.278   6.802   6.074
 6938SOL     OW21712   5.702   2.079   4.900
 6938SOL    HW121713   5.616   2.062   4.853
 6938SOL    HW221714   5.775   2.092   4.833
 6939SOL     OW21715   0.763   5.371   2.672
 6939SOL    HW121716   0.689   5.407   2.616
 6939SOL    HW221717   0.798   5.286   2.630
 6940SOL     OW21718   3.674   0.660   5.249
 6940SOL    HW121719   3.595   0.618   5.294
 6940SOL    HW221720   3.656   0.758   5.236
 6941SOL     OW21721   3.816   2.931   3.227
 6941SOL    HW121722   3.813   2.973   3.136
 6941SOL    HW221723   3.829   2.832   3.218
 6942SOL     OW21724   6.994   1.433   0.503
 6942SOL    HW121725   6.920   1.426   0.436
 6942SOL    HW221726   0.026   1.348   0.501
 6943SOL     OW21727   5.348   5.854   6.817
 6943SOL    HW121728   5.304   5.795   6.885
 6943SOL    HW221729   5.360   5.803   6.731
 6944SOL     OW21730   1.480   6.618   6.273
 6944SOL    HW121731   1.475   6.703   6.219
 6944SOL    HW221732   1.401   6.561   6.251
 6945SOL     OW21733   4.754   1.884   5.396
 6945SOL    HW121734   4.667   1.923   5.366
 6945SOL    HW221735   4.814   1.957   5.428
 6946SOL     OW21736   6.032   4.620   3.826
 6946SOL    HW121737   6.130   4.600   3.824
 6946SOL    HW221738   6.004   4.643   3.919
 6947SOL     OW21739   3.853   7.012   2.956
 6947SOL    HW121740   3.836   6.997   3.053
 6947SOL    HW221741   3.837   6.928   2.905
 6948SOL     OW21742   3.966   1.904   4.854
 6948SOL    HW121743   3.866   1.895   4.860
 6948SOL    HW221744   3.997   1.875   4.763
 6949SOL     OW21745   5.340   0.716   2.438
 6949SOL    HW121746   5.241   0.727   2.435
 6949SOL    HW221747   5.384   0.796   2.398
 6950SOL     OW21748   2.048   0.873   3.331
 6950SOL    HW121749   1.974   0.854   3.266
 6950SOL    HW221750   2.125   0.812   3.312
 6951SOL     OW21751   5.554   5.263   5.787
 6951SOL    HW121752   5.522   5.171   5.763
 6951SOL    HW221753   5.573   5.267   5.885
 6952SOL     OW21754   0.461   5.163   4.849
 6952SOL    HW121755   0.479   5.225   4.773
 6952SOL    HW221756   0.414   5.212   4.923
 6953SOL     OW21757   5.102   1.567   5.295
 6953SOL    HW121758   5.047   1.631   5.242
 6953SOL    HW221759   5.135   1.494   5.236
 6954SOL     OW21760   0.438   5.166   3.206
 6954SOL    HW121761   0.363   5.109   3.240
 6954SOL    HW221762   0.414   5.202   3.115
 6955SOL     OW21763   6.150   5.306   2.426
 6955SOL    HW121764   6.121   5.401   2.439
 6955SOL    HW221765   6.071   5.249   2.404
 6956SOL     OW21766   3.244   4.808   1.131
 6956SOL    HW121767   3.321   4.855   1.174
 6956SOL    HW221768   3.190   4.761   1.202
 6957SOL     OW21769   0.588   4.089   0.338
 6957SOL    HW121770   0.668   4.135   0.376
 6957SOL    HW221771   0.526   4.063   0.412
 6958SOL     OW21772   2.526   3.715   6.216
 6958SOL    HW121773   2.484   3.776   6.283
 6958SOL    HW221774   2.576   3.769   6.148
 6959SOL     OW21775   3.181   1.220   4.267
 6959SOL    HW121776   3.264   1.271   4.243
 6959SOL    HW221777   3.206   1.124   4.282
 6960SOL     OW21778   6.928   4.977   6.907
 6960SOL    HW121779   6.957   4.892   6.951
 6960SOL    HW221780   6.858   5.021   6.963
 6961SOL     OW21781   6.698   1.604   3.001
 6961SOL    HW121782   6.608   1.608   3.044
 6961SOL    HW221783   6.724   1.508   2.987
 6962SOL     OW21784   4.544   3.375   0.514
 6962SOL    HW121785   4.608   3.298   0.517
 6962SOL    HW221786   4.490   3.376   0.598
 6963SOL     OW21787   6.023   5.621   1.954
 6963SOL    HW121788   6.055   5.626   2.048
 6963SOL    HW221789   6.092   5.577   1.897
 6964SOL     OW21790   4.008   6.156   5.429
 6964SOL    HW121791   4.041   6.112   5.345
 6964SOL    HW221792   4.086   6.182   5.486
 6965SOL     OW21793   6.739   3.279   5.905
 6965SOL    HW121794   6.800   3.333   5.847
 6965SOL    HW221795   6.743   3.314   5.999
 6966SOL     OW21796   4.558   2.476   3.926
 6966SOL    HW121797   4.605   2.564   3.932
 6966SOL    HW221798   4.621   2.407   3.889
 6967SOL     OW21799   2.284   1.514   6.837
 6967SOL    HW121800   2.220   1.492   6.910
 6967SOL    HW221801   2.238   1.510   6.749
 6968SOL     OW21802   5.010   0.163   2.087
 6968SOL    HW121803   5.052   0.224   2.154
 6968SOL    HW221804   4.943   0.105   2.133
 6969SOL     OW21805   3.454   1.436   1.425
 6969SOL    HW121806   3.396   1.506   1.466
 6969SOL    HW221807   3.546   1.442   1.463
 6970SOL     OW21808   4.927   3.601   0.380
 6970SOL    HW121809   4.829   3.597   0.398
 6970SOL    HW221810   4.978   3.570   0.460
 6971SOL     OW21811   5.848   0.754   2.540
 6971SOL    HW121812   5.850   0.681   2.471
 6971SOL    HW221813   5.913   0.734   2.612
 6972SOL     OW21814   5.463   4.698   4.431
 6972SOL    HW121815   5.419   4.782   4.463
 6972SOL    HW221816   5.460   4.695   4.331
 6973SOL     OW21817   2.307   4.890   4.060
 6973SOL    HW121818   2.364   4.871   4.141
 6973SOL    HW221819   2.217   4.848   4.072
 6974SOL     OW21820   3.577   3.819   4.876
 6974SOL    HW121821   3.527   3.791   4.795
 6974SOL    HW221822   3.673   3.834   4.852
 6975SOL     OW21823   3.549   1.460   5.641
 6975SOL    HW121824   3.495   1.522   5.585
 6975SOL    HW221825   3.646   1.467   5.616
 6976SOL     OW21826   1.878   5.096   7.013
 6976SOL    HW121827   1.941   5.132   0.061
 6976SOL    HW221828   1.930   5.058   6.937
 6977SOL     OW21829   3.755   2.118   2.669
 6977SOL    HW121830   3.838   2.153   2.626
 6977SOL    HW221831   3.682   2.113   2.601
 6978SOL     OW21832   6.455   0.939   2.691
 6978SOL    HW121833   6.414   1.009   2.633
 6978SOL    HW221834   6.461   0.853   2.640
 6979SOL     OW21835   0.407   4.763   3.254
 6979SOL    HW121836   0.493   4.748   3.303
 6979SOL    HW221837   0.335   4.783   3.321
 6980SOL     OW21838   3.483   1.015   4.340
 6980SOL    HW121839   3.528   1.014   4.251
 6980SOL    HW221840   3.403   0.955   4.337
 6981SOL     OW21841   2.780   4.772   6.659
 6981SOL    HW121842   2.836   4.724   6.591
 6981SOL    HW221843   2.687   4.782   6.624
 6982SOL     OW21844   0.096   6.765   4.709
 6982SOL    HW121845   0.052   6.809   4.631
 6982SOL    HW221846   0.154   6.690   4.676
 6983SOL     OW21847   5.984   0.886   3.781
 6983SOL    HW121848   5.927   0.916   3.858
 6983SOL    HW221849   6.078   0.918   3.794
 6984SOL     OW21850   1.768   1.410   6.790
 6984SOL    HW121851   1.851   1.406   6.846
 6984SOL    HW221852   1.695   1.456   6.841
 6985SOL     OW21853   4.641   6.521   2.261
 6985SOL    HW121854   4.604   6.439   2.216
 6985SOL    HW221855   4.641   6.597   2.196
 6986SOL     OW21856   2.090   6.592   5.041
 6986SOL    HW121857   2.159   6.531   5.079
 6986SOL    HW221858   2.000   6.570   5.080
 6987SOL     OW21859   0.222   3.551   6.625
 6987SOL    HW121860   0.190   3.524   6.716
 6987SOL    HW221861   0.183   3.489   6.557
 6988SOL     OW21862   4.762   1.008   4.853
 6988SOL    HW121863   4.731   1.064   4.776
 6988SOL    HW221864   4.801   1.066   4.924
 6989SOL     OW21865   1.430   2.529   4.389
 6989SOL    HW121866   1.398   2.441   4.355
 6989SOL    HW221867   1.416   2.599   4.319
 6990SOL     OW21868   4.029   3.344   0.040
 6990SOL    HW121869   4.012   3.261   7.008
 6990SOL    HW221870   4.112   3.389   0.006
 6991SOL     OW21871   4.287   4.393   5.518
 6991SOL    HW121872   4.276   4.302   5.560
 6991SOL    HW221873   4.199   4.440   5.519
 6992SOL     OW21874   5.168   6.771   5.287
 6992SOL    HW121875   5.124   6.755   5.199
 6992SOL    HW221876   5.101   6.808   5.351
 6993SOL     OW21877   0.434   6.962   2.833
 6993SOL    HW121878   0.397   6.997   2.918
 6993SOL    HW221879   0.436   6.862   2.836
 6994SOL     OW21880   1.267   2.956   0.010
 6994SOL    HW121881   1.347   2.901   0.032
 6994SOL    HW221882   1.191   2.930   0.070
 6995SOL     OW21883   0.450   5.748   2.982
 6995SOL    HW121884   0.458   5.837   3.026
 6995SOL    HW221885   0.536   5.724   2.938
 6996SOL     OW21886   2.241   6.649   5.983
 6996SOL    HW121887   2.260   6.575   5.918
 6996SOL    HW221888   2.273   6.735   5.944
 6997SOL     OW21889   4.749   0.180   4.469
 6997SOL    HW121890   4.730   0.089   4.506
 6997SOL    HW221891   4.676   0.205   4.404
 6998SOL     OW21892   1.594   2.866   3.329
 6998SOL    HW121893   1.682   2.869   3.283
 6998SOL    HW221894   1.548   2.779   3.309
 6999SOL     OW21895   3.591   1.716   6.517
 6999SOL    HW121896   3.500   1.721   6.558
 6999SOL    HW221897   3.654   1.773   6.569
 7000SOL     OW21898   6.949   6.361   1.433
 7000SOL    HW121899   0.018   6.398   1.450
 7000SOL    HW221900   6.914   6.394   1.345
 7001SOL     OW21901   2.730   1.902   5.536
 7001SOL    HW121902   2.717   1.995   5.501
 7001SOL    HW221903   2.652   1.877   5.593
 7002SOL     OW21904   1.753   5.166   2.970
 7002SOL    HW121905   1.713   5.085   3.014
 7002SOL    HW221906   1.824   5.136   2.906
 7003SOL     OW21907   2.674   6.266   0.097
 7003SOL    HW121908   2.660   6.361   0.125
 7003SOL    HW221909   2.720   6.216   0.171
 7004SOL     OW21910   0.886   5.007   0.739
 7004SOL    HW121911   0.814   4.983   0.673
 7004SOL    HW221912   0.844   5.031   0.826
 7005SOL     OW21913   5.342   6.752   5.486
 7005SOL    HW121914   5.323   6.684   5.557
 7005SOL    HW221915   5.271   6.748   5.416
 7006SOL     OW21916   4.263   4.813   5.140
 7006SOL    HW121917   4.269   4.715   5.122
 7006SOL    HW221918   4.169   4.844   5.125
 7007SOL     OW21919   5.023   5.164   2.382
 7007SOL    HW121920   5.109   5.137   2.338
 7007SOL    HW221921   4.947   5.147   2.318
 7008SOL     OW21922   0.770   4.776   4.416
 7008SOL    HW121923   0.851   4.750   4.363
 7008SOL    HW221924   0.786   4.865   4.459
 7009SOL     OW21925   0.233   4.585   2.400
 7009SOL    HW121926   0.318   4.582   2.347
 7009SOL    HW221927   0.241   4.524   2.479
 7010SOL     OW21928   4.288   4.878   6.479
 7010SOL    HW121929   4.208   4.900   6.536
 7010SOL    HW221930   4.340   4.962   6.462
 7011SOL     OW21931   2.409   1.647   4.749
 7011SOL    HW121932   2.471   1.570   4.733
 7011SOL    HW221933   2.452   1.732   4.716
 7012SOL     OW21934   1.230   1.264   2.353
 7012SOL    HW121935   1.197   1.237   2.263
 7012SOL    HW221936   1.324   1.299   2.346
 7013SOL     OW21937   0.827   0.747   2.194
 7013SOL    HW121938   0.807   0.656   2.157
 7013SOL    HW221939   0.919   0.775   2.165
 7014SOL     OW21940   2.473   4.858   1.486
 7014SOL    HW121941   2.537   4.867   1.562
 7014SOL    HW221942   2.450   4.762   1.473
 7015SOL     OW21943   4.945   2.565   2.247
 7015SOL    HW121944   5.045   2.571   2.239
 7015SOL    HW221945   4.904   2.652   2.218
 7016SOL     OW21946   3.258   4.844   0.571
 7016SOL    HW121947   3.283   4.811   0.662
 7016SOL    HW221948   3.182   4.908   0.579
 7017SOL     OW21949   3.995   1.558   4.153
 7017SOL    HW121950   4.093   1.574   4.144
 7017SOL    HW221951   3.970   1.555   4.250
 7018SOL     OW21952   7.005   5.347   4.062
 7018SOL    HW121953   6.949   5.265   4.050
 7018SOL    HW221954   0.080   5.322   4.060
 7019SOL     OW21955   2.088   6.155   0.347
 7019SOL    HW121956   2.136   6.069   0.330
 7019SOL    HW221957   2.117   6.223   0.280
 7020SOL     OW21958   6.968   6.817   5.971
 7020SOL    HW121959   6.985   6.733   6.024
 7020SOL    HW221960   7.007   6.807   5.880
 7021SOL     OW21961   3.270   1.039   6.018
 7021SOL    HW121962   3.262   1.035   5.919
 7021SOL    HW221963   3.342   1.104   6.043
 7022SOL     OW21964   5.296   5.418   6.467
 7022SOL    HW121965   5.226   5.370   6.413
 7022SOL    HW221966   5.380   5.364   6.466
 7023SOL     OW21967   6.294   4.223   2.818
 7023SOL    HW121968   6.310   4.137   2.866
 7023SOL    HW221969   6.209   4.264   2.851
 7024SOL     OW21970   0.386   6.248   0.680
 7024SOL    HW121971   0.385   6.290   0.589
 7024SOL    HW221972   0.382   6.149   0.670
 7025SOL     OW21973   2.607   0.473   6.101
 7025SOL    HW121974   2.546   0.497   6.176
 7025SOL    HW221975   2.646   0.382   6.117
 7026SOL     OW21976   4.408   1.919   0.925
 7026SOL    HW121977   4.312   1.894   0.907
 7026SOL    HW221978   4.450   1.951   0.840
 7027SOL     OW21979   4.388   0.093   4.727
 7027SOL    HW121980   4.301   0.105   4.679
 7027SOL    HW221981   4.458   0.063   4.661
 7028SOL     OW21982   3.232   6.498   4.698
 7028SOL    HW121983   3.227   6.508   4.599
 7028SOL    HW221984   3.162   6.556   4.740
 7029SOL     OW21985   3.160   0.497   5.038
 7029SOL    HW121986   3.254   0.527   5.058
 7029SOL    HW221987   3.163   0.426   4.968
 7030SOL     OW21988   2.169   4.142   4.050
 7030SOL    HW121989   2.183   4.112   3.955
 7030SOL    HW221990   2.209   4.075   4.112
 7031SOL     OW21991   2.580   6.841   5.196
 7031SOL    HW121992   2.501   6.856   5.136
 7031SOL    HW221993   2.564   6.888   5.283
 7032SOL     OW21994   5.812   1.534   2.445
 7032SOL    HW121995   5.865   1.603   2.495
 7032SOL    HW221996   5.785   1.461   2.508
 7033SOL     OW21997   6.402   0.277   4.135
 7033SOL    HW121998   6.308   0.270   4.168
 7033SOL    HW221999   6.428   0.373   4.126
 7034SOL     OW22000   6.763   5.627   2.950
 7034SOL    HW122001   6.862   5.609   2.945
 7034SOL    HW222002   6.747   5.725   2.956
 7035SOL     OW22003   6.502   5.263   2.058
 7035SOL    HW122004   6.567   5.235   2.129
 7035SOL    HW222005   6.410   5.266   2.097
 7036SOL     OW22006   6.773   4.479   1.379
 7036SOL    HW122007   6.815   4.460   1.290
 7036SOL    HW222008   6.844   4.478   1.449
 7037SOL     OW22009   1.114   6.695   6.851
 7037SOL    HW122010   1.208   6.666   6.837
 7037SOL    HW222011   1.068   6.630   6.911
 7038SOL     OW22012   1.522   4.109   4.061
 7038SOL    HW122013   1.434   4.125   4.015
 7038SOL    HW222014   1.518   4.144   4.154
 7039SOL     OW22015   4.309   1.442   6.316
 7039SOL    HW122016   4.243   1.405   6.381
 7039SOL    HW222017   4.289   1.407   6.225
 7040SOL     OW22018   4.986   2.715   6.184
 7040SOL    HW122019   4.945   2.637   6.231
 7040SOL    HW222020   5.062   2.683   6.128
 7041SOL     OW22021   2.458   1.501   2.293
 7041SOL    HW122022   2.384   1.497   2.225
 7041SOL    HW222023   2.460   1.415   2.344
 7042SOL     OW22024   2.231   0.416   6.558
 7042SOL    HW122025   2.324   0.455   6.558
 7042SOL    HW222026   2.235   0.323   6.522
 7043SOL     OW22027   1.626   2.219   3.186
 7043SOL    HW122028   1.569   2.275   3.246
 7043SOL    HW222029   1.609   2.244   3.091
 7044SOL     OW22030   4.829   6.131   2.091
 7044SOL    HW122031   4.869   6.222   2.080
 7044SOL    HW222032   4.769   6.131   2.172
 7045SOL     OW22033   5.504   5.219   0.932
 7045SOL    HW122034   5.512   5.166   1.016
 7045SOL    HW222035   5.584   5.202   0.874
 7046SOL     OW22036   2.387   1.096   4.448
 7046SOL    HW122037   2.393   1.005   4.490
 7046SOL    HW222038   2.337   1.088   4.361
 7047SOL     OW22039   2.053   1.342   3.875
 7047SOL    HW122040   1.954   1.324   3.877
 7047SOL    HW222041   2.086   1.354   3.968
 7048SOL     OW22042   6.513   6.629   0.285
 7048SOL    HW122043   6.454   6.667   0.214
 7048SOL    HW222044   6.537   6.700   0.350
 7049SOL     OW22045   2.175   1.136   0.837
 7049SOL    HW122046   2.146   1.119   0.743
 7049SOL    HW222047   2.109   1.196   0.881
 7050SOL     OW22048   3.991   3.892   4.989
 7050SOL    HW122049   3.957   3.804   4.958
 7050SOL    HW222050   3.923   3.963   4.972
 7051SOL     OW22051   6.145   6.884   2.056
 7051SOL    HW122052   6.048   6.897   2.075
 7051SOL    HW222053   6.160   6.884   1.957
 7052SOL     OW22054   6.458   1.789   3.170
 7052SOL    HW122055   6.432   1.866   3.228
 7052SOL    HW222056   6.536   1.741   3.209
 7053SOL     OW22057   6.819   4.656   6.517
 7053SOL    HW122058   6.837   4.562   6.485
 7053SOL    HW222059   6.870   4.720   6.459
 7054SOL     OW22060   6.975   0.178   1.436
 7054SOL    HW122061   6.893   0.166   1.492
 7054SOL    HW222062   6.954   0.238   1.359
 7055SOL     OW22063   3.315   6.950   5.356
 7055SOL    HW122064   3.239   6.885   5.351
 7055SOL    HW222065   3.293   7.021   5.423
 7056SOL     OW22066   4.659   5.217   3.550
 7056SOL    HW122067   4.612   5.282   3.609
 7056SOL    HW222068   4.642   5.124   3.581
 7057SOL     OW22069   0.796   6.245   2.995
 7057SOL    HW122070   0.829   6.152   3.011
 7057SOL    HW222071   0.700   6.252   3.020
 7058SOL     OW22072   0.725   5.276   5.206
 7058SOL    HW122073   0.756   5.190   5.166
 7058SOL    HW222074   0.697   5.261   5.300
 7059SOL     OW22075   1.652   0.187   2.608
 7059SOL    HW122076   1.570   0.132   2.624
 7059SOL    HW222077   1.678   0.234   2.692
 7060SOL     OW22078   2.785   0.073   1.310
 7060SOL    HW122079   2.706   0.012   1.319
 7060SOL    HW222080   2.866   0.026   1.346
 7061SOL     OW22081   0.169   1.204   2.589
 7061SOL    HW122082   0.095   1.231   2.527
 7061SOL    HW222083   0.256   1.237   2.553
 7062SOL     OW22084   6.307   1.535   5.168
 7062SOL    HW122085   6.233   1.525   5.235
 7062SOL    HW222086   6.342   1.444   5.144
 7063SOL     OW22087   2.759   6.722   1.651
 7063SOL    HW122088   2.840   6.750   1.600
 7063SOL    HW222089   2.768   6.749   1.746
 7064SOL     OW22090   4.222   2.268   0.243
 7064SOL    HW122091   4.203   2.178   0.205
 7064SOL    HW222092   4.213   2.338   0.172
 7065SOL     OW22093   4.545   4.011   1.683
 7065SOL    HW122094   4.529   4.039   1.588
 7065SOL    HW222095   4.529   4.088   1.744
 7066SOL     OW22096   3.630   6.404   0.389
 7066SOL    HW122097   3.572   6.339   0.439
 7066SOL    HW222098   3.716   6.361   0.364
 7067SOL     OW22099   0.150   4.153   5.087
 7067SOL    HW122100   0.216   4.228   5.090
 7067SOL    HW222101   0.183   4.082   5.025
 7068SOL     OW22102   0.895   0.851   3.000
 7068SOL    HW122103   0.844   0.927   3.040
 7068SOL    HW222104   0.878   0.768   3.053
 7069SOL     OW22105   1.430   4.127   5.076
 7069SOL    HW122106   1.359   4.189   5.044
 7069SOL    HW222107   1.508   4.179   5.110
 7070SOL     OW22108   5.883   5.619   4.678
 7070SOL    HW122109   5.802   5.676   4.668
 7070SOL    HW222110   5.929   5.639   4.765
 7071SOL     OW22111   1.230   6.597   5.228
 7071SOL    HW122112   1.134   6.604   5.256
 7071SOL    HW222113   1.287   6.582   5.309
 7072SOL     OW22114   0.219   6.494   6.597
 7072SOL    HW122115   0.215   6.403   6.556
 7072SOL    HW222116   0.127   6.523   6.623
 7073SOL     OW22117   0.875   0.928   6.072
 7073SOL    HW122118   0.878   0.925   6.172
 7073SOL    HW222119   0.936   0.858   6.034
 7074SOL     OW22120   3.619   2.666   1.393
 7074SOL    HW122121   3.579   2.593   1.449
 7074SOL    HW222122   3.713   2.682   1.422
 7075SOL     OW22123   1.084   5.336   3.331
 7075SOL    HW122124   1.109   5.319   3.236
 7075SOL    HW222125   1.016   5.268   3.360
 7076SOL     OW22126   2.853   2.610   6.905
 7076SOL    HW122127   2.768   2.648   6.867
 7076SOL    HW222128   2.903   2.561   6.834
 7077SOL     OW22129   2.271   5.522   5.837
 7077SOL    HW122130   2.206   5.499   5.765
 7077SOL    HW222131   2.235   5.489   5.925
 7078SOL     OW22132   6.431   0.688   2.955
 7078SOL    HW122133   6.384   0.654   2.873
 7078SOL    HW222134   6.364   0.716   3.023
 7079SOL     OW22135   5.237   5.561   5.292
 7079SOL    HW122136   5.245   5.588   5.388
 7079SOL    HW222137   5.325   5.573   5.246
 7080SOL     OW22138   5.394   0.049   4.162
 7080SOL    HW122139   5.417   0.138   4.200
 7080SOL    HW222140   5.304   0.053   4.119
 7081SOL     OW22141   3.623   1.224   5.133
 7081SOL    HW122142   3.524   1.236   5.127
 7081SOL    HW222143   3.666   1.312   5.152
 7082SOL     OW22144   5.243   0.819   6.487
 7082SOL    HW122145   5.283   0.910   6.491
 7082SOL    HW222146   5.225   0.793   6.392
 7083SOL     OW22147   3.129   0.249   5.852
 7083SOL    HW122148   3.223   0.284   5.855
 7083SOL    HW222149   3.066   0.324   5.830
 7084SOL     OW22150   6.734   6.188   6.436
 7084SOL    HW122151   6.701   6.233   6.354
 7084SOL    HW222152   6.809   6.241   6.476
 7085SOL     OW22153   2.575   2.500   1.166
 7085SOL    HW122154   2.497   2.522   1.107
 7085SOL    HW222155   2.598   2.403   1.156
 7086SOL     OW22156   6.649   0.966   6.310
 7086SOL    HW122157   6.730   0.928   6.355
 7086SOL    HW222158   6.567   0.925   6.348
 7087SOL     OW22159   1.794   2.645   3.762
 7087SOL    HW122160   1.785   2.740   3.732
 7087SOL    HW222161   1.885   2.611   3.737
 7088SOL     OW22162   6.925   2.404   5.180
 7088SOL    HW122163   6.874   2.480   5.141
 7088SOL    HW222164   6.909   2.400   5.279
 7089SOL     OW22165   2.758   1.729   0.299
 7089SOL    HW122166   2.824   1.672   0.348
 7089SOL    HW222167   2.739   1.811   0.353
 7090SOL     OW22168   2.470   2.099   4.602
 7090SOL    HW122169   2.406   2.135   4.534
 7090SOL    HW222170   2.525   2.173   4.639
 7091SOL     OW22171   0.335   5.607   6.746
 7091SOL    HW122172   0.240   5.631   6.761
 7091SOL    HW222173   0.344   5.507   6.738
 7092SOL     OW22174   2.933   3.515   0.462
 7092SOL    HW122175   2.984   3.523   0.547
 7092SOL    HW222176   2.978   3.568   0.390
 7093SOL     OW22177   3.479   2.843   5.098
 7093SOL    HW122178   3.558   2.856   5.037
 7093SOL    HW222179   3.423   2.767   5.064
 7094SOL     OW22180   0.526   0.396   5.897
 7094SOL    HW122181   0.436   0.395   5.852
 7094SOL    HW222182   0.553   0.302   5.917
 7095SOL     OW22183   0.830   3.106   6.364
 7095SOL    HW122184   0.754   3.152   6.319
 7095SOL    HW222185   0.866   3.034   6.304
 7096SOL     OW22186   4.907   1.652   2.377
 7096SOL    HW122187   4.905   1.693   2.468
 7096SOL    HW222188   4.824   1.599   2.361
 7097SOL     OW22189   0.416   0.767   1.700
 7097SOL    HW122190   0.440   0.674   1.730
 7097SOL    HW222191   0.477   0.794   1.626
 7098SOL     OW22192   1.866   6.772   5.949
 7098SOL    HW122193   1.923   6.841   5.905
 7098SOL    HW222194   1.905   6.748   6.038
 7099SOL     OW22195   0.310   0.666   6.376
 7099SOL    HW122196   0.359   0.750   6.401
 7099SOL    HW222197   0.361   0.618   6.304
 7100SOL     OW22198   5.870   2.892   1.238
 7100SOL    HW122199   5.868   2.989   1.212
 7100SOL    HW222200   5.778   2.863   1.265
 7101SOL     OW22201   2.842   6.922   5.207
 7101SOL    HW122202   2.924   6.895   5.155
 7101SOL    HW222203   2.761   6.886   5.162
 7102SOL     OW22204   4.585   2.612   0.599
 7102SOL    HW122205   4.585   2.544   0.672
 7102SOL    HW222206   4.638   2.692   0.627
 7103SOL     OW22207   3.664   6.663   6.392
 7103SOL    HW122208   3.725   6.648   6.470
 7103SOL    HW222209   3.630   6.757   6.393
 7104SOL     OW22210   1.045   2.256   3.085
 7104SOL    HW122211   1.085   2.210   3.164
 7104SOL    HW222212   1.082   2.215   3.001
 7105SOL     OW22213   3.232   3.949   5.244
 7105SOL    HW122214   3.170   3.951   5.165
 7105SOL    HW222215   3.282   4.036   5.249
 7106SOL     OW22216   3.200   2.547   5.361
 7106SOL    HW122217   3.196   2.475   5.292
 7106SOL    HW222218   3.289   2.544   5.406
 7107SOL     OW22219   2.933   1.190   0.212
 7107SOL    HW122220   2.836   1.167   0.205
 7107SOL    HW222221   2.987   1.106   0.222
 7108SOL     OW22222   4.724   0.255   1.088
 7108SOL    HW122223   4.734   0.303   1.175
 7108SOL    HW222224   4.813   0.223   1.056
 7109SOL     OW22225   3.612   6.136   6.367
 7109SOL    HW122226   3.615   6.081   6.284
 7109SOL    HW222227   3.613   6.233   6.343
 7110SOL     OW22228   4.444   4.802   3.399
 7110SOL    HW122229   4.516   4.866   3.371
 7110SOL    HW222230   4.355   4.839   3.373
 7111SOL     OW22231   1.781   3.380   3.806
 7111SOL    HW122232   1.795   3.427   3.894
 7111SOL    HW222233   1.730   3.295   3.821
 7112SOL     OW22234   1.018   6.834   2.931
 7112SOL    HW122235   1.046   6.759   2.991
 7112SOL    HW222236   1.022   6.805   2.836
 7113SOL     OW22237   4.157   3.440   4.470
 7113SOL    HW122238   4.214   3.496   4.410
 7113SOL    HW222239   4.112   3.368   4.417
 7114SOL     OW22240   3.665   0.962   0.236
 7114SOL    HW122241   3.683   0.956   0.335
 7114SOL    HW222242   3.752   0.970   0.187
 7115SOL     OW22243   4.730   1.710   0.979
 7115SOL    HW122244   4.747   1.804   1.010
 7115SOL    HW222245   4.798   1.686   0.909
 7116SOL     OW22246   5.496   3.486   2.764
 7116SOL    HW122247   5.498   3.556   2.836
 7116SOL    HW222248   5.589   3.452   2.750
 7117SOL     OW22249   5.646   6.518   1.726
 7117SOL    HW122250   5.573   6.463   1.767
 7117SOL    HW222251   5.629   6.527   1.627
 7118SOL     OW22252   0.017   3.050   1.464
 7118SOL    HW122253   6.958   3.006   1.424
 7118SOL    HW222254   7.010   3.118   1.532
 7119SOL     OW22255   6.314   1.996   3.316
 7119SOL    HW122256   6.316   2.017   3.218
 7119SOL    HW222257   6.251   2.059   3.362
 7120SOL     OW22258   4.790   0.437   3.419
 7120SOL    HW122259   4.810   0.470   3.327
 7120SOL    HW222260   4.697   0.401   3.422
 7121SOL     OW22261   3.171   6.785   2.165
 7121SOL    HW122262   3.186   6.689   2.188
 7121SOL    HW222263   3.251   6.822   2.119
 7122SOL     OW22264   6.421   0.856   6.349
 7122SOL    HW122265   6.367   0.887   6.270
 7122SOL    HW222266   6.360   0.838   6.426
 7123SOL     OW22267   2.082   4.857   0.873
 7123SOL    HW122268   2.120   4.922   0.939
 7123SOL    HW222269   2.155   4.827   0.811
 7124SOL     OW22270   0.519   5.230   0.901
 7124SOL    HW122271   0.426   5.233   0.864
 7124SOL    HW222272   0.525   5.292   0.980
 7125SOL     OW22273   5.650   5.905   2.664
 7125SOL    HW122274   5.558   5.935   2.689
 7125SOL    HW222275   5.715   5.937   2.733
 7126SOL     OW22276   1.233   4.819   0.405
 7126SOL    HW122277   1.236   4.769   0.491
 7126SOL    HW222278   1.226   4.917   0.424
 7127SOL     OW22279   3.610   6.291   4.541
 7127SOL    HW122280   3.541   6.276   4.471
 7127SOL    HW222281   3.622   6.390   4.555
 7128SOL     OW22282   3.099   4.386   1.444
 7128SOL    HW122283   3.022   4.372   1.505
 7128SOL    HW222284   3.113   4.305   1.388
 7129SOL     OW22285   2.511   0.638   1.295
 7129SOL    HW122286   2.577   0.605   1.227
 7129SOL    HW222287   2.441   0.568   1.310
 7130SOL     OW22288   1.933   5.074   2.756
 7130SOL    HW122289   2.015   5.118   2.720
 7130SOL    HW222290   1.946   4.975   2.759
 7131SOL     OW22291   2.759   0.683   3.205
 7131SOL    HW122292   2.707   0.662   3.288
 7131SOL    HW222293   2.737   0.615   3.135
 7132SOL     OW22294   3.152   4.031   3.089
 7132SOL    HW122295   3.244   4.064   3.068
 7132SOL    HW222296   3.086   4.074   3.028
 7133SOL     OW22297   5.402   5.226   2.854
 7133SOL    HW122298   5.411   5.325   2.858
 7133SOL    HW222299   5.305   5.202   2.846
 7134SOL     OW22300   5.672   3.696   3.841
 7134SOL    HW122301   5.606   3.752   3.891
 7134SOL    HW222302   5.694   3.741   3.754
 7135SOL     OW22303   0.823   1.658   5.024
 7135SOL    HW122304   0.833   1.566   4.987
 7135SOL    HW222305   0.879   1.722   4.971
 7136SOL     OW22306   2.410   1.616   0.252
 7136SOL    HW122307   2.423   1.657   0.342
 7136SOL    HW222308   2.476   1.542   0.238
 7137SOL     OW22309   4.140   0.901   4.658
 7137SOL    HW122310   4.049   0.933   4.684
 7137SOL    HW222311   4.157   0.812   4.700
 7138SOL     OW22312   2.647   4.207   0.588
 7138SOL    HW122313   2.548   4.199   0.577
 7138SOL    HW222314   2.692   4.131   0.541
 7139SOL     OW22315   3.686   2.322   1.167
 7139SOL    HW122316   3.651   2.231   1.193
 7139SOL    HW222317   3.777   2.334   1.205
 7140SOL     OW22318   6.429   3.409   5.121
 7140SOL    HW122319   6.442   3.310   5.120
 7140SOL    HW222320   6.452   3.447   5.031
 7141SOL     OW22321   2.857   6.669   0.745
 7141SOL    HW122322   2.927   6.598   0.746
 7141SOL    HW222323   2.794   6.654   0.669
 7142SOL     OW22324   3.894   5.651   4.468
 7142SOL    HW122325   3.992   5.635   4.485
 7142SOL    HW222326   3.863   5.728   4.524
 7143SOL     OW22327   2.109   3.469   4.514
 7143SOL    HW122328   2.118   3.428   4.424
 7143SOL    HW222329   2.118   3.398   4.584
 7144SOL     OW22330   0.355   2.588   3.549
 7144SOL    HW122331   0.435   2.529   3.537
 7144SOL    HW222332   0.385   2.684   3.550
 7145SOL     OW22333   5.020   0.097   6.927
 7145SOL    HW122334   5.093   0.055   6.981
 7145SOL    HW222335   4.981   0.174   6.978
 7146SOL     OW22336   3.624   4.866   0.560
 7146SOL    HW122337   3.574   4.784   0.532
 7146SOL    HW222338   3.697   4.885   0.495
 7147SOL     OW22339   0.432   0.495   3.405
 7147SOL    HW122340   0.466   0.413   3.360
 7147SOL    HW222341   0.442   0.485   3.504
 7148SOL     OW22342   0.764   1.114   1.046
 7148SOL    HW122343   0.856   1.115   1.085
 7148SOL    HW222344   0.713   1.038   1.086
 7149SOL     OW22345   6.057   1.246   4.189
 7149SOL    HW122346   5.973   1.288   4.154
 7149SOL    HW222347   6.045   1.147   4.195
 7150SOL     OW22348   5.750   3.444   0.067
 7150SOL    HW122349   5.695   3.493   0.135
 7150SOL    HW222350   5.693   3.426   7.008
 7151SOL     OW22351   2.708   6.205   0.876
 7151SOL    HW122352   2.759   6.120   0.876
 7151SOL    HW222353   2.621   6.192   0.922
 7152SOL     OW22354   1.422   2.582   3.979
 7152SOL    HW122355   1.493   2.568   3.911
 7152SOL    HW222356   1.461   2.630   4.058
 7153SOL     OW22357   3.663   1.259   3.502
 7153SOL    HW122358   3.586   1.249   3.440
 7153SOL    HW222359   3.647   1.335   3.564
 7154SOL     OW22360   5.048   6.144   4.193
 7154SOL    HW122361   5.098   6.079   4.136
 7154SOL    HW222362   5.071   6.238   4.165
 7155SOL     OW22363   2.758   0.351   1.235
 7155SOL    HW122364   2.769   0.253   1.251
 7155SOL    HW222365   2.662   0.373   1.222
 7156SOL     OW22366   6.904   5.606   5.039
 7156SOL    HW122367   6.878   5.601   4.943
 7156SOL    HW222368   6.825   5.637   5.093
 7157SOL     OW22369   4.554   4.343   1.085
 7157SOL    HW122370   4.557   4.395   1.171
 7157SOL    HW222371   4.586   4.401   1.010
 7158SOL     OW22372   6.131   6.896   4.173
 7158SOL    HW122373   6.140   6.855   4.264
 7158SOL    HW222374   6.221   6.928   4.143
 7159SOL     OW22375   0.740   5.750   6.888
 7159SOL    HW122376   0.743   5.780   6.793
 7159SOL    HW222377   0.686   5.666   6.895
 7160SOL     OW22378   5.655   0.837   2.312
 7160SOL    HW122379   5.610   0.925   2.324
 7160SOL    HW222380   5.686   0.802   2.400
 7161SOL     OW22381   3.563   3.554   4.006
 7161SOL    HW122382   3.598   3.475   3.955
 7161SOL    HW222383   3.627   3.577   4.080
 7162SOL     OW22384   3.198   4.883   3.128
 7162SOL    HW122385   3.237   4.974   3.115
 7162SOL    HW222386   3.138   4.861   3.051
 7163SOL     OW22387   2.489   0.261   2.641
 7163SOL    HW122388   2.550   0.323   2.690
 7163SOL    HW222389   2.416   0.314   2.598
 7164SOL     OW22390   2.324   1.267   2.805
 7164SOL    HW122391   2.255   1.239   2.738
 7164SOL    HW222392   2.278   1.297   2.889
 7165SOL     OW22393   4.528   0.625   1.745
 7165SOL    HW122394   4.468   0.660   1.816
 7165SOL    HW222395   4.575   0.542   1.778
 7166SOL     OW22396   4.850   4.736   1.658
 7166SOL    HW122397   4.838   4.703   1.752
 7166SOL    HW222398   4.945   4.721   1.629
 7167SOL     OW22399   4.702   2.839   4.962
 7167SOL    HW122400   4.712   2.917   5.023
 7167SOL    HW222401   4.621   2.786   4.989
 7168SOL     OW22402   1.513   0.856   4.236
 7168SOL    HW122403   1.565   0.869   4.151
 7168SOL    HW222404   1.482   0.945   4.269
 7169SOL     OW22405   1.709   2.415   6.212
 7169SOL    HW122406   1.625   2.456   6.248
 7169SOL    HW222407   1.744   2.470   6.137
 7170SOL     OW22408   6.534   4.989   4.379
 7170SOL    HW122409   6.512   4.894   4.401
 7170SOL    HW222410   6.538   5.043   4.464
 7171SOL     OW22411   4.159   3.225   5.267
 7171SOL    HW122412   4.074   3.246   5.218
 7171SOL    HW222413   4.202   3.310   5.295
 7172SOL     OW22414   1.876   0.100   0.901
 7172SOL    HW122415   1.854   0.002   0.900
 7172SOL    HW222416   1.875   0.135   0.807
 7173SOL     OW22417   6.647   6.373   5.786
 7173SOL    HW122418   6.631   6.276   5.768
 7173SOL    HW222419   6.735   6.399   5.746
 7174SOL     OW22420   1.336   5.587   0.479
 7174SOL    HW122421   1.428   5.584   0.439
 7174SOL    HW222422   1.316   5.499   0.522
 7175SOL     OW22423   6.717   3.496   5.549
 7175SOL    HW122424   6.766   3.420   5.505
 7175SOL    HW222425   6.644   3.528   5.489
 7176SOL     OW22426   5.809   4.104   1.616
 7176SOL    HW122427   5.771   4.058   1.697
 7176SOL    HW222428   5.754   4.081   1.536
 7177SOL     OW22429   0.602   6.414   1.797
 7177SOL    HW122430   0.677   6.466   1.839
 7177SOL    HW222431   0.548   6.369   1.869
 7178SOL     OW22432   0.512   2.628   6.147
 7178SOL    HW122433   0.481   2.542   6.109
 7178SOL    HW222434   0.609   2.641   6.126
 7179SOL     OW22435   2.648   3.863   5.983
 7179SOL    HW122436   2.581   3.935   5.964
 7179SOL    HW222437   2.637   3.789   5.917
 7180SOL     OW22438   0.004   6.032   2.343
 7180SOL    HW122439   0.075   6.088   2.385
 7180SOL    HW222440   0.043   5.982   2.266
 7181SOL     OW22441   4.975   0.866   2.136
 7181SOL    HW122442   5.068   0.832   2.142
 7181SOL    HW222443   4.919   0.826   2.209
 7182SOL     OW22444   3.148   3.603   5.478
 7182SOL    HW122445   3.072   3.643   5.529
 7182SOL    HW222446   3.113   3.563   5.393
 7183SOL     OW22447   1.184   5.610   2.392
 7183SOL    HW122448   1.254   5.657   2.446
 7183SOL    HW222449   1.163   5.522   2.435
 7184SOL     OW22450   2.275   6.553   3.582
 7184SOL    HW122451   2.295   6.623   3.650
 7184SOL    HW222452   2.221   6.592   3.508
 7185SOL     OW22453   4.482   2.430   6.591
 7185SOL    HW122454   4.462   2.332   6.582
 7185SOL    HW222455   4.559   2.443   6.654
 7186SOL     OW22456   0.475   6.593   4.464
 7186SOL    HW122457   0.548   6.662   4.466
 7186SOL    HW222458   0.515   6.502   4.469
 7187SOL     OW22459   1.900   4.795   1.287
 7187SOL    HW122460   1.999   4.801   1.300
 7187SOL    HW222461   1.873   4.699   1.283
 7188SOL     OW22462   5.138   1.401   0.978
 7188SOL    HW122463   5.119   1.357   1.066
 7188SOL    HW222464   5.233   1.433   0.978
 7189SOL     OW22465   6.065   0.905   4.603
 7189SOL    HW122466   5.997   0.960   4.653
 7189SOL    HW222467   6.123   0.966   4.548
 7190SOL     OW22468   4.997   4.916   3.270
 7190SOL    HW122469   5.000   4.918   3.370
 7190SOL    HW222470   4.963   4.827   3.239
 7191SOL     OW22471   1.507   3.307   2.590
 7191SOL    HW122472   1.426   3.283   2.645
 7191SOL    HW222473   1.499   3.264   2.500
 7192SOL     OW22474   3.191   4.963   5.694
 7192SOL    HW122475   3.170   4.873   5.657
 7192SOL    HW222476   3.121   4.989   5.760
 7193SOL     OW22477   4.511   1.269   3.382
 7193SOL    HW122478   4.436   1.203   3.379
 7193SOL    HW222479   4.520   1.314   3.293
 7194SOL     OW22480   2.919   1.475   1.870
 7194SOL    HW122481   2.960   1.384   1.876
 7194SOL    HW222482   2.848   1.484   1.940
 7195SOL     OW22483   0.747   5.465   1.365
 7195SOL    HW122484   0.807   5.540   1.336
 7195SOL    HW222485   0.788   5.417   1.443
 7196SOL     OW22486   3.647   3.198   2.532
 7196SOL    HW122487   3.558   3.243   2.532
 7196SOL    HW222488   3.655   3.140   2.613
 7197SOL     OW22489   1.083   2.344   6.183
 7197SOL    HW122490   1.082   2.331   6.084
 7197SOL    HW222491   1.014   2.283   6.225
 7198SOL     OW22492   1.277   6.076   6.633
 7198SOL    HW122493   1.301   5.994   6.685
 7198SOL    HW222494   1.345   6.090   6.560
 7199SOL     OW22495   6.405   6.344   2.694
 7199SOL    HW122496   6.505   6.342   2.701
 7199SOL    HW222497   6.374   6.266   2.639
 7200SOL     OW22498   2.295   1.512   0.973
 7200SOL    HW122499   2.291   1.611   0.986
 7200SOL    HW222500   2.203   1.473   0.977
 7201SOL     OW22501   1.913   4.401   3.869
 7201SOL    HW122502   1.972   4.449   3.804
 7201SOL    HW222503   1.920   4.302   3.854
 7202SOL     OW22504   3.662   0.996   6.520
 7202SOL    HW122505   3.609   1.028   6.598
 7202SOL    HW222506   3.628   1.039   6.437
 7203SOL     OW22507   5.616   0.927   6.706
 7203SOL    HW122508   5.572   1.009   6.742
 7203SOL    HW222509   5.679   0.952   6.632
 7204SOL     OW22510   5.887   1.876   2.633
 7204SOL    HW122511   5.869   1.847   2.727
 7204SOL    HW222512   5.985   1.887   2.619
 7205SOL     OW22513   2.307   4.545   2.206
 7205SOL    HW122514   2.328   4.524   2.301
 7205SOL    HW222515   2.331   4.467   2.148
 7206SOL     OW22516   6.065   0.944   1.784
 7206SOL    HW122517   6.156   0.907   1.765
 7206SOL    HW222518   6.064   0.984   1.876
 7207SOL     OW22519   3.764   0.029   1.977
 7207SOL    HW122520   3.741   0.066   2.067
 7207SOL    HW222521   3.768   0.103   1.911
 7208SOL     OW22522   3.024   0.315   5.449
 7208SOL    HW122523   2.986   0.275   5.366
 7208SOL    HW222524   2.982   0.273   5.529
 7209SOL     OW22525   4.032   3.468   4.694
 7209SOL    HW122526   4.070   3.456   4.603
 7209SOL    HW222527   4.001   3.379   4.730
 7210SOL     OW22528   4.110   0.418   4.516
 7210SOL    HW122529   4.078   0.507   4.483
 7210SOL    HW222530   4.192   0.391   4.465
 7211SOL     OW22531   1.255   5.537   3.035
 7211SOL    HW122532   1.335   5.481   3.015
 7211SOL    HW222533   1.208   5.560   2.950
 7212SOL     OW22534   5.731   6.563   4.259
 7212SOL    HW122535   5.822   6.569   4.216
 7212SOL    HW222536   5.721   6.474   4.302
 7213SOL     OW22537   5.409   0.760   5.709
 7213SOL    HW122538   5.381   0.674   5.752
 7213SOL    HW222539   5.491   0.745   5.654
 7214SOL     OW22540   1.311   4.949   5.110
 7214SOL    HW122541   1.272   4.971   5.021
 7214SOL    HW222542   1.254   4.990   5.182
 7215SOL     OW22543   1.370   3.604   3.359
 7215SOL    HW122544   1.415   3.644   3.438
 7215SOL    HW222545   1.385   3.662   3.278
 7216SOL     OW22546   1.998   1.131   1.636
 7216SOL    HW122547   2.078   1.144   1.576
 7216SOL    HW222548   2.025   1.079   1.716
 7217SOL     OW22549   0.869   2.960   2.286
 7217SOL    HW122550   0.909   2.994   2.201
 7217SOL    HW222551   0.875   3.031   2.356
 7218SOL     OW22552   5.524   2.632   5.488
 7218SOL    HW122553   5.537   2.690   5.407
 7218SOL    HW222554   5.579   2.550   5.479
 7219SOL     OW22555   3.793   1.434   2.044
 7219SOL    HW122556   3.852   1.489   2.103
 7219SOL    HW222557   3.818   1.449   1.948
 7220SOL     OW22558   6.882   0.621   2.800
 7220SOL    HW122559   6.900   0.575   2.887
 7220SOL    HW222560   6.953   0.688   2.782
 7221SOL     OW22561   6.121   5.577   5.409
 7221SOL    HW122562   6.075   5.507   5.462
 7221SOL    HW222563   6.187   5.535   5.347
 7222SOL     OW22564   6.859   6.260   2.168
 7222SOL    HW122565   6.890   6.181   2.220
 7222SOL    HW222566   6.850   6.339   2.229
 7223SOL     OW22567   3.346   0.844   5.414
 7223SOL    HW122568   3.295   0.919   5.455
 7223SOL    HW222569   3.428   0.880   5.370
 7224SOL     OW22570   4.794   6.736   4.204
 7224SOL    HW122571   4.865   6.801   4.177
 7224SOL    HW222572   4.832   6.644   4.208
 7225SOL     OW22573   2.427   6.599   0.285
 7225SOL    HW122574   2.389   6.507   0.296
 7225SOL    HW222575   2.376   6.663   0.342
 7226SOL     OW22576   6.487   6.919   0.762
 7226SOL    HW122577   6.547   6.846   0.795
 7226SOL    HW222578   6.419   6.941   0.832
 7227SOL     OW22579   6.268   2.644   6.279
 7227SOL    HW122580   6.290   2.720   6.218
 7227SOL    HW222581   6.221   2.678   6.360
 7228SOL     OW22582   1.162   0.836   2.921
 7228SOL    HW122583   1.129   0.839   3.015
 7228SOL    HW222584   1.094   0.877   2.860
 7229SOL     OW22585   0.656   0.320   3.522
 7229SOL    HW122586   0.685   0.284   3.432
 7229SOL    HW222587   0.716   0.282   3.593
 7230SOL     OW22588   6.167   3.750   2.949
 7230SOL    HW122589   6.118   3.833   2.977
 7230SOL    HW222590   6.113   3.699   2.883
 7231SOL     OW22591   5.361   1.062   6.478
 7231SOL    HW122592   5.457   1.051   6.505
 7231SOL    HW222593   5.355   1.128   6.403
 7232SOL     OW22594   3.495   4.540   1.305
 7232SOL    HW122595   3.520   4.593   1.224
 7232SOL    HW222596   3.535   4.449   1.299
 7233SOL     OW22597   6.982   2.306   6.079
 7233SOL    HW122598   0.012   2.231   6.121
 7233SOL    HW222599   0.016   2.389   6.079
 7234SOL     OW22600   6.032   2.204   2.060
 7234SOL    HW122601   6.014   2.111   2.028
 7234SOL    HW222602   5.949   2.258   2.052
 7235SOL     OW22603   6.259   3.322   4.876
 7235SOL    HW122604   6.197   3.401   4.883
 7235SOL    HW222605   6.305   3.308   4.964
 7236SOL     OW22606   3.324   1.065   3.118
 7236SOL    HW122607   3.385   1.004   3.068
 7236SOL    HW222608   3.267   1.116   3.054
 7237SOL     OW22609   6.004   5.952   5.938
 7237SOL    HW122610   6.058   5.875   5.970
 7237SOL    HW222611   6.022   6.032   5.996
 7238SOL     OW22612   1.180   1.275   1.310
 7238SOL    HW122613   1.271   1.269   1.352
 7238SOL    HW222614   1.189   1.308   1.216
 7239SOL     OW22615   4.215   1.591   1.715
 7239SOL    HW122616   4.311   1.590   1.687
 7239SOL    HW222617   4.194   1.507   1.766
 7240SOL     OW22618   3.165   3.818   0.428
 7240SOL    HW122619   3.075   3.848   0.459
 7240SOL    HW222620   3.231   3.892   0.442
 7241SOL     OW22621   3.578   0.210   4.964
 7241SOL    HW122622   3.497   0.154   4.944
 7241SOL    HW222623   3.566   0.301   4.925
 7242SOL     OW22624   4.625   4.611   0.145
 7242SOL    HW122625   4.721   4.584   0.152
 7242SOL    HW222626   4.573   4.537   0.102
 7243SOL     OW22627   6.886   5.700   0.004
 7243SOL    HW122628   6.932   5.761   0.068
 7243SOL    HW222629   6.896   5.605   0.035
 7244SOL     OW22630   5.873   1.341   0.709
 7244SOL    HW122631   5.778   1.325   0.683
 7244SOL    HW222632   5.882   1.433   0.747
 7245SOL     OW22633   6.832   1.890   3.701
 7245SOL    HW122634   6.751   1.853   3.656
 7245SOL    HW222635   6.814   1.898   3.799
 7246SOL     OW22636   1.002   6.114   5.474
 7246SOL    HW122637   0.921   6.161   5.509
 7246SOL    HW222638   0.975   6.029   5.428
 7247SOL     OW22639   3.472   5.464   2.797
 7247SOL    HW122640   3.378   5.458   2.765
 7247SOL    HW222641   3.475   5.516   2.882
 7248SOL     OW22642   3.308   0.507   4.668
 7248SOL    HW122643   3.211   0.529   4.679
 7248SOL    HW222644   3.318   0.413   4.634
 7249SOL     OW22645   6.192   5.304   6.817
 7249SOL    HW122646   6.250   5.252   6.880
 7249SOL    HW222647   6.111   5.250   6.794
 7250SOL     OW22648   2.888   4.225   6.601
 7250SOL    HW122649   2.791   4.238   6.579
 7250SOL    HW222650   2.929   4.163   6.534
 7251SOL     OW22651   5.313   0.211   5.193
 7251SOL    HW122652   5.245   0.191   5.263
 7251SOL    HW222653   5.273   0.274   5.125
 7252SOL     OW22654   4.160   3.893   5.197
 7252SOL    HW122655   4.259   3.891   5.184
 7252SOL    HW222656   4.116   3.908   5.109
 7253SOL     OW22657   5.191   5.338   1.177
 7253SOL    HW122658   5.200   5.245   1.212
 7253SOL    HW222659   5.183   5.335   1.077
 7254SOL     OW22660   4.803   6.332   5.213
 7254SOL    HW122661   4.781   6.410   5.271
 7254SOL    HW222662   4.899   6.338   5.184
 7255SOL     OW22663   3.535   4.168   2.159
 7255SOL    HW122664   3.532   4.267   2.169
 7255SOL    HW222665   3.448   4.129   2.188
 7256SOL     OW22666   4.583   4.751   4.036
 7256SOL    HW122667   4.677   4.719   4.026
 7256SOL    HW222668   4.523   4.697   3.976
 7257SOL     OW22669   5.799   4.166   3.513
 7257SOL    HW122670   5.838   4.253   3.481
 7257SOL    HW222671   5.828   4.149   3.608
 7258SOL     OW22672   3.115   6.772   5.339
 7258SOL    HW122673   3.039   6.710   5.361
 7258SOL    HW222674   3.103   6.808   5.247
 7259SOL     OW22675   1.928   5.640   5.913
 7259SOL    HW122676   1.837   5.624   5.876
 7259SOL    HW222677   1.951   5.737   5.906
 7260SOL     OW22678   3.625   2.034   1.820
 7260SOL    HW122679   3.574   2.050   1.735
 7260SOL    HW222680   3.649   2.122   1.862
 7261SOL     OW22681   1.173   3.992   1.582
 7261SOL    HW122682   1.129   3.993   1.672
 7261SOL    HW222683   1.272   4.001   1.593
 7262SOL     OW22684   6.127   1.952   5.231
 7262SOL    HW122685   6.206   1.932   5.173
 7262SOL    HW222686   6.096   1.869   5.276
 7263SOL     OW22687   4.402   6.628   1.960
 7263SOL    HW122688   4.465   6.561   1.923
 7263SOL    HW222689   4.422   6.718   1.921
 7264SOL     OW22690   1.047   6.811   4.616
 7264SOL    HW122691   1.088   6.866   4.688
 7264SOL    HW222692   0.996   6.870   4.553
 7265SOL     OW22693   4.358   3.818   6.012
 7265SOL    HW122694   4.428   3.791   6.078
 7265SOL    HW222695   4.288   3.873   6.058
 7266SOL     OW22696   5.233   1.476   1.748
 7266SOL    HW122697   5.183   1.487   1.834
 7266SOL    HW222698   5.328   1.453   1.767
 7267SOL     OW22699   0.088   2.885   4.393
 7267SOL    HW122700   0.136   2.876   4.480
 7267SOL    HW222701   0.097   2.801   4.340
 7268SOL     OW22702   3.174   6.993   1.182
 7268SOL    HW122703   3.166   6.930   1.104
 7268SOL    HW222704   3.190   6.940   1.265
 7269SOL     OW22705   1.773   6.942   2.008
 7269SOL    HW122706   1.772   0.017   1.981
 7269SOL    HW222707   1.688   6.919   2.054
 7270SOL     OW22708   3.479   1.458   2.735
 7270SOL    HW122709   3.558   1.488   2.682
 7270SOL    HW222710   3.401   1.517   2.714
 7271SOL     OW22711   5.955   4.696   4.354
 7271SOL    HW122712   5.869   4.665   4.395
 7271SOL    HW222713   5.969   4.793   4.375
 7272SOL     OW22714   6.050   2.019   1.385
 7272SOL    HW122715   6.092   1.928   1.388
 7272SOL    HW222716   5.984   2.028   1.460
 7273SOL     OW22717   6.065   6.228   6.047
 7273SOL    HW122718   6.088   6.324   6.030
 7273SOL    HW222719   5.976   6.223   6.094
 7274SOL     OW22720   0.304   4.477   4.729
 7274SOL    HW122721   0.306   4.377   4.740
 7274SOL    HW222722   0.307   4.520   4.819
 7275SOL     OW22723   5.915   6.629   1.460
 7275SOL    HW122724   5.916   6.728   1.446
 7275SOL    HW222725   5.862   6.586   1.388
 7276SOL     OW22726   3.134   2.193   4.036
 7276SOL    HW122727   3.157   2.202   3.939
 7276SOL    HW222728   3.042   2.155   4.045
 7277SOL     OW22729   5.378   1.727   4.281
 7277SOL    HW122730   5.347   1.817   4.251
 7277SOL    HW222731   5.324   1.697   4.359
 7278SOL     OW22732   2.177   1.587   3.540
 7278SOL    HW122733   2.233   1.531   3.600
 7278SOL    HW222734   2.231   1.662   3.503
 7279SOL     OW22735   4.169   4.287   0.907
 7279SOL    HW122736   4.235   4.359   0.931
 7279SOL    HW222737   4.213   4.221   0.846
 7280SOL     OW22738   6.451   1.764   5.372
 7280SOL    HW122739   6.550   1.748   5.372
 7280SOL    HW222740   6.408   1.706   5.303
 7281SOL     OW22741   3.874   5.758   1.924
 7281SOL    HW122742   3.801   5.790   1.985
 7281SOL    HW222743   3.919   5.678   1.964
 7282SOL     OW22744   6.492   3.856   2.202
 7282SOL    HW122745   6.517   3.949   2.226
 7282SOL    HW222746   6.415   3.827   2.260
 7283SOL     OW22747   4.666   5.184   3.068
 7283SOL    HW122748   4.704   5.266   3.024
 7283SOL    HW222749   4.574   5.168   3.034
 7284SOL     OW22750   0.291   1.472   2.408
 7284SOL    HW122751   0.373   1.465   2.465
 7284SOL    HW222752   0.310   1.434   2.317
 7285SOL     OW22753   4.843   3.165   1.733
 7285SOL    HW122754   4.806   3.164   1.640
 7285SOL    HW222755   4.774   3.128   1.796
 7286SOL     OW22756   6.270   1.579   3.830
 7286SOL    HW122757   6.203   1.505   3.836
 7286SOL    HW222758   6.237   1.659   3.879
 7287SOL     OW22759   2.884   1.325   2.671
 7287SOL    HW122760   2.952   1.316   2.599
 7287SOL    HW222761   2.844   1.235   2.690
 7288SOL     OW22762   2.522   1.770   2.337
 7288SOL    HW122763   2.466   1.812   2.408
 7288SOL    HW222764   2.487   1.678   2.316
 7289SOL     OW22765   6.680   2.183   1.431
 7289SOL    HW122766   6.769   2.199   1.475
 7289SOL    HW222767   6.610   2.174   1.501
 7290SOL     OW22768   3.727   1.538   4.823
 7290SOL    HW122769   3.636   1.509   4.795
 7290SOL    HW222770   3.789   1.459   4.821
 7291SOL     OW22771   2.585   1.474   0.776
 7291SOL    HW122772   2.642   1.523   0.709
 7291SOL    HW222773   2.495   1.457   0.736
 7292SOL     OW22774   2.561   6.862   2.561
 7292SOL    HW122775   2.633   6.929   2.544
 7292SOL    HW222776   2.602   6.773   2.578
 7293SOL     OW22777   6.671   1.597   4.024
 7293SOL    HW122778   6.763   1.590   4.061
 7293SOL    HW222779   6.609   1.634   4.094
 7294SOL     OW22780   3.506   6.211   2.567
 7294SOL    HW122781   3.522   6.140   2.498
 7294SOL    HW222782   3.411   6.241   2.563
 7295SOL     OW22783   5.370   4.259   1.067
 7295SOL    HW122784   5.347   4.352   1.097
 7295SOL    HW222785   5.347   4.194   1.139
 7296SOL     OW22786   4.649   5.077   2.038
 7296SOL    HW122787   4.723   5.105   1.976
 7296SOL    HW222788   4.561   5.093   1.993
 7297SOL     OW22789   4.307   6.816   1.089
 7297SOL    HW122790   4.356   6.767   1.017
 7297SOL    HW222791   4.301   6.913   1.064
 7298SOL     OW22792   3.875   5.422   0.416
 7298SOL    HW122793   3.904   5.449   0.508
 7298SOL    HW222794   3.776   5.412   0.414
 7299SOL     OW22795   1.038   3.259   6.158
 7299SOL    HW122796   1.009   3.262   6.062
 7299SOL    HW222797   0.960   3.276   6.217
 7300SOL     OW22798   6.921   5.398   2.365
 7300SOL    HW122799   6.941   5.347   2.449
 7300SOL    HW222800   7.002   5.451   2.339
 7301SOL     OW22801   4.152   1.818   6.477
 7301SOL    HW122802   4.117   1.818   6.384
 7301SOL    HW222803   4.102   1.750   6.532
 7302SOL     OW22804   5.617   1.895   5.895
 7302SOL    HW122805   5.614   1.811   5.948
 7302SOL    HW222806   5.610   1.873   5.798
 7303SOL     OW22807   2.885   1.686   2.181
 7303SOL    HW122808   2.856   1.763   2.124
 7303SOL    HW222809   2.922   1.721   2.267
 7304SOL     OW22810   2.638   5.519   0.550
 7304SOL    HW122811   2.716   5.456   0.549
 7304SOL    HW222812   2.584   5.503   0.632
 7305SOL     OW22813   6.268   1.419   0.025
 7305SOL    HW122814   6.315   1.462   6.970
 7305SOL    HW222815   6.266   1.320   0.012
 7306SOL     OW22816   1.275   2.889   1.933
 7306SOL    HW122817   1.375   2.887   1.940
 7306SOL    HW222818   1.242   2.796   1.917
 7307SOL     OW22819   1.906   0.327   1.054
 7307SOL    HW122820   1.814   0.355   1.082
 7307SOL    HW222821   1.899   0.250   0.990
 7308SOL     OW22822   4.091   1.043   2.563
 7308SOL    HW122823   4.066   1.086   2.476
 7308SOL    HW222824   4.051   1.094   2.638
 7309SOL     OW22825   2.423   5.375   3.871
 7309SOL    HW122826   2.375   5.368   3.784
 7309SOL    HW222827   2.411   5.290   3.923
 7310SOL     OW22828   2.655   3.004   6.227
 7310SOL    HW122829   2.722   2.967   6.162
 7310SOL    HW222830   2.678   3.099   6.249
 7311SOL     OW22831   0.601   5.925   5.526
 7311SOL    HW122832   0.668   5.869   5.574
 7311SOL    HW222833   0.527   5.867   5.493
 7312SOL     OW22834   6.359   2.075   3.988
 7312SOL    HW122835   6.354   2.173   4.008
 7312SOL    HW222836   6.418   2.060   3.909
 7313SOL     OW22837   2.435   0.557   2.811
 7313SOL    HW122838   2.469   0.630   2.871
 7313SOL    HW222839   2.510   0.525   2.753
 7314SOL     OW22840   0.671   4.423   5.637
 7314SOL    HW122841   0.681   4.479   5.555
 7314SOL    HW222842   0.716   4.468   5.714
 7315SOL     OW22843   2.455   4.779   2.234
 7315SOL    HW122844   2.404   4.694   2.221
 7315SOL    HW222845   2.553   4.759   2.229
 7316SOL     OW22846   4.037   1.671   1.255
 7316SOL    HW122847   4.021   1.572   1.250
 7316SOL    HW222848   3.953   1.720   1.231
 7317SOL     OW22849   4.132   2.062   0.103
 7317SOL    HW122850   4.033   2.077   0.115
 7317SOL    HW222851   4.147   2.011   0.018
 7318SOL     OW22852   5.316   6.569   0.623
 7318SOL    HW122853   5.222   6.586   0.653
 7318SOL    HW222854   5.354   6.494   0.676
 7319SOL     OW22855   5.801   6.288   6.370
 7319SOL    HW122856   5.888   6.240   6.361
 7319SOL    HW222857   5.734   6.249   6.307
 7320SOL     OW22858   0.794   2.509   1.136
 7320SOL    HW122859   0.864   2.459   1.084
 7320SOL    HW222860   0.790   2.603   1.104
 7321SOL     OW22861   1.876   2.070   0.018
 7321SOL    HW122862   1.964   2.079   0.066
 7321SOL    HW222863   1.872   2.138   6.966
 7322SOL     OW22864   1.206   3.203   3.326
 7322SOL    HW122865   1.290   3.211   3.274
 7322SOL    HW222866   1.205   3.271   3.399
 7323SOL     OW22867   1.037   2.726   0.466
 7323SOL    HW122868   0.956   2.784   0.463
 7323SOL    HW222869   1.081   2.735   0.555
 7324SOL     OW22870   4.816   3.743   3.355
 7324SOL    HW122871   4.836   3.704   3.446
 7324SOL    HW222872   4.761   3.825   3.366
 7325SOL     OW22873   4.259   1.167   5.779
 7325SOL    HW122874   4.327   1.215   5.723
 7325SOL    HW222875   4.180   1.142   5.723
 7326SOL     OW22876   3.818   0.452   0.514
 7326SOL    HW122877   3.762   0.398   0.577
 7326SOL    HW222878   3.782   0.442   0.422
 7327SOL     OW22879   1.538   4.511   3.276
 7327SOL    HW122880   1.499   4.545   3.190
 7327SOL    HW222881   1.597   4.433   3.256
 7328SOL     OW22882   4.731   4.932   5.070
 7328SOL    HW122883   4.636   4.939   5.039
 7328SOL    HW222884   4.758   4.836   5.075
 7329SOL     OW22885   2.830   3.269   1.150
 7329SOL    HW122886   2.801   3.184   1.108
 7329SOL    HW222887   2.918   3.298   1.112
 7330SOL     OW22888   2.473   3.136   1.482
 7330SOL    HW122889   2.541   3.080   1.529
 7330SOL    HW222890   2.512   3.173   1.397
 7331SOL     OW22891   5.304   2.405   2.574
 7331SOL    HW122892   5.371   2.436   2.642
 7331SOL    HW222893   5.222   2.373   2.621
 7332SOL     OW22894   2.791   6.593   6.280
 7332SOL    HW122895   2.743   6.538   6.212
 7332SOL    HW222896   2.806   6.685   6.243
 7333SOL     OW22897   0.725   1.476   1.561
 7333SOL    HW122898   0.805   1.416   1.556
 7333SOL    HW222899   0.700   1.489   1.657
 7334SOL     OW22900   1.842   6.103   3.614
 7334SOL    HW122901   1.784   6.100   3.695
 7334SOL    HW222902   1.916   6.036   3.623
 7335SOL     OW22903   0.050   3.875   2.455
 7335SOL    HW122904   0.097   3.858   2.368
 7335SOL    HW222905   7.008   3.951   2.444
 7336SOL     OW22906   2.488   6.617   1.628
 7336SOL    HW122907   2.576   6.658   1.652
 7336SOL    HW222908   2.471   6.629   1.530
 7337SOL     OW22909   2.487   1.238   3.075
 7337SOL    HW122910   2.578   1.278   3.084
 7337SOL    HW222911   2.490   1.141   3.098
 7338SOL     OW22912   5.306   3.800   1.420
 7338SOL    HW122913   5.207   3.788   1.416
 7338SOL    HW222914   5.335   3.868   1.354
 7339SOL     OW22915   0.035   6.216   4.734
 7339SOL    HW122916   7.001   6.218   4.651
 7339SOL    HW222917   0.032   6.124   4.774
 7340SOL     OW22918   3.068   6.731   0.492
 7340SOL    HW122919   3.081   6.670   0.414
 7340SOL    HW222920   3.082   6.680   0.577
 7341SOL     OW22921   6.662   5.688   5.122
 7341SOL    HW122922   6.592   5.698   5.051
 7341SOL    HW222923   6.622   5.643   5.202
 7342SOL     OW22924   1.324   5.287   1.217
 7342SOL    HW122925   1.355   5.382   1.209
 7342SOL    HW222926   1.266   5.278   1.298
 7343SOL     OW22927   5.187   2.749   2.822
 7343SOL    HW122928   5.276   2.712   2.847
 7343SOL    HW222929   5.151   2.804   2.898
 7344SOL     OW22930   2.344   1.238   0.357
 7344SOL    HW122931   2.280   1.175   0.400
 7344SOL    HW222932   2.346   1.221   0.258
 7345SOL     OW22933   3.149   5.366   0.489
 7345SOL    HW122934   3.134   5.333   0.582
 7345SOL    HW222935   3.212   5.305   0.442
 7346SOL     OW22936   3.730   4.862   1.759
 7346SOL    HW122937   3.749   4.944   1.813
 7346SOL    HW222938   3.656   4.809   1.803
 7347SOL     OW22939   6.714   3.377   2.073
 7347SOL    HW122940   6.760   3.442   2.134
 7347SOL    HW222941   6.710   3.287   2.118
 7348SOL     OW22942   0.540   1.382   5.028
 7348SOL    HW122943   0.528   1.473   4.986
 7348SOL    HW222944   0.522   1.388   5.126
 7349SOL     OW22945   3.475   1.154   0.258
 7349SOL    HW122946   3.551   1.088   0.262
 7349SOL    HW222947   3.512   1.246   0.248
 7350SOL     OW22948   2.151   1.128   2.629
 7350SOL    HW122949   2.087   1.163   2.697
 7350SOL    HW222950   2.107   1.130   2.539
 7351SOL     OW22951   4.465   4.470   6.982
 7351SOL    HW122952   4.373   4.437   7.002
 7351SOL    HW222953   4.518   4.396   6.940
 7352SOL     OW22954   6.480   1.130   3.320
 7352SOL    HW122955   6.460   1.050   3.264
 7352SOL    HW222956   6.565   1.115   3.371
 7353SOL     OW22957   5.058   2.255   4.847
 7353SOL    HW122958   5.055   2.331   4.912
 7353SOL    HW222959   5.154   2.236   4.823
 7354SOL     OW22960   6.548   4.288   5.168
 7354SOL    HW122961   6.618   4.347   5.206
 7354SOL    HW222962   6.589   4.224   5.103
 7355SOL     OW22963   0.836   4.438   1.239
 7355SOL    HW122964   0.881   4.413   1.153
 7355SOL    HW222965   0.904   4.469   1.305
 7356SOL     OW22966   6.727   1.553   5.676
 7356SOL    HW122967   6.680   1.483   5.623
 7356SOL    HW222968   6.711   1.538   5.774
 7357SOL     OW22969   0.239   1.740   0.598
 7357SOL    HW122970   0.194   1.730   0.510
 7357SOL    HW222971   0.175   1.712   0.671
 7358SOL     OW22972   3.537   0.741   4.078
 7358SOL    HW122973   3.446   0.777   4.060
 7358SOL    HW222974   3.595   0.757   3.998
 7359SOL     OW22975   3.173   2.941   2.637
 7359SOL    HW122976   3.101   3.003   2.671
 7359SOL    HW222977   3.215   2.894   2.714
 7360SOL     OW22978   0.282   3.397   5.451
 7360SOL    HW122979   0.356   3.456   5.420
 7360SOL    HW222980   0.298   3.371   5.547
 7361SOL     OW22981   5.183   0.160   1.872
 7361SOL    HW122982   5.177   0.075   1.820
 7361SOL    HW222983   5.134   0.150   1.959
 7362SOL     OW22984   1.744   6.962   6.222
 7362SOL    HW122985   1.775   0.033   6.199
 7362SOL    HW222986   1.732   6.909   6.137
 7363SOL     OW22987   5.596   2.906   6.111
 7363SOL    HW122988   5.597   2.825   6.053
 7363SOL    HW222989   5.687   2.946   6.114
 7364SOL     OW22990   5.238   0.935   1.402
 7364SOL    HW122991   5.184   0.975   1.328
 7364SOL    HW222992   5.186   0.861   1.445
 7365SOL     OW22993   3.433   0.477   1.943
 7365SOL    HW122994   3.364   0.447   1.877
 7365SOL    HW222995   3.410   0.570   1.973
 7366SOL     OW22996   0.751   5.468   0.188
 7366SOL    HW122997   0.781   5.556   0.222
 7366SOL    HW222998   0.653   5.471   0.169
 7367SOL     OW22999   5.283   3.616   6.719
 7367SOL    HW123000   5.197   3.614   6.770
 7367SOL    HW223001   5.299   3.526   6.678
 7368SOL     OW23002   2.976   3.252   3.432
 7368SOL    HW123003   3.065   3.217   3.461
 7368SOL    HW223004   2.908   3.234   3.503
 7369SOL     OW23005   5.089   2.493   6.437
 7369SOL    HW123006   5.100   2.583   6.479
 7369SOL    HW223007   4.991   2.474   6.425
 7370SOL     OW23008   1.777   6.174   1.108
 7370SOL    HW123009   1.774   6.106   1.181
 7370SOL    HW223010   1.855   6.156   1.048
 7371SOL     OW23011   2.136   5.143   4.071
 7371SOL    HW123012   2.148   5.134   3.972
 7371SOL    HW223013   2.091   5.061   4.106
 7372SOL     OW23014   3.290   6.690   6.035
 7372SOL    HW123015   3.288   6.702   6.134
 7372SOL    HW223016   3.379   6.655   6.007
 7373SOL     OW23017   3.699   0.471   1.935
 7373SOL    HW123018   3.601   0.485   1.924
 7373SOL    HW223019   3.737   0.542   1.994
 7374SOL     OW23020   2.207   3.893   6.430
 7374SOL    HW123021   2.173   3.979   6.468
 7374SOL    HW223022   2.138   3.854   6.370
 7375SOL     OW23023   1.489   6.635   2.938
 7375SOL    HW123024   1.488   6.693   3.020
 7375SOL    HW223025   1.396   6.603   2.918
 7376SOL     OW23026   2.642   3.867   5.590
 7376SOL    HW123027   2.642   3.891   5.493
 7376SOL    HW223028   2.736   3.853   5.621
 7377SOL     OW23029   4.605   4.841   1.639
 7377SOL    HW123030   4.693   4.796   1.654
 7377SOL    HW223031   4.564   4.807   1.554
 7378SOL     OW23032   6.907   2.136   5.727
 7378SOL    HW123033   6.894   2.145   5.826
 7378SOL    HW223034   6.820   2.113   5.684
 7379SOL     OW23035   4.110   1.259   1.072
 7379SOL    HW123036   4.116   1.349   1.029
 7379SOL    HW223037   4.105   1.189   1.001
 7380SOL     OW23038   6.798   2.294   4.770
 7380SOL    HW123039   6.862   2.218   4.777
 7380SOL    HW223040   6.724   2.269   4.707
 7381SOL     OW23041   5.181   2.339   0.266
 7381SOL    HW123042   5.213   2.418   0.213
 7381SOL    HW223043   5.154   2.266   0.204
 7382SOL     OW23044   6.910   5.937   3.990
 7382SOL    HW123045   6.881   5.951   4.085
 7382SOL    HW223046   6.989   5.995   3.970
 7383SOL     OW23047   6.833   6.199   3.524
 7383SOL    HW123048   6.887   6.240   3.451
 7383SOL    HW223049   6.841   6.253   3.607
 7384SOL     OW23050   5.935   1.238   1.623
 7384SOL    HW123051   6.005   1.208   1.559
 7384SOL    HW223052   5.856   1.273   1.572
 7385SOL     OW23053   5.267   0.217   1.601
 7385SOL    HW123054   5.283   0.125   1.565
 7385SOL    HW223055   5.259   0.213   1.700
 7386SOL     OW23056   0.495   3.018   5.886
 7386SOL    HW123057   0.513   3.013   5.984
 7386SOL    HW223058   0.548   3.094   5.846
 7387SOL     OW23059   3.900   5.861   3.837
 7387SOL    HW123060   3.810   5.905   3.848
 7387SOL    HW223061   3.970   5.919   3.879
 7388SOL     OW23062   6.151   4.553   4.821
 7388SOL    HW123063   6.141   4.454   4.808
 7388SOL    HW223064   6.072   4.588   4.871
 7389SOL     OW23065   0.770   4.196   5.491
 7389SOL    HW123066   0.786   4.241   5.403
 7389SOL    HW223067   0.759   4.266   5.562
 7390SOL     OW23068   2.126   6.703   5.663
 7390SOL    HW123069   2.114   6.612   5.701
 7390SOL    HW223070   2.098   6.771   5.730
 7391SOL     OW23071   0.105   3.946   0.011
 7391SOL    HW123072   0.204   3.934   0.004
 7391SOL    HW223073   0.064   3.867   0.057
 7392SOL     OW23074   2.066   4.820   3.260
 7392SOL    HW123075   1.993   4.751   3.262
 7392SOL    HW223076   2.028   4.909   3.235
 7393SOL     OW23077   0.924   3.280   0.531
 7393SOL    HW123078   0.846   3.273   0.594
 7393SOL    HW223079   0.977   3.361   0.554
 7394SOL     OW23080   2.880   3.323   6.503
 7394SOL    HW123081   2.798   3.364   6.542
 7394SOL    HW223082   2.908   3.375   6.422
 7395SOL     OW23083   1.875   6.749   0.477
 7395SOL    HW123084   1.831   6.689   0.543
 7395SOL    HW223085   1.807   6.810   0.437
 7396SOL     OW23086   1.266   0.031   0.889
 7396SOL    HW123087   1.243   6.955   0.882
 7396SOL    HW223088   1.192   0.085   0.850
 7397SOL     OW23089   6.257   4.301   4.873
 7397SOL    HW123090   6.325   4.374   4.877
 7397SOL    HW223091   6.297   4.221   4.828
 7398SOL     OW23092   4.072   5.742   3.179
 7398SOL    HW123093   4.135   5.794   3.237
 7398SOL    HW223094   3.987   5.793   3.168
 7399SOL     OW23095   5.089   4.125   4.959
 7399SOL    HW123096   5.090   4.218   4.923
 7399SOL    HW223097   5.007   4.077   4.926
 7400SOL     OW23098   2.348   5.140   6.734
 7400SOL    HW123099   2.321   5.051   6.770
 7400SOL    HW223100   2.432   5.130   6.680
 7401SOL     OW23101   5.164   1.528   4.263
 7401SOL    HW123102   5.109   1.540   4.346
 7401SOL    HW223103   5.245   1.474   4.284
 7402SOL     OW23104   2.035   7.007   3.329
 7402SOL    HW123105   1.961   6.956   3.285
 7402SOL    HW223106   2.120   6.994   3.277
 7403SOL     OW23107   1.839   3.649   1.650
 7403SOL    HW123108   1.794   3.680   1.566
 7403SOL    HW223109   1.938   3.642   1.634
 7404SOL     OW23110   1.081   1.616   3.024
 7404SOL    HW123111   1.106   1.520   3.042
 7404SOL    HW223112   1.133   1.675   3.085
 7405SOL     OW23113   3.065   4.639   6.093
 7405SOL    HW123114   3.162   4.620   6.107
 7405SOL    HW223115   3.050   4.738   6.093
 7406SOL     OW23116   0.542   5.550   2.076
 7406SOL    HW123117   0.544   5.628   2.013
 7406SOL    HW223118   0.494   5.576   2.160
 7407SOL     OW23119   1.855   0.657   5.601
 7407SOL    HW123120   1.803   0.609   5.530
 7407SOL    HW223121   1.951   0.630   5.596
 7408SOL     OW23122   0.495   3.543   5.375
 7408SOL    HW123123   0.500   3.631   5.421
 7408SOL    HW223124   0.555   3.545   5.294
 7409SOL     OW23125   3.069   5.775   6.153
 7409SOL    HW123126   3.054   5.694   6.211
 7409SOL    HW223127   3.031   5.758   6.062
 7410SOL     OW23128   5.749   5.192   0.787
 7410SOL    HW123129   5.784   5.106   0.822
 7410SOL    HW223130   5.806   5.222   0.710
 7411SOL     OW23131   5.000   5.369   6.004
 7411SOL    HW123132   4.967   5.441   6.064
 7411SOL    HW223133   4.923   5.328   5.955
 7412SOL     OW23134   1.229   2.341   0.042
 7412SOL    HW123135   1.178   2.376   6.984
 7412SOL    HW223136   1.293   2.410   0.073
 7413SOL     OW23137   6.930   3.356   4.195
 7413SOL    HW123138   6.992   3.301   4.250
 7413SOL    HW223139   6.849   3.380   4.249
 7414SOL     OW23140   6.555   5.448   2.907
 7414SOL    HW123141   6.617   5.519   2.940
 7414SOL    HW223142   6.469   5.452   2.958
 7415SOL     OW23143   2.686   1.789   2.579
 7415SOL    HW123144   2.599   1.755   2.543
 7415SOL    HW223145   2.672   1.880   2.618
 7416SOL     OW23146   5.582   0.065   3.979
 7416SOL    HW123147   5.504   0.031   4.031
 7416SOL    HW223148   5.634   0.130   4.034
 7417SOL     OW23149   0.812   6.113   0.449
 7417SOL    HW123150   0.750   6.175   0.400
 7417SOL    HW223151   0.904   6.153   0.451
 7418SOL     OW23152   1.115   3.904   0.383
 7418SOL    HW123153   1.075   3.989   0.415
 7418SOL    HW223154   1.091   3.830   0.446
 7419SOL     OW23155   5.139   0.742   4.904
 7419SOL    HW123156   5.119   0.832   4.864
 7419SOL    HW223157   5.071   0.720   4.973
 7420SOL     OW23158   6.881   5.783   2.002
 7420SOL    HW123159   6.828   5.740   1.929
 7420SOL    HW223160   6.823   5.799   2.081
 7421SOL     OW23161   4.086   2.982   1.428
 7421SOL    HW123162   4.039   3.060   1.469
 7421SOL    HW223163   4.176   3.010   1.395
 7422SOL     OW23164   1.102   2.799   1.018
 7422SOL    HW123165   1.064   2.796   0.925
 7422SOL    HW223166   1.191   2.754   1.018
 7423SOL     OW23167   2.064   5.694   0.041
 7423SOL    HW123168   2.127   5.617   0.048
 7423SOL    HW223169   2.003   5.680   6.984
 7424SOL     OW23170   5.778   1.292   4.468
 7424SOL    HW123171   5.732   1.282   4.380
 7424SOL    HW223172   5.854   1.357   4.458
 7425SOL     OW23173   4.175   6.865   5.964
 7425SOL    HW123174   4.080   6.896   5.968
 7425SOL    HW223175   4.187   6.803   5.887
 7426SOL     OW23176   0.809   1.199   0.172
 7426SOL    HW123177   0.748   1.189   0.093
 7426SOL    HW223178   0.852   1.110   0.192
 7427SOL     OW23179   4.347   5.486   4.587
 7427SOL    HW123180   4.283   5.432   4.641
 7427SOL    HW223181   4.437   5.485   4.630
 7428SOL     OW23182   2.746   1.677   5.795
 7428SOL    HW123183   2.804   1.625   5.732
 7428SOL    HW223184   2.741   1.629   5.883
 7429SOL     OW23185   6.637   6.696   3.537
 7429SOL    HW123186   6.670   6.774   3.590
 7429SOL    HW223187   6.575   6.728   3.466
 7430SOL     OW23188   0.600   4.351   4.679
 7430SOL    HW123189   0.685   4.402   4.666
 7430SOL    HW223190   0.533   4.409   4.725
 7431SOL     OW23191   1.255   4.640   2.734
 7431SOL    HW123192   1.290   4.731   2.755
 7431SOL    HW223193   1.163   4.648   2.696
 7432SOL     OW23194   1.048   5.947   5.239
 7432SOL    HW123195   0.999   5.998   5.169
 7432SOL    HW223196   1.144   5.975   5.240
 7433SOL     OW23197   6.650   5.749   1.185
 7433SOL    HW123198   6.700   5.692   1.250
 7433SOL    HW223199   6.562   5.707   1.164
 7434SOL     OW23200   4.541   0.031   6.737
 7434SOL    HW123201   4.617   0.037   6.672
 7434SOL    HW223202   4.559   6.980   6.803
 7435SOL     OW23203   1.617   6.085   0.769
 7435SOL    HW123204   1.671   6.071   0.686
 7435SOL    HW223205   1.590   5.997   0.807
 7436SOL     OW23206   5.305   2.909   6.791
 7436SOL    HW123207   5.237   2.931   6.720
 7436SOL    HW223208   5.320   2.989   6.848
 7437SOL     OW23209   0.232   5.576   6.144
 7437SOL    HW123210   0.305   5.552   6.080
 7437SOL    HW223211   0.252   5.665   6.186
 7438SOL     OW23212   6.066   4.378   1.871
 7438SOL    HW123213   6.074   4.476   1.887
 7438SOL    HW223214   6.003   4.362   1.795
 7439SOL     OW23215   1.350   6.451   3.686
 7439SOL    HW123216   1.370   6.391   3.764
 7439SOL    HW223217   1.425   6.448   3.621
 7440SOL     OW23218   0.857   2.411   4.126
 7440SOL    HW123219   0.856   2.332   4.188
 7440SOL    HW223220   0.861   2.378   4.032
 7441SOL     OW23221   5.626   0.084   3.719
 7441SOL    HW123222   5.624   0.066   3.817
 7441SOL    HW223223   5.721   0.098   3.690
 7442SOL     OW23224   1.495   1.130   7.008
 7442SOL    HW123225   1.578   1.099   0.032
 7442SOL    HW223226   1.468   1.063   6.938
 7443SOL     OW23227   0.108   1.201   0.534
 7443SOL    HW123228   0.164   1.172   0.612
 7443SOL    HW223229   0.080   1.120   0.482
 7444SOL     OW23230   0.100   2.535   6.483
 7444SOL    HW123231   0.027   2.533   6.414
 7444SOL    HW223232   0.188   2.548   6.438
 7445SOL     OW23233   5.717   3.145   2.558
 7445SOL    HW123234   5.673   3.062   2.593
 7445SOL    HW223235   5.808   3.121   2.522
 7446SOL     OW23236   7.010   3.558   0.898
 7446SOL    HW123237   6.945   3.510   0.957
 7446SOL    HW223238   0.036   3.628   0.951
 7447SOL     OW23239   0.169   4.322   6.271
 7447SOL    HW123240   0.200   4.236   6.228
 7447SOL    HW223241   0.217   4.399   6.229
 7448SOL     OW23242   6.805   6.523   6.037
 7448SOL    HW123243   6.882   6.465   6.013
 7448SOL    HW223244   6.756   6.550   5.953
 7449SOL     OW23245   4.554   1.028   1.827
 7449SOL    HW123246   4.522   0.940   1.793
 7449SOL    HW223247   4.483   1.070   1.884
 7450SOL     OW23248   3.228   0.180   2.935
 7450SOL    HW123249   3.189   0.088   2.928
 7450SOL    HW223250   3.327   0.175   2.944
 7451SOL     OW23251   1.371   1.086   3.254
 7451SOL    HW123252   1.394   1.102   3.158
 7451SOL    HW223253   1.400   0.994   3.281
 7452SOL     OW23254   1.514   6.633   4.601
 7452SOL    HW123255   1.416   6.617   4.613
 7452SOL    HW223256   1.548   6.689   4.676
 7453SOL     OW23257   5.269   5.893   5.271
 7453SOL    HW123258   5.221   5.811   5.239
 7453SOL    HW223259   5.361   5.895   5.230
 7454SOL     OW23260   0.463   3.241   0.423
 7454SOL    HW123261   0.553   3.245   0.381
 7454SOL    HW223262   0.472   3.244   0.523
 7455SOL     OW23263   5.751   1.335   0.378
 7455SOL    HW123264   5.827   1.281   0.415
 7455SOL    HW223265   5.774   1.432   0.380
 7456SOL     OW23266   1.891   3.070   5.708
 7456SOL    HW123267   1.893   3.128   5.627
 7456SOL    HW223268   1.949   2.989   5.692
 7457SOL     OW23269   5.980   0.204   5.984
 7457SOL    HW123270   6.004   0.277   5.920
 7457SOL    HW223271   6.062   0.153   6.010
 7458SOL     OW23272   2.563   0.970   0.507
 7458SOL    HW123273   2.490   0.987   0.573
 7458SOL    HW223274   2.570   0.872   0.490
 7459SOL     OW23275   4.321   0.517   4.921
 7459SOL    HW123276   4.398   0.454   4.911
 7459SOL    HW223277   4.265   0.490   4.999
 7460SOL     OW23278   0.916   5.251   0.041
 7460SOL    HW123279   0.854   5.173   0.043
 7460SOL    HW223280   0.883   5.321   0.104
 7461SOL     OW23281   4.640   0.285   4.010
 7461SOL    HW123282   4.672   0.264   3.918
 7461SOL    HW223283   4.546   0.319   4.005
 7462SOL     OW23284   1.764   1.505   2.234
 7462SOL    HW123285   1.676   1.525   2.192
 7462SOL    HW223286   1.837   1.536   2.174
 7463SOL     OW23287   3.308   3.461   1.962
 7463SOL    HW123288   3.287   3.504   2.050
 7463SOL    HW223289   3.237   3.486   1.896
 7464SOL     OW23290   5.354   6.425   6.387
 7464SOL    HW123291   5.357   6.327   6.367
 7464SOL    HW223292   5.260   6.459   6.376
 7465SOL     OW23293   3.218   0.677   1.586
 7465SOL    HW123294   3.123   0.707   1.589
 7465SOL    HW223295   3.277   0.750   1.622
 7466SOL     OW23296   0.839   0.256   6.415
 7466SOL    HW123297   0.903   0.245   6.492
 7466SOL    HW223298   0.771   0.326   6.438
 7467SOL     OW23299   6.173   1.785   1.448
 7467SOL    HW123300   6.095   1.772   1.509
 7467SOL    HW223301   6.246   1.721   1.472
 7468SOL     OW23302   6.568   3.648   3.787
 7468SOL    HW123303   6.570   3.570   3.849
 7468SOL    HW223304   6.485   3.645   3.732
 7469SOL     OW23305   6.880   1.268   1.938
 7469SOL    HW123306   6.939   1.308   2.009
 7469SOL    HW223307   6.907   1.173   1.923
 7470SOL     OW23308   0.105   2.422   2.311
 7470SOL    HW123309   0.006   2.411   2.308
 7470SOL    HW223310   0.133   2.446   2.404
 7471SOL     OW23311   6.226   5.489   6.098
 7471SOL    HW123312   6.146   5.437   6.128
 7471SOL    HW223313   6.306   5.460   6.151
 7472SOL     OW23314   3.323   5.608   3.575
 7472SOL    HW123315   3.279   5.695   3.594
 7472SOL    HW223316   3.329   5.554   3.658
 7473SOL     OW23317   0.371   3.654   5.097
 7473SOL    HW123318   0.284   3.608   5.115
 7473SOL    HW223319   0.440   3.621   5.161
 7474SOL     OW23320   3.991   0.796   2.616
 7474SOL    HW123321   3.903   0.802   2.663
 7474SOL    HW223322   4.024   0.888   2.596
 7475SOL     OW23323   4.234   1.510   0.256
 7475SOL    HW123324   4.230   1.596   0.204
 7475SOL    HW223325   4.246   1.433   0.192
 7476SOL     OW23326   3.056   6.883   5.087
 7476SOL    HW123327   3.120   6.959   5.101
 7476SOL    HW223328   3.078   6.837   5.001
 7477SOL     OW23329   4.644   2.260   3.431
 7477SOL    HW123330   4.731   2.293   3.466
 7477SOL    HW223331   4.608   2.323   3.363
 7478SOL     OW23332   1.832   5.040   0.825
 7478SOL    HW123333   1.920   5.005   0.859
 7478SOL    HW223334   1.833   5.040   0.725
 7479SOL     OW23335   4.691   0.525   6.145
 7479SOL    HW123336   4.630   0.604   6.145
 7479SOL    HW223337   4.766   0.541   6.081
 7480SOL     OW23338   0.017   5.028   1.241
 7480SOL    HW123339   0.023   4.948   1.182
 7480SOL    HW223340   6.945   5.064   1.239
 7481SOL     OW23341   6.402   5.319   0.383
 7481SOL    HW123342   6.330   5.264   0.342
 7481SOL    HW223343   6.369   5.358   0.470
 7482SOL     OW23344   4.831   0.453   4.311
 7482SOL    HW123345   4.825   0.353   4.311
 7482SOL    HW223346   4.890   0.482   4.236
 7483SOL     OW23347   3.330   0.351   6.320
 7483SOL    HW123348   3.323   0.421   6.250
 7483SOL    HW223349   3.425   0.341   6.348
 7484SOL     OW23350   2.687   0.117   2.340
 7484SOL    HW123351   2.630   0.125   2.259
 7484SOL    HW223352   2.724   0.207   2.364
 7485SOL     OW23353   1.439   0.047   6.653
 7485SOL    HW123354   1.495   0.052   6.570
 7485SOL    HW223355   1.425   6.973   6.678
 7486SOL     OW23356   1.814   0.416   5.283
 7486SOL    HW123357   1.848   0.329   5.248
 7486SOL    HW223358   1.736   0.446   5.228
 7487SOL     OW23359   4.400   5.110   3.294
 7487SOL    HW123360   4.397   5.208   3.273
 7487SOL    HW223361   4.485   5.089   3.341
 7488SOL     OW23362   3.615   0.868   5.765
 7488SOL    HW123363   3.699   0.908   5.800
 7488SOL    HW223364   3.623   0.852   5.667
 7489SOL     OW23365   6.352   3.719   3.320
 7489SOL    HW123366   6.359   3.689   3.225
 7489SOL    HW223367   6.311   3.647   3.376
 7490SOL     OW23368   5.455   1.371   1.846
 7490SOL    HW123369   5.519   1.419   1.905
 7490SOL    HW223370   5.501   1.343   1.762
 7491SOL     OW23371   6.523   5.813   6.498
 7491SOL    HW123372   6.456   5.834   6.569
 7491SOL    HW223373   6.502   5.867   6.416
 7492SOL     OW23374   2.357   2.604   4.403
 7492SOL    HW123375   2.421   2.608   4.479
 7492SOL    HW223376   2.406   2.584   4.318
 7493SOL     OW23377   5.369   3.612   6.974
 7493SOL    HW123378   5.294   3.638   0.015
 7493SOL    HW223379   5.333   3.604   6.881
 7494SOL     OW23380   4.928   1.893   1.531
 7494SOL    HW123381   4.860   1.913   1.602
 7494SOL    HW223382   4.889   1.911   1.441
 7495SOL     OW23383   0.294   1.755   2.503
 7495SOL    HW123384   0.287   1.740   2.602
 7495SOL    HW223385   0.279   1.668   2.455
 7496SOL     OW23386   1.355   4.578   5.353
 7496SOL    HW123387   1.430   4.629   5.394
 7496SOL    HW223388   1.389   4.491   5.316
 7497SOL     OW23389   2.253   4.945   1.732
 7497SOL    HW123390   2.263   4.867   1.795
 7497SOL    HW223391   2.319   4.937   1.658
 7498SOL     OW23392   4.455   1.296   4.515
 7498SOL    HW123393   4.453   1.385   4.470
 7498SOL    HW223394   4.445   1.224   4.447
 7499SOL     OW23395   4.754   5.760   3.786
 7499SOL    HW123396   4.731   5.761   3.689
 7499SOL    HW223397   4.819   5.687   3.805
 7500SOL     OW23398   5.259   4.673   1.683
 7500SOL    HW123399   5.343   4.648   1.635
 7500SOL    HW223400   5.269   4.656   1.781
 7501SOL     OW23401   6.680   4.329   3.466
 7501SOL    HW123402   6.740   4.272   3.410
 7501SOL    HW223403   6.732   4.404   3.506
 7502SOL     OW23404   2.124   1.344   4.433
 7502SOL    HW123405   2.032   1.337   4.396
 7502SOL    HW223406   2.128   1.418   4.501
 7503SOL     OW23407   2.605   2.753   6.295
 7503SOL    HW123408   2.510   2.723   6.290
 7503SOL    HW223409   2.611   2.852   6.279
 7504SOL     OW23410   4.092   5.680   3.983
 7504SOL    HW123411   4.020   5.685   3.913
 7504SOL    HW223412   4.172   5.634   3.946
 7505SOL     OW23413   1.377   1.684   4.717
 7505SOL    HW123414   1.469   1.723   4.715
 7505SOL    HW223415   1.355   1.655   4.811
 7506SOL     OW23416   3.975   1.436   3.708
 7506SOL    HW123417   4.065   1.431   3.751
 7506SOL    HW223418   3.986   1.448   3.610
 7507SOL     OW23419   1.165   6.052   5.715
 7507SOL    HW123420   1.132   6.096   5.632
 7507SOL    HW223421   1.254   6.011   5.698
 7508SOL     OW23422   4.358   0.312   4.007
 7508SOL    HW123423   4.321   0.221   4.023
 7508SOL    HW223424   4.375   0.325   3.910
 7509SOL     OW23425   5.018   3.539   5.473
 7509SOL    HW123426   5.019   3.524   5.572
 7509SOL    HW223427   5.039   3.453   5.426
 7510SOL     OW23428   3.780   4.190   4.881
 7510SOL    HW123429   3.843   4.249   4.830
 7510SOL    HW223430   3.792   4.206   4.979
 7511SOL     OW23431   1.564   1.011   2.582
 7511SOL    HW123432   1.624   1.073   2.634
 7511SOL    HW223433   1.613   0.975   2.504
 7512SOL     OW23434   2.137   2.668   1.689
 7512SOL    HW123435   2.135   2.767   1.679
 7512SOL    HW223436   2.157   2.626   1.600
 7513SOL     OW23437   1.197   2.931   6.757
 7513SOL    HW123438   1.215   2.924   6.855
 7513SOL    HW223439   1.242   3.013   6.721
 7514SOL     OW23440   2.651   6.158   3.269
 7514SOL    HW123441   2.602   6.179   3.353
 7514SOL    HW223442   2.601   6.195   3.191
 7515SOL     OW23443   6.201   5.196   2.753
 7515SOL    HW123444   6.242   5.235   2.670
 7515SOL    HW223445   6.104   5.221   2.758
 7516SOL     OW23446   0.839   0.612   3.117
 7516SOL    HW123447   0.862   0.588   3.212
 7516SOL    HW223448   0.908   0.574   3.055
 7517SOL     OW23449   0.578   3.952   1.487
 7517SOL    HW123450   0.652   3.886   1.470
 7517SOL    HW223451   0.539   3.935   1.578
 7518SOL     OW23452   4.663   5.838   3.498
 7518SOL    HW123453   4.758   5.824   3.472
 7518SOL    HW223454   4.603   5.794   3.431
 7519SOL     OW23455   2.245   5.581   3.932
 7519SOL    HW123456   2.297   5.500   3.904
 7519SOL    HW223457   2.236   5.643   3.854
 7520SOL     OW23458   2.197   0.215   4.661
 7520SOL    HW123459   2.230   0.150   4.593
 7520SOL    HW223460   2.144   0.286   4.616
 7521SOL     OW23461   5.353   4.573   5.892
 7521SOL    HW123462   5.259   4.597   5.918
 7521SOL    HW223463   5.395   4.650   5.844
 7522SOL     OW23464   1.727   0.883   1.853
 7522SOL    HW123465   1.808   0.838   1.891
 7522SOL    HW223466   1.685   0.941   1.922
 7523SOL     OW23467   6.097   6.640   6.618
 7523SOL    HW123468   6.003   6.613   6.635
 7523SOL    HW223469   6.101   6.739   6.605
 7524SOL     OW23470   6.727   1.353   4.538
 7524SOL    HW123471   6.650   1.305   4.579
 7524SOL    HW223472   6.718   1.451   4.554
 7525SOL     OW23473   1.620   6.761   1.050
 7525SOL    HW123474   1.673   6.834   1.094
 7525SOL    HW223475   1.552   6.726   1.115
 7526SOL     OW23476   3.621   3.232   5.023
 7526SOL    HW123477   3.629   3.289   5.105
 7526SOL    HW223478   3.693   3.163   5.023
 7527SOL     OW23479   5.535   4.844   2.313
 7527SOL    HW123480   5.438   4.826   2.323
 7527SOL    HW223481   5.554   4.939   2.338
 7528SOL     OW23482   6.305   3.975   6.214
 7528SOL    HW123483   6.212   3.954   6.242
 7528SOL    HW223484   6.304   4.011   6.120
 7529SOL     OW23485   2.969   0.444   5.768
 7529SOL    HW123486   3.003   0.500   5.693
 7529SOL    HW223487   2.890   0.390   5.736
 7530SOL     OW23488   0.182   3.405   2.246
 7530SOL    HW123489   0.205   3.501   2.261
 7530SOL    HW223490   0.220   3.350   2.320
 7531SOL     OW23491   3.545   1.976   2.993
 7531SOL    HW123492   3.446   1.987   2.983
 7531SOL    HW223493   3.576   2.022   3.076
 7532SOL     OW23494   4.998   4.860   2.305
 7532SOL    HW123495   4.951   4.948   2.307
 7532SOL    HW223496   4.932   4.786   2.321
 7533SOL     OW23497   3.709   0.121   4.668
 7533SOL    HW123498   3.782   0.063   4.705
 7533SOL    HW223499   3.732   0.217   4.682
 7534SOL     OW23500   5.013   0.170   4.618
 7534SOL    HW123501   5.008   0.152   4.717
 7534SOL    HW223502   4.921   0.188   4.583
 7535SOL     OW23503   3.048   3.614   6.569
 7535SOL    HW123504   3.066   3.618   6.667
 7535SOL    HW223505   2.959   3.657   6.550
 7536SOL     OW23506   3.775   6.186   4.026
 7536SOL    HW123507   3.713   6.229   3.960
 7536SOL    HW223508   3.748   6.091   4.040
 7537SOL     OW23509   2.285   4.800   6.045
 7537SOL    HW123510   2.363   4.740   6.060
 7537SOL    HW223511   2.201   4.754   6.073
 7538SOL     OW23512   3.420   3.252   2.774
 7538SOL    HW123513   3.336   3.300   2.749
 7538SOL    HW223514   3.493   3.318   2.790
 7539SOL     OW23515   1.999   2.549   4.583
 7539SOL    HW123516   2.020   2.641   4.615
 7539SOL    HW223517   2.066   2.485   4.620
 7540SOL     OW23518   2.091   1.514   0.577
 7540SOL    HW123519   2.036   1.576   0.521
 7540SOL    HW223520   2.056   1.514   0.671
 7541SOL     OW23521   6.621   2.762   5.599
 7541SOL    HW123522   6.666   2.777   5.687
 7541SOL    HW223523   6.531   2.721   5.614
 7542SOL     OW23524   2.083   0.258   6.833
 7542SOL    HW123525   2.145   0.275   6.756
 7542SOL    HW223526   2.012   0.195   6.806
 7543SOL     OW23527   4.011   3.102   6.918
 7543SOL    HW123528   4.073   3.104   6.840
 7543SOL    HW223529   4.019   3.014   6.964
 7544SOL     OW23530   2.082   2.105   2.782
 7544SOL    HW123531   1.992   2.063   2.790
 7544SOL    HW223532   2.117   2.127   2.873
 7545SOL     OW23533   5.395   6.742   4.233
 7545SOL    HW123534   5.405   6.841   4.224
 7545SOL    HW223535   5.447   6.711   4.313
 7546SOL     OW23536   4.791   0.459   6.693
 7546SOL    HW123537   4.854   0.520   6.740
 7546SOL    HW223538   4.729   0.417   6.759
 7547SOL     OW23539   3.300   0.242   0.165
 7547SOL    HW123540   3.353   0.245   0.250
 7547SOL    HW223541   3.304   0.150   0.126
 7548SOL     OW23542   1.280   2.558   1.544
 7548SOL    HW123543   1.353   2.607   1.591
 7548SOL    HW223544   1.310   2.533   1.452
 7549SOL     OW23545   6.245   2.324   1.964
 7549SOL    HW123546   6.151   2.303   1.993
 7549SOL    HW223547   6.309   2.267   2.016
 7550SOL     OW23548   1.729   5.352   1.090
 7550SOL    HW123549   1.660   5.281   1.103
 7550SOL    HW223550   1.698   5.437   1.133
 7551SOL     OW23551   4.702   4.037   6.386
 7551SOL    HW123552   4.740   4.003   6.472
 7551SOL    HW223553   4.675   3.960   6.329
 7552SOL     OW23554   3.630   5.249   4.010
 7552SOL    HW123555   3.707   5.190   3.984
 7552SOL    HW223556   3.664   5.330   4.057
 7553SOL     OW23557   4.321   4.717   5.725
 7553SOL    HW123558   4.320   4.703   5.824
 7553SOL    HW223559   4.385   4.653   5.684
 7554SOL     OW23560   6.558   1.249   1.119
 7554SOL    HW123561   6.645   1.203   1.100
 7554SOL    HW223562   6.543   1.319   1.049
 7555SOL     OW23563   0.777   5.788   5.684
 7555SOL    HW123564   0.859   5.794   5.627
 7555SOL    HW223565   0.780   5.861   5.753
 7556SOL     OW23566   6.971   3.007   4.196
 7556SOL    HW123567   7.002   3.088   4.148
 7556SOL    HW223568   0.018   2.981   4.265
 7557SOL     OW23569   4.559   3.906   0.093
 7557SOL    HW123570   4.618   3.966   0.148
 7557SOL    HW223571   4.616   3.849   0.034
 7558SOL     OW23572   1.610   3.316   4.263
 7558SOL    HW123573   1.564   3.403   4.244
 7558SOL    HW223574   1.542   3.242   4.263
 7559SOL     OW23575   0.623   4.818   1.077
 7559SOL    HW123576   0.701   4.765   1.043
 7559SOL    HW223577   0.543   4.801   1.019
 7560SOL     OW23578   4.103   6.620   6.872
 7560SOL    HW123579   4.093   6.710   6.914
 7560SOL    HW223580   4.063   6.550   6.930
 7561SOL     OW23581   0.726   2.801   1.058
 7561SOL    HW123582   0.637   2.762   1.081
 7561SOL    HW223583   0.740   2.796   0.959
 7562SOL     OW23584   4.748   5.586   5.611
 7562SOL    HW123585   4.684   5.663   5.605
 7562SOL    HW223586   4.819   5.598   5.541
 7563SOL     OW23587   1.997   1.124   2.421
 7563SOL    HW123588   2.032   1.135   2.328
 7563SOL    HW223589   1.937   1.044   2.426
 7564SOL     OW23590   5.408   6.276   4.075
 7564SOL    HW123591   5.406   6.245   4.170
 7564SOL    HW223592   5.463   6.213   4.021
 7565SOL     OW23593   4.601   4.442   0.798
 7565SOL    HW123594   4.564   4.351   0.779
 7565SOL    HW223595   4.701   4.440   0.787
 7566SOL     OW23596   1.907   5.824   4.677
 7566SOL    HW123597   1.865   5.791   4.762
 7566SOL    HW223598   1.869   5.913   4.653
 7567SOL     OW23599   2.761   3.321   0.374
 7567SOL    HW123600   2.675   3.335   0.424
 7567SOL    HW223601   2.836   3.360   0.426
 7568SOL     OW23602   5.112   4.361   3.088
 7568SOL    HW123603   5.184   4.353   3.019
 7568SOL    HW223604   5.152   4.371   3.179
 7569SOL     OW23605   4.176   6.854   0.521
 7569SOL    HW123606   4.190   6.941   0.569
 7569SOL    HW223607   4.080   6.829   0.523
 7570SOL     OW23608   6.357   4.701   4.869
 7570SOL    HW123609   6.265   4.670   4.845
 7570SOL    HW223610   6.406   4.626   4.915
 7571SOL     OW23611   5.175   3.927   1.922
 7571SOL    HW123612   5.220   3.840   1.944
 7571SOL    HW223613   5.076   3.915   1.928
 7572SOL     OW23614   2.341   1.904   4.441
 7572SOL    HW123615   2.425   1.892   4.493
 7572SOL    HW223616   2.314   2.001   4.444
 7573SOL     OW23617   2.380   5.696   5.199
 7573SOL    HW123618   2.283   5.689   5.220
 7573SOL    HW223619   2.391   5.722   5.103
 7574SOL     OW23620   4.991   6.264   2.644
 7574SOL    HW123621   5.039   6.208   2.576
 7574SOL    HW223622   5.040   6.349   2.659
 7575SOL     OW23623   4.441   2.349   4.984
 7575SOL    HW123624   4.445   2.310   4.892
 7575SOL    HW223625   4.346   2.356   5.013
 7576SOL     OW23626   6.152   3.427   1.074
 7576SOL    HW123627   6.233   3.451   1.021
 7576SOL    HW223628   6.180   3.379   1.157
 7577SOL     OW23629   4.590   0.278   5.522
 7577SOL    HW123630   4.543   0.218   5.458
 7577SOL    HW223631   4.570   0.248   5.616
 7578SOL     OW23632   2.609   4.652   4.359
 7578SOL    HW123633   2.591   4.671   4.456
 7578SOL    HW223634   2.578   4.560   4.336
 7579SOL     OW23635   4.092   1.615   3.038
 7579SOL    HW123636   4.019   1.663   2.989
 7579SOL    HW223637   4.155   1.573   2.972
 7580SOL     OW23638   1.876   4.117   3.459
 7580SOL    HW123639   1.880   4.063   3.375
 7580SOL    HW223640   1.781   4.132   3.484
 7581SOL     OW23641   5.986   0.606   1.181
 7581SOL    HW123642   5.995   0.703   1.160
 7581SOL    HW223643   5.939   0.595   1.269
 7582SOL     OW23644   2.737   1.394   0.987
 7582SOL    HW123645   2.673   1.438   0.924
 7582SOL    HW223646   2.695   1.388   1.078
 7583SOL     OW23647   0.321   3.641   2.299
 7583SOL    HW123648   0.418   3.659   2.282
 7583SOL    HW223649   0.308   3.620   2.396
 7584SOL     OW23650   2.186   1.209   1.457
 7584SOL    HW123651   2.255   1.216   1.529
 7584SOL    HW223652   2.228   1.229   1.368
 7585SOL     OW23653   1.722   4.976   5.744
 7585SOL    HW123654   1.689   4.896   5.694
 7585SOL    HW223655   1.815   4.959   5.775
 7586SOL     OW23656   2.310   1.171   2.015
 7586SOL    HW123657   2.389   1.221   1.980
 7586SOL    HW223658   2.317   1.075   1.988
 7587SOL     OW23659   1.911   0.974   6.316
 7587SOL    HW123660   1.815   0.947   6.314
 7587SOL    HW223661   1.941   0.998   6.224
 7588SOL     OW23662   0.305   4.059   1.488
 7588SOL    HW123663   0.301   4.029   1.392
 7588SOL    HW223664   0.397   4.042   1.524
 7589SOL     OW23665   5.917   6.104   0.444
 7589SOL    HW123666   5.894   6.017   0.400
 7589SOL    HW223667   5.921   6.177   0.376
 7590SOL     OW23668   1.903   0.989   6.024
 7590SOL    HW123669   1.909   0.892   5.999
 7590SOL    HW223670   1.931   1.045   5.946
 7591SOL     OW23671   6.582   4.884   0.328
 7591SOL    HW123672   6.592   4.905   0.426
 7591SOL    HW223673   6.527   4.801   0.318
 7592SOL     OW23674   5.393   5.620   0.340
 7592SOL    HW123675   5.458   5.674   0.394
 7592SOL    HW223676   5.359   5.676   0.264
 7593SOL     OW23677   5.872   2.790   6.468
 7593SOL    HW123678   5.958   2.823   6.508
 7593SOL    HW223679   5.824   2.733   6.534
 7594SOL     OW23680   1.387   6.049   4.045
 7594SOL    HW123681   1.432   5.970   4.086
 7594SOL    HW223682   1.290   6.047   4.065
 7595SOL     OW23683   6.143   2.980   0.110
 7595SOL    HW123684   6.195   3.049   0.059
 7595SOL    HW223685   6.192   2.893   0.105
 7596SOL     OW23686   5.141   4.620   1.965
 7596SOL    HW123687   5.114   4.712   1.991
 7596SOL    HW223688   5.223   4.594   2.017
 7597SOL     OW23689   3.210   5.359   1.643
 7597SOL    HW123690   3.196   5.419   1.564
 7597SOL    HW223691   3.303   5.322   1.639
 7598SOL     OW23692   6.506   0.910   3.143
 7598SOL    HW123693   6.523   0.949   3.052
 7598SOL    HW223694   6.418   0.862   3.143
 7599SOL     OW23695   6.542   2.077   1.943
 7599SOL    HW123696   6.458   2.066   1.995
 7599SOL    HW223697   6.564   1.991   1.896
 7600SOL     OW23698   2.135   1.960   1.577
 7600SOL    HW123699   2.151   2.058   1.587
 7600SOL    HW223700   2.216   1.909   1.605
 7601SOL     OW23701   2.547   6.306   5.236
 7601SOL    HW123702   2.612   6.380   5.219
 7601SOL    HW223703   2.454   6.338   5.217
 7602SOL     OW23704   2.128   3.531   4.807
 7602SOL    HW123705   2.143   3.456   4.871
 7602SOL    HW223706   2.167   3.507   4.718
 7603SOL     OW23707   0.881   0.460   1.804
 7603SOL    HW123708   0.797   0.418   1.836
 7603SOL    HW223709   0.923   0.402   1.734
 7604SOL     OW23710   4.963   6.323   6.434
 7604SOL    HW123711   4.977   6.256   6.362
 7604SOL    HW223712   4.888   6.293   6.493
 7605SOL     OW23713   5.707   4.639   5.967
 7605SOL    HW123714   5.669   4.720   6.011
 7605SOL    HW223715   5.666   4.557   6.008
 7606SOL     OW23716   5.725   2.165   2.376
 7606SOL    HW123717   5.659   2.235   2.347
 7606SOL    HW223718   5.805   2.210   2.417
 7607SOL     OW23719   5.197   6.756   6.909
 7607SOL    HW123720   5.190   6.845   6.955
 7607SOL    HW223721   5.215   6.686   6.978
 7608SOL     OW23722   3.440   2.854   3.403
 7608SOL    HW123723   3.475   2.928   3.347
 7608SOL    HW223724   3.516   2.797   3.435
 7609SOL     OW23725   1.366   3.129   4.620
 7609SOL    HW123726   1.380   3.047   4.565
 7609SOL    HW223727   1.440   3.194   4.603
 7610SOL     OW23728   5.169   0.043   1.349
 7610SOL    HW123729   5.103   0.026   1.275
 7610SOL    HW223730   5.120   0.067   1.433
 7611SOL     OW23731   2.055   2.000   1.330
 7611SOL    HW123732   2.086   1.980   1.423
 7611SOL    HW223733   2.052   1.915   1.277
 7612SOL     OW23734   4.283   1.140   2.972
 7612SOL    HW123735   4.333   1.065   3.015
 7612SOL    HW223736   4.279   1.126   2.873
 7613SOL     OW23737   4.664   1.021   2.137
 7613SOL    HW123738   4.699   1.021   2.043
 7613SOL    HW223739   4.627   1.111   2.158
 7614SOL     OW23740   4.276   1.914   0.426
 7614SOL    HW123741   4.181   1.899   0.396
 7614SOL    HW223742   4.277   1.975   0.505
 7615SOL     OW23743   3.621   5.111   5.426
 7615SOL    HW123744   3.704   5.148   5.385
 7615SOL    HW223745   3.598   5.024   5.383
 7616SOL     OW23746   5.944   4.636   4.092
 7616SOL    HW123747   5.915   4.663   4.184
 7616SOL    HW223748   5.893   4.554   4.064
 7617SOL     OW23749   3.302   5.759   2.563
 7617SOL    HW123750   3.268   5.819   2.635
 7617SOL    HW223751   3.241   5.764   2.484
 7618SOL     OW23752   1.501   2.578   0.831
 7618SOL    HW123753   1.514   2.664   0.781
 7618SOL    HW223754   1.507   2.501   0.768
 7619SOL     OW23755   5.913   3.151   5.449
 7619SOL    HW123756   5.862   3.069   5.472
 7619SOL    HW223757   5.943   3.197   5.533
 7620SOL     OW23758   3.186   6.490   1.841
 7620SOL    HW123759   3.161   6.476   1.745
 7620SOL    HW223760   3.256   6.423   1.867
 7621SOL     OW23761   2.348   1.503   1.812
 7621SOL    HW123762   2.368   1.600   1.805
 7621SOL    HW223763   2.421   1.457   1.862
 7622SOL     OW23764   4.485   2.321   0.239
 7622SOL    HW123765   4.523   2.233   0.267
 7622SOL    HW223766   4.386   2.319   0.247
 7623SOL     OW23767   4.871   0.363   5.474
 7623SOL    HW123768   4.859   0.278   5.421
 7623SOL    HW223769   4.788   0.381   5.526
 7624SOL     OW23770   0.440   0.384   3.707
 7624SOL    HW123771   0.450   0.482   3.690
 7624SOL    HW223772   0.499   0.333   3.645
 7625SOL     OW23773   4.446   0.187   1.484
 7625SOL    HW123774   4.358   0.143   1.468
 7625SOL    HW223775   4.478   0.164   1.576
 7626SOL     OW23776   1.660   5.322   4.851
 7626SOL    HW123777   1.740   5.262   4.846
 7626SOL    HW223778   1.664   5.389   4.778
 7627SOL     OW23779   0.043   2.743   0.192
 7627SOL    HW123780   6.992   2.684   0.155
 7627SOL    HW223781   0.038   2.742   0.292
 7628SOL     OW23782   3.858   1.872   1.054
 7628SOL    HW123783   3.777   1.893   1.000
 7628SOL    HW223784   3.912   1.801   1.007
 7629SOL     OW23785   6.397   5.526   3.913
 7629SOL    HW123786   6.420   5.455   3.980
 7629SOL    HW223787   6.470   5.595   3.911
 7630SOL     OW23788   6.171   0.731   2.432
 7630SOL    HW123789   6.259   0.701   2.470
 7630SOL    HW223790   6.146   0.819   2.472
 7631SOL     OW23791   0.547   2.285   3.766
 7631SOL    HW123792   0.472   2.221   3.750
 7631SOL    HW223793   0.511   2.367   3.812
 7632SOL     OW23794   4.489   1.592   6.664
 7632SOL    HW123795   4.521   1.682   6.695
 7632SOL    HW223796   4.471   1.596   6.565
 7633SOL     OW23797   5.315   4.200   6.587
 7633SOL    HW123798   5.378   4.276   6.573
 7633SOL    HW223799   5.353   4.137   6.655
 7634SOL     OW23800   0.997   1.718   2.310
 7634SOL    HW123801   0.923   1.781   2.334
 7634SOL    HW223802   1.017   1.727   2.212
 7635SOL     OW23803   2.997   4.568   5.774
 7635SOL    HW123804   3.035   4.603   5.688
 7635SOL    HW223805   3.065   4.577   5.847
 7636SOL     OW23806   1.456   0.405   3.886
 7636SOL    HW123807   1.428   0.388   3.980
 7636SOL    HW223808   1.466   0.504   3.872
 7637SOL     OW23809   2.008   5.822   4.310
 7637SOL    HW123810   2.002   5.861   4.218
 7637SOL    HW223811   2.084   5.864   4.360
 7638SOL     OW23812   4.592   4.785   2.085
 7638SOL    HW123813   4.549   4.795   2.175
 7638SOL    HW223814   4.625   4.874   2.054
 7639SOL     OW23815   1.043   1.769   4.457
 7639SOL    HW123816   0.952   1.753   4.420
 7639SOL    HW223817   1.086   1.682   4.481
 7640SOL     OW23818   2.602   2.312   6.768
 7640SOL    HW123819   2.695   2.284   6.790
 7640SOL    HW223820   2.585   2.300   6.671
 7641SOL     OW23821   6.552   3.675   2.842
 7641SOL    HW123822   6.639   3.647   2.800
 7641SOL    HW223823   6.542   3.631   2.930
 7642SOL     OW23824   2.967   1.721   2.666
 7642SOL    HW123825   2.946   1.649   2.600
 7642SOL    HW223826   2.904   1.797   2.655
 7643SOL     OW23827   4.766   2.827   2.794
 7643SOL    HW123828   4.712   2.911   2.807
 7643SOL    HW223829   4.735   2.780   2.712
 7644SOL     OW23830   0.225   3.672   3.335
 7644SOL    HW123831   0.263   3.599   3.278
 7644SOL    HW223832   0.151   3.717   3.285
 7645SOL     OW23833   4.807   3.924   6.623
 7645SOL    HW123834   4.803   3.898   6.720
 7645SOL    HW223835   4.902   3.941   6.597
 7646SOL     OW23836   1.745   1.977   2.529
 7646SOL    HW123837   1.677   2.024   2.472
 7646SOL    HW223838   1.761   1.885   2.493
 7647SOL     OW23839   2.201   4.170   1.492
 7647SOL    HW123840   2.117   4.145   1.443
 7647SOL    HW223841   2.280   4.145   1.436
 7648SOL     OW23842   4.029   0.753   3.442
 7648SOL    HW123843   3.938   0.716   3.422
 7648SOL    HW223844   4.051   0.737   3.538
 7649SOL     OW23845   2.986   0.767   1.333
 7649SOL    HW123846   2.907   0.825   1.355
 7649SOL    HW223847   2.970   0.674   1.368
 7650SOL     OW23848   6.183   4.914   2.670
 7650SOL    HW123849   6.183   5.012   2.688
 7650SOL    HW223850   6.120   4.869   2.733
 7651SOL     OW23851   3.837   1.604   6.372
 7651SOL    HW123852   3.829   1.599   6.272
 7651SOL    HW223853   3.747   1.619   6.412
 7652SOL     OW23854   0.853   2.773   2.529
 7652SOL    HW123855   0.930   2.770   2.593
 7652SOL    HW223856   0.884   2.812   2.442
 7653SOL     OW23857   3.223   2.368   1.343
 7653SOL    HW123858   3.217   2.283   1.395
 7653SOL    HW223859   3.302   2.365   1.282
 7654SOL     OW23860   4.954   3.664   3.576
 7654SOL    HW123861   5.035   3.608   3.589
 7654SOL    HW223862   4.917   3.691   3.665
 7655SOL     OW23863   4.595   6.334   5.782
 7655SOL    HW123864   4.497   6.342   5.802
 7655SOL    HW223865   4.629   6.421   5.746
 7656SOL     OW23866   1.209   6.354   4.804
 7656SOL    HW123867   1.267   6.276   4.781
 7656SOL    HW223868   1.208   6.366   4.904
 7657SOL     OW23869   4.464   1.069   4.351
 7657SOL    HW123870   4.516   1.000   4.302
 7657SOL    HW223871   4.386   1.026   4.398
 7658SOL     OW23872   3.871   0.392   6.082
 7658SOL    HW123873   3.832   0.464   6.024
 7658SOL    HW223874   3.957   0.360   6.042
 7659SOL     OW23875   5.780   0.043   1.016
 7659SOL    HW123876   5.809   0.090   0.933
 7659SOL    HW223877   5.804   0.097   1.096
 7660SOL     OW23878   5.711   4.634   4.514
 7660SOL    HW123879   5.615   4.624   4.490
 7660SOL    HW223880   5.725   4.721   4.562
 7661SOL     OW23881   5.625   3.254   3.152
 7661SOL    HW123882   5.557   3.192   3.113
 7661SOL    HW223883   5.591   3.348   3.149
 7662SOL     OW23884   0.266   5.481   2.006
 7662SOL    HW123885   0.247   5.414   1.934
 7662SOL    HW223886   0.365   5.494   2.014
 7663SOL     OW23887   0.051   5.589   0.596
 7663SOL    HW123888   0.138   5.626   0.564
 7663SOL    HW223889   0.011   5.530   0.526
 7664SOL     OW23890   2.308   5.584   4.270
 7664SOL    HW123891   2.243   5.557   4.199
 7664SOL    HW223892   2.314   5.684   4.273
 7665SOL     OW23893   2.680   6.580   5.230
 7665SOL    HW123894   2.753   6.558   5.165
 7665SOL    HW223895   2.635   6.664   5.202
 7666SOL     OW23896   1.269   1.155   0.971
 7666SOL    HW123897   1.261   1.227   1.040
 7666SOL    HW223898   1.303   1.071   1.012
 7667SOL     OW23899   4.979   5.679   6.593
 7667SOL    HW123900   4.930   5.709   6.511
 7667SOL    HW223901   5.077   5.697   6.582
 7668SOL     OW23902   3.107   4.127   1.342
 7668SOL    HW123903   3.176   4.055   1.356
 7668SOL    HW223904   3.023   4.102   1.390
 7669SOL     OW23905   4.848   6.478   4.170
 7669SOL    HW123906   4.782   6.414   4.208
 7669SOL    HW223907   4.920   6.427   4.123
 7670SOL     OW23908   1.878   4.685   0.807
 7670SOL    HW123909   1.810   4.651   0.871
 7670SOL    HW223910   1.940   4.748   0.854
 7671SOL     OW23911   5.999   2.478   4.412
 7671SOL    HW123912   6.072   2.546   4.403
 7671SOL    HW223913   5.951   2.493   4.498
 7672SOL     OW23914   5.494   1.050   2.751
 7672SOL    HW123915   5.479   1.140   2.711
 7672SOL    HW223916   5.435   1.039   2.831
 7673SOL     OW23917   0.626   4.788   1.391
 7673SOL    HW123918   0.570   4.709   1.365
 7673SOL    HW223919   0.626   4.854   1.316
 7674SOL     OW23920   6.050   0.838   4.960
 7674SOL    HW123921   6.100   0.796   5.035
 7674SOL    HW223922   5.956   0.803   4.959
 7675SOL     OW23923   4.397   6.561   3.617
 7675SOL    HW123924   4.312   6.536   3.664
 7675SOL    HW223925   4.465   6.591   3.684
 7676SOL     OW23926   2.075   0.025   1.049
 7676SOL    HW123927   1.991   0.059   1.006
 7676SOL    HW223928   2.101   0.085   1.124
 7677SOL     OW23929   2.219   2.973   2.912
 7677SOL    HW123930   2.158   3.052   2.921
 7677SOL    HW223931   2.259   2.952   3.001
 7678SOL     OW23932   6.014   6.948   0.301
 7678SOL    HW123933   6.039   6.952   0.204
 7678SOL    HW223934   5.920   6.979   0.313
 7679SOL     OW23935   1.133   5.025   5.340
 7679SOL    HW123936   1.090   5.035   5.430
 7679SOL    HW223937   1.110   5.104   5.283
 7680SOL     OW23938   4.094   2.256   6.634
 7680SOL    HW123939   4.111   2.305   6.549
 7680SOL    HW223940   4.179   2.250   6.686
 7681SOL     OW23941   2.722   1.538   6.858
 7681SOL    HW123942   2.644   1.600   6.857
 7681SOL    HW223943   2.736   1.504   6.951
 7682SOL     OW23944   3.559   6.891   1.059
 7682SOL    HW123945   3.516   6.830   0.993
 7682SOL    HW223946   3.490   6.955   1.095
 7683SOL     OW23947   5.344   1.847   3.275
 7683SOL    HW123948   5.367   1.770   3.215
 7683SOL    HW223949   5.397   1.839   3.360
 7684SOL     OW23950   4.220   2.046   6.278
 7684SOL    HW123951   4.254   1.997   6.197
 7684SOL    HW223952   4.124   2.072   6.263
 7685SOL     OW23953   3.409   3.200   0.879
 7685SOL    HW123954   3.317   3.165   0.861
 7685SOL    HW223955   3.451   3.229   0.793
 7686SOL     OW23956   3.467   0.320   4.114
 7686SOL    HW123957   3.446   0.367   4.199
 7686SOL    HW223958   3.508   0.383   4.049
 7687SOL     OW23959   4.877   5.106   5.669
 7687SOL    HW123960   4.816   5.027   5.666
 7687SOL    HW223961   4.872   5.156   5.582
 7688SOL     OW23962   6.861   6.337   4.184
 7688SOL    HW123963   6.894   6.275   4.254
 7688SOL    HW223964   6.930   6.346   4.112
 7689SOL     OW23965   3.898   6.289   4.617
 7689SOL    HW123966   3.902   6.385   4.645
 7689SOL    HW223967   3.812   6.272   4.570
 7690SOL     OW23968   0.331   5.776   3.446
 7690SOL    HW123969   0.314   5.691   3.396
 7690SOL    HW223970   0.245   5.808   3.487
 7691SOL     OW23971   5.082   3.890   4.709
 7691SOL    HW123972   5.057   3.936   4.624
 7691SOL    HW223973   5.154   3.941   4.755
 7692SOL     OW23974   2.366   6.744   1.860
 7692SOL    HW123975   2.284   6.779   1.816
 7692SOL    HW223976   2.414   6.682   1.798
 7693SOL     OW23977   5.484   1.835   6.862
 7693SOL    HW123978   5.511   1.823   6.767
 7693SOL    HW223979   5.445   1.926   6.875
 7694SOL     OW23980   7.021   5.047   4.372
 7694SOL    HW123981   0.071   5.001   4.425
 7694SOL    HW223982   6.998   4.992   4.291
 7695SOL     OW23983   4.157   0.538   0.151
 7695SOL    HW123984   4.100   0.517   0.231
 7695SOL    HW223985   4.155   0.460   0.088
 7696SOL     OW23986   0.602   3.247   5.754
 7696SOL    HW123987   0.638   3.270   5.664
 7696SOL    HW223988   0.659   3.289   5.824
 7697SOL     OW23989   3.845   1.879   1.768
 7697SOL    HW123990   3.839   1.872   1.668
 7697SOL    HW223991   3.770   1.935   1.802
 7698SOL     OW23992   6.906   3.481   5.806
 7698SOL    HW123993   6.928   3.545   5.880
 7698SOL    HW223994   6.890   3.532   5.722
 7699SOL     OW23995   2.273   4.865   6.836
 7699SOL    HW123996   2.302   4.829   6.925
 7699SOL    HW223997   2.262   4.789   6.772
 7700SOL     OW23998   4.930   6.428   4.863
 7700SOL    HW123999   4.925   6.365   4.785
 7700SOL    HW224000   4.993   6.392   4.931
 7701SOL     OW24001   5.873   1.840   4.872
 7701SOL    HW124002   5.901   1.918   4.928
 7701SOL    HW224003   5.950   1.776   4.864
 7702SOL     OW24004   2.222   6.629   6.271
 7702SOL    HW124005   2.219   6.658   6.175
 7702SOL    HW224006   2.317   6.615   6.299
 7703SOL     OW24007   0.199   1.574   6.451
 7703SOL    HW124008   0.231   1.481   6.433
 7703SOL    HW224009   0.257   1.639   6.401
 7704SOL     OW24010   4.638   4.087   0.272
 7704SOL    HW124011   4.731   4.068   0.302
 7704SOL    HW224012   4.580   4.102   0.352
 7705SOL     OW24013   3.113   5.281   5.100
 7705SOL    HW124014   3.153   5.265   5.010
 7705SOL    HW224015   3.028   5.332   5.090
 7706SOL     OW24016   6.801   0.947   4.923
 7706SOL    HW124017   6.808   1.015   4.850
 7706SOL    HW224018   6.889   0.902   4.934
 7707SOL     OW24019   0.420   4.825   6.046
 7707SOL    HW124020   0.360   4.800   6.122
 7707SOL    HW224021   0.477   4.903   6.072
 7708SOL     OW24022   4.333   6.673   4.535
 7708SOL    HW124023   4.282   6.746   4.488
 7708SOL    HW224024   4.292   6.585   4.513
 7709SOL     OW24025   3.930   2.181   1.815
 7709SOL    HW124026   3.864   2.212   1.883
 7709SOL    HW224027   3.938   2.082   1.820
 7710SOL     OW24028   2.480   1.700   6.784
 7710SOL    HW124029   2.452   1.773   6.721
 7710SOL    HW224030   2.398   1.656   6.822
 7711SOL     OW24031   5.710   6.967   6.444
 7711SOL    HW124032   5.768   6.886   6.454
 7711SOL    HW224033   5.709   6.994   6.347
 7712SOL     OW24034   5.317   5.642   1.451
 7712SOL    HW124035   5.336   5.643   1.353
 7712SOL    HW224036   5.231   5.593   1.467
 7713SOL     OW24037   1.570   4.949   6.822
 7713SOL    HW124038   1.497   4.880   6.822
 7713SOL    HW224039   1.606   4.961   6.914
 7714SOL     OW24040   5.551   4.560   3.697
 7714SOL    HW124041   5.507   4.500   3.764
 7714SOL    HW224042   5.649   4.539   3.694
 7715SOL     OW24043   4.535   1.399   0.719
 7715SOL    HW124044   4.444   1.378   0.683
 7715SOL    HW224045   4.550   1.497   0.717
 7716SOL     OW24046   4.706   2.057   3.131
 7716SOL    HW124047   4.762   2.130   3.093
 7716SOL    HW224048   4.745   2.026   3.217
 7717SOL     OW24049   3.601   1.122   6.056
 7717SOL    HW124050   3.583   1.196   5.991
 7717SOL    HW224051   3.700   1.107   6.063
 7718SOL     OW24052   3.026   6.071   3.964
 7718SOL    HW124053   3.114   6.050   4.008
 7718SOL    HW224054   3.033   6.156   3.913
 7719SOL     OW24055   6.535   1.906   4.356
 7719SOL    HW124056   6.582   1.959   4.285
 7719SOL    HW224057   6.453   1.955   4.385
 7720SOL     OW24058   5.781   5.646   1.792
 7720SOL    HW124059   5.724   5.685   1.864
 7720SOL    HW224060   5.877   5.651   1.818
 7721SOL     OW24061   1.754   4.341   2.738
 7721SOL    HW124062   1.689   4.398   2.789
 7721SOL    HW224063   1.847   4.376   2.753
 7722SOL     OW24064   6.795   5.118   4.106
 7722SOL    HW124065   6.699   5.142   4.117
 7722SOL    HW224066   6.803   5.036   4.049
 7723SOL     OW24067   6.519   3.438   0.112
 7723SOL    HW124068   6.600   3.379   0.110
 7723SOL    HW224069   6.545   3.532   0.092
 7724SOL     OW24070   1.631   4.694   1.014
 7724SOL    HW124071   1.604   4.607   1.057
 7724SOL    HW224072   1.636   4.765   1.083
 7725SOL     OW24073   5.031   3.364   4.758
 7725SOL    HW124074   4.992   3.449   4.793
 7725SOL    HW224075   5.043   3.371   4.659
 7726SOL     OW24076   6.703   4.595   3.589
 7726SOL    HW124077   6.609   4.628   3.588
 7726SOL    HW224078   6.755   4.645   3.658
 7727SOL     OW24079   6.687   2.710   1.799
 7727SOL    HW124080   6.599   2.741   1.835
 7727SOL    HW224081   6.691   2.610   1.803
 7728SOL     OW24082   2.755   2.365   2.909
 7728SOL    HW124083   2.824   2.376   2.838
 7728SOL    HW224084   2.673   2.415   2.883
 7729SOL     OW24085   5.578   2.350   0.472
 7729SOL    HW124086   5.618   2.442   0.471
 7729SOL    HW224087   5.495   2.351   0.527
 7730SOL     OW24088   5.376   0.567   2.189
 7730SOL    HW124089   5.371   0.616   2.276
 7730SOL    HW224090   5.358   0.470   2.205
 7731SOL     OW24091   6.150   1.508   6.470
 7731SOL    HW124092   6.214   1.433   6.486
 7731SOL    HW224093   6.065   1.472   6.432
 7732SOL     OW24094   4.394   4.898   0.710
 7732SOL    HW124095   4.457   4.971   0.739
 7732SOL    HW224096   4.391   4.895   0.611
 7733SOL     OW24097   3.375   0.115   2.445
 7733SOL    HW124098   3.385   0.018   2.466
 7733SOL    HW224099   3.413   0.169   2.520
 7734SOL     OW24100   1.976   1.928   3.159
 7734SOL    HW124101   2.075   1.914   3.169
 7734SOL    HW224102   1.945   1.885   3.074
 7735SOL     OW24103   5.219   3.970   0.127
 7735SOL    HW124104   5.319   3.969   0.117
 7735SOL    HW224105   5.190   4.058   0.163
 7736SOL     OW24106   6.511   4.698   6.576
 7736SOL    HW124107   6.609   4.683   6.573
 7736SOL    HW224108   6.467   4.627   6.631
 7737SOL     OW24109   4.956   1.248   0.584
 7737SOL    HW124110   5.042   1.285   0.548
 7737SOL    HW224111   4.880   1.299   0.544
 7738SOL     OW24112   2.637   5.153   6.886
 7738SOL    HW124113   2.541   5.143   6.911
 7738SOL    HW224114   2.661   5.250   6.884
 7739SOL     OW24115   6.287   3.294   1.277
 7739SOL    HW124116   6.284   3.197   1.253
 7739SOL    HW224117   6.359   3.310   1.345
 7740SOL     OW24118   0.446   6.824   3.204
 7740SOL    HW124119   0.537   6.820   3.165
 7740SOL    HW224120   0.434   6.750   3.271
 7741SOL     OW24121   2.548   5.660   4.645
 7741SOL    HW124122   2.545   5.572   4.597
 7741SOL    HW224123   2.587   5.647   4.736
 7742SOL     OW24124   6.274   0.925   3.753
 7742SOL    HW124125   6.272   1.015   3.708
 7742SOL    HW224126   6.289   0.854   3.685
 7743SOL     OW24127   4.603   2.493   3.248
 7743SOL    HW124128   4.621   2.572   3.307
 7743SOL    HW224129   4.509   2.461   3.264
 7744SOL     OW24130   7.008   0.132   4.990
 7744SOL    HW124131   6.954   0.126   4.906
 7744SOL    HW224132   0.076   0.091   4.975
 7745SOL     OW24133   4.793   3.667   5.669
 7745SOL    HW124134   4.887   3.697   5.685
 7745SOL    HW224135   4.774   3.584   5.722
 7746SOL     OW24136   1.839   1.017   0.428
 7746SOL    HW124137   1.860   0.950   0.499
 7746SOL    HW224138   1.787   1.093   0.469
 7747SOL     OW24139   5.858   5.606   0.802
 7747SOL    HW124140   5.829   5.622   0.897
 7747SOL    HW224141   5.783   5.566   0.750
 7748SOL     OW24142   3.440   3.844   0.082
 7748SOL    HW124143   3.378   3.833   0.004
 7748SOL    HW224144   3.419   3.775   0.151
 7749SOL     OW24145   6.156   3.140   5.901
 7749SOL    HW124146   6.205   3.098   5.825
 7749SOL    HW224147   6.220   3.192   5.958
 7750SOL     OW24148   5.925   4.702   2.450
 7750SOL    HW124149   5.861   4.626   2.445
 7750SOL    HW224150   5.902   4.761   2.527
 7751SOL     OW24151   0.293   2.513   2.106
 7751SOL    HW124152   0.375   2.498   2.161
 7751SOL    HW224153   0.212   2.485   2.158
 7752SOL     OW24154   4.778   1.995   3.409
 7752SOL    HW124155   4.718   2.073   3.427
 7752SOL    HW224156   4.863   2.006   3.461
 7753SOL     OW24157   3.245   1.690   4.811
 7753SOL    HW124158   3.267   1.766   4.872
 7753SOL    HW224159   3.313   1.685   4.738
 7754SOL     OW24160   5.141   6.441   2.305
 7754SOL    HW124161   5.222   6.494   2.281
 7754SOL    HW224162   5.162   6.343   2.299
 7755SOL     OW24163   0.551   5.175   4.256
 7755SOL    HW124164   0.593   5.107   4.196
 7755SOL    HW224165   0.461   5.143   4.285
 7756SOL     OW24166   2.671   5.092   2.155
 7756SOL    HW124167   2.680   5.006   2.104
 7756SOL    HW224168   2.762   5.128   2.175
 7757SOL     OW24169   0.314   4.357   2.150
 7757SOL    HW124170   0.334   4.277   2.094
 7757SOL    HW224171   0.353   4.438   2.107
 7758SOL     OW24172   1.435   1.615   5.359
 7758SOL    HW124173   1.524   1.577   5.384
 7758SOL    HW224174   1.393   1.556   5.290
 7759SOL     OW24175   2.747   2.192   0.861
 7759SOL    HW124176   2.664   2.168   0.912
 7759SOL    HW224177   2.736   2.283   0.822
 7760SOL     OW24178   4.892   2.921   0.198
 7760SOL    HW124179   4.856   2.829   0.183
 7760SOL    HW224180   4.959   2.919   0.272
 7761SOL     OW24181   5.014   5.373   4.024
 7761SOL    HW124182   5.111   5.353   4.039
 7761SOL    HW224183   4.958   5.309   4.077
 7762SOL     OW24184   5.929   1.646   1.933
 7762SOL    HW124185   5.925   1.662   2.031
 7762SOL    HW224186   5.967   1.556   1.915
 7763SOL     OW24187   2.618   0.115   4.111
 7763SOL    HW124188   2.547   0.072   4.056
 7763SOL    HW224189   2.702   0.123   4.056
 7764SOL     OW24190   2.241   3.821   5.859
 7764SOL    HW124191   2.273   3.749   5.921
 7764SOL    HW224192   2.301   3.900   5.864
 7765SOL     OW24193   5.791   2.973   4.875
 7765SOL    HW124194   5.776   2.970   4.776
 7765SOL    HW224195   5.744   3.053   4.913
 7766SOL     OW24196   6.046   4.116   6.428
 7766SOL    HW124197   6.065   4.069   6.514
 7766SOL    HW224198   6.024   4.049   6.357
 7767SOL     OW24199   3.116   0.710   3.905
 7767SOL    HW124200   3.059   0.634   3.936
 7767SOL    HW224201   3.157   0.687   3.817
 7768SOL     OW24202   4.037   5.368   3.848
 7768SOL    HW124203   3.991   5.455   3.828
 7768SOL    HW224204   4.126   5.387   3.890
 7769SOL     OW24205   3.929   2.515   5.522
 7769SOL    HW124206   4.021   2.475   5.527
 7769SOL    HW224207   3.923   2.592   5.585
 7770SOL     OW24208   1.747   2.786   4.256
 7770SOL    HW124209   1.761   2.862   4.192
 7770SOL    HW224210   1.739   2.701   4.204
 7771SOL     OW24211   2.399   3.288   6.498
 7771SOL    HW124212   2.319   3.348   6.501
 7771SOL    HW224213   2.370   3.193   6.496
 7772SOL     OW24214   5.573   7.020   1.917
 7772SOL    HW124215   5.597   0.015   1.821
 7772SOL    HW224216   5.484   6.976   1.922
 7773SOL     OW24217   2.996   6.102   0.171
 7773SOL    HW124218   2.932   6.106   0.248
 7773SOL    HW224219   3.003   6.192   0.128
 7774SOL     OW24220   4.829   1.246   2.490
 7774SOL    HW124221   4.884   1.194   2.425
 7774SOL    HW224222   4.889   1.291   2.556
 7775SOL     OW24223   2.765   2.060   1.259
 7775SOL    HW124224   2.696   2.129   1.236
 7775SOL    HW224225   2.725   1.969   1.251
 7776SOL     OW24226   1.546   1.115   4.276
 7776SOL    HW124227   1.523   1.202   4.231
 7776SOL    HW224228   1.613   1.066   4.220
 7777SOL     OW24229   5.844   5.760   4.046
 7777SOL    HW124230   5.914   5.694   4.020
 7777SOL    HW224231   5.804   5.734   4.134
 7778SOL     OW24232   6.925   4.620   3.157
 7778SOL    HW124233   6.828   4.637   3.176
 7778SOL    HW224234   6.974   4.707   3.154
 7779SOL     OW24235   4.569   6.424   1.590
 7779SOL    HW124236   4.598   6.335   1.558
 7779SOL    HW224237   4.469   6.425   1.601
 7780SOL     OW24238   5.712   6.311   5.150
 7780SOL    HW124239   5.772   6.284   5.225
 7780SOL    HW224240   5.621   6.273   5.165
 7781SOL     OW24241   1.742   2.862   0.889
 7781SOL    HW124242   1.841   2.869   0.901
 7781SOL    HW224243   1.698   2.943   0.927
 7782SOL     OW24244   5.186   2.746   4.763
 7782SOL    HW124245   5.267   2.793   4.797
 7782SOL    HW224246   5.104   2.787   4.803
 7783SOL     OW24247   1.723   6.531   4.427
 7783SOL    HW124248   1.812   6.575   4.419
 7783SOL    HW224249   1.671   6.574   4.500
 7784SOL     OW24250   1.751   2.152   1.813
 7784SOL    HW124251   1.797   2.073   1.774
 7784SOL    HW224252   1.779   2.235   1.765
 7785SOL     OW24253   6.813   6.519   3.414
 7785SOL    HW124254   6.759   6.596   3.447
 7785SOL    HW224255   6.753   6.451   3.373
 7786SOL     OW24256   4.232   1.291   5.471
 7786SOL    HW124257   4.299   1.365   5.467
 7786SOL    HW224258   4.264   1.214   5.416
 7787SOL     OW24259   2.731   2.304   1.819
 7787SOL    HW124260   2.769   2.212   1.805
 7787SOL    HW224261   2.778   2.348   1.894
 7788SOL     OW24262   0.121   4.638   1.423
 7788SOL    HW124263   0.170   4.680   1.499
 7788SOL    HW224264   0.040   4.590   1.457
 7789SOL     OW24265   3.059   1.231   5.986
 7789SOL    HW124266   3.128   1.289   5.942
 7789SOL    HW224267   3.007   1.182   5.916
 7790SOL     OW24268   4.217   4.531   1.460
 7790SOL    HW124269   4.226   4.460   1.390
 7790SOL    HW224270   4.264   4.503   1.543
 7791SOL     OW24271   2.920   5.636   2.923
 7791SOL    HW124272   2.957   5.669   2.835
 7791SOL    HW224273   2.934   5.538   2.929
 7792SOL     OW24274   0.541   1.709   3.053
 7792SOL    HW124275   0.528   1.636   2.987
 7792SOL    HW224276   0.452   1.734   3.094
 7793SOL     OW24277   5.110   0.541   0.410
 7793SOL    HW124278   5.104   0.448   0.373
 7793SOL    HW224279   5.103   0.608   0.336
 7794SOL     OW24280   1.222   0.018   2.931
 7794SOL    HW124281   1.175   6.952   2.938
 7794SOL    HW224282   1.159   0.091   2.958
 7795SOL     OW24283   3.351   4.847   0.311
 7795SOL    HW124284   3.348   4.844   0.410
 7795SOL    HW224285   3.261   4.825   0.274
 7796SOL     OW24286   3.256   2.674   0.165
 7796SOL    HW124287   3.225   2.668   0.070
 7796SOL    HW224288   3.232   2.764   0.202
 7797SOL     OW24289   0.747   5.969   3.371
 7797SOL    HW124290   0.719   5.874   3.358
 7797SOL    HW224291   0.668   6.029   3.363
 7798SOL     OW24292   1.346   3.612   0.533
 7798SOL    HW124293   1.320   3.625   0.438
 7798SOL    HW224294   1.267   3.629   0.592
 7799SOL     OW24295   2.925   6.005   3.477
 7799SOL    HW124296   2.880   6.074   3.534
 7799SOL    HW224297   2.892   5.914   3.503
 7800SOL     OW24298   0.513   6.530   2.231
 7800SOL    HW124299   0.490   6.621   2.196
 7800SOL    HW224300   0.604   6.531   2.271
 7801SOL     OW24301   1.376   1.918   1.993
 7801SOL    HW124302   1.371   2.017   1.983
 7801SOL    HW224303   1.299   1.875   1.946
 7802SOL     OW24304   6.920   3.595   4.456
 7802SOL    HW124305   6.983   3.544   4.515
 7802SOL    HW224306   6.955   3.688   4.442
 7803SOL     OW24307   2.978   2.476   5.491
 7803SOL    HW124308   2.943   2.410   5.425
 7803SOL    HW224309   3.062   2.517   5.456
 7804SOL     OW24310   3.517   2.072   5.138
 7804SOL    HW124311   3.577   2.050   5.215
 7804SOL    HW224312   3.556   2.148   5.086
 7805SOL     OW24313   5.406   3.127   6.892
 7805SOL    HW124314   5.499   3.114   6.927
 7805SOL    HW224315   5.408   3.194   6.817
 7806SOL     OW24316   6.976   1.448   5.886
 7806SOL    HW124317   6.941   1.363   5.846
 7806SOL    HW224318   7.020   1.503   5.814
 7807SOL     OW24319   1.990   5.003   6.134
 7807SOL    HW124320   2.039   5.006   6.047
 7807SOL    HW224321   2.005   5.088   6.184
 7808SOL     OW24322   7.017   3.760   3.229
 7808SOL    HW124323   6.935   3.714   3.262
 7808SOL    HW224324   6.993   3.849   3.190
 7809SOL     OW24325   4.823   5.526   2.570
 7809SOL    HW124326   4.870   5.516   2.657
 7809SOL    HW224327   4.887   5.509   2.495
 7810SOL     OW24328   2.474   6.613   6.336
 7810SOL    HW124329   2.487   6.701   6.384
 7810SOL    HW224330   2.516   6.619   6.245
 7811SOL     OW24331   1.331   6.202   3.046
 7811SOL    HW124332   1.317   6.105   3.027
 7811SOL    HW224333   1.254   6.237   3.100
 7812SOL     OW24334   3.092   1.436   6.196
 7812SOL    HW124335   3.076   1.376   6.274
 7812SOL    HW224336   3.077   1.384   6.111
 7813SOL     OW24337   5.402   0.478   0.557
 7813SOL    HW124338   5.409   0.406   0.627
 7813SOL    HW224339   5.323   0.460   0.499
 7814SOL     OW24340   6.428   2.893   2.499
 7814SOL    HW124341   6.506   2.851   2.452
 7814SOL    HW224342   6.417   2.987   2.467
 7815SOL     OW24343   5.545   4.951   5.072
 7815SOL    HW124344   5.543   4.871   5.132
 7815SOL    HW224345   5.457   4.961   5.027
 7816SOL     OW24346   0.514   1.587   5.539
 7816SOL    HW124347   0.565   1.529   5.602
 7816SOL    HW224348   0.416   1.579   5.559
 7817SOL     OW24349   3.975   2.580   0.149
 7817SOL    HW124350   4.027   2.574   0.234
 7817SOL    HW224351   3.911   2.504   0.143
 7818SOL     OW24352   5.955   0.682   3.212
 7818SOL    HW124353   5.902   0.641   3.138
 7818SOL    HW224354   6.005   0.611   3.260
 7819SOL     OW24355   1.502   3.090   4.858
 7819SOL    HW124356   1.527   3.184   4.877
 7819SOL    HW224357   1.459   3.085   4.767
 7820SOL     OW24358   0.996   0.336   4.907
 7820SOL    HW124359   1.018   0.243   4.938
 7820SOL    HW224360   0.912   0.367   4.952
 7821SOL     OW24361   4.012   6.295   0.318
 7821SOL    HW124362   4.063   6.288   0.403
 7821SOL    HW224363   4.066   6.253   0.244
 7822SOL     OW24364   6.755   1.200   5.028
 7822SOL    HW124365   6.700   1.141   4.968
 7822SOL    HW224366   6.820   1.251   4.972
 7823SOL     OW24367   2.524   3.569   5.365
 7823SOL    HW124368   2.528   3.489   5.306
 7823SOL    HW224369   2.486   3.544   5.454
 7824SOL     OW24370   5.275   3.275   3.062
 7824SOL    HW124371   5.290   3.331   3.143
 7824SOL    HW224372   5.180   3.282   3.034
 7825SOL     OW24373   3.693   3.542   2.319
 7825SOL    HW124374   3.695   3.444   2.298
 7825SOL    HW224375   3.760   3.589   2.262
 7826SOL     OW24376   6.704   0.328   1.297
 7826SOL    HW124377   6.641   0.398   1.263
 7826SOL    HW224378   6.658   0.273   1.367
 7827SOL     OW24379   4.455   3.503   0.775
 7827SOL    HW124380   4.422   3.413   0.804
 7827SOL    HW224381   4.377   3.558   0.744
 7828SOL     OW24382   0.312   5.628   0.473
 7828SOL    HW124383   0.392   5.569   0.471
 7828SOL    HW224384   0.288   5.656   0.380
 7829SOL     OW24385   4.153   3.297   3.009
 7829SOL    HW124386   4.146   3.372   2.944
 7829SOL    HW224387   4.196   3.218   2.965
 7830SOL     OW24388   5.853   3.739   0.087
 7830SOL    HW124389   5.882   3.695   0.172
 7830SOL    HW224390   5.828   3.669   0.020
 7831SOL     OW24391   2.015   2.650   6.685
 7831SOL    HW124392   2.027   2.720   6.615
 7831SOL    HW224393   1.919   2.623   6.691
 7832SOL     OW24394   2.635   2.512   5.149
 7832SOL    HW124395   2.585   2.589   5.110
 7832SOL    HW224396   2.689   2.544   5.227
 7833SOL     OW24397   1.500   6.546   0.875
 7833SOL    HW124398   1.469   6.468   0.930
 7833SOL    HW224399   1.540   6.616   0.935
 7834SOL     OW24400   6.744   0.216   1.585
 7834SOL    HW124401   6.657   0.165   1.588
 7834SOL    HW224402   6.736   0.298   1.641
 7835SOL     OW24403   2.886   2.011   4.125
 7835SOL    HW124404   2.846   1.975   4.040
 7835SOL    HW224405   2.829   1.982   4.202
 7836SOL     OW24406   2.073   0.882   6.656
 7836SOL    HW124407   2.056   0.816   6.729
 7836SOL    HW224408   2.002   0.953   6.657
 7837SOL     OW24409   4.825   6.168   2.879
 7837SOL    HW124410   4.884   6.174   2.798
 7837SOL    HW224411   4.791   6.259   2.902
 7838SOL     OW24412   3.284   6.777   4.220
 7838SOL    HW124413   3.336   6.755   4.137
 7838SOL    HW224414   3.327   6.854   4.267
 7839SOL     OW24415   0.024   4.917   3.896
 7839SOL    HW124416   0.012   5.010   3.860
 7839SOL    HW224417   0.081   4.865   3.833
 7840SOL     OW24418   5.177   2.959   5.562
 7840SOL    HW124419   5.217   3.006   5.484
 7840SOL    HW224420   5.240   2.890   5.597
 7841SOL     OW24421   1.149   1.595   6.407
 7841SOL    HW124422   1.053   1.622   6.400
 7841SOL    HW224423   1.205   1.652   6.347
 7842SOL     OW24424   2.742   0.911   2.208
 7842SOL    HW124425   2.809   0.859   2.155
 7842SOL    HW224426   2.663   0.933   2.151
 7843SOL     OW24427   6.817   3.391   1.044
 7843SOL    HW124428   6.877   3.391   1.124
 7843SOL    HW224429   6.727   3.357   1.069
 7844SOL     OW24430   3.912   1.222   4.194
 7844SOL    HW124431   3.982   1.286   4.166
 7844SOL    HW224432   3.913   1.142   4.133
 7845SOL     OW24433   0.998   0.822   3.960
 7845SOL    HW124434   1.086   0.856   3.926
 7845SOL    HW224435   0.935   0.898   3.971
 7846SOL     OW24436   3.584   6.746   2.297
 7846SOL    HW124437   3.541   6.676   2.354
 7846SOL    HW224438   3.522   6.773   2.224
 7847SOL     OW24439   6.853   0.688   0.368
 7847SOL    HW124440   6.899   0.600   0.360
 7847SOL    HW224441   6.809   0.695   0.458
 7848SOL     OW24442   4.522   4.184   0.785
 7848SOL    HW124443   4.430   4.147   0.799
 7848SOL    HW224444   4.586   4.140   0.847
 7849SOL     OW24445   5.699   3.970   5.026
 7849SOL    HW124446   5.770   3.917   4.981
 7849SOL    HW224447   5.725   4.067   5.027
 7850SOL     OW24448   0.546   1.168   4.546
 7850SOL    HW124449   0.461   1.184   4.494
 7850SOL    HW224450   0.551   1.232   4.622
 7851SOL     OW24451   4.629   6.735   0.466
 7851SOL    HW124452   4.589   6.644   0.462
 7851SOL    HW224453   4.559   6.801   0.491
 7852SOL     OW24454   1.828   6.833   7.007
 7852SOL    HW124455   1.782   6.745   0.002
 7852SOL    HW224456   1.871   6.830   6.917
 7853SOL     OW24457   2.013   2.987   0.829
 7853SOL    HW124458   1.937   3.023   0.776
 7853SOL    HW224459   2.099   3.022   0.793
 7854SOL     OW24460   3.357   4.144   2.974
 7854SOL    HW124461   3.448   4.178   3.000
 7854SOL    HW224462   3.345   4.153   2.876
 7855SOL     OW24463   3.618   0.065   5.568
 7855SOL    HW124464   3.713   0.094   5.563
 7855SOL    HW224465   3.562   0.139   5.605
 7856SOL     OW24466   4.305   3.475   6.152
 7856SOL    HW124467   4.219   3.514   6.117
 7856SOL    HW224468   4.284   3.396   6.209
 7857SOL     OW24469   0.963   2.203   4.541
 7857SOL    HW124470   0.974   2.299   4.568
 7857SOL    HW224471   0.984   2.193   4.444
 7858SOL     OW24472   6.206   4.571   3.006
 7858SOL    HW124473   6.121   4.565   3.058
 7858SOL    HW224474   6.284   4.558   3.067
 7859SOL     OW24475   1.030   6.147   6.447
 7859SOL    HW124476   1.106   6.145   6.511
 7859SOL    HW224477   0.988   6.056   6.443
 7860SOL     OW24478   3.646   0.256   1.429
 7860SOL    HW124479   3.567   0.259   1.367
 7860SOL    HW224480   3.654   0.343   1.477
 7861SOL     OW24481   5.593   4.071   0.551
 7861SOL    HW124482   5.508   4.098   0.597
 7861SOL    HW224483   5.611   3.974   0.570
 7862SOL     OW24484   3.333   4.489   1.531
 7862SOL    HW124485   3.412   4.498   1.469
 7862SOL    HW224486   3.253   4.460   1.479
 7863SOL     OW24487   5.975   5.738   2.371
 7863SOL    HW124488   5.956   5.820   2.425
 7863SOL    HW224489   5.947   5.657   2.423
 7864SOL     OW24490   0.363   5.724   4.379
 7864SOL    HW124491   0.347   5.663   4.457
 7864SOL    HW224492   0.346   5.675   4.294
 7865SOL     OW24493   3.235   0.857   2.419
 7865SOL    HW124494   3.139   0.858   2.392
 7865SOL    HW224495   3.242   0.867   2.518
 7866SOL     OW24496   2.438   2.494   3.914
 7866SOL    HW124497   2.455   2.556   3.838
 7866SOL    HW224498   2.339   2.478   3.923
 7867SOL     OW24499   5.582   4.260   2.610
 7867SOL    HW124500   5.508   4.229   2.550
 7867SOL    HW224501   5.562   4.232   2.704
 7868SOL     OW24502   5.358   0.003   1.067
 7868SOL    HW124503   5.333   0.096   1.096
 7868SOL    HW224504   5.343   7.017   0.968
 7869SOL     OW24505   6.752   2.169   3.633
 7869SOL    HW124506   6.754   2.242   3.701
 7869SOL    HW224507   6.826   2.104   3.651
 7870SOL     OW24508   0.257   6.569   3.149
 7870SOL    HW124509   0.341   6.585   3.201
 7870SOL    HW224510   0.179   6.566   3.212
 7871SOL     OW24511   5.662   3.367   3.835
 7871SOL    HW124512   5.690   3.271   3.845
 7871SOL    HW224513   5.737   3.427   3.862
 7872SOL     OW24514   6.547   3.377   3.906
 7872SOL    HW124515   6.638   3.415   3.890
 7872SOL    HW224516   6.533   3.366   4.005
 7873SOL     OW24517   6.936   5.216   5.249
 7873SOL    HW124518   6.850   5.267   5.252
 7873SOL    HW224519   6.916   5.118   5.256
 7874SOL     OW24520   6.246   1.289   0.280
 7874SOL    HW124521   6.295   1.315   0.197
 7874SOL    HW224522   6.261   1.192   0.298
 7875SOL     OW24523   4.694   3.709   6.900
 7875SOL    HW124524   4.640   3.655   6.965
 7875SOL    HW224525   4.636   3.734   6.822
 7876SOL     OW24526   6.503   0.717   4.717
 7876SOL    HW124527   6.421   0.770   4.740
 7876SOL    HW224528   6.566   0.718   4.794
 7877SOL     OW24529   6.548   2.512   2.526
 7877SOL    HW124530   6.464   2.511   2.579
 7877SOL    HW224531   6.529   2.548   2.434
 7878SOL     OW24532   4.715   4.185   1.357
 7878SOL    HW124533   4.700   4.234   1.443
 7878SOL    HW224534   4.708   4.250   1.281
 7879SOL     OW24535   4.955   0.639   5.484
 7879SOL    HW124536   4.965   0.540   5.475
 7879SOL    HW224537   4.858   0.663   5.485
 7880SOL     OW24538   0.907   6.720   6.190
 7880SOL    HW124539   0.972   6.757   6.123
 7880SOL    HW224540   0.915   6.621   6.193
 7881SOL     OW24541   0.507   5.453   3.722
 7881SOL    HW124542   0.491   5.389   3.647
 7881SOL    HW224543   0.575   5.415   3.784
 7882SOL     OW24544   0.854   4.177   1.847
 7882SOL    HW124545   0.889   4.263   1.885
 7882SOL    HW224546   0.891   4.164   1.755
 7883SOL     OW24547   3.646   2.108   3.243
 7883SOL    HW124548   3.667   2.109   3.340
 7883SOL    HW224549   3.716   2.162   3.194
 7884SOL     OW24550   0.865   3.860   4.604
 7884SOL    HW124551   0.807   3.837   4.682
 7884SOL    HW224552   0.809   3.868   4.521
 7885SOL     OW24553   5.463   5.428   3.608
 7885SOL    HW124554   5.386   5.380   3.567
 7885SOL    HW224555   5.445   5.527   3.607
 7886SOL     OW24556   4.987   3.208   3.127
 7886SOL    HW124557   4.992   3.307   3.113
 7886SOL    HW224558   5.042   3.183   3.207
 7887SOL     OW24559   2.233   2.781   1.232
 7887SOL    HW124560   2.211   2.873   1.265
 7887SOL    HW224561   2.313   2.747   1.281
 7888SOL     OW24562   5.982   1.114   4.982
 7888SOL    HW124563   5.995   1.022   4.944
 7888SOL    HW224564   6.045   1.178   4.939
 7889SOL     OW24565   5.635   4.922   0.010
 7889SOL    HW124566   5.601   4.837   6.991
 7889SOL    HW224567   5.566   4.993   0.001
 7890SOL     OW24568   2.099   3.358   4.271
 7890SOL    HW124569   2.135   3.265   4.281
 7890SOL    HW224570   2.010   3.355   4.226
 7891SOL     OW24571   6.505   1.680   4.219
 7891SOL    HW124572   6.511   1.768   4.265
 7891SOL    HW224573   6.410   1.648   4.220
 7892SOL     OW24574   0.791   1.397   5.345
 7892SOL    HW124575   0.773   1.320   5.284
 7892SOL    HW224576   0.885   1.392   5.378
 7893SOL     OW24577   5.695   0.209   0.101
 7893SOL    HW124578   5.633   0.286   0.086
 7893SOL    HW224579   5.774   0.218   0.040
 7894SOL     OW24580   3.636   1.954   6.148
 7894SOL    HW124581   3.544   1.922   6.169
 7894SOL    HW224582   3.689   1.959   6.232
 7895SOL     OW24583   5.302   6.732   2.944
 7895SOL    HW124584   5.296   6.643   2.990
 7895SOL    HW224585   5.291   6.805   3.012
 7896SOL     OW24586   2.373   2.453   0.955
 7896SOL    HW124587   2.289   2.416   0.995
 7896SOL    HW224588   2.392   2.405   0.869
 7897SOL     OW24589   3.820   2.571   0.772
 7897SOL    HW124590   3.728   2.607   0.785
 7897SOL    HW224591   3.887   2.645   0.780
 7898SOL     OW24592   5.442   6.558   3.288
 7898SOL    HW124593   5.455   6.657   3.293
 7898SOL    HW224594   5.413   6.533   3.196
 7899SOL     OW24595   6.405   4.591   4.111
 7899SOL    HW124596   6.422   4.494   4.095
 7899SOL    HW224597   6.486   4.632   4.153
 7900SOL     OW24598   0.934   3.737   1.176
 7900SOL    HW124599   1.027   3.704   1.195
 7900SOL    HW224600   0.884   3.668   1.124
 7901SOL     OW24601   0.252   1.177   6.810
 7901SOL    HW124602   0.317   1.178   6.733
 7901SOL    HW224603   0.264   1.093   6.862
 7902SOL     OW24604   1.444   0.023   2.329
 7902SOL    HW124605   1.460   6.994   2.244
 7902SOL    HW224606   1.488   6.996   2.405
 7903SOL     OW24607   2.697   2.121   5.035
 7903SOL    HW124608   2.738   2.030   5.031
 7903SOL    HW224609   2.745   2.181   4.971
 7904SOL     OW24610   4.920   1.386   2.810
 7904SOL    HW124611   4.846   1.402   2.876
 7904SOL    HW224612   4.958   1.474   2.781
 7905SOL     OW24613   4.963   1.634   0.770
 7905SOL    HW124614   5.058   1.640   0.738
 7905SOL    HW224615   4.939   1.539   0.787
 7906SOL     OW24616   1.136   5.369   1.034
 7906SOL    HW124617   1.038   5.349   1.037
 7906SOL    HW224618   1.187   5.298   1.083
 7907SOL     OW24619   6.269   0.020   2.670
 7907SOL    HW124620   6.321   0.034   2.586
 7907SOL    HW224621   6.184   6.994   2.649
 7908SOL     OW24622   0.694   0.078   6.284
 7908SOL    HW124623   0.744   0.151   6.331
 7908SOL    HW224624   0.717   7.012   6.325
 7909SOL     OW24625   5.489   4.569   2.347
 7909SOL    HW124626   5.543   4.646   2.381
 7909SOL    HW224627   5.412   4.552   2.409
 7910SOL     OW24628   0.645   4.240   6.704
 7910SOL    HW124629   0.664   4.242   6.802
 7910SOL    HW224630   0.565   4.297   6.685
 7911SOL     OW24631   0.158   4.358   6.546
 7911SOL    HW124632   0.178   4.357   6.448
 7911SOL    HW224633   0.087   4.291   6.566
 7912SOL     OW24634   6.401   4.996   1.129
 7912SOL    HW124635   6.409   5.026   1.224
 7912SOL    HW224636   6.478   4.936   1.107
 7913SOL     OW24637   1.208   4.452   1.067
 7913SOL    HW124638   1.245   4.502   0.989
 7913SOL    HW224639   1.120   4.411   1.042
 7914SOL     OW24640   6.892   6.733   5.128
 7914SOL    HW124641   6.891   6.804   5.058
 7914SOL    HW224642   6.799   6.700   5.144
 7915SOL     OW24643   3.872   5.416   2.719
 7915SOL    HW124644   3.889   5.478   2.795
 7915SOL    HW224645   3.922   5.331   2.733
 7916SOL     OW24646   0.896   7.014   4.479
 7916SOL    HW124647   0.962   0.057   4.441
 7916SOL    HW224648   0.859   0.029   4.564
 7917SOL     OW24649   3.945   2.740   1.347
 7917SOL    HW124650   3.912   2.764   1.255
 7917SOL    HW224651   4.005   2.813   1.381
 7918SOL     OW24652   2.197   2.187   3.677
 7918SOL    HW124653   2.231   2.168   3.769
 7918SOL    HW224654   2.270   2.228   3.622
 7919SOL     OW24655   1.837   6.308   4.882
 7919SOL    HW124656   1.888   6.356   4.811
 7919SOL    HW224657   1.891   6.232   4.917
 7920SOL     OW24658   4.856   0.545   1.044
 7920SOL    HW124659   4.774   0.580   1.089
 7920SOL    HW224660   4.846   0.446   1.030
 7921SOL     OW24661   5.949   2.637   0.973
 7921SOL    HW124662   5.918   2.729   0.994
 7921SOL    HW224663   5.926   2.576   1.049
 7922SOL     OW24664   2.276   6.153   1.757
 7922SOL    HW124665   2.307   6.065   1.721
 7922SOL    HW224666   2.292   6.224   1.688
 7923SOL     OW24667   5.296   0.906   0.295
 7923SOL    HW124668   5.260   0.930   0.386
 7923SOL    HW224669   5.346   0.984   0.258
 7924SOL     OW24670   6.735   6.300   0.482
 7924SOL    HW124671   6.736   6.201   0.470
 7924SOL    HW224672   6.800   6.342   0.419
 7925SOL     OW24673   1.602   5.688   6.715
 7925SOL    HW124674   1.624   5.762   6.651
 7925SOL    HW224675   1.552   5.616   6.667
 7926SOL     OW24676   4.996   5.645   0.169
 7926SOL    HW124677   5.085   5.689   0.160
 7926SOL    HW224678   5.009   5.548   0.187
 7927SOL     OW24679   4.271   6.922   2.419
 7927SOL    HW124680   4.316   6.895   2.505
 7927SOL    HW224681   4.175   6.896   2.423
 7928SOL     OW24682   5.682   2.011   3.383
 7928SOL    HW124683   5.685   2.110   3.369
 7928SOL    HW224684   5.664   1.965   3.296
 7929SOL     OW24685   4.208   4.153   6.424
 7929SOL    HW124686   4.298   4.143   6.381
 7929SOL    HW224687   4.136   4.140   6.355
 7930SOL     OW24688   4.338   6.062   6.282
 7930SOL    HW124689   4.427   6.065   6.237
 7930SOL    HW224690   4.288   6.146   6.261
 7931SOL     OW24691   4.313   2.415   1.245
 7931SOL    HW124692   4.285   2.404   1.341
 7931SOL    HW224693   4.378   2.491   1.238
 7932SOL     OW24694   1.710   3.779   2.159
 7932SOL    HW124695   1.639   3.719   2.195
 7932SOL    HW224696   1.740   3.746   2.069
 7933SOL     OW24697   1.009   1.870   6.875
 7933SOL    HW124698   0.997   1.864   6.776
 7933SOL    HW224699   0.927   1.909   6.917
 7934SOL     OW24700   0.888   5.687   1.217
 7934SOL    HW124701   0.925   5.759   1.276
 7934SOL    HW224702   0.841   5.728   1.139
 7935SOL     OW24703   4.812   3.124   2.956
 7935SOL    HW124704   4.750   3.198   2.929
 7935SOL    HW224705   4.887   3.162   3.010
 7936SOL     OW24706   2.954   5.511   3.623
 7936SOL    HW124707   2.933   5.416   3.600
 7936SOL    HW224708   3.016   5.513   3.702
 7937SOL     OW24709   3.303   0.770   6.869
 7937SOL    HW124710   3.387   0.716   6.881
 7937SOL    HW224711   3.302   0.846   6.934
 7938SOL     OW24712   2.914   6.356   4.126
 7938SOL    HW124713   2.846   6.428   4.137
 7938SOL    HW224714   2.886   6.294   4.053
 7939SOL     OW24715   0.395   1.385   3.656
 7939SOL    HW124716   0.358   1.323   3.725
 7939SOL    HW224717   0.495   1.376   3.654
 7940SOL     OW24718   5.456   1.188   3.941
 7940SOL    HW124719   5.469   1.284   3.915
 7940SOL    HW224720   5.477   1.130   3.862
 7941SOL     OW24721   3.814   6.902   0.963
 7941SOL    HW124722   3.719   6.906   0.992
 7941SOL    HW224723   3.873   6.891   1.043
 7942SOL     OW24724   1.410   5.150   0.758
 7942SOL    HW124725   1.337   5.114   0.816
 7942SOL    HW224726   1.498   5.110   0.786
 7943SOL     OW24727   1.551   6.343   5.936
 7943SOL    HW124728   1.529   6.356   5.839
 7943SOL    HW224729   1.558   6.433   5.981
 7944SOL     OW24730   1.512   2.662   1.661
 7944SOL    HW124731   1.590   2.600   1.671
 7944SOL    HW224732   1.469   2.675   1.751
 7945SOL     OW24733   6.209   4.371   3.689
 7945SOL    HW124734   6.169   4.400   3.602
 7945SOL    HW224735   6.246   4.451   3.737
 7946SOL     OW24736   3.884   1.313   6.479
 7946SOL    HW124737   3.844   1.395   6.438
 7946SOL    HW224738   3.943   1.268   6.413
 7947SOL     OW24739   0.384   3.746   6.473
 7947SOL    HW124740   0.323   3.679   6.515
 7947SOL    HW224741   0.385   3.733   6.374
 7948SOL     OW24742   1.806   4.759   2.513
 7948SOL    HW124743   1.902   4.737   2.531
 7948SOL    HW224744   1.798   4.857   2.491
 7949SOL     OW24745   3.217   6.169   6.712
 7949SOL    HW124746   3.225   6.125   6.623
 7949SOL    HW224747   3.229   6.100   6.784
 7950SOL     OW24748   5.806   4.504   5.359
 7950SOL    HW124749   5.846   4.417   5.387
 7950SOL    HW224750   5.870   4.553   5.299
 7951SOL     OW24751   4.248   5.736   2.488
 7951SOL    HW124752   4.195   5.728   2.404
 7951SOL    HW224753   4.280   5.830   2.498
 7952SOL     OW24754   6.190   4.629   6.305
 7952SOL    HW124755   6.256   4.563   6.340
 7952SOL    HW224756   6.162   4.691   6.379
 7953SOL     OW24757   1.832   0.176   0.647
 7953SOL    HW124758   1.789   0.115   0.580
 7953SOL    HW224759   1.891   0.241   0.600
 7954SOL     OW24760   4.197   4.004   6.694
 7954SOL    HW124761   4.158   4.082   6.743
 7954SOL    HW224762   4.181   4.015   6.596
 7955SOL     OW24763   1.505   1.881   6.631
 7955SOL    HW124764   1.590   1.932   6.624
 7955SOL    HW224765   1.439   1.916   6.564
 7956SOL     OW24766   6.536   6.458   0.605
 7956SOL    HW124767   6.559   6.453   0.702
 7956SOL    HW224768   6.593   6.393   0.553
 7957SOL     OW24769   4.690   0.764   5.876
 7957SOL    HW124770   4.715   0.860   5.892
 7957SOL    HW224771   4.753   0.704   5.925
 7958SOL     OW24772   5.847   2.592   0.216
 7958SOL    HW124773   5.886   2.677   0.181
 7958SOL    HW224774   5.921   2.527   0.236
 7959SOL     OW24775   6.300   1.667   6.630
 7959SOL    HW124776   6.247   1.750   6.618
 7959SOL    HW224777   6.246   1.588   6.600
 7960SOL     OW24778   0.441   1.085   5.363
 7960SOL    HW124779   0.500   1.159   5.396
 7960SOL    HW224780   0.430   1.093   5.264
 7961SOL     OW24781   6.436   6.334   0.323
 7961SOL    HW124782   6.489   6.418   0.326
 7961SOL    HW224783   6.479   6.269   0.260
 7962SOL     OW24784   5.702   6.789   5.662
 7962SOL    HW124785   5.703   6.834   5.572
 7962SOL    HW224786   5.732   6.854   5.732
 7963SOL     OW24787   6.609   6.802   4.278
 7963SOL    HW124788   6.638   6.808   4.373
 7963SOL    HW224789   6.610   6.707   4.248
 7964SOL     OW24790   6.905   4.165   2.042
 7964SOL    HW124791   6.936   4.161   1.947
 7964SOL    HW224792   6.887   4.261   2.067
 7965SOL     OW24793   4.289   2.687   6.205
 7965SOL    HW124794   4.209   2.714   6.258
 7965SOL    HW224795   4.260   2.655   6.114
 7966SOL     OW24796   4.929   3.611   4.797
 7966SOL    HW124797   5.023   3.640   4.811
 7966SOL    HW224798   4.869   3.662   4.860
 7967SOL     OW24799   1.885   3.995   1.300
 7967SOL    HW124800   1.899   4.089   1.330
 7967SOL    HW224801   1.806   3.991   1.238
 7968SOL     OW24802   0.607   2.508   4.728
 7968SOL    HW124803   0.590   2.429   4.786
 7968SOL    HW224804   0.704   2.529   4.728
 7969SOL     OW24805   4.122   5.869   6.692
 7969SOL    HW124806   4.216   5.892   6.720
 7969SOL    HW224807   4.061   5.875   6.771
 7970SOL     OW24808   6.199   3.120   2.994
 7970SOL    HW124809   6.251   3.046   3.037
 7970SOL    HW224810   6.167   3.091   2.904
 7971SOL     OW24811   2.790   1.492   0.099
 7971SOL    HW124812   2.768   1.519   0.193
 7971SOL    HW224813   2.883   1.456   0.095
 7972SOL     OW24814   3.899   3.939   3.586
 7972SOL    HW124815   3.997   3.947   3.607
 7972SOL    HW224816   3.859   3.867   3.643
 7973SOL     OW24817   6.157   4.444   2.573
 7973SOL    HW124818   6.178   4.409   2.482
 7973SOL    HW224819   6.239   4.486   2.613
 7974SOL     OW24820   6.870   2.724   6.131
 7974SOL    HW124821   6.812   2.774   6.067
 7974SOL    HW224822   6.910   2.645   6.086
 7975SOL     OW24823   5.622   0.420   1.062
 7975SOL    HW124824   5.522   0.422   1.058
 7975SOL    HW224825   5.659   0.443   0.972
 7976SOL     OW24826   0.568   0.504   0.689
 7976SOL    HW124827   0.627   0.551   0.755
 7976SOL    HW224828   0.516   0.571   0.636
 7977SOL     OW24829   5.510   5.712   3.776
 7977SOL    HW124830   5.473   5.667   3.857
 7977SOL    HW224831   5.606   5.734   3.792
 7978SOL     OW24832   0.345   4.386   1.791
 7978SOL    HW124833   0.441   4.359   1.797
 7978SOL    HW224834   0.296   4.350   1.870
 7979SOL     OW24835   1.973   2.184   4.953
 7979SOL    HW124836   1.941   2.168   5.046
 7979SOL    HW224837   2.059   2.235   4.956
 7980SOL     OW24838   4.249   5.455   0.357
 7980SOL    HW124839   4.180   5.423   0.422
 7980SOL    HW224840   4.291   5.540   0.391
 7981SOL     OW24841   1.997   4.368   3.400
 7981SOL    HW124842   2.019   4.365   3.302
 7981SOL    HW224843   1.965   4.278   3.430
 7982SOL     OW24844   6.286   1.273   5.324
 7982SOL    HW124845   6.347   1.266   5.403
 7982SOL    HW224846   6.224   1.194   5.323
 7983SOL     OW24847   4.364   0.730   1.934
 7983SOL    HW124848   4.347   0.774   2.023
 7983SOL    HW224849   4.277   0.714   1.888
 7984SOL     OW24850   0.610   2.220   2.900
 7984SOL    HW124851   0.530   2.279   2.915
 7984SOL    HW224852   0.583   2.140   2.846
 7985SOL     OW24853   2.668   2.972   5.330
 7985SOL    HW124854   2.624   2.913   5.397
 7985SOL    HW224855   2.605   2.988   5.253
 7986SOL     OW24856   3.609   1.046   4.093
 7986SOL    HW124857   3.603   1.130   4.039
 7986SOL    HW224858   3.563   0.971   4.045
 7987SOL     OW24859   0.879   3.844   0.086
 7987SOL    HW124860   0.836   3.833   7.018
 7987SOL    HW224861   0.979   3.839   0.076
 7988SOL     OW24862   6.623   0.888   2.089
 7988SOL    HW124863   6.700   0.865   2.029
 7988SOL    HW224864   6.537   0.877   2.038
 7989SOL     OW24865   0.147   4.527   0.816
 7989SOL    HW124866   0.237   4.483   0.817
 7989SOL    HW224867   0.106   4.514   0.726
 7990SOL     OW24868   4.340   5.736   5.416
 7990SOL    HW124869   4.382   5.787   5.341
 7990SOL    HW224870   4.386   5.759   5.502
 7991SOL     OW24871   5.885   1.040   5.237
 7991SOL    HW124872   5.792   1.005   5.227
 7991SOL    HW224873   5.911   1.090   5.154
 7992SOL     OW24874   2.435   6.799   6.713
 7992SOL    HW124875   2.383   6.869   6.762
 7992SOL    HW224876   2.483   6.741   6.778
 7993SOL     OW24877   6.364   5.823   0.759
 7993SOL    HW124878   6.299   5.874   0.703
 7993SOL    HW224879   6.420   5.887   0.812
 7994SOL     OW24880   5.910   0.077   3.835
 7994SOL    HW124881   5.903   7.005   3.872
 7994SOL    HW224882   5.983   0.080   3.767
 7995SOL     OW24883   0.629   5.028   1.796
 7995SOL    HW124884   0.640   5.029   1.696
 7995SOL    HW224885   0.574   5.107   1.824
 7996SOL     OW24886   3.059   0.114   3.177
 7996SOL    HW124887   2.997   0.171   3.231
 7996SOL    HW224888   3.139   0.168   3.149
 7997SOL     OW24889   1.201   1.537   6.069
 7997SOL    HW124890   1.291   1.534   6.113
 7997SOL    HW224891   1.163   1.445   6.067
 7998SOL     OW24892   2.146   1.078   0.494
 7998SOL    HW124893   2.174   1.004   0.433
 7998SOL    HW224894   2.085   1.140   0.445
 7999SOL     OW24895   1.118   0.158   4.345
 7999SOL    HW124896   1.130   0.229   4.414
 7999SOL    HW224897   1.091   0.201   4.258
 8000SOL     OW24898   4.006   5.463   0.155
 8000SOL    HW124899   4.098   5.492   0.181
 8000SOL    HW224900   3.958   5.427   0.235
 8001SOL     OW24901   4.218   5.742   0.922
 8001SOL    HW124902   4.316   5.750   0.906
 8001SOL    HW224903   4.186   5.822   0.973
 8002SOL     OW24904   0.973   6.985   5.710
 8002SOL    HW124905   0.903   6.930   5.755
 8002SOL    HW224906   1.020   0.020   5.777
 8003SOL     OW24907   2.375   5.568   2.159
 8003SOL    HW124908   2.467   5.575   2.197
 8003SOL    HW224909   2.312   5.535   2.228
 8004SOL     OW24910   1.393   2.759   4.200
 8004SOL    HW124911   1.315   2.797   4.250
 8004SOL    HW224912   1.460   2.831   4.183
 8005SOL     OW24913   2.292   0.321   2.962
 8005SOL    HW124914   2.357   0.369   2.903
 8005SOL    HW224915   2.343   0.263   3.026
 8006SOL     OW24916   3.866   4.723   5.311
 8006SOL    HW124917   3.869   4.627   5.336
 8006SOL    HW224918   3.838   4.778   5.391
 8007SOL     OW24919   6.746   0.331   0.408
 8007SOL    HW124920   6.834   0.341   0.454
 8007SOL    HW224921   6.707   0.422   0.391
 8008SOL     OW24922   5.466   6.483   0.248
 8008SOL    HW124923   5.553   6.457   0.206
 8008SOL    HW224924   5.484   6.542   0.328
 8009SOL     OW24925   5.440   1.558   6.983
 8009SOL    HW124926   5.520   1.559   0.021
 8009SOL    HW224927   5.388   1.642   6.995
 8010SOL     OW24928   2.979   1.046   5.794
 8010SOL    HW124929   2.981   0.960   5.844
 8010SOL    HW224930   3.054   1.048   5.727
 8011SOL     OW24931   4.004   2.070   2.964
 8011SOL    HW124932   3.921   2.038   2.916
 8011SOL    HW224933   4.084   2.029   2.921
 8012SOL     OW24934   6.232   1.672   4.253
 8012SOL    HW124935   6.143   1.636   4.225
 8012SOL    HW224936   6.243   1.765   4.218
 8013SOL     OW24937   3.060   1.399   2.144
 8013SOL    HW124938   2.961   1.395   2.129
 8013SOL    HW224939   3.079   1.451   2.227
 8014SOL     OW24940   2.279   2.281   2.683
 8014SOL    HW124941   2.183   2.257   2.692
 8014SOL    HW224942   2.327   2.256   2.768
 8015SOL     OW24943   3.518   6.830   5.150
 8015SOL    HW124944   3.426   6.792   5.149
 8015SOL    HW224945   3.524   6.904   5.082
 8016SOL     OW24946   3.359   1.951   4.934
 8016SOL    HW124947   3.424   2.010   4.982
 8016SOL    HW224948   3.307   2.006   4.867
 8017SOL     OW24949   6.569   6.052   0.868
 8017SOL    HW124950   6.631   5.991   0.818
 8017SOL    HW224951   6.611   6.076   0.956
 8018SOL     OW24952   4.178   1.906   6.890
 8018SOL    HW124953   4.155   1.811   6.866
 8018SOL    HW224954   4.240   1.943   6.820
 8019SOL     OW24955   2.503   3.453   0.988
 8019SOL    HW124956   2.593   3.461   0.946
 8019SOL    HW224957   2.507   3.391   1.066
 8020SOL     OW24958   0.775   0.991   5.629
 8020SOL    HW124959   0.734   1.081   5.644
 8020SOL    HW224960   0.716   0.937   5.569
 8021SOL     OW24961   1.256   2.192   1.146
 8021SOL    HW124962   1.176   2.137   1.167
 8021SOL    HW224963   1.336   2.153   1.190
 8022SOL     OW24964   5.059   1.289   2.079
 8022SOL    HW124965   5.006   1.318   1.999
 8022SOL    HW224966   5.151   1.265   2.051
 8023SOL     OW24967   4.856   6.029   1.606
 8023SOL    HW124968   4.879   6.106   1.666
 8023SOL    HW224969   4.938   6.002   1.555
 8024SOL     OW24970   2.515   1.132   6.514
 8024SOL    HW124971   2.460   1.189   6.453
 8024SOL    HW224972   2.540   1.185   6.595
 8025SOL     OW24973   1.394   5.939   2.170
 8025SOL    HW124974   1.321   5.910   2.108
 8025SOL    HW224975   1.474   5.966   2.118
 8026SOL     OW24976   0.685   6.323   6.571
 8026SOL    HW124977   0.735   6.279   6.646
 8026SOL    HW224978   0.649   6.253   6.509
 8027SOL     OW24979   3.252   0.884   6.629
 8027SOL    HW124980   3.271   0.831   6.711
 8027SOL    HW224981   3.167   0.851   6.587
 8028SOL     OW24982   3.144   5.736   5.496
 8028SOL    HW124983   3.209   5.660   5.501
 8028SOL    HW224984   3.131   5.762   5.400
 8029SOL     OW24985   0.716   6.973   0.126
 8029SOL    HW124986   0.746   7.019   0.210
 8029SOL    HW224987   0.796   6.955   0.068
 8030SOL     OW24988   0.761   4.142   1.025
 8030SOL    HW124989   0.690   4.179   0.966
 8030SOL    HW224990   0.802   4.061   0.982
 8031SOL     OW24991   0.029   0.188   3.533
 8031SOL    HW124992   0.057   0.201   3.628
 8031SOL    HW224993   0.005   0.277   3.492
 8032SOL     OW24994   6.734   2.839   1.149
 8032SOL    HW124995   6.650   2.818   1.099
 8032SOL    HW224996   6.810   2.844   1.085
 8033SOL     OW24997   4.493   3.780   1.047
 8033SOL    HW124998   4.443   3.721   0.983
 8033SOL    HW224999   4.492   3.739   1.138
 8034SOL     OW25000   6.397   0.178   5.895
 8034SOL    HW125001   6.389   0.225   5.808
 8034SOL    HW225002   6.478   0.209   5.943
 8035SOL     OW25003   6.276   1.598   3.226
 8035SOL    HW125004   6.333   1.672   3.190
 8035SOL    HW225005   6.333   1.535   3.279
 8036SOL     OW25006   5.468   2.699   4.205
 8036SOL    HW125007   5.434   2.792   4.193
 8036SOL    HW225008   5.440   2.643   4.126
 8037SOL     OW25009   1.610   1.870   5.467
 8037SOL    HW125010   1.700   1.859   5.423
 8037SOL    HW225011   1.556   1.787   5.453
 8038SOL     OW25012   0.118   5.059   2.204
 8038SOL    HW125013   0.073   4.986   2.256
 8038SOL    HW225014   0.141   5.025   2.113
 8039SOL     OW25015   1.016   2.316   5.453
 8039SOL    HW125016   1.049   2.385   5.389
 8039SOL    HW225017   1.008   2.228   5.407
 8040SOL     OW25018   1.665   5.213   6.863
 8040SOL    HW125019   1.723   5.169   6.932
 8040SOL    HW225020   1.599   5.147   6.828
 8041SOL     OW25021   3.204   1.310   2.977
 8041SOL    HW125022   3.282   1.337   3.032
 8041SOL    HW225023   3.152   1.391   2.949
 8042SOL     OW25024   4.235   4.133   5.634
 8042SOL    HW125025   4.185   4.098   5.555
 8042SOL    HW225026   4.171   4.179   5.696
 8043SOL     OW25027   5.007   5.582   6.884
 8043SOL    HW125028   5.001   5.604   6.787
 8043SOL    HW225029   5.038   5.487   6.895
 8044SOL     OW25030   2.585   3.342   1.756
 8044SOL    HW125031   2.530   3.370   1.835
 8044SOL    HW225032   2.586   3.415   1.688
 8045SOL     OW25033   6.514   2.657   3.538
 8045SOL    HW125034   6.594   2.604   3.512
 8045SOL    HW225035   6.544   2.740   3.587
 8046SOL     OW25036   6.773   4.712   2.410
 8046SOL    HW125037   6.864   4.704   2.450
 8046SOL    HW225038   6.721   4.629   2.429
 8047SOL     OW25039   3.068   6.414   6.745
 8047SOL    HW125040   3.126   6.334   6.728
 8047SOL    HW225041   2.980   6.384   6.781
 8048SOL     OW25042   3.876   2.281   6.052
 8048SOL    HW125043   3.804   2.312   5.991
 8048SOL    HW225044   3.960   2.267   6.000
 8049SOL     OW25045   1.690   2.045   0.476
 8049SOL    HW125046   1.594   2.071   0.469
 8049SOL    HW225047   1.733   2.051   0.386
 8050SOL     OW25048   0.746   5.026   5.648
 8050SOL    HW125049   0.725   5.071   5.735
 8050SOL    HW225050   0.845   5.010   5.643
 8051SOL     OW25051   4.325   5.915   3.653
 8051SOL    HW125052   4.401   5.980   3.646
 8051SOL    HW225053   4.301   5.882   3.562
 8052SOL     OW25054   2.997   1.816   2.387
 8052SOL    HW125055   3.059   1.895   2.380
 8052SOL    HW225056   2.986   1.790   2.482
 8053SOL     OW25057   2.147   2.464   6.539
 8053SOL    HW125058   2.118   2.459   6.444
 8053SOL    HW225059   2.093   2.534   6.586
 8054SOL     OW25060   4.657   3.324   5.360
 8054SOL    HW125061   4.648   3.405   5.302
 8054SOL    HW225062   4.588   3.257   5.335
 8055SOL     OW25063   5.715   0.761   6.983
 8055SOL    HW125064   5.680   0.693   0.025
 8055SOL    HW225065   5.744   0.717   6.898
 8056SOL     OW25066   2.444   0.670   4.156
 8056SOL    HW125067   2.395   0.655   4.070
 8056SOL    HW225068   2.490   0.586   4.182
 8057SOL     OW25069   2.981   2.109   1.900
 8057SOL    HW125070   2.952   2.200   1.929
 8057SOL    HW225071   2.927   2.080   1.821
 8058SOL     OW25072   3.432   6.822   2.068
 8058SOL    HW125073   3.424   6.921   2.056
 8058SOL    HW225074   3.486   6.784   1.992
 8059SOL     OW25075   3.339   2.596   5.869
 8059SOL    HW125076   3.342   2.504   5.907
 8059SOL    HW225077   3.252   2.610   5.821
 8060SOL     OW25078   6.271   0.479   6.318
 8060SOL    HW125079   6.192   0.495   6.258
 8060SOL    HW225080   6.247   0.506   6.411
 8061SOL     OW25081   0.310   0.417   2.499
 8061SOL    HW125082   0.339   0.322   2.485
 8061SOL    HW225083   0.217   0.428   2.465
 8062SOL     OW25084   4.137   5.640   5.803
 8062SOL    HW125085   4.235   5.633   5.785
 8062SOL    HW225086   4.093   5.553   5.779
 8063SOL     OW25087   3.477   4.872   3.232
 8063SOL    HW125088   3.514   4.918   3.151
 8063SOL    HW225089   3.382   4.845   3.214
 8064SOL     OW25090   6.411   1.927   0.269
 8064SOL    HW125091   6.348   1.850   0.265
 8064SOL    HW225092   6.491   1.902   0.323
 8065SOL     OW25093   4.009   5.988   6.452
 8065SOL    HW125094   4.013   6.088   6.463
 8065SOL    HW225095   4.058   5.944   6.527
 8066SOL     OW25096   0.291   6.883   5.817
 8066SOL    HW125097   0.217   6.852   5.757
 8066SOL    HW225098   0.306   6.981   5.803
 8067SOL     OW25099   4.868   2.331   3.560
 8067SOL    HW125100   4.827   2.397   3.623
 8067SOL    HW225101   4.943   2.283   3.605
 8068SOL     OW25102   5.719   4.083   1.368
 8068SOL    HW125103   5.762   4.124   1.287
 8068SOL    HW225104   5.710   3.985   1.354
 8069SOL     OW25105   2.292   4.852   3.411
 8069SOL    HW125106   2.288   4.784   3.485
 8069SOL    HW225107   2.204   4.855   3.364
 8070SOL     OW25108   4.626   4.420   0.448
 8070SOL    HW125109   4.588   4.503   0.489
 8070SOL    HW225110   4.564   4.343   0.463
 8071SOL     OW25111   2.195   0.135   6.072
 8071SOL    HW125112   2.235   0.080   6.145
 8071SOL    HW225113   2.140   0.209   6.112
 8072SOL     OW25114   1.750   1.618   5.814
 8072SOL    HW125115   1.739   1.717   5.803
 8072SOL    HW225116   1.664   1.572   5.793
 8073SOL     OW25117   4.484   0.582   6.863
 8073SOL    HW125118   4.522   0.502   6.910
 8073SOL    HW225119   4.451   0.648   6.930
 8074SOL     OW25120   1.690   1.113   6.137
 8074SOL    HW125121   1.761   1.077   6.077
 8074SOL    HW225122   1.690   1.062   6.223
 8075SOL     OW25123   0.300   6.769   0.555
 8075SOL    HW125124   0.243   6.709   0.499
 8075SOL    HW225125   0.350   6.715   0.623
 8076SOL     OW25126   0.052   6.041   0.428
 8076SOL    HW125127   0.139   5.993   0.415
 8076SOL    HW225128   0.054   6.092   0.514
 8077SOL     OW25129   4.794   4.254   0.650
 8077SOL    HW125130   4.726   4.230   0.580
 8077SOL    HW225131   4.814   4.174   0.706
 8078SOL     OW25132   0.415   1.297   1.966
 8078SOL    HW125133   0.424   1.378   2.024
 8078SOL    HW225134   0.501   1.246   1.966
 8079SOL     OW25135   1.547   1.304   5.986
 8079SOL    HW125136   1.605   1.239   6.033
 8079SOL    HW225137   1.468   1.256   5.946
 8080SOL     OW25138   0.985   3.253   3.005
 8080SOL    HW125139   0.915   3.310   2.962
 8080SOL    HW225140   1.075   3.288   2.980
 8081SOL     OW25141   5.515   5.854   5.165
 8081SOL    HW125142   5.587   5.890   5.224
 8081SOL    HW225143   5.517   5.900   5.076
 8082SOL     OW25144   3.700   1.578   3.125
 8082SOL    HW125145   3.737   1.602   3.215
 8082SOL    HW225146   3.746   1.633   3.055
 8083SOL     OW25147   5.884   2.228   4.367
 8083SOL    HW125148   5.927   2.316   4.386
 8083SOL    HW225149   5.864   2.182   4.453
 8084SOL     OW25150   3.585   1.737   5.927
 8084SOL    HW125151   3.509   1.703   5.872
 8084SOL    HW225152   3.558   1.741   6.023
 8085SOL     OW25153   1.752   6.153   4.339
 8085SOL    HW125154   1.778   6.122   4.247
 8085SOL    HW225155   1.757   6.253   4.343
 8086SOL     OW25156   6.800   0.493   2.199
 8086SOL    HW125157   6.826   0.485   2.103
 8086SOL    HW225158   6.857   0.432   2.254
 8087SOL     OW25159   0.909   0.662   0.256
 8087SOL    HW125160   0.914   0.673   0.355
 8087SOL    HW225161   0.851   0.583   0.234
 8088SOL     OW25162   6.439   0.327   4.658
 8088SOL    HW125163   6.517   0.316   4.719
 8088SOL    HW225164   6.471   0.343   4.565
 8089SOL     OW25165   6.560   2.344   5.767
 8089SOL    HW125166   6.539   2.291   5.849
 8089SOL    HW225167   6.652   2.383   5.776
 8090SOL     OW25168   4.233   2.120   5.186
 8090SOL    HW125169   4.240   2.054   5.262
 8090SOL    HW225170   4.276   2.080   5.104
 8091SOL     OW25171   1.754   5.264   4.118
 8091SOL    HW125172   1.827   5.327   4.094
 8091SOL    HW225173   1.792   5.186   4.168
 8092SOL     OW25174   4.846   1.922   6.038
 8092SOL    HW125175   4.890   1.972   6.113
 8092SOL    HW225176   4.870   1.825   6.043
 8093SOL     OW25177   3.397   5.862   2.164
 8093SOL    HW125178   3.363   5.905   2.081
 8093SOL    HW225179   3.321   5.818   2.212
 8094SOL     OW25180   2.027   4.461   4.450
 8094SOL    HW125181   2.112   4.493   4.492
 8094SOL    HW225182   2.006   4.517   4.370
 8095SOL     OW25183   1.554   4.742   5.424
 8095SOL    HW125184   1.554   4.841   5.414
 8095SOL    HW225185   1.566   4.719   5.521
 8096SOL     OW25186   1.397   6.207   1.278
 8096SOL    HW125187   1.450   6.188   1.360
 8096SOL    HW225188   1.457   6.244   1.207
 8097SOL     OW25189   4.761   6.201   5.977
 8097SOL    HW125190   4.703   6.237   5.904
 8097SOL    HW225191   4.774   6.271   6.047
 8098SOL     OW25192   1.936   5.845   5.052
 8098SOL    HW125193   1.940   5.852   5.152
 8098SOL    HW225194   1.842   5.827   5.023
 8099SOL     OW25195   2.465   4.809   2.886
 8099SOL    HW125196   2.540   4.825   2.950
 8099SOL    HW225197   2.381   4.793   2.937
 8100SOL     OW25198   0.292   0.970   6.984
 8100SOL    HW125199   0.342   0.993   0.046
 8100SOL    HW225200   0.326   0.883   6.949
 8101SOL     OW25201   3.204   6.039   1.079
 8101SOL    HW125202   3.150   6.081   1.152
 8101SOL    HW225203   3.153   6.043   0.993
 8102SOL     OW25204   1.960   3.158   4.797
 8102SOL    HW125205   1.891   3.224   4.767
 8102SOL    HW225206   1.923   3.065   4.790
 8103SOL     OW25207   3.079   1.013   1.431
 8103SOL    HW125208   3.053   0.927   1.386
 8103SOL    HW225209   3.019   1.087   1.399
 8104SOL     OW25210   1.957   5.750   0.311
 8104SOL    HW125211   1.918   5.663   0.340
 8104SOL    HW225212   1.948   5.759   0.212
 8105SOL     OW25213   6.848   0.170   3.152
 8105SOL    HW125214   6.852   0.263   3.189
 8105SOL    HW225215   6.862   0.104   3.226
 8106SOL     OW25216   1.765   0.206   6.144
 8106SOL    HW125217   1.701   0.267   6.191
 8106SOL    HW225218   1.791   0.247   6.056
 8107SOL     OW25219   1.684   6.392   6.312
 8107SOL    HW125220   1.671   6.329   6.388
 8107SOL    HW225221   1.622   6.469   6.321
 8108SOL     OW25222   1.000   1.192   6.972
 8108SOL    HW125223   0.951   1.114   6.932
 8108SOL    HW225224   0.954   1.220   0.034
 8109SOL     OW25225   6.500   3.358   0.750
 8109SOL    HW125226   6.498   3.397   0.842
 8109SOL    HW225227   6.414   3.312   0.731
 8110SOL     OW25228   3.860   4.895   1.458
 8110SOL    HW125229   3.847   4.801   1.426
 8110SOL    HW225230   3.784   4.921   1.518
 8111SOL     OW25231   6.376   1.128   2.469
 8111SOL    HW125232   6.415   1.116   2.378
 8111SOL    HW225233   6.286   1.086   2.473
 8112SOL     OW25234   1.619   3.765   5.911
 8112SOL    HW125235   1.634   3.809   6.000
 8112SOL    HW225236   1.584   3.672   5.926
 8113SOL     OW25237   5.588   3.231   5.832
 8113SOL    HW125238   5.627   3.210   5.922
 8113SOL    HW225239   5.640   3.306   5.790
 8114SOL     OW25240   1.816   4.286   1.747
 8114SOL    HW125241   1.880   4.212   1.763
 8114SOL    HW225242   1.814   4.347   1.826
 8115SOL     OW25243   2.420   1.705   6.103
 8115SOL    HW125244   2.329   1.700   6.063
 8115SOL    HW225245   2.414   1.712   6.202
 8116SOL     OW25246   3.834   3.474   1.255
 8116SOL    HW125247   3.810   3.380   1.228
 8116SOL    HW225248   3.761   3.512   1.311
 8117SOL     OW25249   2.271   6.913   3.229
 8117SOL    HW125250   2.277   6.815   3.246
 8117SOL    HW225251   2.327   6.937   3.150
 8118SOL     OW25252   6.058   3.397   0.324
 8118SOL    HW125253   6.038   3.311   0.276
 8118SOL    HW225254   6.145   3.434   0.290
 8119SOL     OW25255   6.121   6.435   0.299
 8119SOL    HW125256   6.198   6.441   0.363
 8119SOL    HW225257   6.156   6.418   0.207
 8120SOL     OW25258   2.957   6.650   1.385
 8120SOL    HW125259   3.034   6.714   1.383
 8120SOL    HW225260   2.926   6.632   1.291
 8121SOL     OW25261   0.947   3.623   2.984
 8121SOL    HW125262   0.954   3.712   3.029
 8121SOL    HW225263   0.942   3.551   3.054
 8122SOL     OW25264   0.910   4.772   1.434
 8122SOL    HW125265   0.811   4.776   1.422
 8122SOL    HW225266   0.933   4.776   1.532
 8123SOL     OW25267   0.362   1.592   7.007
 8123SOL    HW125268   0.446   1.537   6.999
 8123SOL    HW225269   0.386   1.684   0.015
 8124SOL     OW25270   5.345   4.536   4.605
 8124SOL    HW125271   5.329   4.573   4.696
 8124SOL    HW225272   5.394   4.603   4.549
 8125SOL     OW25273   1.625   6.110   3.215
 8125SOL    HW125274   1.680   6.050   3.158
 8125SOL    HW225275   1.578   6.177   3.157
 8126SOL     OW25276   3.526   5.025   4.526
 8126SOL    HW125277   3.579   5.067   4.451
 8126SOL    HW225278   3.587   4.968   4.581
 8127SOL     OW25279   3.504   2.914   0.097
 8127SOL    HW125280   3.523   2.821   0.127
 8127SOL    HW225281   3.585   2.951   0.051
 8128SOL     OW25282   3.700   2.937   1.623
 8128SOL    HW125283   3.723   2.841   1.606
 8128SOL    HW225284   3.783   2.992   1.620
 8129SOL     OW25285   1.918   2.923   2.438
 8129SOL    HW125286   1.955   2.886   2.353
 8129SOL    HW225287   1.993   2.953   2.497
 8130SOL     OW25288   1.365   5.223   6.784
 8130SOL    HW125289   1.372   5.314   6.742
 8130SOL    HW225290   1.408   5.225   6.875
 8131SOL     OW25291   2.049   3.673   6.705
 8131SOL    HW125292   2.014   3.695   6.614
 8131SOL    HW225293   1.996   3.722   6.774
 8132SOL     OW25294   0.236   0.098   5.233
 8132SOL    HW125295   0.168   0.053   5.291
 8132SOL    HW225296   0.242   0.050   5.145
 8133SOL     OW25297   3.941   5.164   0.492
 8133SOL    HW125298   3.895   5.167   0.581
 8133SOL    HW225299   3.889   5.217   0.425
 8134SOL     OW25300   5.798   1.102   6.217
 8134SOL    HW125301   5.702   1.095   6.188
 8134SOL    HW225302   5.852   1.142   6.143
 8135SOL     OW25303   2.146   0.113   1.687
 8135SOL    HW125304   2.228   0.170   1.685
 8135SOL    HW225305   2.077   0.155   1.746
 8136SOL     OW25306   4.711   4.432   2.137
 8136SOL    HW125307   4.781   4.472   2.078
 8136SOL    HW225308   4.640   4.392   2.081
 8137SOL     OW25309   3.990   1.401   4.829
 8137SOL    HW125310   4.022   1.372   4.919
 8137SOL    HW225311   4.044   1.356   4.758
 8138SOL     OW25312   5.143   1.228   1.644
 8138SOL    HW125313   5.179   1.316   1.675
 8138SOL    HW225314   5.048   1.218   1.675
 8139SOL     OW25315   0.814   2.277   3.872
 8139SOL    HW125316   0.856   2.336   3.803
 8139SOL    HW225317   0.715   2.273   3.856
 8140SOL     OW25318   3.760   0.834   2.757
 8140SOL    HW125319   3.670   0.797   2.732
 8140SOL    HW225320   3.748   0.917   2.811
 8141SOL     OW25321   4.605   4.798   4.746
 8141SOL    HW125322   4.652   4.720   4.704
 8141SOL    HW225323   4.513   4.769   4.774
 8142SOL     OW25324   6.679   6.020   0.509
 8142SOL    HW125325   6.685   5.969   0.595
 8142SOL    HW225326   6.730   5.971   0.438
 8143SOL     OW25327   5.846   3.603   4.748
 8143SOL    HW125328   5.925   3.664   4.754
 8143SOL    HW225329   5.785   3.634   4.675
 8144SOL     OW25330   5.865   6.646   6.077
 8144SOL    HW125331   5.869   6.604   6.168
 8144SOL    HW225332   5.902   6.739   6.082
 8145SOL     OW25333   5.790   6.010   2.888
 8145SOL    HW125334   5.760   5.924   2.930
 8145SOL    HW225335   5.737   6.086   2.925
 8146SOL     OW25336   2.997   1.224   4.106
 8146SOL    HW125337   3.071   1.218   4.174
 8146SOL    HW225338   2.929   1.291   4.137
 8147SOL     OW25339   5.062   0.629   3.659
 8147SOL    HW125340   5.085   0.726   3.661
 8147SOL    HW225341   4.963   0.618   3.657
 8148SOL     OW25342   5.565   3.938   3.442
 8148SOL    HW125343   5.648   3.935   3.497
 8148SOL    HW225344   5.510   4.017   3.470
 8149SOL     OW25345   4.452   4.527   3.407
 8149SOL    HW125346   4.419   4.492   3.319
 8149SOL    HW225347   4.455   4.627   3.405
 8150SOL     OW25348   0.554   5.396   1.120
 8150SOL    HW125349   0.626   5.376   1.187
 8150SOL    HW225350   0.508   5.482   1.145
 8151SOL     OW25351   1.116   1.712   5.089
 8151SOL    HW125352   1.031   1.668   5.118
 8151SOL    HW225353   1.113   1.809   5.113
 8152SOL     OW25354   1.245   1.483   3.696
 8152SOL    HW125355   1.188   1.452   3.771
 8152SOL    HW225356   1.229   1.580   3.678
 8153SOL     OW25357   2.112   6.933   0.579
 8153SOL    HW125358   2.106   6.896   0.672
 8153SOL    HW225359   2.021   6.941   0.540
 8154SOL     OW25360   1.932   6.754   3.774
 8154SOL    HW125361   2.003   6.793   3.715
 8154SOL    HW225362   1.915   6.659   3.747
 8155SOL     OW25363   3.228   3.027   3.332
 8155SOL    HW125364   3.215   3.079   3.416
 8155SOL    HW225365   3.300   2.960   3.346
 8156SOL     OW25366   6.527   0.417   6.353
 8156SOL    HW125367   6.594   0.491   6.349
 8156SOL    HW225368   6.438   0.452   6.323
 8157SOL     OW25369   6.118   3.530   6.456
 8157SOL    HW125370   6.072   3.526   6.368
 8157SOL    HW225371   6.215   3.551   6.443
 8158SOL     OW25372   1.679   5.451   2.322
 8158SOL    HW125373   1.692   5.540   2.365
 8158SOL    HW225374   1.760   5.428   2.268
 8159SOL     OW25375   1.820   5.702   2.270
 8159SOL    HW125376   1.886   5.774   2.248
 8159SOL    HW225377   1.727   5.737   2.261
 8160SOL     OW25378   4.498   2.158   1.916
 8160SOL    HW125379   4.411   2.178   1.872
 8160SOL    HW225380   4.484   2.087   1.985
 8161SOL     OW25381   4.801   1.403   0.387
 8161SOL    HW125382   4.767   1.328   0.331
 8161SOL    HW225383   4.772   1.490   0.348
 8162SOL     OW25384   5.471   0.533   1.495
 8162SOL    HW125385   5.472   0.632   1.480
 8162SOL    HW225386   5.540   0.510   1.565
 8163SOL     OW25387   2.429   4.132   5.378
 8163SOL    HW125388   2.419   4.047   5.326
 8163SOL    HW225389   2.423   4.112   5.476
 8164SOL     OW25390   4.563   2.090   1.595
 8164SOL    HW125391   4.505   2.164   1.628
 8164SOL    HW225392   4.539   2.069   1.500
 8165SOL     OW25393   2.023   4.835   1.581
 8165SOL    HW125394   2.089   4.888   1.634
 8165SOL    HW225395   1.945   4.893   1.557
 8166SOL     OW25396   3.042   6.943   1.982
 8166SOL    HW125397   3.085   6.891   2.056
 8166SOL    HW225398   3.087   0.010   1.973
 8167SOL     OW25399   5.027   2.799   3.740
 8167SOL    HW125400   5.068   2.808   3.649
 8167SOL    HW225401   5.089   2.838   3.808
 8168SOL     OW25402   3.222   0.911   2.697
 8168SOL    HW125403   3.249   1.007   2.707
 8168SOL    HW225404   3.249   0.860   2.777
 8169SOL     OW25405   4.854   4.248   6.230
 8169SOL    HW125406   4.782   4.183   6.254
 8169SOL    HW225407   4.934   4.198   6.196
 8170SOL     OW25408   0.575   5.853   3.951
 8170SOL    HW125409   0.550   5.949   3.964
 8170SOL    HW225410   0.544   5.822   3.861
 8171SOL     OW25411   0.885   1.587   5.828
 8171SOL    HW125412   0.915   1.629   5.742
 8171SOL    HW225413   0.785   1.597   5.837
 8172SOL     OW25414   0.038   6.195   0.682
 8172SOL    HW125415   0.097   6.135   0.735
 8172SOL    HW225416   6.967   6.192   0.719
 8173SOL     OW25417   5.413   3.001   6.300
 8173SOL    HW125418   5.488   2.958   6.248
 8173SOL    HW225419   5.341   2.934   6.315
 8174SOL     OW25420   5.450   0.292   2.273
 8174SOL    HW125421   5.406   0.222   2.330
 8174SOL    HW225422   5.509   0.349   2.330
 8175SOL     OW25423   1.074   3.908   6.223
 8175SOL    HW125424   1.028   3.995   6.243
 8175SOL    HW225425   1.122   3.876   6.304
 8176SOL     OW25426   2.608   5.757   3.268
 8176SOL    HW125427   2.653   5.763   3.180
 8176SOL    HW225428   2.633   5.835   3.325
 8177SOL     OW25429   1.242   0.083   6.131
 8177SOL    HW125430   1.300   0.006   6.155
 8177SOL    HW225431   1.220   0.136   6.213
 8178SOL     OW25432   1.910   6.916   6.444
 8178SOL    HW125433   1.834   6.907   6.379
 8178SOL    HW225434   1.997   6.908   6.395
 8179SOL     OW25435   3.049   1.377   0.054
 8179SOL    HW125436   2.997   1.312   0.110
 8179SOL    HW225437   3.137   1.337   0.029
 8180SOL     OW25438   4.921   5.450   4.804
 8180SOL    HW125439   4.831   5.454   4.848
 8180SOL    HW225440   4.992   5.456   4.875
 8181SOL     OW25441   2.615   2.309   2.509
 8181SOL    HW125442   2.623   2.355   2.421
 8181SOL    HW225443   2.587   2.375   2.579
 8182SOL     OW25444   3.753   2.290   5.761
 8182SOL    HW125445   3.780   2.269   5.667
 8182SOL    HW225446   3.691   2.219   5.794
 8183SOL     OW25447   1.868   3.440   4.779
 8183SOL    HW125448   1.805   3.459   4.854
 8183SOL    HW225449   1.945   3.504   4.783
 8184SOL     OW25450   5.936   6.113   5.740
 8184SOL    HW125451   6.016   6.100   5.680
 8184SOL    HW225452   5.947   6.056   5.821
 8185SOL     OW25453   1.305   1.778   3.189
 8185SOL    HW125454   1.292   1.875   3.167
 8185SOL    HW225455   1.386   1.743   3.142
 8186SOL     OW25456   3.734   4.883   6.002
 8186SOL    HW125457   3.669   4.820   5.961
 8186SOL    HW225458   3.686   4.965   6.035
 8187SOL     OW25459   1.288   1.740   5.844
 8187SOL    HW125460   1.265   1.676   5.918
 8187SOL    HW225461   1.288   1.691   5.757
 8188SOL     OW25462   5.759   3.942   2.645
 8188SOL    HW125463   5.661   3.961   2.631
 8188SOL    HW225464   5.804   3.934   2.556
 8189SOL     OW25465   6.089   4.710   2.247
 8189SOL    HW125466   6.019   4.705   2.318
 8189SOL    HW225467   6.060   4.775   2.176
 8190SOL     OW25468   5.285   3.671   2.620
 8190SOL    HW125469   5.318   3.578   2.632
 8190SOL    HW225470   5.362   3.733   2.605
 8191SOL     OW25471   0.633   5.101   2.379
 8191SOL    HW125472   0.650   5.059   2.290
 8191SOL    HW225473   0.534   5.110   2.394
 8192SOL     OW25474   1.643   3.667   1.163
 8192SOL    HW125475   1.681   3.662   1.071
 8192SOL    HW225476   1.550   3.632   1.163
 8193SOL     OW25477   3.345   0.579   6.151
 8193SOL    HW125478   3.303   0.659   6.193
 8193SOL    HW225479   3.428   0.606   6.103
 8194SOL     OW25480   1.819   0.689   0.962
 8194SOL    HW125481   1.779   0.710   1.051
 8194SOL    HW225482   1.830   0.773   0.909
 8195SOL     OW25483   6.150   0.199   0.835
 8195SOL    HW125484   6.188   0.107   0.823
 8195SOL    HW225485   6.103   0.204   0.923
 8196SOL     OW25486   2.310   0.559   6.194
 8196SOL    HW125487   2.249   0.492   6.152
 8196SOL    HW225488   2.267   0.597   6.276
 8197SOL     OW25489   1.011   6.969   0.264
 8197SOL    HW125490   0.945   6.910   0.311
 8197SOL    HW225491   1.008   0.039   0.305
 8198SOL     OW25492   4.252   6.149   2.729
 8198SOL    HW125493   4.263   6.182   2.822
 8198SOL    HW225494   4.233   6.226   2.668
 8199SOL     OW25495   6.043   3.836   0.791
 8199SOL    HW125496   5.985   3.770   0.839
 8199SOL    HW225497   5.991   3.920   0.775
 8200SOL     OW25498   4.743   3.693   1.476
 8200SOL    HW125499   4.722   3.784   1.442
 8200SOL    HW225500   4.840   3.688   1.499
 8201SOL     OW25501   6.194   1.314   4.616
 8201SOL    HW125502   6.278   1.366   4.631
 8201SOL    HW225503   6.137   1.361   4.549
 8202SOL     OW25504   1.638   4.209   3.845
 8202SOL    HW125505   1.604   4.180   3.934
 8202SOL    HW225506   1.586   4.288   3.814
 8203SOL     OW25507   6.202   3.887   1.063
 8203SOL    HW125508   6.153   3.800   1.070
 8203SOL    HW225509   6.136   3.962   1.064
 8204SOL     OW25510   3.336   0.158   0.603
 8204SOL    HW125511   3.400   0.187   0.532
 8204SOL    HW225512   3.351   0.062   0.624
 8205SOL     OW25513   5.685   5.485   3.419
 8205SOL    HW125514   5.710   5.570   3.373
 8205SOL    HW225515   5.605   5.501   3.477
 8206SOL     OW25516   4.449   1.734   3.965
 8206SOL    HW125517   4.474   1.830   3.949
 8206SOL    HW225518   4.511   1.695   4.033
 8207SOL     OW25519   2.943   6.585   0.191
 8207SOL    HW125520   3.011   6.567   0.120
 8207SOL    HW225521   2.864   6.524   0.178
 8208SOL     OW25522   1.470   4.914   6.062
 8208SOL    HW125523   1.426   4.901   6.151
 8208SOL    HW225524   1.500   4.825   6.026
 8209SOL     OW25525   0.955   6.563   5.291
 8209SOL    HW125526   0.948   6.594   5.386
 8209SOL    HW225527   0.864   6.566   5.248
 8210SOL     OW25528   3.398   1.671   0.064
 8210SOL    HW125529   3.469   1.608   0.096
 8210SOL    HW225530   3.310   1.643   0.102
 8211SOL     OW25531   2.896   3.410   4.816
 8211SOL    HW125532   2.846   3.364   4.742
 8211SOL    HW225533   2.913   3.345   4.890
 8212SOL     OW25534   3.486   6.411   1.526
 8212SOL    HW125535   3.453   6.369   1.441
 8212SOL    HW225536   3.465   6.508   1.525
 8213SOL     OW25537   4.215   4.147   1.709
 8213SOL    HW125538   4.180   4.054   1.716
 8213SOL    HW225539   4.261   4.172   1.794
 8214SOL     OW25540   3.978   5.092   4.425
 8214SOL    HW125541   3.988   5.126   4.331
 8214SOL    HW225542   4.001   4.995   4.428
 8215SOL     OW25543   3.325   6.008   6.193
 8215SOL    HW125544   3.422   6.035   6.190
 8215SOL    HW225545   3.283   6.027   6.104
 8216SOL     OW25546   5.654   4.746   1.651
 8216SOL    HW125547   5.676   4.665   1.597
 8216SOL    HW225548   5.590   4.721   1.724
 8217SOL     OW25549   2.209   6.291   3.661
 8217SOL    HW125550   2.212   6.379   3.614
 8217SOL    HW225551   2.213   6.217   3.594
 8218SOL     OW25552   2.792   6.025   4.977
 8218SOL    HW125553   2.737   6.078   4.912
 8218SOL    HW225554   2.843   6.087   5.036
 8219SOL     OW25555   3.914   2.989   2.017
 8219SOL    HW125556   3.975   3.067   2.007
 8219SOL    HW225557   3.928   2.926   1.940
 8220SOL     OW25558   3.164   3.812   4.786
 8220SOL    HW125559   3.168   3.906   4.821
 8220SOL    HW225560   3.113   3.755   4.852
 8221SOL     OW25561   5.753   4.093   3.205
 8221SOL    HW125562   5.690   4.170   3.215
 8221SOL    HW225563   5.702   4.011   3.178
 8222SOL     OW25564   6.742   3.006   0.849
 8222SOL    HW125565   6.829   2.988   0.895
 8222SOL    HW225566   6.672   2.945   0.886
 8223SOL     OW25567   2.081   6.383   6.255
 8223SOL    HW125568   2.127   6.309   6.204
 8223SOL    HW225569   2.144   6.459   6.267
 8224SOL     OW25570   5.193   1.058   6.782
 8224SOL    HW125571   5.286   1.027   6.800
 8224SOL    HW225572   5.170   1.134   6.843
 8225SOL     OW25573   5.807   2.240   0.156
 8225SOL    HW125574   5.860   2.289   0.226
 8225SOL    HW225575   5.729   2.195   0.200
 8226SOL     OW25576   3.852   0.900   0.051
 8226SOL    HW125577   3.934   0.849   0.022
 8226SOL    HW225578   3.803   0.932   6.992
 8227SOL     OW25579   4.039   2.171   2.689
 8227SOL    HW125580   4.073   2.088   2.645
 8227SOL    HW225581   4.011   2.150   2.783
 8228SOL     OW25582   2.584   0.079   4.625
 8228SOL    HW125583   2.548   0.172   4.615
 8228SOL    HW225584   2.579   0.033   4.536
 8229SOL     OW25585   4.518   4.151   0.504
 8229SOL    HW125586   4.422   4.166   0.478
 8229SOL    HW225587   4.526   4.155   0.603
 8230SOL     OW25588   5.739   0.473   6.049
 8230SOL    HW125589   5.725   0.570   6.033
 8230SOL    HW225590   5.726   0.423   5.964
 8231SOL     OW25591   2.741   1.294   2.379
 8231SOL    HW125592   2.799   1.215   2.397
 8231SOL    HW225593   2.648   1.276   2.413
 8232SOL     OW25594   3.439   5.512   3.342
 8232SOL    HW125595   3.388   5.429   3.323
 8232SOL    HW225596   3.399   5.558   3.422
 8233SOL     OW25597   1.657   0.914   6.326
 8233SOL    HW125598   1.601   0.924   6.408
 8233SOL    HW225599   1.598   0.892   6.248
 8234SOL     OW25600   1.423   2.178   0.440
 8234SOL    HW125601   1.349   2.195   0.374
 8234SOL    HW225602   1.456   2.265   0.477
 8235SOL     OW25603   0.875   0.678   1.482
 8235SOL    HW125604   0.829   0.615   1.545
 8235SOL    HW225605   0.966   0.644   1.461
 8236SOL     OW25606   0.962   0.074   1.658
 8236SOL    HW125607   1.051   0.038   1.629
 8236SOL    HW225608   0.963   0.174   1.650
 8237SOL     OW25609   3.896   4.672   6.014
 8237SOL    HW125610   3.912   4.654   5.917
 8237SOL    HW225611   3.840   4.754   6.024
 8238SOL     OW25612   0.410   5.178   1.441
 8238SOL    HW125613   0.357   5.171   1.357
 8238SOL    HW225614   0.362   5.238   1.505
 8239SOL     OW25615   2.034   1.548   6.276
 8239SOL    HW125616   1.980   1.505   6.204
 8239SOL    HW225617   2.014   1.505   6.363
 8240SOL     OW25618   3.837   3.643   4.572
 8240SOL    HW125619   3.745   3.609   4.592
 8240SOL    HW225620   3.904   3.577   4.606
 8241SOL     OW25621   1.890   3.263   5.508
 8241SOL    HW125622   1.837   3.345   5.489
 8241SOL    HW225623   1.983   3.275   5.474
 8242SOL     OW25624   0.612   3.430   2.314
 8242SOL    HW125625   0.577   3.346   2.273
 8242SOL    HW225626   0.569   3.444   2.403
 8243SOL     OW25627   1.248   5.432   4.112
 8243SOL    HW125628   1.347   5.432   4.100
 8243SOL    HW225629   1.203   5.423   4.023
 8244SOL     OW25630   6.784   1.373   3.712
 8244SOL    HW125631   6.792   1.373   3.811
 8244SOL    HW225632   6.818   1.287   3.675
 8245SOL     OW25633   5.509   2.730   2.228
 8245SOL    HW125634   5.515   2.830   2.217
 8245SOL    HW225635   5.491   2.688   2.139
 8246SOL     OW25636   1.913   5.243   6.676
 8246SOL    HW125637   1.956   5.165   6.721
 8246SOL    HW225638   1.816   5.246   6.700
 8247SOL     OW25639   3.002   5.371   2.970
 8247SOL    HW125640   3.087   5.414   3.001
 8247SOL    HW225641   2.961   5.321   3.046
 8248SOL     OW25642   6.557   5.384   4.133
 8248SOL    HW125643   6.463   5.393   4.164
 8248SOL    HW225644   6.620   5.413   4.205
 8249SOL     OW25645   3.210   1.263   6.672
 8249SOL    HW125646   3.181   1.357   6.691
 8249SOL    HW225647   3.147   1.221   6.607
 8250SOL     OW25648   0.988   1.936   6.565
 8250SOL    HW125649   1.053   1.993   6.515
 8250SOL    HW225650   0.999   1.841   6.538
 8251SOL     OW25651   0.847   2.296   5.048
 8251SOL    HW125652   0.942   2.266   5.057
 8251SOL    HW225653   0.845   2.385   5.002
 8252SOL     OW25654   0.889   1.699   6.392
 8252SOL    HW125655   0.866   1.606   6.421
 8252SOL    HW225656   0.815   1.735   6.334
 8253SOL     OW25657   4.661   5.805   6.820
 8253SOL    HW125658   4.745   5.816   6.873
 8253SOL    HW225659   4.636   5.709   6.815
 8254SOL     OW25660   6.192   5.205   0.227
 8254SOL    HW125661   6.221   5.125   0.175
 8254SOL    HW225662   6.110   5.183   0.280
 8255SOL     OW25663   2.451   0.374   5.358
 8255SOL    HW125664   2.479   0.392   5.452
 8255SOL    HW225665   2.418   0.458   5.316
 8256SOL     OW25666   1.254   5.293   4.819
 8256SOL    HW125667   1.293   5.289   4.911
 8256SOL    HW225668   1.259   5.387   4.785
 8257SOL     OW25669   5.268   3.966   3.117
 8257SOL    HW125670   5.256   3.970   3.018
 8257SOL    HW225671   5.363   3.986   3.140
 8258SOL     OW25672   0.223   2.801   3.029
 8258SOL    HW125673   0.132   2.802   3.070
 8258SOL    HW225674   0.253   2.706   3.018
 8259SOL     OW25675   5.710   2.117   4.190
 8259SOL    HW125676   5.708   2.164   4.102
 8259SOL    HW225677   5.753   2.177   4.258
 8260SOL     OW25678   5.284   2.607   1.008
 8260SOL    HW125679   5.207   2.592   0.945
 8260SOL    HW225680   5.250   2.606   1.102
 8261SOL     OW25681   5.448   1.610   2.813
 8261SOL    HW125682   5.355   1.582   2.838
 8261SOL    HW225683   5.444   1.684   2.746
 8262SOL     OW25684   5.506   3.346   1.916
 8262SOL    HW125685   5.518   3.403   1.997
 8262SOL    HW225686   5.581   3.281   1.909
 8263SOL     OW25687   6.611   1.381   5.490
 8263SOL    HW125688   6.633   1.286   5.466
 8263SOL    HW225689   6.612   1.437   5.407
 8264SOL     OW25690   3.140   0.555   2.528
 8264SOL    HW125691   3.236   0.544   2.501
 8264SOL    HW225692   3.120   0.494   2.604
 8265SOL     OW25693   5.018   6.043   0.583
 8265SOL    HW125694   4.963   5.963   0.606
 8265SOL    HW225695   5.105   6.014   0.543
 8266SOL     OW25696   3.337   1.064   3.797
 8266SOL    HW125697   3.290   1.004   3.733
 8266SOL    HW225698   3.283   1.146   3.812
 8267SOL     OW25699   2.030   3.318   2.655
 8267SOL    HW125700   1.986   3.341   2.568
 8267SOL    HW225701   2.064   3.224   2.651
 8268SOL     OW25702   3.143   4.343   6.562
 8268SOL    HW125703   3.142   4.344   6.462
 8268SOL    HW225704   3.065   4.290   6.595
 8269SOL     OW25705   6.691   3.086   4.750
 8269SOL    HW125706   6.743   3.075   4.665
 8269SOL    HW225707   6.744   3.049   4.826
 8270SOL     OW25708   4.400   5.925   6.739
 8270SOL    HW125709   4.481   5.885   6.781
 8270SOL    HW225710   4.416   5.936   6.641
 8271SOL     OW25711   3.410   6.918   5.985
 8271SOL    HW125712   3.358   6.986   5.933
 8271SOL    HW225713   3.355   6.835   5.995
 8272SOL     OW25714   1.066   0.873   2.085
 8272SOL    HW125715   1.028   0.835   2.001
 8272SOL    HW225716   1.157   0.835   2.100
 8273SOL     OW25717   4.081   0.767   0.009
 8273SOL    HW125718   4.106   0.740   6.937
 8273SOL    HW225719   4.125   0.706   0.074
 8274SOL     OW25720   5.141   6.351   5.552
 8274SOL    HW125721   5.146   6.364   5.454
 8274SOL    HW225722   5.234   6.348   5.591
 8275SOL     OW25723   5.064   1.156   4.440
 8275SOL    HW125724   5.020   1.124   4.357
 8275SOL    HW225725   5.048   1.090   4.514
 8276SOL     OW25726   6.455   2.319   6.776
 8276SOL    HW125727   6.513   2.275   6.845
 8276SOL    HW225728   6.508   2.392   6.731
 8277SOL     OW25729   1.473   0.092   0.458
 8277SOL    HW125730   1.566   0.121   0.484
 8277SOL    HW225731   1.472   7.014   0.445
 8278SOL     OW25732   2.895   1.209   0.864
 8278SOL    HW125733   2.814   1.260   0.894
 8278SOL    HW225734   2.950   1.185   0.944
 8279SOL     OW25735   4.000   5.730   5.100
 8279SOL    HW125736   3.940   5.756   5.175
 8279SOL    HW225737   4.080   5.681   5.135
 8280SOL     OW25738   5.363   3.868   6.605
 8280SOL    HW125739   5.452   3.841   6.567
 8280SOL    HW225740   5.323   3.791   6.654
 8281SOL     OW25741   2.694   5.686   6.822
 8281SOL    HW125742   2.631   5.743   6.768
 8281SOL    HW225743   2.730   5.739   6.898
 8282SOL     OW25744   2.661   3.052   1.686
 8282SOL    HW125745   2.667   2.965   1.735
 8282SOL    HW225746   2.618   3.120   1.745
 8283SOL     OW25747   0.555   0.099   3.769
 8283SOL    HW125748   0.459   0.076   3.782
 8283SOL    HW225749   0.585   0.071   3.678
 8284SOL     OW25750   3.895   1.550   1.811
 8284SOL    HW125751   3.940   1.536   1.723
 8284SOL    HW225752   3.881   1.648   1.826
 8285SOL     OW25753   1.553   4.227   0.054
 8285SOL    HW125754   1.588   4.205   0.145
 8285SOL    HW225755   1.572   4.151   7.014
 8286SOL     OW25756   6.381   2.623   5.610
 8286SOL    HW125757   6.398   2.540   5.557
 8286SOL    HW225758   6.308   2.676   5.567
 8287SOL     OW25759   2.068   0.877   3.588
 8287SOL    HW125760   2.091   0.969   3.621
 8287SOL    HW225761   2.031   0.883   3.495
 8288SOL     OW25762   1.711   6.965   3.075
 8288SOL    HW125763   1.626   6.914   3.061
 8288SOL    HW225764   1.754   6.982   2.986
 8289SOL     OW25765   5.797   0.686   6.735
 8289SOL    HW125766   5.777   0.784   6.727
 8289SOL    HW225767   5.773   0.641   6.649
 8290SOL     OW25768   4.644   2.945   1.625
 8290SOL    HW125769   4.623   3.007   1.701
 8290SOL    HW225770   4.731   2.898   1.644
 8291SOL     OW25771   5.142   5.962   6.454
 8291SOL    HW125772   5.086   5.985   6.374
 8291SOL    HW225773   5.158   5.863   6.456
 8292SOL     OW25774   0.786   2.576   5.017
 8292SOL    HW125775   0.828   2.595   4.928
 8292SOL    HW225776   0.810   2.648   5.082
 8293SOL     OW25777   2.767   5.155   3.837
 8293SOL    HW125778   2.675   5.145   3.800
 8293SOL    HW225779   2.763   5.149   3.937
 8294SOL     OW25780   5.108   3.983   5.721
 8294SOL    HW125781   5.145   3.955   5.633
 8294SOL    HW225782   5.093   3.902   5.778
 8295SOL     OW25783   4.989   4.517   2.470
 8295SOL    HW125784   4.949   4.440   2.421
 8295SOL    HW225785   4.927   4.596   2.465
 8296SOL     OW25786   3.906   6.622   2.524
 8296SOL    HW125787   3.981   6.560   2.548
 8296SOL    HW225788   3.873   6.600   2.432
 8297SOL     OW25789   5.933   4.531   3.034
 8297SOL    HW125790   5.848   4.488   3.003
 8297SOL    HW225791   5.928   4.630   3.016
 8298SOL     OW25792   0.246   6.997   0.107
 8298SOL    HW125793   0.259   6.984   0.205
 8298SOL    HW225794   0.203   6.916   0.067
 8299SOL     OW25795   0.902   3.107   0.175
 8299SOL    HW125796   0.953   3.123   0.091
 8299SOL    HW225797   0.948   3.152   0.252
 8300SOL     OW25798   6.103   5.224   4.110
 8300SOL    HW125799   6.127   5.143   4.056
 8300SOL    HW225800   6.026   5.271   4.067
 8301SOL     OW25801   5.867   6.341   0.282
 8301SOL    HW125802   5.946   6.397   0.307
 8301SOL    HW225803   5.793   6.356   0.348
 8302SOL     OW25804   3.783   6.864   5.331
 8302SOL    HW125805   3.864   6.856   5.389
 8302SOL    HW225806   3.803   6.827   5.240
 8303SOL     OW25807   0.372   5.328   2.344
 8303SOL    HW125808   0.358   5.232   2.321
 8303SOL    HW225809   0.296   5.382   2.310
 8304SOL     OW25810   6.030   4.254   3.233
 8304SOL    HW125811   5.983   4.169   3.258
 8304SOL    HW225812   6.044   4.256   3.134
 8305SOL     OW25813   5.225   6.931   6.064
 8305SOL    HW125814   5.194   6.990   6.139
 8305SOL    HW225815   5.224   6.983   5.979
 8306SOL     OW25816   6.506   1.311   3.661
 8306SOL    HW125817   6.590   1.363   3.678
 8306SOL    HW225818   6.528   1.213   3.656
 8307SOL     OW25819   1.737   3.692   3.006
 8307SOL    HW125820   1.748   3.601   2.966
 8307SOL    HW225821   1.677   3.686   3.085
 8308SOL     OW25822   1.270   5.840   0.954
 8308SOL    HW125823   1.282   5.858   1.051
 8308SOL    HW225824   1.209   5.908   0.914
 8309SOL     OW25825   6.000   5.228   4.421
 8309SOL    HW125826   6.050   5.235   4.334
 8309SOL    HW225827   5.926   5.295   4.422
 8310SOL     OW25828   1.895   0.556   1.642
 8310SOL    HW125829   1.833   0.512   1.708
 8310SOL    HW225830   1.841   0.595   1.567
 8311SOL     OW25831   4.701   5.765   3.111
 8311SOL    HW125832   4.786   5.818   3.110
 8311SOL    HW225833   4.712   5.687   3.173
 8312SOL     OW25834   6.082   1.907   0.196
 8312SOL    HW125835   6.117   1.829   0.247
 8312SOL    HW225836   5.985   1.919   0.215
 8313SOL     OW25837   5.755   2.192   5.647
 8313SOL    HW125838   5.764   2.268   5.713
 8313SOL    HW225839   5.831   2.129   5.660
 8314SOL     OW25840   4.641   6.329   4.227
 8314SOL    HW125841   4.581   6.354   4.150
 8314SOL    HW225842   4.587   6.326   4.311
 8315SOL     OW25843   3.727   2.913   4.924
 8315SOL    HW125844   3.788   2.922   5.003
 8315SOL    HW225845   3.781   2.888   4.843
 8316SOL     OW25846   2.392   2.018   5.448
 8316SOL    HW125847   2.437   2.089   5.394
 8316SOL    HW225848   2.343   1.956   5.388
 8317SOL     OW25849   1.484   1.684   3.847
 8317SOL    HW125850   1.520   1.731   3.766
 8317SOL    HW225851   1.407   1.735   3.884
 8318SOL     OW25852   3.997   6.555   6.005
 8318SOL    HW125853   4.067   6.484   6.011
 8318SOL    HW225854   3.958   6.572   6.095
 8319SOL     OW25855   1.905   5.721   6.191
 8319SOL    HW125856   1.909   5.662   6.110
 8319SOL    HW225857   1.844   5.799   6.172
 8320SOL     OW25858   3.974   3.441   5.360
 8320SOL    HW125859   3.902   3.484   5.414
 8320SOL    HW225860   4.061   3.446   5.410
 8321SOL     OW25861   0.672   0.324   0.513
 8321SOL    HW125862   0.660   0.390   0.588
 8321SOL    HW225863   0.591   0.266   0.507
 8322SOL     OW25864   0.855   0.197   0.702
 8322SOL    HW125865   0.781   0.157   0.649
 8322SOL    HW225866   0.887   0.281   0.657
 8323SOL     OW25867   5.613   4.538   0.187
 8323SOL    HW125868   5.698   4.590   0.181
 8323SOL    HW225869   5.535   4.601   0.192
 8324SOL     OW25870   5.572   6.789   0.110
 8324SOL    HW125871   5.657   6.739   0.096
 8324SOL    HW225872   5.546   6.784   0.206
 8325SOL     OW25873   1.504   6.796   5.199
 8325SOL    HW125874   1.423   6.770   5.148
 8325SOL    HW225875   1.536   6.719   5.254
 8326SOL     OW25876   1.840   3.294   0.020
 8326SOL    HW125877   1.908   3.364   0.042
 8326SOL    HW225878   1.844   3.221   0.089
 8327SOL     OW25879   1.035   5.895   4.813
 8327SOL    HW125880   0.948   5.859   4.848
 8327SOL    HW225881   1.022   5.924   4.718
 8328SOL     OW25882   1.013   6.581   0.263
 8328SOL    HW125883   0.988   6.548   0.172
 8328SOL    HW225884   0.938   6.634   0.301
 8329SOL     OW25885   1.563   2.657   4.692
 8329SOL    HW125886   1.629   2.701   4.632
 8329SOL    HW225887   1.493   2.722   4.719
 8330SOL     OW25888   2.884   0.745   6.806
 8330SOL    HW125889   2.863   0.843   6.806
 8330SOL    HW225890   2.888   0.712   6.900
 8331SOL     OW25891   1.763   2.334   6.577
 8331SOL    HW125892   1.668   2.305   6.585
 8331SOL    HW225893   1.771   2.430   6.601
 8332SOL     OW25894   6.692   4.096   1.577
 8332SOL    HW125895   6.623   4.123   1.644
 8332SOL    HW225896   6.667   4.007   1.538
 8333SOL     OW25897   1.964   4.041   6.958
 8333SOL    HW125898   1.920   3.975   6.897
 8333SOL    HW225899   1.917   4.042   0.024
 8334SOL     OW25900   2.978   1.779   5.186
 8334SOL    HW125901   3.037   1.845   5.141
 8334SOL    HW225902   2.882   1.805   5.172
 8335SOL     OW25903   5.452   4.809   5.803
 8335SOL    HW125904   5.509   4.846   5.729
 8335SOL    HW225905   5.497   4.826   5.891
 8336SOL     OW25906   1.148   4.148   3.709
 8336SOL    HW125907   1.147   4.169   3.611
 8336SOL    HW225908   1.099   4.062   3.725
 8337SOL     OW25909   6.635   1.053   3.729
 8337SOL    HW125910   6.730   1.024   3.713
 8337SOL    HW225911   6.573   0.983   3.692
 8338SOL     OW25912   3.149   5.264   0.786
 8338SOL    HW125913   3.183   5.357   0.798
 8338SOL    HW225914   3.144   5.219   0.875
 8339SOL     OW25915   5.965   0.316   1.358
 8339SOL    HW125916   5.930   0.410   1.356
 8339SOL    HW225917   6.015   0.301   1.443
 8340SOL     OW25918   6.340   2.266   6.249
 8340SOL    HW125919   6.319   2.241   6.344
 8340SOL    HW225920   6.257   2.302   6.206
 8341SOL     OW25921   3.840   1.317   0.545
 8341SOL    HW125922   3.743   1.304   0.568
 8341SOL    HW225923   3.855   1.413   0.519
 8342SOL     OW25924   4.803   0.523   0.116
 8342SOL    HW125925   4.809   0.623   0.110
 8342SOL    HW225926   4.729   0.498   0.178
 8343SOL     OW25927   5.747   5.097   3.825
 8343SOL    HW125928   5.724   5.153   3.905
 8343SOL    HW225929   5.742   5.153   3.743
 8344SOL     OW25930   1.408   4.767   6.378
 8344SOL    HW125931   1.353   4.687   6.403
 8344SOL    HW225932   1.354   4.850   6.393
 8345SOL     OW25933   5.467   0.056   3.491
 8345SOL    HW125934   5.463   0.147   3.450
 8345SOL    HW225935   5.517   0.060   3.577
 8346SOL     OW25936   5.694   2.740   4.365
 8346SOL    HW125937   5.619   2.719   4.302
 8346SOL    HW225938   5.655   2.765   4.454
 8347SOL     OW25939   2.372   1.901   6.638
 8347SOL    HW125940   2.393   1.981   6.694
 8347SOL    HW225941   2.349   1.930   6.545
 8348SOL     OW25942   3.019   5.938   1.941
 8348SOL    HW125943   2.928   5.928   1.980
 8348SOL    HW225944   3.062   6.021   1.978
 8349SOL     OW25945   5.669   6.320   2.102
 8349SOL    HW125946   5.654   6.222   2.088
 8349SOL    HW225947   5.593   6.371   2.064
 8350SOL     OW25948   1.832   1.694   0.217
 8350SOL    HW125949   1.923   1.672   0.183
 8350SOL    HW225950   1.783   1.747   0.149
 8351SOL     OW25951   0.214   2.468   2.869
 8351SOL    HW125952   0.133   2.451   2.813
 8351SOL    HW225953   0.225   2.393   2.935
 8352SOL     OW25954   2.961   5.752   0.404
 8352SOL    HW125955   2.975   5.661   0.365
 8352SOL    HW225956   2.866   5.779   0.393
 8353SOL     OW25957   1.208   5.526   1.520
 8353SOL    HW125958   1.157   5.476   1.589
 8353SOL    HW225959   1.167   5.511   1.430
 8354SOL     OW25960   3.552   0.664   3.553
 8354SOL    HW125961   3.477   0.666   3.486
 8354SOL    HW225962   3.639   0.649   3.505
 8355SOL     OW25963   3.173   5.672   6.884
 8355SOL    HW125964   3.094   5.624   6.847
 8355SOL    HW225965   3.144   5.761   6.920
 8356SOL     OW25966   2.391   4.906   0.714
 8356SOL    HW125967   2.458   4.918   0.640
 8356SOL    HW225968   2.363   4.995   0.748
 8357SOL     OW25969   4.738   6.547   5.370
 8357SOL    HW125970   4.762   6.494   5.451
 8357SOL    HW225971   4.652   6.595   5.386
 8358SOL     OW25972   1.510   1.041   5.164
 8358SOL    HW125973   1.543   0.955   5.204
 8358SOL    HW225974   1.490   1.106   5.237
 8359SOL     OW25975   4.350   1.954   6.035
 8359SOL    HW125976   4.398   1.866   6.028
 8359SOL    HW225977   4.416   2.028   6.043
 8360SOL     OW25978   4.278   0.245   0.512
 8360SOL    HW125979   4.217   0.324   0.512
 8360SOL    HW225980   4.250   0.181   0.441
 8361SOL     OW25981   4.300   1.442   6.871
 8361SOL    HW125982   4.299   1.344   6.892
 8361SOL    HW225983   4.382   1.464   6.818
 8362SOL     OW25984   0.185   3.830   1.608
 8362SOL    HW125985   0.123   3.858   1.682
 8362SOL    HW225986   0.237   3.909   1.577
 8363SOL     OW25987   1.749   2.906   1.294
 8363SOL    HW125988   1.821   2.857   1.343
 8363SOL    HW225989   1.766   3.004   1.301
 8364SOL     OW25990   0.151   2.687   4.184
 8364SOL    HW125991   0.251   2.687   4.197
 8364SOL    HW225992   0.115   2.595   4.201
 8365SOL     OW25993   1.594   2.152   2.362
 8365SOL    HW125994   1.622   2.164   2.266
 8365SOL    HW225995   1.495   2.140   2.366
 8366SOL     OW25996   5.276   4.785   2.346
 8366SOL    HW125997   5.181   4.812   2.335
 8366SOL    HW225998   5.283   4.711   2.413
 8367SOL     OW25999   1.992   4.568   4.085
 8367SOL    HW126000   1.957   4.500   4.020
 8367SOL    HW226001   2.081   4.538   4.120
 8368SOL     OW26002   6.121   6.536   5.628
 8368SOL    HW126003   6.176   6.589   5.563
 8368SOL    HW226004   6.024   6.544   5.603
 8369SOL     OW26005   2.677   6.617   0.496
 8369SOL    HW126006   2.702   6.658   0.408
 8369SOL    HW226007   2.629   6.685   0.552
 8370SOL     OW26008   2.888   3.898   6.727
 8370SOL    HW126009   2.861   3.938   6.639
 8370SOL    HW226010   2.972   3.942   6.758
 8371SOL     OW26011   2.593   4.385   6.060
 8371SOL    HW126012   2.496   4.387   6.033
 8371SOL    HW226013   2.649   4.384   5.977
 8372SOL     OW26014   2.132   6.852   0.825
 8372SOL    HW126015   2.099   6.758   0.830
 8372SOL    HW226016   2.108   6.900   0.910
 8373SOL     OW26017   5.998   1.603   4.168
 8373SOL    HW126018   5.954   1.685   4.131
 8373SOL    HW226019   5.968   1.523   4.116
 8374SOL     OW26020   6.820   0.941   4.212
 8374SOL    HW126021   6.784   1.034   4.219
 8374SOL    HW226022   6.910   0.944   4.170
 8375SOL     OW26023   2.536   1.443   4.979
 8375SOL    HW126024   2.528   1.369   5.046
 8375SOL    HW226025   2.476   1.519   5.005
 8376SOL     OW26026   0.653   1.742   3.795
 8376SOL    HW126027   0.712   1.769   3.720
 8376SOL    HW226028   0.569   1.701   3.759
 8377SOL     OW26029   4.477   5.157   6.926
 8377SOL    HW126030   4.486   5.165   0.004
 8377SOL    HW226031   4.544   5.091   6.892
 8378SOL     OW26032   4.820   5.853   4.486
 8378SOL    HW126033   4.724   5.870   4.507
 8378SOL    HW226034   4.827   5.795   4.404
 8379SOL     OW26035   5.920   2.046   1.615
 8379SOL    HW126036   5.864   2.098   1.680
 8379SOL    HW226037   6.015   2.048   1.644
 8380SOL     OW26038   0.111   6.354   1.033
 8380SOL    HW126039   0.157   6.285   1.089
 8380SOL    HW226040   0.013   6.353   1.052
 8381SOL     OW26041   0.342   1.336   2.815
 8381SOL    HW126042   0.248   1.370   2.809
 8381SOL    HW226043   0.398   1.380   2.746
 8382SOL     OW26044   1.459   0.592   1.284
 8382SOL    HW126045   1.514   0.638   1.354
 8382SOL    HW226046   1.484   0.495   1.279
 8383SOL     OW26047   2.867   0.438   6.327
 8383SOL    HW126048   2.863   0.526   6.281
 8383SOL    HW226049   2.941   0.382   6.288
 8384SOL     OW26050   1.107   3.837   3.315
 8384SOL    HW126051   1.198   3.796   3.328
 8384SOL    HW226052   1.086   3.843   3.218
 8385SOL     OW26053   4.305   3.112   1.314
 8385SOL    HW126054   4.393   3.066   1.308
 8385SOL    HW226055   4.244   3.078   1.243
 8386SOL     OW26056   2.450   5.979   1.668
 8386SOL    HW126057   2.426   5.886   1.693
 8386SOL    HW226058   2.496   6.024   1.745
 8387SOL     OW26059   0.810   1.558   3.229
 8387SOL    HW126060   0.808   1.657   3.217
 8387SOL    HW226061   0.875   1.534   3.301
 8388SOL     OW26062   4.615   5.644   0.598
 8388SOL    HW126063   4.576   5.596   0.677
 8388SOL    HW226064   4.703   5.603   0.574
 8389SOL     OW26065   0.468   2.918   3.819
 8389SOL    HW126066   0.506   2.965   3.739
 8389SOL    HW226067   0.393   2.973   3.856
 8390SOL     OW26068   2.760   0.257   5.987
 8390SOL    HW126069   2.759   0.306   5.900
 8390SOL    HW226070   2.844   0.203   5.993
 8391SOL     OW26071   5.880   6.101   0.726
 8391SOL    HW126072   5.860   6.077   0.631
 8391SOL    HW226073   5.969   6.065   0.751
 8392SOL     OW26074   5.070   6.762   5.832
 8392SOL    HW126075   5.137   6.732   5.765
 8392SOL    HW226076   5.105   6.744   5.924
 8393SOL     OW26077   0.285   5.340   2.742
 8393SOL    HW126078   0.347   5.402   2.695
 8393SOL    HW226079   0.307   5.338   2.840
 8394SOL     OW26080   0.320   1.806   3.193
 8394SOL    HW126081   0.230   1.823   3.151
 8394SOL    HW226082   0.311   1.813   3.293
 8395SOL     OW26083   1.233   6.154   5.245
 8395SOL    HW126084   1.330   6.167   5.266
 8395SOL    HW226085   1.179   6.166   5.329
 8396SOL     OW26086   4.165   3.292   1.011
 8396SOL    HW126087   4.116   3.240   1.082
 8396SOL    HW226088   4.118   3.378   0.994
 8397SOL     OW26089   2.273   5.079   3.565
 8397SOL    HW126090   2.372   5.089   3.576
 8397SOL    HW226091   2.255   5.005   3.500
 8398SOL     OW26092   5.174   1.564   0.253
 8398SOL    HW126093   5.138   1.635   0.313
 8398SOL    HW226094   5.101   1.531   0.192
 8399SOL     OW26095   5.756   5.869   0.321
 8399SOL    HW126096   5.814   5.796   0.358
 8399SOL    HW226097   5.677   5.882   0.381
 8400SOL     OW26098   5.996   0.361   4.491
 8400SOL    HW126099   6.019   0.445   4.539
 8400SOL    HW226100   5.986   0.286   4.557
 8401SOL     OW26101   2.905   4.160   5.951
 8401SOL    HW126102   2.936   4.233   6.012
 8401SOL    HW226103   2.822   4.189   5.903
 8402SOL     OW26104   4.654   1.354   6.730
 8402SOL    HW126105   4.595   1.275   6.713
 8402SOL    HW226106   4.605   1.438   6.707
 8403SOL     OW26107   1.331   1.897   4.505
 8403SOL    HW126108   1.374   1.904   4.595
 8403SOL    HW226109   1.232   1.903   4.515
 8404SOL     OW26110   4.518   5.200   5.363
 8404SOL    HW126111   4.606   5.212   5.410
 8404SOL    HW226112   4.528   5.220   5.266
 8405SOL     OW26113   1.472   2.388   5.236
 8405SOL    HW126114   1.453   2.410   5.140
 8405SOL    HW226115   1.463   2.290   5.250
 8406SOL     OW26116   5.172   3.632   0.969
 8406SOL    HW126117   5.253   3.582   0.937
 8406SOL    HW226118   5.155   3.609   1.064
 8407SOL     OW26119   4.989   3.534   2.594
 8407SOL    HW126120   5.089   3.534   2.595
 8407SOL    HW226121   4.957   3.579   2.511
 8408SOL     OW26122   4.648   2.726   4.020
 8408SOL    HW126123   4.645   2.729   4.120
 8408SOL    HW226124   4.667   2.817   3.985
 8409SOL     OW26125   0.800   1.848   4.081
 8409SOL    HW126126   0.848   1.936   4.080
 8409SOL    HW226127   0.755   1.834   3.993
 8410SOL     OW26128   2.988   6.372   2.478
 8410SOL    HW126129   2.916   6.346   2.542
 8410SOL    HW226130   2.960   6.348   2.385
 8411SOL     OW26131   1.958   3.173   3.444
 8411SOL    HW126132   2.031   3.238   3.463
 8411SOL    HW226133   1.942   3.115   3.525
 8412SOL     OW26134   6.237   3.113   2.342
 8412SOL    HW126135   6.233   3.077   2.249
 8412SOL    HW226136   6.283   3.202   2.342
 8413SOL     OW26137   2.456   4.575   1.470
 8413SOL    HW126138   2.520   4.537   1.537
 8413SOL    HW226139   2.366   4.531   1.480
 8414SOL     OW26140   4.968   6.869   2.624
 8414SOL    HW126141   4.949   6.961   2.589
 8414SOL    HW226142   5.059   6.840   2.593
 8415SOL     OW26143   6.778   3.581   1.671
 8415SOL    HW126144   6.761   3.668   1.624
 8415SOL    HW226145   6.863   3.589   1.724
 8416SOL     OW26146   5.119   3.867   2.214
 8416SOL    HW126147   5.075   3.814   2.141
 8416SOL    HW226148   5.101   3.823   2.302
 8417SOL     OW26149   2.272   5.965   6.401
 8417SOL    HW126150   2.243   5.872   6.377
 8417SOL    HW226151   2.368   5.976   6.377
 8418SOL     OW26152   5.926   5.504   2.509
 8418SOL    HW126153   5.847   5.443   2.498
 8418SOL    HW226154   5.929   5.538   2.602
 8419SOL     OW26155   4.072   6.933   3.723
 8419SOL    HW126156   4.046   6.885   3.639
 8419SOL    HW226157   3.994   6.936   3.785
 8420SOL     OW26158   3.621   1.979   5.716
 8420SOL    HW126159   3.549   2.047   5.700
 8420SOL    HW226160   3.595   1.922   5.794
 8421SOL     OW26161   1.791   6.672   1.890
 8421SOL    HW126162   1.765   6.671   1.793
 8421SOL    HW226163   1.770   6.762   1.929
 8422SOL     OW26164   3.738   6.477   1.331
 8422SOL    HW126165   3.652   6.521   1.306
 8422SOL    HW226166   3.745   6.473   1.431
 8423SOL     OW26167   2.155   4.018   1.202
 8423SOL    HW126168   2.160   3.990   1.106
 8423SOL    HW226169   2.065   4.055   1.221
 8424SOL     OW26170   3.139   2.056   2.397
 8424SOL    HW126171   3.090   2.036   2.482
 8424SOL    HW226172   3.089   2.124   2.344
 8425SOL     OW26173   5.981   4.899   0.052
 8425SOL    HW126174   5.931   4.895   0.139
 8425SOL    HW226175   6.079   4.906   0.070
 8426SOL     OW26176   4.087   3.605   2.329
 8426SOL    HW126177   4.056   3.700   2.319
 8426SOL    HW226178   4.059   3.552   2.250
 8427SOL     OW26179   2.161   3.445   6.431
 8427SOL    HW126180   2.093   3.455   6.358
 8427SOL    HW226181   2.114   3.435   6.519
 8428SOL     OW26182   5.696   4.478   1.848
 8428SOL    HW126183   5.668   4.407   1.912
 8428SOL    HW226184   5.769   4.532   1.888
 8429SOL     OW26185   2.239   6.899   2.799
 8429SOL    HW126186   2.210   6.806   2.776
 8429SOL    HW226187   2.310   6.894   2.870
 8430SOL     OW26188   4.894   3.992   3.093
 8430SOL    HW126189   4.960   3.918   3.109
 8430SOL    HW226190   4.920   4.042   3.010
 8431SOL     OW26191   2.867   4.017   1.498
 8431SOL    HW126192   2.790   4.070   1.462
 8431SOL    HW226193   2.843   3.920   1.495
 8432SOL     OW26194   4.759   6.589   0.239
 8432SOL    HW126195   4.723   6.508   0.285
 8432SOL    HW226196   4.708   6.670   0.269
 8433SOL     OW26197   1.237   1.178   4.826
 8433SOL    HW126198   1.325   1.198   4.870
 8433SOL    HW226199   1.163   1.204   4.887
 8434SOL     OW26200   5.686   6.147   6.121
 8434SOL    HW126201   5.728   6.062   6.088
 8434SOL    HW226202   5.652   6.200   6.043
 8435SOL     OW26203   4.922   2.462   1.087
 8435SOL    HW126204   5.018   2.464   1.116
 8435SOL    HW226205   4.866   2.511   1.154
 8436SOL     OW26206   3.640   4.302   1.300
 8436SOL    HW126207   3.730   4.315   1.259
 8436SOL    HW226208   3.598   4.219   1.264
 8437SOL     OW26209   6.954   2.005   1.321
 8437SOL    HW126210   6.946   2.065   1.400
 8437SOL    HW226211   0.025   1.967   1.318
 8438SOL     OW26212   2.025   6.638   1.473
 8438SOL    HW126213   2.008   6.586   1.557
 8438SOL    HW226214   1.942   6.638   1.417
 8439SOL     OW26215   5.837   6.601   2.289
 8439SOL    HW126216   5.831   6.679   2.227
 8439SOL    HW226217   5.750   6.552   2.291
 8440SOL     OW26218   0.196   2.008   3.359
 8440SOL    HW126219   0.142   2.065   3.297
 8440SOL    HW226220   0.136   1.966   3.428
 8441SOL     OW26221   4.470   4.759   1.374
 8441SOL    HW126222   4.383   4.798   1.403
 8441SOL    HW226223   4.509   4.815   1.301
 8442SOL     OW26224   1.335   3.589   0.260
 8442SOL    HW126225   1.258   3.642   0.226
 8442SOL    HW226226   1.414   3.602   0.200
 8443SOL     OW26227   1.185   1.655   2.511
 8443SOL    HW126228   1.147   1.659   2.604
 8443SOL    HW226229   1.112   1.674   2.445
 8444SOL     OW26230   4.281   0.085   3.004
 8444SOL    HW126231   4.318   0.147   2.935
 8444SOL    HW226232   4.275   0.132   3.091
 8445SOL     OW26233   3.953   5.529   2.024
 8445SOL    HW126234   4.030   5.465   2.018
 8445SOL    HW226235   3.868   5.481   2.005
 8446SOL     OW26236   6.781   4.859   3.668
 8446SOL    HW126237   6.871   4.899   3.656
 8446SOL    HW226238   6.719   4.892   3.596
 8447SOL     OW26239   4.821   2.944   1.232
 8447SOL    HW126240   4.780   3.036   1.235
 8447SOL    HW226241   4.904   2.943   1.289
 8448SOL     OW26242   0.600   3.044   6.165
 8448SOL    HW126243   0.699   3.028   6.174
 8448SOL    HW226244   0.553   3.002   6.242
 8449SOL     OW26245   1.213   2.015   5.290
 8449SOL    HW126246   1.208   1.991   5.193
 8449SOL    HW226247   1.301   2.057   5.310
 8450SOL     OW26248   2.469   5.017   2.355
 8450SOL    HW126249   2.436   4.935   2.310
 8450SOL    HW226250   2.525   5.071   2.291
 8451SOL     OW26251   4.481   3.316   0.230
 8451SOL    HW126252   4.554   3.253   0.257
 8451SOL    HW226253   4.429   3.344   0.311
 8452SOL     OW26254   6.743   5.882   0.735
 8452SOL    HW126255   6.725   5.784   0.727
 8452SOL    HW226256   6.825   5.897   0.791
 8453SOL     OW26257   0.730   4.831   5.458
 8453SOL    HW126258   0.823   4.794   5.461
 8453SOL    HW226259   0.717   4.892   5.537
 8454SOL     OW26260   1.959   6.685   4.427
 8454SOL    HW126261   1.933   6.752   4.496
 8454SOL    HW226262   2.058   6.674   4.427
 8455SOL     OW26263   6.145   2.270   0.906
 8455SOL    HW126264   6.244   2.274   0.910
 8455SOL    HW226265   6.109   2.358   0.872
 8456SOL     OW26266   5.702   5.807   3.366
 8456SOL    HW126267   5.755   5.875   3.417
 8456SOL    HW226268   5.605   5.820   3.385
 8457SOL     OW26269   6.562   6.254   6.646
 8457SOL    HW126270   6.498   6.320   6.608
 8457SOL    HW226271   6.615   6.213   6.571
 8458SOL     OW26272   1.401   1.782   1.595
 8458SOL    HW126273   1.397   1.880   1.578
 8458SOL    HW226274   1.437   1.765   1.687
 8459SOL     OW26275   2.955   5.519   2.401
 8459SOL    HW126276   2.945   5.491   2.306
 8459SOL    HW226277   2.885   5.473   2.456
 8460SOL     OW26278   3.935   1.185   0.340
 8460SOL    HW126279   3.905   1.232   0.257
 8460SOL    HW226280   3.891   1.226   0.419
 8461SOL     OW26281   5.533   3.973   2.768
 8461SOL    HW126282   5.617   4.009   2.808
 8461SOL    HW226283   5.457   4.034   2.788
 8462SOL     OW26284   2.628   4.385   0.256
 8462SOL    HW126285   2.701   4.421   0.198
 8462SOL    HW226286   2.592   4.459   0.314
 8463SOL     OW26287   6.517   0.810   6.744
 8463SOL    HW126288   6.617   0.810   6.737
 8463SOL    HW226289   6.478   0.813   6.652
 8464SOL     OW26290   6.967   3.776   6.356
 8464SOL    HW126291   6.998   3.682   6.372
 8464SOL    HW226292   6.929   3.813   6.440
 8465SOL     OW26293   5.143   3.230   1.056
 8465SOL    HW126294   5.051   3.246   1.020
 8465SOL    HW226295   5.208   3.224   0.980
 8466SOL     OW26296   6.186   1.434   5.632
 8466SOL    HW126297   6.143   1.343   5.634
 8466SOL    HW226298   6.161   1.484   5.715
 8467SOL     OW26299   3.481   1.507   0.498
 8467SOL    HW126300   3.503   1.575   0.568
 8467SOL    HW226301   3.387   1.476   0.509
 8468SOL     OW26302   6.025   3.440   7.021
 8468SOL    HW126303   5.962   3.428   0.076
 8468SOL    HW226304   6.119   3.428   0.032
 8469SOL     OW26305   4.509   3.314   5.973
 8469SOL    HW126306   4.430   3.371   5.996
 8469SOL    HW226307   4.532   3.256   6.051
 8470SOL     OW26308   1.141   5.207   1.401
 8470SOL    HW126309   1.108   5.134   1.460
 8470SOL    HW226310   1.066   5.269   1.378
 8471SOL     OW26311   3.667   1.883   4.275
 8471SOL    HW126312   3.726   1.819   4.325
 8471SOL    HW226313   3.723   1.957   4.237
 8472SOL     OW26314   6.134   1.798   5.666
 8472SOL    HW126315   6.122   1.713   5.718
 8472SOL    HW226316   6.082   1.792   5.581
 8473SOL     OW26317   5.020   4.204   6.940
 8473SOL    HW126318   4.925   4.223   6.966
 8473SOL    HW226319   5.038   4.242   6.850
 8474SOL     OW26320   3.883   3.876   3.299
 8474SOL    HW126321   3.938   3.935   3.240
 8474SOL    HW226322   3.899   3.900   3.395
 8475SOL     OW26323   6.960   2.780   2.445
 8475SOL    HW126324   6.886   2.744   2.502
 8475SOL    HW226325   0.026   2.763   2.489
 8476SOL     OW26326   6.113   1.132   1.471
 8476SOL    HW126327   6.145   1.040   1.492
 8476SOL    HW226328   6.089   1.138   1.374
 8477SOL     OW26329   5.341   6.711   1.539
 8477SOL    HW126330   5.266   6.729   1.475
 8477SOL    HW226331   5.417   6.669   1.491
 8478SOL     OW26332   6.618   0.866   5.989
 8478SOL    HW126333   6.697   0.832   6.040
 8478SOL    HW226334   6.626   0.966   5.979
 8479SOL     OW26335   1.256   2.427   0.604
 8479SOL    HW126336   1.210   2.369   0.537
 8479SOL    HW226337   1.283   2.513   0.561
 8480SOL     OW26338   4.052   3.682   7.015
 8480SOL    HW126339   4.013   3.767   0.028
 8480SOL    HW226340   4.056   3.686   6.915
 8481SOL     OW26341   4.446   2.002   3.192
 8481SOL    HW126342   4.527   2.042   3.149
 8481SOL    HW226343   4.367   2.061   3.178
 8482SOL     OW26344   4.412   0.690   0.800
 8482SOL    HW126345   4.408   0.595   0.831
 8482SOL    HW226346   4.410   0.751   0.879
 8483SOL     OW26347   3.557   4.890   2.634
 8483SOL    HW126348   3.484   4.844   2.685
 8483SOL    HW226349   3.518   4.935   2.554
 8484SOL     OW26350   5.189   5.551   4.622
 8484SOL    HW126351   5.256   5.624   4.610
 8484SOL    HW226352   5.115   5.582   4.681
 8485SOL     OW26353   3.548   2.185   0.277
 8485SOL    HW126354   3.507   2.268   0.241
 8485SOL    HW226355   3.514   2.168   0.369
 8486SOL     OW26356   6.380   2.624   2.857
 8486SOL    HW126357   6.311   2.623   2.930
 8486SOL    HW226358   6.335   2.618   2.769
 8487SOL     OW26359   0.007   1.732   6.235
 8487SOL    HW126360   6.941   1.722   6.187
 8487SOL    HW226361   7.017   1.791   6.315
 8488SOL     OW26362   4.577   5.118   1.752
 8488SOL    HW126363   4.536   5.032   1.724
 8488SOL    HW226364   4.677   5.112   1.742
 8489SOL     OW26365   5.774   2.235   1.441
 8489SOL    HW126366   5.730   2.167   1.383
 8489SOL    HW226367   5.845   2.190   1.496
 8490SOL     OW26368   3.167   0.513   6.554
 8490SOL    HW126369   3.146   0.461   6.472
 8490SOL    HW226370   3.118   0.600   6.553
 8491SOL     OW26371   2.939   5.643   1.613
 8491SOL    HW126372   2.928   5.742   1.606
 8491SOL    HW226373   2.947   5.617   1.709
 8492SOL     OW26374   6.206   6.363   4.472
 8492SOL    HW126375   6.131   6.347   4.407
 8492SOL    HW226376   6.250   6.450   4.450
 8493SOL     OW26377   5.087   1.562   6.857
 8493SOL    HW126378   4.994   1.529   6.873
 8493SOL    HW226379   5.102   1.572   6.758
 8494SOL     OW26380   6.654   4.852   2.194
 8494SOL    HW126381   6.688   4.780   2.255
 8494SOL    HW226382   6.700   4.938   2.216
 8495SOL     OW26383   6.471   5.426   6.370
 8495SOL    HW126384   6.387   5.418   6.423
 8495SOL    HW226385   6.550   5.403   6.428
 8496SOL     OW26386   5.287   3.023   2.227
 8496SOL    HW126387   5.221   3.098   2.223
 8496SOL    HW226388   5.271   2.969   2.309
 8497SOL     OW26389   6.416   0.551   3.418
 8497SOL    HW126390   6.425   0.464   3.466
 8497SOL    HW226391   6.420   0.536   3.320
 8498SOL     OW26392   4.684   6.730   3.955
 8498SOL    HW126393   4.725   6.821   3.951
 8498SOL    HW226394   4.700   6.691   4.046
 8499SOL     OW26395   5.461   6.490   5.400
 8499SOL    HW126396   5.560   6.497   5.383
 8499SOL    HW226397   5.445   6.469   5.496
 8500SOL     OW26398   0.999   0.704   5.968
 8500SOL    HW126399   0.997   0.700   5.868
 8500SOL    HW226400   0.908   0.684   6.004
 8501SOL     OW26401   1.258   1.705   6.637
 8501SOL    HW126402   1.211   1.672   6.555
 8501SOL    HW226403   1.344   1.749   6.610
 8502SOL     OW26404   0.411   4.281   6.921
 8502SOL    HW126405   0.349   4.262   6.998
 8502SOL    HW226406   0.373   4.355   6.865
 8503SOL     OW26407   4.974   0.929   4.604
 8503SOL    HW126408   4.989   0.835   4.574
 8503SOL    HW226409   4.880   0.957   4.583
 8504SOL     OW26410   1.309   0.341   1.885
 8504SOL    HW126411   1.311   0.437   1.911
 8504SOL    HW226412   1.300   0.284   1.967
 8505SOL     OW26413   5.235   3.399   2.511
 8505SOL    HW126414   5.186   3.368   2.430
 8505SOL    HW226415   5.259   3.319   2.567
 8506SOL     OW26416   1.442   0.902   6.122
 8506SOL    HW126417   1.389   0.819   6.139
 8506SOL    HW226418   1.409   0.976   6.180
 8507SOL     OW26419   3.237   6.119   5.596
 8507SOL    HW126420   3.331   6.146   5.619
 8507SOL    HW226421   3.177   6.199   5.601
 8508SOL     OW26422   3.119   1.593   6.678
 8508SOL    HW126423   3.097   1.689   6.699
 8508SOL    HW226424   3.047   1.534   6.713
 8509SOL     OW26425   5.629   2.106   2.876
 8509SOL    HW126426   5.593   2.107   2.782
 8509SOL    HW226427   5.553   2.098   2.941
 8510SOL     OW26428   6.975   2.198   4.536
 8510SOL    HW126429   6.914   2.130   4.495
 8510SOL    HW226430   6.966   2.285   4.488
 8511SOL     OW26431   5.491   2.146   2.616
 8511SOL    HW126432   5.522   2.240   2.627
 8511SOL    HW226433   5.458   2.133   2.522
 8512SOL     OW26434   1.922   6.653   6.195
 8512SOL    HW126435   2.015   6.615   6.188
 8512SOL    HW226436   1.858   6.579   6.213
 8513SOL     OW26437   4.771   6.956   6.588
 8513SOL    HW126438   4.753   6.862   6.616
 8513SOL    HW226439   4.704   6.984   6.519
 8514SOL     OW26440   2.945   6.020   4.341
 8514SOL    HW126441   2.877   5.949   4.325
 8514SOL    HW226442   3.037   5.982   4.328
 8515SOL     OW26443   5.792   1.597   0.540
 8515SOL    HW126444   5.772   1.695   0.535
 8515SOL    HW226445   5.875   1.577   0.488
 8516SOL     OW26446   0.156   1.972   2.408
 8516SOL    HW126447   0.215   1.896   2.436
 8516SOL    HW226448   0.061   1.949   2.429
 8517SOL     OW26449   0.868   3.642   0.491
 8517SOL    HW126450   0.910   3.609   0.406
 8517SOL    HW226451   0.805   3.717   0.470
 8518SOL     OW26452   2.992   5.507   0.305
 8518SOL    HW126453   3.007   5.435   0.372
 8518SOL    HW226454   3.067   5.506   0.238
 8519SOL     OW26455   1.616   5.263   2.755
 8519SOL    HW126456   1.648   5.231   2.844
 8519SOL    HW226457   1.681   5.237   2.684
 8520SOL     OW26458   3.669   6.947   6.766
 8520SOL    HW126459   3.723   6.888   6.707
 8520SOL    HW226460   3.683   0.021   6.738
 8521SOL     OW26461   1.008   0.193   0.383
 8521SOL    HW126462   1.007   0.244   0.297
 8521SOL    HW226463   1.066   0.241   0.449
 8522SOL     OW26464   2.361   6.343   4.557
 8522SOL    HW126465   2.308   6.351   4.641
 8522SOL    HW226466   2.424   6.265   4.564
 8523SOL     OW26467   1.414   6.772   0.228
 8523SOL    HW126468   1.358   6.704   0.276
 8523SOL    HW226469   1.354   6.838   0.184
 8524SOL     OW26470   1.771   2.161   6.324
 8524SOL    HW126471   1.795   2.172   6.420
 8524SOL    HW226472   1.733   2.247   6.289
 8525SOL     OW26473   5.086   3.198   3.385
 8525SOL    HW126474   5.033   3.207   3.469
 8525SOL    HW226475   5.184   3.196   3.408
 8526SOL     OW26476   1.679   3.315   2.326
 8526SOL    HW126477   1.763   3.319   2.381
 8526SOL    HW226478   1.680   3.389   2.259
 8527SOL     OW26479   3.889   0.033   4.078
 8527SOL    HW126480   3.860   6.995   4.153
 8527SOL    HW226481   3.945   0.108   4.115
 8528SOL     OW26482   4.994   2.972   6.883
 8528SOL    HW126483   4.934   3.023   6.822
 8528SOL    HW226484   4.940   2.905   6.935
 8529SOL     OW26485   0.299   5.269   6.953
 8529SOL    HW126486   0.318   5.284   0.028
 8529SOL    HW226487   0.203   5.287   6.934
 8530SOL     OW26488   1.372   3.681   5.654
 8530SOL    HW126489   1.442   3.611   5.668
 8530SOL    HW226490   1.380   3.717   5.561
 8531SOL     OW26491   3.906   4.816   2.022
 8531SOL    HW126492   3.830   4.881   2.031
 8531SOL    HW226493   3.986   4.853   2.070
 8532SOL     OW26494   1.615   4.105   6.809
 8532SOL    HW126495   1.531   4.063   6.775
 8532SOL    HW226496   1.670   4.137   6.732
 8533SOL     OW26497   3.769   0.551   5.859
 8533SOL    HW126498   3.796   0.552   5.763
 8533SOL    HW226499   3.671   0.568   5.867
 8534SOL     OW26500   1.823   2.875   3.167
 8534SOL    HW126501   1.804   2.779   3.147
 8534SOL    HW226502   1.823   2.928   3.082
 8535SOL     OW26503   6.718   3.388   4.610
 8535SOL    HW126504   6.806   3.394   4.657
 8535SOL    HW226505   6.656   3.330   4.662
 8536SOL     OW26506   0.041   0.970   4.073
 8536SOL    HW126507   0.021   1.013   3.984
 8536SOL    HW226508   0.106   0.895   4.060
 8537SOL     OW26509   5.816   0.057   2.774
 8537SOL    HW126510   5.799   7.017   2.697
 8537SOL    HW226511   5.810   0.006   2.860
 8538SOL     OW26512   5.475   0.738   5.340
 8538SOL    HW126513   5.407   0.811   5.335
 8538SOL    HW226514   5.432   0.654   5.372
 8539SOL     OW26515   0.192   3.469   2.928
 8539SOL    HW126516   0.167   3.398   2.862
 8539SOL    HW226517   0.263   3.434   2.989
 8540SOL     OW26518   4.169   0.337   6.994
 8540SOL    HW126519   4.083   0.288   6.979
 8540SOL    HW226520   4.245   0.273   6.985
 8541SOL     OW26521   3.121   6.364   5.182
 8541SOL    HW126522   3.210   6.325   5.158
 8541SOL    HW226523   3.133   6.429   5.257
 8542SOL     OW26524   1.585   5.854   5.875
 8542SOL    HW126525   1.676   5.895   5.884
 8542SOL    HW226526   1.536   5.898   5.799
 8543SOL     OW26527   2.863   2.876   6.058
 8543SOL    HW126528   2.942   2.839   6.009
 8543SOL    HW226529   2.780   2.861   6.004
 8544SOL     OW26530   5.656   4.881   5.554
 8544SOL    HW126531   5.728   4.940   5.592
 8544SOL    HW226532   5.684   4.786   5.562
 8545SOL     OW26533   2.645   0.051   6.553
 8545SOL    HW126534   2.633   0.129   6.615
 8545SOL    HW226535   2.686   0.083   6.468
 8546SOL     OW26536   4.480   0.918   3.074
 8546SOL    HW126537   4.451   0.867   2.993
 8546SOL    HW226538   4.557   0.872   3.117
 8547SOL     OW26539   5.695   6.443   5.899
 8547SOL    HW126540   5.750   6.477   5.975
 8547SOL    HW226541   5.651   6.520   5.853
 8548SOL     OW26542   1.053   3.671   4.696
 8548SOL    HW126543   1.019   3.748   4.642
 8548SOL    HW226544   1.056   3.589   4.638
 8549SOL     OW26545   1.363   0.316   4.130
 8549SOL    HW126546   1.278   0.286   4.085
 8549SOL    HW226547   1.341   0.380   4.204
 8550SOL     OW26548   6.706   5.323   6.105
 8550SOL    HW126549   6.713   5.422   6.120
 8550SOL    HW226550   6.745   5.274   6.183
 8551SOL     OW26551   2.277   0.450   5.836
 8551SOL    HW126552   2.326   0.365   5.853
 8551SOL    HW226553   2.233   0.446   5.746
 8552SOL     OW26554   2.788   1.456   2.111
 8552SOL    HW126555   2.798   1.550   2.145
 8552SOL    HW226556   2.739   1.402   2.180
 8553SOL     OW26557   5.170   3.718   0.104
 8553SOL    HW126558   5.180   3.815   0.129
 8553SOL    HW226559   5.088   3.706   0.048
 8554SOL     OW26560   2.171   0.997   0.227
 8554SOL    HW126561   2.087   0.946   0.209
 8554SOL    HW226562   2.216   1.021   0.141
 8555SOL     OW26563   3.608   1.830   3.948
 8555SOL    HW126564   3.570   1.755   4.001
 8555SOL    HW226565   3.612   1.913   4.004
 8556SOL     OW26566   0.859   5.649   6.348
 8556SOL    HW126567   0.935   5.611   6.297
 8556SOL    HW226568   0.843   5.594   6.430
 8557SOL     OW26569   6.900   0.868   6.410
 8557SOL    HW126570   6.910   0.873   6.509
 8557SOL    HW226571   6.935   0.780   6.378
 8558SOL     OW26572   2.686   6.097   4.297
 8558SOL    HW126573   2.785   6.107   4.299
 8558SOL    HW226574   2.662   6.005   4.330
 8559SOL     OW26575   2.034   4.425   2.743
 8559SOL    HW126576   2.077   4.337   2.728
 8559SOL    HW226577   2.062   4.489   2.672
 8560SOL     OW26578   2.781   4.440   0.571
 8560SOL    HW126579   2.728   4.356   0.563
 8560SOL    HW226580   2.806   4.454   0.667
 8561SOL     OW26581   3.662   0.297   3.088
 8561SOL    HW126582   3.624   0.382   3.051
 8561SOL    HW226583   3.757   0.312   3.114
 8562SOL     OW26584   5.630   2.132   0.323
 8562SOL    HW126585   5.604   2.207   0.384
 8562SOL    HW226586   5.553   2.069   0.314
 8563SOL     OW26587   2.984   5.104   2.524
 8563SOL    HW126588   3.067   5.050   2.505
 8563SOL    HW226589   3.002   5.165   2.601
 8564SOL     OW26590   4.300   6.762   0.136
 8564SOL    HW126591   4.219   6.782   0.081
 8564SOL    HW226592   4.288   6.674   0.182
 8565SOL     OW26593   1.701   4.504   1.349
 8565SOL    HW126594   1.621   4.563   1.350
 8565SOL    HW226595   1.692   4.433   1.419
 8566SOL     OW26596   3.156   0.964   2.010
 8566SOL    HW126597   3.143   1.063   2.003
 8566SOL    HW226598   3.226   0.935   1.944
 8567SOL     OW26599   1.927   2.758   2.712
 8567SOL    HW126600   1.995   2.698   2.754
 8567SOL    HW226601   1.965   2.797   2.627
 8568SOL     OW26602   6.196   0.069   6.080
 8568SOL    HW126603   6.271   0.098   6.021
 8568SOL    HW226604   6.231   0.048   6.172
 8569SOL     OW26605   4.607   2.104   0.332
 8569SOL    HW126606   4.620   2.116   0.431
 8569SOL    HW226607   4.614   2.007   0.309
 8570SOL     OW26608   2.475   2.222   1.766
 8570SOL    HW126609   2.568   2.250   1.790
 8570SOL    HW226610   2.413   2.240   1.842
 8571SOL     OW26611   1.590   0.575   2.940
 8571SOL    HW126612   1.566   0.672   2.938
 8571SOL    HW226613   1.511   0.522   2.972
 8572SOL     OW26614   2.626   4.285   5.557
 8572SOL    HW126615   2.680   4.338   5.492
 8572SOL    HW226616   2.550   4.340   5.590
 8573SOL     OW26617   3.429   6.562   0.162
 8573SOL    HW126618   3.463   6.582   0.254
 8573SOL    HW226619   3.378   6.475   0.164
 8574SOL     OW26620   4.587   0.548   5.340
 8574SOL    HW126621   4.621   0.626   5.392
 8574SOL    HW226622   4.623   0.464   5.380
 8575SOL     OW26623   3.373   6.034   3.702
 8575SOL    HW126624   3.348   6.053   3.797
 8575SOL    HW226625   3.296   5.991   3.655
 8576SOL     OW26626   1.619   4.757   4.451
 8576SOL    HW126627   1.626   4.696   4.530
 8576SOL    HW226628   1.523   4.773   4.430
 8577SOL     OW26629   2.013   1.588   1.023
 8577SOL    HW126630   1.970   1.501   1.048
 8577SOL    HW226631   1.987   1.612   0.930
 8578SOL     OW26632   0.383   0.055   6.743
 8578SOL    HW126633   0.439   0.034   6.824
 8578SOL    HW226634   0.356   0.151   6.745
 8579SOL     OW26635   2.670   6.587   2.284
 8579SOL    HW126636   2.665   6.521   2.209
 8579SOL    HW226637   2.588   6.580   2.341
 8580SOL     OW26638   1.607   0.455   1.634
 8580SOL    HW126639   1.677   0.444   1.563
 8580SOL    HW226640   1.534   0.390   1.619
 8581SOL     OW26641   3.281   4.755   0.840
 8581SOL    HW126642   3.379   4.773   0.841
 8581SOL    HW226643   3.245   4.763   0.933
 8582SOL     OW26644   3.713   5.352   5.613
 8582SOL    HW126645   3.753   5.443   5.608
 8582SOL    HW226646   3.664   5.333   5.528
 8583SOL     OW26647   3.998   6.863   2.457
 8583SOL    HW126648   3.994   6.823   2.365
 8583SOL    HW226649   3.949   6.803   2.521
 8584SOL     OW26650   6.389   1.485   4.668
 8584SOL    HW126651   6.403   1.522   4.760
 8584SOL    HW226652   6.390   1.560   4.601
 8585SOL     OW26653   5.210   2.812   3.095
 8585SOL    HW126654   5.228   2.713   3.099
 8585SOL    HW226655   5.133   2.834   3.155
 8586SOL     OW26656   6.720   6.477   0.169
 8586SOL    HW126657   6.656   6.535   0.219
 8586SOL    HW226658   6.711   6.492   0.071
 8587SOL     OW26659   0.377   2.178   0.050
 8587SOL    HW126660   0.368   2.189   6.972
 8587SOL    HW226661   0.331   2.253   0.096
 8588SOL     OW26662   2.702   0.989   5.620
 8588SOL    HW126663   2.632   1.048   5.660
 8588SOL    HW226664   2.719   0.911   5.680
 8589SOL     OW26665   6.333   3.062   6.552
 8589SOL    HW126666   6.419   3.031   6.594
 8589SOL    HW226667   6.264   2.990   6.561
 8590SOL     OW26668   0.634   0.908   4.127
 8590SOL    HW126669   0.632   0.808   4.122
 8590SOL    HW226670   0.606   0.936   4.219
 8591SOL     OW26671   6.656   4.556   6.797
 8591SOL    HW126672   6.740   4.602   6.768
 8591SOL    HW226673   6.674   4.459   6.811
 8592SOL     OW26674   0.527   1.457   4.713
 8592SOL    HW126675   0.427   1.454   4.708
 8592SOL    HW226676   0.555   1.524   4.782
 8593SOL     OW26677   5.227   1.701   0.023
 8593SOL    HW126678   5.211   1.652   0.109
 8593SOL    HW226679   5.174   1.657   6.971
 8594SOL     OW26680   6.282   3.534   6.159
 8594SOL    HW126681   6.299   3.617   6.213
 8594SOL    HW226682   6.187   3.506   6.171
 8595SOL     OW26683   6.086   6.364   2.978
 8595SOL    HW126684   6.106   6.462   2.971
 8595SOL    HW226685   6.007   6.351   3.038
 8596SOL     OW26686   0.216   1.402   4.021
 8596SOL    HW126687   0.173   1.377   3.934
 8596SOL    HW226688   0.315   1.398   4.011
 8597SOL     OW26689   6.150   2.981   5.485
 8597SOL    HW126690   6.162   3.056   5.420
 8597SOL    HW226691   6.188   3.006   5.574
 8598SOL     OW26692   6.139   0.049   4.977
 8598SOL    HW126693   6.061   0.083   5.029
 8598SOL    HW226694   6.178   0.125   4.923
 8599SOL     OW26695   6.811   4.004   3.962
 8599SOL    HW126696   6.858   4.091   3.946
 8599SOL    HW226697   6.808   3.985   4.060
 8600SOL     OW26698   4.857   2.071   0.574
 8600SOL    HW126699   4.929   2.049   0.508
 8600SOL    HW226700   4.793   1.994   0.581
 8601SOL     OW26701   0.138   6.231   3.422
 8601SOL    HW126702   0.069   6.189   3.363
 8601SOL    HW226703   0.149   6.176   3.505
 8602SOL     OW26704   1.847   6.403   6.095
 8602SOL    HW126705   1.770   6.385   6.156
 8602SOL    HW226706   1.932   6.405   6.148
 8603SOL     OW26707   1.007   0.347   0.133
 8603SOL    HW126708   0.935   0.324   0.067
 8603SOL    HW226709   1.095   0.314   0.099
 8604SOL     OW26710   0.936   4.554   6.189
 8604SOL    HW126711   0.855   4.591   6.143
 8604SOL    HW226712   0.977   4.625   6.247
 8605SOL     OW26713   6.764   4.495   4.527
 8605SOL    HW126714   6.833   4.488   4.454
 8605SOL    HW226715   6.675   4.466   4.491
 8606SOL     OW26716   1.613   2.437   0.500
 8606SOL    HW126717   1.650   2.417   0.409
 8606SOL    HW226718   1.675   2.499   0.548
 8607SOL     OW26719   2.199   4.199   1.765
 8607SOL    HW126720   2.137   4.270   1.798
 8607SOL    HW226721   2.199   4.199   1.665
 8608SOL     OW26722   1.506   5.443   2.945
 8608SOL    HW126723   1.534   5.409   2.855
 8608SOL    HW226724   1.587   5.463   2.999
 8609SOL     OW26725   4.241   1.647   4.517
 8609SOL    HW126726   4.309   1.597   4.463
 8609SOL    HW226727   4.271   1.650   4.613
 8610SOL     OW26728   6.938   6.380   3.108
 8610SOL    HW126729   6.848   6.366   3.066
 8610SOL    HW226730   6.938   6.465   3.161
 8611SOL     OW26731   2.712   0.944   4.755
 8611SOL    HW126732   2.622   0.919   4.790
 8611SOL    HW226733   2.754   1.012   4.816
 8612SOL     OW26734   3.339   2.920   4.107
 8612SOL    HW126735   3.330   2.833   4.060
 8612SOL    HW226736   3.432   2.955   4.094
 8613SOL     OW26737   4.104   3.400   2.509
 8613SOL    HW126738   4.124   3.320   2.454
 8613SOL    HW226739   4.112   3.482   2.452
 8614SOL     OW26740   1.137   2.565   3.320
 8614SOL    HW126741   1.232   2.538   3.305
 8614SOL    HW226742   1.110   2.632   3.251
 8615SOL     OW26743   3.577   1.330   4.721
 8615SOL    HW126744   3.587   1.339   4.622
 8615SOL    HW226745   3.599   1.237   4.749
 8616SOL     OW26746   5.775   4.432   3.738
 8616SOL    HW126747   5.831   4.458   3.816
 8616SOL    HW226748   5.834   4.412   3.659
 8617SOL     OW26749   2.222   0.176   3.603
 8617SOL    HW126750   2.166   0.185   3.521
 8617SOL    HW226751   2.190   0.242   3.672
 8618SOL     OW26752   5.705   3.821   1.343
 8618SOL    HW126753   5.657   3.805   1.430
 8618SOL    HW226754   5.796   3.780   1.347
 8619SOL     OW26755   4.765   4.892   0.423
 8619SOL    HW126756   4.710   4.810   0.437
 8619SOL    HW226757   4.750   4.955   0.499
 8620SOL     OW26758   2.309   0.309   4.381
 8620SOL    HW126759   2.321   0.409   4.376
 8620SOL    HW226760   2.218   0.285   4.350
 8621SOL     OW26761   5.684   2.988   1.742
 8621SOL    HW126762   5.730   2.901   1.726
 8621SOL    HW226763   5.585   2.975   1.733
 8622SOL     OW26764   6.922   5.238   2.595
 8622SOL    HW126765   6.927   5.285   2.683
 8622SOL    HW226766   6.955   5.144   2.605
 8623SOL     OW26767   1.415   3.180   4.125
 8623SOL    HW126768   1.340   3.209   4.183
 8623SOL    HW226769   1.420   3.239   4.045
 8624SOL     OW26770   3.192   4.103   4.829
 8624SOL    HW126771   3.270   4.148   4.873
 8624SOL    HW226772   3.115   4.102   4.892
 8625SOL     OW26773   3.977   2.796   5.282
 8625SOL    HW126774   3.898   2.744   5.315
 8625SOL    HW226775   4.049   2.733   5.253
 8626SOL     OW26776   3.821   2.857   1.120
 8626SOL    HW126777   3.767   2.917   1.060
 8626SOL    HW226778   3.843   2.773   1.071
 8627SOL     OW26779   1.727   1.240   2.619
 8627SOL    HW126780   1.695   1.320   2.670
 8627SOL    HW226781   1.796   1.268   2.553
 8628SOL     OW26782   0.636   6.193   0.820
 8628SOL    HW126783   0.704   6.127   0.788
 8628SOL    HW226784   0.592   6.236   0.741
 8629SOL     OW26785   6.955   6.745   5.402
 8629SOL    HW126786   6.942   6.740   5.303
 8629SOL    HW226787   7.002   6.663   5.433
 8630SOL     OW26788   4.780   2.787   2.175
 8630SOL    HW126789   4.828   2.829   2.252
 8630SOL    HW226790   4.748   2.859   2.113
 8631SOL     OW26791   2.540   6.069   6.638
 8631SOL    HW126792   2.536   5.969   6.640
 8631SOL    HW226793   2.596   6.098   6.561
 8632SOL     OW26794   5.551   4.971   4.456
 8632SOL    HW126795   5.586   5.048   4.403
 8632SOL    HW226796   5.627   4.920   4.495
 8633SOL     OW26797   6.028   4.145   5.379
 8633SOL    HW126798   5.936   4.154   5.417
 8633SOL    HW226799   6.082   4.225   5.406
 8634SOL     OW26800   4.952   3.206   0.177
 8634SOL    HW126801   5.044   3.221   0.213
 8634SOL    HW226802   4.937   3.109   0.162
 8635SOL     OW26803   5.501   2.640   6.431
 8635SOL    HW126804   5.581   2.690   6.463
 8635SOL    HW226805   5.427   2.704   6.412
 8636SOL     OW26806   4.694   6.682   1.546
 8636SOL    HW126807   4.659   6.734   1.468
 8636SOL    HW226808   4.638   6.600   1.560
 8637SOL     OW26809   2.314   2.041   6.415
 8637SOL    HW126810   2.235   1.980   6.403
 8637SOL    HW226811   2.342   2.078   6.327
 8638SOL     OW26812   4.871   2.949   3.419
 8638SOL    HW126813   4.902   2.998   3.338
 8638SOL    HW226814   4.791   2.894   3.396
 8639SOL     OW26815   3.591   3.512   0.239
 8639SOL    HW126816   3.598   3.468   0.329
 8639SOL    HW226817   3.660   3.473   0.178
 8640SOL     OW26818   2.910   2.994   0.795
 8640SOL    HW126819   2.874   3.086   0.780
 8640SOL    HW226820   2.859   2.928   0.739
 8641SOL     OW26821   4.311   5.113   1.957
 8641SOL    HW126822   4.324   5.192   1.898
 8641SOL    HW226823   4.340   5.030   1.908
 8642SOL     OW26824   1.225   5.200   3.064
 8642SOL    HW126825   1.137   5.157   3.046
 8642SOL    HW226826   1.220   5.298   3.045
 8643SOL     OW26827   3.957   6.326   1.218
 8643SOL    HW126828   3.881   6.363   1.272
 8643SOL    HW226829   3.974   6.231   1.246
 8644SOL     OW26830   6.358   1.991   5.895
 8644SOL    HW126831   6.316   1.943   5.972
 8644SOL    HW226832   6.371   1.927   5.819
 8645SOL     OW26833   5.641   5.125   2.815
 8645SOL    HW126834   5.674   5.056   2.880
 8645SOL    HW226835   5.545   5.145   2.833
 8646SOL     OW26836   6.612   2.135   4.639
 8646SOL    HW126837   6.568   2.197   4.574
 8646SOL    HW226838   6.683   2.082   4.592
 8647SOL     OW26839   2.114   5.433   1.609
 8647SOL    HW126840   2.170   5.350   1.615
 8647SOL    HW226841   2.131   5.490   1.690
 8648SOL     OW26842   4.965   4.479   0.700
 8648SOL    HW126843   4.952   4.549   0.630
 8648SOL    HW226844   4.930   4.392   0.666
 8649SOL     OW26845   5.515   0.854   1.326
 8649SOL    HW126846   5.424   0.894   1.340
 8649SOL    HW226847   5.534   0.849   1.228
 8650SOL     OW26848   2.472   6.734   5.625
 8650SOL    HW126849   2.474   6.713   5.527
 8650SOL    HW226850   2.380   6.767   5.649
 8651SOL     OW26851   4.446   2.703   1.736
 8651SOL    HW126852   4.483   2.677   1.826
 8651SOL    HW226853   4.514   2.758   1.688
 8652SOL     OW26854   1.413   2.912   3.827
 8652SOL    HW126855   1.382   3.002   3.856
 8652SOL    HW226856   1.343   2.870   3.769
 8653SOL     OW26857   6.327   2.050   6.790
 8653SOL    HW126858   6.300   2.120   6.856
 8653SOL    HW226859   6.424   2.029   6.801
 8654SOL     OW26860   0.439   4.840   2.661
 8654SOL    HW126861   0.384   4.760   2.684
 8654SOL    HW226862   0.534   4.823   2.685
 8655SOL     OW26863   6.927   0.714   4.648
 8655SOL    HW126864   6.829   0.702   4.633
 8655SOL    HW226865   6.973   0.625   4.645
 8656SOL     OW26866   4.698   7.011   1.172
 8656SOL    HW126867   4.661   6.965   1.091
 8656SOL    HW226868   4.676   0.087   1.168
 8657SOL     OW26869   3.768   1.404   2.911
 8657SOL    HW126870   3.763   1.363   3.002
 8657SOL    HW226871   3.823   1.487   2.914
 8658SOL     OW26872   5.645   4.256   0.988
 8658SOL    HW126873   5.548   4.247   1.010
 8658SOL    HW226874   5.656   4.266   0.889
 8659SOL     OW26875   2.899   1.027   2.424
 8659SOL    HW126876   2.863   0.987   2.509
 8659SOL    HW226877   2.849   0.989   2.346
 8660SOL     OW26878   0.880   4.426   1.998
 8660SOL    HW126879   0.960   4.440   1.939
 8660SOL    HW226880   0.893   4.476   2.084
 8661SOL     OW26881   6.770   3.819   2.289
 8661SOL    HW126882   6.770   3.852   2.383
 8661SOL    HW226883   6.676   3.799   2.260
 8662SOL     OW26884   1.903   3.869   3.685
 8662SOL    HW126885   1.859   3.790   3.643
 8662SOL    HW226886   2.000   3.850   3.699
 8663SOL     OW26887   4.167   5.477   2.312
 8663SOL    HW126888   4.182   5.384   2.280
 8663SOL    HW226889   4.253   5.528   2.308
 8664SOL     OW26890   3.992   6.005   3.346
 8664SOL    HW126891   3.958   5.969   3.433
 8664SOL    HW226892   4.060   6.077   3.364
 8665SOL     OW26893   5.576   3.405   6.294
 8665SOL    HW126894   5.625   3.365   6.372
 8665SOL    HW226895   5.520   3.481   6.326
 8666SOL     OW26896   4.800   0.005   2.254
 8666SOL    HW126897   4.748   0.045   2.330
 8666SOL    HW226898   4.737   7.006   2.179
 8667SOL     OW26899   4.845   2.210   2.703
 8667SOL    HW126900   4.769   2.274   2.714
 8667SOL    HW226901   4.873   2.208   2.607
 8668SOL     OW26902   4.885   2.526   4.973
 8668SOL    HW126903   4.826   2.452   5.004
 8668SOL    HW226904   4.828   2.604   4.947
 8669SOL     OW26905   6.631   6.317   6.221
 8669SOL    HW126906   6.716   6.331   6.170
 8669SOL    HW226907   6.586   6.404   6.236
 8670SOL     OW26908   6.392   4.704   5.719
 8670SOL    HW126909   6.360   4.726   5.811
 8670SOL    HW226910   6.450   4.778   5.685
 8671SOL     OW26911   0.823   3.446   3.207
 8671SOL    HW126912   0.798   3.354   3.237
 8671SOL    HW226913   0.904   3.477   3.256
 8672SOL     OW26914   0.308   0.978   2.396
 8672SOL    HW126915   0.335   1.074   2.402
 8672SOL    HW226916   0.344   0.939   2.312
 8673SOL     OW26917   0.700   2.301   1.576
 8673SOL    HW126918   0.735   2.366   1.508
 8673SOL    HW226919   0.615   2.336   1.616
 8674SOL     OW26920   0.108   3.922   3.477
 8674SOL    HW126921   0.062   3.880   3.400
 8674SOL    HW226922   0.103   4.022   3.469
 8675SOL     OW26923   4.273   2.082   4.734
 8675SOL    HW126924   4.217   2.065   4.652
 8675SOL    HW226925   4.231   2.038   4.813
 8676SOL     OW26926   5.397   1.547   0.788
 8676SOL    HW126927   5.449   1.498   0.718
 8676SOL    HW226928   5.429   1.520   0.879
 8677SOL     OW26929   2.355   6.886   5.882
 8677SOL    HW126930   2.436   6.904   5.939
 8677SOL    HW226931   2.360   6.940   5.798
 8678SOL     OW26932   1.638   2.103   0.204
 8678SOL    HW126933   1.721   2.079   0.152
 8678SOL    HW226934   1.619   2.200   0.194
 8679SOL     OW26935   1.537   2.001   6.275
 8679SOL    HW126936   1.503   2.044   6.191
 8679SOL    HW226937   1.596   2.065   6.324
 8680SOL     OW26938   6.803   0.939   0.302
 8680SOL    HW126939   6.789   0.842   0.324
 8680SOL    HW226940   6.764   0.959   0.213
 8681SOL     OW26941   5.387   6.278   1.455
 8681SOL    HW126942   5.330   6.355   1.427
 8681SOL    HW226943   5.463   6.268   1.390
 8682SOL     OW26944   1.905   0.710   1.942
 8682SOL    HW126945   1.968   0.686   1.869
 8682SOL    HW226946   1.951   0.700   2.031
 8683SOL     OW26947   2.366   4.771   4.808
 8683SOL    HW126948   2.392   4.687   4.854
 8683SOL    HW226949   2.437   4.797   4.743
 8684SOL     OW26950   2.306   4.508   4.584
 8684SOL    HW126951   2.319   4.465   4.673
 8684SOL    HW226952   2.315   4.440   4.511
 8685SOL     OW26953   4.737   2.509   4.471
 8685SOL    HW126954   4.729   2.410   4.486
 8685SOL    HW226955   4.827   2.539   4.501
 8686SOL     OW26956   0.900   5.161   3.434
 8686SOL    HW126957   0.850   5.199   3.512
 8686SOL    HW226958   0.838   5.150   3.357
 8687SOL     OW26959   5.525   4.383   5.681
 8687SOL    HW126960   5.534   4.329   5.765
 8687SOL    HW226961   5.431   4.378   5.648
 8688SOL     OW26962   1.294   3.714   4.851
 8688SOL    HW126963   1.291   3.761   4.939
 8688SOL    HW226964   1.202   3.709   4.813
 8689SOL     OW26965   4.061   3.460   6.665
 8689SOL    HW126966   3.961   3.460   6.659
 8689SOL    HW226967   4.093   3.368   6.688
 8690SOL     OW26968   1.654   2.635   2.787
 8690SOL    HW126969   1.647   2.734   2.788
 8690SOL    HW226970   1.745   2.607   2.821
 8691SOL     OW26971   3.701   2.590   5.669
 8691SOL    HW126972   3.700   2.605   5.767
 8691SOL    HW226973   3.757   2.510   5.647
 8692SOL     OW26974   4.493   1.951   5.286
 8692SOL    HW126975   4.403   1.906   5.289
 8692SOL    HW226976   4.500   2.005   5.203
 8693SOL     OW26977   6.726   6.965   6.089
 8693SOL    HW126978   6.768   0.019   6.138
 8693SOL    HW226979   6.791   6.927   6.023
 8694SOL     OW26980   5.053   2.965   5.261
 8694SOL    HW126981   5.046   3.057   5.222
 8694SOL    HW226982   5.060   2.898   5.188
 8695SOL     OW26983   3.733   4.500   0.047
 8695SOL    HW126984   3.717   4.531   0.141
 8695SOL    HW226985   3.706   4.404   0.038
 8696SOL     OW26986   2.961   5.381   5.729
 8696SOL    HW126987   2.920   5.367   5.639
 8696SOL    HW226988   2.991   5.293   5.766
 8697SOL     OW26989   1.741   3.498   5.506
 8697SOL    HW126990   1.710   3.585   5.467
 8697SOL    HW226991   1.754   3.509   5.605
 8698SOL     OW26992   4.867   5.493   6.186
 8698SOL    HW126993   4.771   5.467   6.185
 8698SOL    HW226994   4.878   5.575   6.242
 8699SOL     OW26995   1.768   2.638   0.065
 8699SOL    HW126996   1.758   2.672   6.993
 8699SOL    HW226997   1.827   2.558   0.065
 8700SOL     OW26998   1.490   0.686   3.886
 8700SOL    HW126999   1.422   0.760   3.885
 8700SOL    HW227000   1.513   0.663   3.981
 8701SOL     OW27001   1.309   2.653   6.944
 8701SOL    HW127002   1.220   2.694   6.963
 8701SOL    HW227003   1.379   2.698   6.999
 8702SOL     OW27004   5.310   4.682   0.950
 8702SOL    HW127005   5.215   4.674   0.920
 8702SOL    HW227006   5.346   4.772   0.925
 8703SOL     OW27007   2.697   5.752   0.742
 8703SOL    HW127008   2.775   5.711   0.695
 8703SOL    HW227009   2.670   5.694   0.819
 8704SOL     OW27010   0.798   1.141   5.212
 8704SOL    HW127011   0.803   1.135   5.112
 8704SOL    HW227012   0.750   1.061   5.247
 8705SOL     OW27013   3.961   2.032   6.771
 8705SOL    HW127014   4.040   1.990   6.815
 8705SOL    HW227015   3.992   2.101   6.706
 8706SOL     OW27016   4.727   3.352   6.392
 8706SOL    HW127017   4.784   3.270   6.397
 8706SOL    HW227018   4.722   3.384   6.297
 8707SOL     OW27019   2.233   1.439   4.708
 8707SOL    HW127020   2.291   1.520   4.713
 8707SOL    HW227021   2.144   1.459   4.749
 8708SOL     OW27022   5.629   2.811   0.347
 8708SOL    HW127023   5.635   2.857   0.259
 8708SOL    HW227024   5.671   2.720   0.340
 8709SOL     OW27025   5.677   6.979   5.133
 8709SOL    HW127026   5.591   7.017   5.100
 8709SOL    HW227027   5.658   6.903   5.196
 8710SOL     OW27028   1.915   1.685   3.461
 8710SOL    HW127029   1.852   1.607   3.457
 8710SOL    HW227030   2.005   1.654   3.493
 8711SOL     OW27031   1.342   1.481   1.870
 8711SOL    HW127032   1.395   1.556   1.831
 8711SOL    HW227033   1.364   1.396   1.821
 8712SOL     OW27034   1.144   3.882   5.335
 8712SOL    HW127035   1.101   3.824   5.404
 8712SOL    HW227036   1.137   3.838   5.245
 8713SOL     OW27037   0.328   3.530   1.117
 8713SOL    HW127038   0.250   3.579   1.078
 8713SOL    HW227039   0.323   3.434   1.091
 8714SOL     OW27040   6.806   5.454   6.850
 8714SOL    HW127041   6.726   5.444   6.909
 8714SOL    HW227042   6.793   5.533   6.789
 8715SOL     OW27043   1.842   3.670   1.909
 8715SOL    HW127044   1.939   3.669   1.932
 8715SOL    HW227045   1.830   3.655   1.811
 8716SOL     OW27046   6.576   0.285   1.949
 8716SOL    HW127047   6.524   0.200   1.958
 8716SOL    HW227048   6.520   0.354   1.902
 8717SOL     OW27049   2.698   3.126   0.006
 8717SOL    HW127050   2.667   3.107   6.934
 8717SOL    HW227051   2.622   3.111   0.069
 8718SOL     OW27052   2.671   4.994   6.355
 8718SOL    HW127053   2.648   5.035   6.443
 8718SOL    HW227054   2.744   4.927   6.367
 8719SOL     OW27055   3.636   1.074   4.661
 8719SOL    HW127056   3.695   1.071   4.579
 8719SOL    HW227057   3.555   1.128   4.641
 8720SOL     OW27058   0.039   4.873   4.882
 8720SOL    HW127059   0.034   4.944   4.952
 8720SOL    HW227060   6.968   4.844   4.857
 8721SOL     OW27061   0.481   7.013   6.984
 8721SOL    HW127062   0.567   6.988   0.007
 8721SOL    HW227063   0.408   6.955   7.019
 8722SOL     OW27064   3.084   0.984   0.357
 8722SOL    HW127065   3.122   0.896   0.328
 8722SOL    HW227066   3.142   1.023   0.429
 8723SOL     OW27067   3.875   0.053   2.640
 8723SOL    HW127068   3.897   0.061   2.543
 8723SOL    HW227069   3.952   0.012   2.688
 8724SOL     OW27070   3.741   1.321   4.394
 8724SOL    HW127071   3.736   1.227   4.428
 8724SOL    HW227072   3.801   1.325   4.314
 8725SOL     OW27073   7.017   6.668   3.751
 8725SOL    HW127074   7.016   6.679   3.851
 8725SOL    HW227075   0.021   6.574   3.729
 8726SOL     OW27076   0.058   1.294   0.884
 8726SOL    HW127077   0.134   1.272   0.823
 8726SOL    HW227078   7.001   1.323   0.829
 8727SOL     OW27079   5.114   6.512   6.330
 8727SOL    HW127080   5.110   6.599   6.381
 8727SOL    HW227081   5.037   6.454   6.358
 8728SOL     OW27082   6.496   0.333   4.394
 8728SOL    HW127083   6.441   0.415   4.379
 8728SOL    HW227084   6.528   0.298   4.306
 8729SOL     OW27085   5.510   6.045   6.314
 8729SOL    HW127086   5.577   6.069   6.243
 8729SOL    HW227087   5.427   6.099   6.301
 8730SOL     OW27088   4.714   5.252   1.549
 8730SOL    HW127089   4.616   5.262   1.529
 8730SOL    HW227090   4.766   5.257   1.463
 8731SOL     OW27091   6.546   1.591   3.769
 8731SOL    HW127092   6.452   1.567   3.792
 8731SOL    HW227093   6.600   1.596   3.853
 8732SOL     OW27094   6.040   6.837   0.020
 8732SOL    HW127095   5.945   6.831   7.010
 8732SOL    HW227096   6.079   6.745   0.023
 8733SOL     OW27097   6.586   4.275   2.925
 8733SOL    HW127098   6.554   4.266   3.020
 8733SOL    HW227099   6.507   4.294   2.866
 8734SOL     OW27100   0.616   4.043   1.941
 8734SOL    HW127101   0.684   4.112   1.916
 8734SOL    HW227102   0.662   3.957   1.962
 8735SOL     OW27103   0.015   2.831   4.973
 8735SOL    HW127104   0.045   2.739   4.945
 8735SOL    HW227105   0.047   2.849   5.066
 8736SOL     OW27106   1.110   6.210   3.289
 8736SOL    HW127107   1.197   6.236   3.330
 8736SOL    HW227108   1.094   6.112   3.304
 8737SOL     OW27109   1.134   5.747   0.377
 8737SOL    HW127110   1.198   5.675   0.403
 8737SOL    HW227111   1.043   5.725   0.413
 8738SOL     OW27112   1.508   3.106   3.371
 8738SOL    HW127113   1.568   3.028   3.382
 8738SOL    HW227114   1.506   3.135   3.275
 8739SOL     OW27115   5.721   4.667   4.908
 8739SOL    HW127116   5.731   4.764   4.885
 8739SOL    HW227117   5.629   4.650   4.942
 8740SOL     OW27118   3.028   0.618   4.707
 8740SOL    HW127119   2.942   0.631   4.659
 8740SOL    HW227120   3.034   0.682   4.784
 8741SOL     OW27121   0.825   1.083   3.121
 8741SOL    HW127122   0.770   1.167   3.127
 8741SOL    HW227123   0.906   1.100   3.065
 8742SOL     OW27124   2.756   1.800   1.858
 8742SOL    HW127125   2.735   1.890   1.821
 8742SOL    HW227126   2.851   1.776   1.836
 8743SOL     OW27127   0.822   2.754   1.534
 8743SOL    HW127128   0.896   2.815   1.506
 8743SOL    HW227129   0.830   2.733   1.631
 8744SOL     OW27130   3.376   4.245   5.717
 8744SOL    HW127131   3.333   4.157   5.736
 8744SOL    HW227132   3.474   4.240   5.738
 8745SOL     OW27133   5.955   1.385   6.003
 8745SOL    HW127134   6.033   1.345   6.050
 8745SOL    HW227135   5.894   1.428   6.069
 8746SOL     OW27136   4.221   4.904   5.544
 8746SOL    HW127137   4.243   4.857   5.629
 8746SOL    HW227138   4.305   4.922   5.493
 8747SOL     OW27139   0.793   0.428   2.781
 8747SOL    HW127140   0.748   0.445   2.869
 8747SOL    HW227141   0.785   0.332   2.757
 8748SOL     OW27142   5.828   1.888   4.136
 8748SOL    HW127143   5.797   1.972   4.180
 8748SOL    HW227144   5.894   1.911   4.065
 8749SOL     OW27145   2.598   0.891   3.614
 8749SOL    HW127146   2.654   0.966   3.579
 8749SOL    HW227147   2.639   0.855   3.697
 8750SOL     OW27148   3.467   3.823   0.669
 8750SOL    HW127149   3.563   3.807   0.690
 8750SOL    HW227150   3.411   3.752   0.711
 8751SOL     OW27151   2.572   6.722   0.707
 8751SOL    HW127152   2.536   6.792   0.770
 8751SOL    HW227153   2.596   6.640   0.759
 8752SOL     OW27154   6.728   2.649   5.372
 8752SOL    HW127155   6.689   2.707   5.444
 8752SOL    HW227156   6.696   2.555   5.384
 8753SOL     OW27157   2.832   2.452   0.782
 8753SOL    HW127158   2.772   2.531   0.793
 8753SOL    HW227159   2.927   2.482   0.794
 8754SOL     OW27160   1.607   5.445   0.064
 8754SOL    HW127161   1.523   5.391   0.073
 8754SOL    HW227162   1.680   5.387   0.027
 8755SOL     OW27163   0.684   2.926   2.005
 8755SOL    HW127164   0.732   3.002   1.961
 8755SOL    HW227165   0.585   2.940   1.997
 8756SOL     OW27166   1.512   1.713   1.848
 8756SOL    HW127167   1.611   1.704   1.837
 8756SOL    HW227168   1.492   1.800   1.893
 8757SOL     OW27169   4.981   5.954   5.767
 8757SOL    HW127170   4.893   5.934   5.811
 8757SOL    HW227171   5.005   6.050   5.782
 8758SOL     OW27172   3.416   5.791   5.348
 8758SOL    HW127173   3.379   5.723   5.413
 8758SOL    HW227174   3.348   5.862   5.333
 8759SOL     OW27175   6.101   1.214   0.787
 8759SOL    HW127176   6.109   1.133   0.728
 8759SOL    HW227177   6.017   1.264   0.764
 8760SOL     OW27178   2.519   2.523   4.192
 8760SOL    HW127179   2.602   2.576   4.176
 8760SOL    HW227180   2.462   2.524   4.109
 8761SOL     OW27181   4.997   1.653   2.774
 8761SOL    HW127182   4.941   1.712   2.717
 8761SOL    HW227183   4.968   1.661   2.869
 8762SOL     OW27184   3.031   4.853   3.331
 8762SOL    HW127185   3.055   4.907   3.412
 8762SOL    HW227186   3.105   4.859   3.264
 8763SOL     OW27187   0.454   0.872   6.673
 8763SOL    HW127188   0.465   0.777   6.703
 8763SOL    HW227189   0.533   0.925   6.701
 8764SOL     OW27190   2.784   5.077   5.615
 8764SOL    HW127191   2.832   5.076   5.528
 8764SOL    HW227192   2.759   5.171   5.639
 8765SOL     OW27193   4.076   6.623   4.188
 8765SOL    HW127194   3.977   6.607   4.187
 8765SOL    HW227195   4.098   6.688   4.262
 8766SOL     OW27196   4.965   6.844   6.149
 8766SOL    HW127197   5.064   6.851   6.143
 8766SOL    HW227198   4.936   6.750   6.129
 8767SOL     OW27199   1.603   0.931   3.621
 8767SOL    HW127200   1.606   0.960   3.525
 8767SOL    HW227201   1.688   0.957   3.666
 8768SOL     OW27202   0.077   2.089   6.747
 8768SOL    HW127203   0.087   2.184   6.778
 8768SOL    HW227204   0.099   2.083   6.650
 8769SOL     OW27205   6.221   0.106   0.418
 8769SOL    HW127206   6.297   0.048   0.386
 8769SOL    HW227207   6.135   0.070   0.383
 8770SOL     OW27208   5.145   2.481   0.506
 8770SOL    HW127209   5.144   2.470   0.407
 8770SOL    HW227210   5.064   2.533   0.535
 8771SOL     OW27211   0.436   2.486   6.839
 8771SOL    HW127212   0.516   2.533   6.800
 8771SOL    HW227213   0.354   2.515   6.791
 8772SOL     OW27214   0.097   0.003   4.540
 8772SOL    HW127215   0.179   0.019   4.486
 8772SOL    HW227216   0.016   0.018   4.484
 8773SOL     OW27217   0.258   0.767   4.708
 8773SOL    HW127218   0.315   0.749   4.628
 8773SOL    HW227219   0.298   0.842   4.761
 8774SOL     OW27220   1.225   1.158   0.132
 8774SOL    HW127221   1.303   1.120   0.083
 8774SOL    HW227222   1.157   1.190   0.066
 8775SOL     OW27223   5.876   2.772   3.330
 8775SOL    HW127224   5.897   2.818   3.416
 8775SOL    HW227225   5.930   2.688   3.323
 8776SOL     OW27226   4.572   2.582   0.333
 8776SOL    HW127227   4.577   2.592   0.432
 8776SOL    HW227228   4.548   2.487   0.310
 8777SOL     OW27229   6.724   2.038   2.721
 8777SOL    HW127230   6.639   2.090   2.722
 8777SOL    HW227231   6.777   2.060   2.804
 8778SOL     OW27232   3.283   4.393   7.017
 8778SOL    HW127233   3.317   4.447   6.940
 8778SOL    HW227234   3.353   4.388   0.066
 8779SOL     OW27235   4.458   4.709   2.839
 8779SOL    HW127236   4.456   4.694   2.740
 8779SOL    HW227237   4.366   4.735   2.870
 8780SOL     OW27238   0.289   4.461   3.782
 8780SOL    HW127239   0.276   4.363   3.771
 8780SOL    HW227240   0.355   4.479   3.855
 8781SOL     OW27241   2.757   0.889   1.410
 8781SOL    HW127242   2.698   0.919   1.335
 8781SOL    HW227243   2.763   0.962   1.479
 8782SOL     OW27244   5.767   2.305   0.681
 8782SOL    HW127245   5.701   2.356   0.624
 8782SOL    HW227246   5.724   2.284   0.769
 8783SOL     OW27247   5.248   3.760   4.523
 8783SOL    HW127248   5.178   3.776   4.592
 8783SOL    HW227249   5.337   3.790   4.558
 8784SOL     OW27250   4.932   0.548   0.768
 8784SOL    HW127251   4.985   0.626   0.734
 8784SOL    HW227252   4.883   0.575   0.850
 8785SOL     OW27253   7.014   5.356   5.012
 8785SOL    HW127254   6.997   5.317   5.102
 8785SOL    HW227255   6.993   5.454   5.014
 8786SOL     OW27256   5.132   1.551   2.255
 8786SOL    HW127257   5.051   1.590   2.298
 8786SOL    HW227258   5.105   1.485   2.185
 8787SOL     OW27259   3.946   5.487   0.995
 8787SOL    HW127260   3.987   5.397   0.982
 8787SOL    HW227261   3.982   5.551   0.927
 8788SOL     OW27262   0.308   0.029   3.765
 8788SOL    HW127263   0.237   0.092   3.796
 8788SOL    HW227264   0.267   6.982   3.703
 8789SOL     OW27265   0.806   2.634   6.149
 8789SOL    HW127266   0.839   2.613   6.057
 8789SOL    HW227267   0.855   2.713   6.185
 8790SOL     OW27268   4.282   2.786   5.515
 8790SOL    HW127269   4.238   2.866   5.474
 8790SOL    HW227270   4.364   2.763   5.462
 8791SOL     OW27271   3.325   6.242   4.527
 8791SOL    HW127272   3.249   6.206   4.582
 8791SOL    HW227273   3.290   6.282   4.443
 8792SOL     OW27274   5.124   4.358   1.796
 8792SOL    HW127275   5.196   4.302   1.836
 8792SOL    HW227276   5.148   4.455   1.805
 8793SOL     OW27277   6.661   6.267   4.903
 8793SOL    HW127278   6.606   6.347   4.883
 8793SOL    HW227279   6.684   6.220   4.818
 8794SOL     OW27280   6.553   1.049   2.285
 8794SOL    HW127281   6.614   1.046   2.364
 8794SOL    HW227282   6.587   0.986   2.215
 8795SOL     OW27283   1.595   6.249   6.825
 8795SOL    HW127284   1.567   6.339   6.790
 8795SOL    HW227285   1.537   6.224   6.903
 8796SOL     OW27286   6.210   3.726   4.383
 8796SOL    HW127287   6.126   3.671   4.394
 8796SOL    HW227288   6.243   3.753   4.473
 8797SOL     OW27289   4.622   6.509   3.773
 8797SOL    HW127290   4.697   6.444   3.759
 8797SOL    HW227291   4.625   6.542   3.868
 8798SOL     OW27292   2.936   6.514   5.680
 8798SOL    HW127293   3.005   6.552   5.742
 8798SOL    HW227294   2.871   6.460   5.733
 8799SOL     OW27295   1.657   5.739   1.977
 8799SOL    HW127296   1.628   5.715   1.885
 8799SOL    HW227297   1.633   5.666   2.040
 8800SOL     OW27298   6.553   6.257   5.399
 8800SOL    HW127299   6.610   6.340   5.394
 8800SOL    HW227300   6.562   6.216   5.490
 8801SOL     OW27301   5.966   3.551   5.697
 8801SOL    HW127302   5.936   3.628   5.640
 8801SOL    HW227303   6.037   3.582   5.760
 8802SOL     OW27304   1.365   5.860   6.330
 8802SOL    HW127305   1.267   5.855   6.313
 8802SOL    HW227306   1.390   5.955   6.349
 8803SOL     OW27307   6.289   6.146   5.840
 8803SOL    HW127308   6.326   6.231   5.803
 8803SOL    HW227309   6.195   6.160   5.870
 8804SOL     OW27310   2.169   6.092   2.412
 8804SOL    HW127311   2.121   6.062   2.494
 8804SOL    HW227312   2.145   6.187   2.392
 8805SOL     OW27313   5.640   4.773   3.301
 8805SOL    HW127314   5.607   4.689   3.344
 8805SOL    HW227315   5.598   4.852   3.346
 8806SOL     OW27316   1.378   0.245   1.381
 8806SOL    HW127317   1.310   0.311   1.348
 8806SOL    HW227318   1.469   0.285   1.374
 8807SOL     OW27319   5.612   3.181   0.811
 8807SOL    HW127320   5.590   3.084   0.813
 8807SOL    HW227321   5.581   3.224   0.896
 8808SOL     OW27322   1.482   2.245   6.634
 8808SOL    HW127323   1.388   2.218   6.612
 8808SOL    HW227324   1.498   2.235   6.732
 8809SOL     OW27325   0.389   3.773   3.052
 8809SOL    HW127326   0.451   3.696   3.068
 8809SOL    HW227327   0.435   3.858   3.075
 8810SOL     OW27328   0.637   1.212   5.534
 8810SOL    HW127329   0.684   1.272   5.469
 8810SOL    HW227330   0.589   1.267   5.602
 8811SOL     OW27331   4.432   4.605   2.578
 8811SOL    HW127332   4.459   4.652   2.493
 8811SOL    HW227333   4.505   4.543   2.606
 8812SOL     OW27334   4.867   1.085   6.425
 8812SOL    HW127335   4.920   1.136   6.494
 8812SOL    HW227336   4.927   1.061   6.349
 8813SOL     OW27337   2.143   3.794   3.470
 8813SOL    HW127338   2.148   3.702   3.509
 8813SOL    HW227339   2.155   3.789   3.371
 8814SOL     OW27340   4.815   6.735   5.194
 8814SOL    HW127341   4.780   6.674   5.265
 8814SOL    HW227342   4.787   6.829   5.213
 8815SOL     OW27343   5.552   1.195   0.885
 8815SOL    HW127344   5.540   1.288   0.850
 8815SOL    HW227345   5.463   1.153   0.900
 8816SOL     OW27346   0.766   5.821   4.887
 8816SOL    HW127347   0.747   5.901   4.943
 8816SOL    HW227348   0.774   5.740   4.946
 8817SOL     OW27349   1.443   3.474   3.787
 8817SOL    HW127350   1.448   3.428   3.698
 8817SOL    HW227351   1.508   3.549   3.789
 8818SOL     OW27352   0.784   0.241   5.818
 8818SOL    HW127353   0.829   0.289   5.742
 8818SOL    HW227354   0.685   0.238   5.801
 8819SOL     OW27355   5.081   5.184   6.588
 8819SOL    HW127356   5.091   5.202   6.490
 8819SOL    HW227357   4.985   5.176   6.612
 8820SOL     OW27358   3.902   6.937   5.931
 8820SOL    HW127359   3.832   6.866   5.935
 8820SOL    HW227360   3.858   0.006   5.927
 8821SOL     OW27361   6.920   4.474   6.333
 8821SOL    HW127362   6.888   4.484   6.238
 8821SOL    HW227363   6.991   4.404   6.337
 8822SOL     OW27364   6.041   0.643   4.272
 8822SOL    HW127365   6.130   0.687   4.275
 8822SOL    HW227366   6.049   0.551   4.233
 8823SOL     OW27367   3.468   0.899   2.943
 8823SOL    HW127368   3.484   0.836   2.867
 8823SOL    HW227369   3.507   0.988   2.921
 8824SOL     OW27370   1.107   0.387   2.586
 8824SOL    HW127371   1.087   0.406   2.682
 8824SOL    HW227372   1.048   0.443   2.528
 8825SOL     OW27373   0.373   6.993   0.381
 8825SOL    HW127374   0.323   0.056   0.394
 8825SOL    HW227375   0.343   6.926   0.449
 8826SOL     OW27376   0.947   4.347   1.011
 8826SOL    HW127377   0.881   4.273   0.997
 8826SOL    HW227378   0.990   4.369   0.923
 8827SOL     OW27379   4.749   0.254   3.021
 8827SOL    HW127380   4.722   0.158   3.030
 8827SOL    HW227381   4.724   0.286   2.930
 8828SOL     OW27382   5.238   2.792   6.353
 8828SOL    HW127383   5.210   2.744   6.270
 8828SOL    HW227384   5.172   2.773   6.426
 8829SOL     OW27385   6.941   0.856   2.067
 8829SOL    HW127386   6.975   0.926   2.003
 8829SOL    HW227387   6.901   0.781   2.015
 8830SOL     OW27388   3.336   0.677   3.374
 8830SOL    HW127389   3.313   0.774   3.363
 8830SOL    HW227390   3.380   0.644   3.290
 8831SOL     OW27391   0.413   2.983   1.985
 8831SOL    HW127392   0.369   3.058   2.034
 8831SOL    HW227393   0.399   2.898   2.036
 8832SOL     OW27394   5.362   0.526   5.452
 8832SOL    HW127395   5.360   0.492   5.546
 8832SOL    HW227396   5.304   0.467   5.395
 8833SOL     OW27397   5.215   2.336   1.604
 8833SOL    HW127398   5.236   2.343   1.701
 8833SOL    HW227399   5.195   2.240   1.582
 8834SOL     OW27400   5.917   3.815   5.553
 8834SOL    HW127401   5.928   3.782   5.459
 8834SOL    HW227402   5.987   3.884   5.572
 8835SOL     OW27403   6.714   0.749   5.514
 8835SOL    HW127404   6.749   0.684   5.446
 8835SOL    HW227405   6.712   0.704   5.604
 8836SOL     OW27406   4.491   1.253   1.607
 8836SOL    HW127407   4.539   1.203   1.535
 8836SOL    HW227408   4.501   1.205   1.694
 8837SOL     OW27409   3.607   6.556   0.736
 8837SOL    HW127410   3.596   6.614   0.655
 8837SOL    HW227411   3.601   6.460   0.708
 8838SOL     OW27412   1.722   3.913   4.168
 8838SOL    HW127413   1.801   3.968   4.194
 8838SOL    HW227414   1.655   3.971   4.121
 8839SOL     OW27415   5.329   5.874   2.508
 8839SOL    HW127416   5.408   5.890   2.450
 8839SOL    HW227417   5.269   5.806   2.464
 8840SOL     OW27418   6.560   0.635   0.948
 8840SOL    HW127419   6.551   0.550   0.896
 8840SOL    HW227420   6.646   0.680   0.923
 8841SOL     OW27421   3.620   0.692   0.904
 8841SOL    HW127422   3.633   0.597   0.932
 8841SOL    HW227423   3.701   0.745   0.927
 8842SOL     OW27424   4.000   3.869   4.590
 8842SOL    HW127425   4.076   3.860   4.525
 8842SOL    HW227426   3.945   3.785   4.589
 8843SOL     OW27427   2.893   6.074   6.796
 8843SOL    HW127428   2.940   6.143   6.742
 8843SOL    HW227429   2.800   6.062   6.762
 8844SOL     OW27430   3.583   2.354   6.392
 8844SOL    HW127431   3.658   2.302   6.433
 8844SOL    HW227432   3.578   2.444   6.435
 8845SOL     OW27433   0.082   3.689   2.180
 8845SOL    HW127434   0.168   3.717   2.222
 8845SOL    HW227435   0.032   3.769   2.149
 8846SOL     OW27436   5.517   3.785   4.594
 8846SOL    HW127437   5.554   3.851   4.660
 8846SOL    HW227438   5.549   3.808   4.502
 8847SOL     OW27439   1.696   2.161   3.624
 8847SOL    HW127440   1.723   2.089   3.560
 8847SOL    HW227441   1.776   2.191   3.676
 8848SOL     OW27442   5.440   1.095   0.131
 8848SOL    HW127443   5.369   1.165   0.122
 8848SOL    HW227444   5.530   1.136   0.111
 8849SOL     OW27445   2.930   5.009   4.471
 8849SOL    HW127446   2.963   5.103   4.476
 8849SOL    HW227447   2.902   4.978   4.562
 8850SOL     OW27448   3.332   1.286   1.249
 8850SOL    HW127449   3.350   1.188   1.240
 8850SOL    HW227450   3.383   1.321   1.328
 8851SOL     OW27451   6.605   4.556   2.036
 8851SOL    HW127452   6.546   4.507   2.100
 8851SOL    HW227453   6.607   4.508   1.948
 8852SOL     OW27454   4.503   2.612   4.728
 8852SOL    HW127455   4.404   2.616   4.734
 8852SOL    HW227456   4.531   2.540   4.665
 8853SOL     OW27457   4.480   1.713   5.807
 8853SOL    HW127458   4.406   1.771   5.774
 8853SOL    HW227459   4.567   1.747   5.770
 8854SOL     OW27460   1.562   1.416   0.074
 8854SOL    HW127461   1.564   1.489   0.006
 8854SOL    HW227462   1.499   1.344   0.044
 8855SOL     OW27463   6.243   4.604   0.095
 8855SOL    HW127464   6.261   4.662   0.015
 8855SOL    HW227465   6.226   4.510   0.065
 8856SOL     OW27466   5.424   1.269   4.625
 8856SOL    HW127467   5.518   1.298   4.639
 8856SOL    HW227468   5.414   1.173   4.651
 8857SOL     OW27469   6.956   2.498   4.692
 8857SOL    HW127470   6.906   2.584   4.706
 8857SOL    HW227471   6.893   2.421   4.700
 8858SOL     OW27472   6.815   4.174   6.284
 8858SOL    HW127473   6.724   4.141   6.309
 8858SOL    HW227474   6.806   4.258   6.231
 8859SOL     OW27475   2.853   5.087   5.305
 8859SOL    HW127476   2.763   5.069   5.266
 8859SOL    HW227477   2.916   5.014   5.279
 8860SOL     OW27478   1.744   2.563   1.745
 8860SOL    HW127479   1.789   2.647   1.776
 8860SOL    HW227480   1.700   2.518   1.823
 8861SOL     OW27481   3.014   2.832   0.498
 8861SOL    HW127482   3.062   2.747   0.474
 8861SOL    HW227483   2.922   2.810   0.529
 8862SOL     OW27484   6.831   2.002   4.461
 8862SOL    HW127485   6.897   1.933   4.492
 8862SOL    HW227486   6.783   1.967   4.381
 8863SOL     OW27487   1.261   5.579   4.931
 8863SOL    HW127488   1.335   5.579   4.998
 8863SOL    HW227489   1.280   5.644   4.858
 8864SOL     OW27490   1.396   3.235   5.695
 8864SOL    HW127491   1.320   3.175   5.670
 8864SOL    HW227492   1.482   3.194   5.664
 8865SOL     OW27493   2.272   2.138   5.885
 8865SOL    HW127494   2.321   2.171   5.804
 8865SOL    HW227495   2.332   2.081   5.940
 8866SOL     OW27496   4.093   6.431   5.697
 8866SOL    HW127497   4.014   6.490   5.716
 8866SOL    HW227498   4.097   6.412   5.599
 8867SOL     OW27499   6.501   2.048   3.739
 8867SOL    HW127500   6.586   2.023   3.784
 8867SOL    HW227501   6.463   1.969   3.692
 8868SOL     OW27502   4.403   3.876   1.409
 8868SOL    HW127503   4.381   3.972   1.427
 8868SOL    HW227504   4.415   3.828   1.496
 8869SOL     OW27505   4.819   3.093   3.687
 8869SOL    HW127506   4.850   3.006   3.649
 8869SOL    HW227507   4.824   3.164   3.617
 8870SOL     OW27508   3.893   1.291   0.868
 8870SOL    HW127509   3.838   1.347   0.929
 8870SOL    HW227510   3.975   1.341   0.841
 8871SOL     OW27511   1.433   2.022   4.273
 8871SOL    HW127512   1.474   1.953   4.212
 8871SOL    HW227513   1.411   1.980   4.361
 8872SOL     OW27514   1.725   3.408   3.476
 8872SOL    HW127515   1.760   3.347   3.546
 8872SOL    HW227516   1.626   3.395   3.467
 8873SOL     OW27517   6.590   6.551   5.018
 8873SOL    HW127518   6.555   6.494   4.944
 8873SOL    HW227519   6.605   6.644   4.985
 8874SOL     OW27520   1.390   1.524   0.294
 8874SOL    HW127521   1.377   1.473   0.378
 8874SOL    HW227522   1.446   1.471   0.230
 8875SOL     OW27523   1.766   1.322   3.813
 8875SOL    HW127524   1.730   1.397   3.757
 8875SOL    HW227525   1.724   1.236   3.784
 8876SOL     OW27526   2.148   0.426   4.040
 8876SOL    HW127527   2.110   0.378   4.119
 8876SOL    HW227528   2.247   0.416   4.040
 8877SOL     OW27529   3.483   6.399   4.785
 8877SOL    HW127530   3.519   6.339   4.713
 8877SOL    HW227531   3.400   6.442   4.752
 8878SOL     OW27532   5.890   4.772   6.172
 8878SOL    HW127533   5.976   4.785   6.123
 8878SOL    HW227534   5.835   4.855   6.165
 8879SOL     OW27535   4.694   5.632   4.919
 8879SOL    HW127536   4.723   5.718   4.876
 8879SOL    HW227537   4.717   5.634   5.016
 8880SOL     OW27538   0.146   5.276   5.435
 8880SOL    HW127539   0.078   5.263   5.363
 8880SOL    HW227540   0.101   5.317   5.515
 8881SOL     OW27541   6.816   0.652   1.956
 8881SOL    HW127542   6.818   0.636   1.858
 8881SOL    HW227543   6.721   0.653   1.988
 8882SOL     OW27544   6.061   1.959   6.187
 8882SOL    HW127545   6.158   1.940   6.172
 8882SOL    HW227546   6.051   2.028   6.259
 8883SOL     OW27547   6.698   1.181   5.305
 8883SOL    HW127548   6.661   1.089   5.297
 8883SOL    HW227549   6.716   1.218   5.214
 8884SOL     OW27550   6.277   0.632   5.549
 8884SOL    HW127551   6.312   0.624   5.642
 8884SOL    HW227552   6.306   0.553   5.495
 8885SOL     OW27553   5.162   3.571   1.680
 8885SOL    HW127554   5.098   3.616   1.618
 8885SOL    HW227555   5.161   3.472   1.664
 8886SOL     OW27556   3.308   6.426   6.438
 8886SOL    HW127557   3.262   6.348   6.481
 8886SOL    HW227558   3.404   6.403   6.422
 8887SOL     OW27559   1.784   0.556   1.383
 8887SOL    HW127560   1.715   0.625   1.404
 8887SOL    HW227561   1.849   0.594   1.317
 8888SOL     OW27562   3.552   0.932   3.277
 8888SOL    HW127563   3.602   0.973   3.354
 8888SOL    HW227564   3.490   0.999   3.238
 8889SOL     OW27565   3.760   6.730   5.108
 8889SOL    HW127566   3.670   6.762   5.139
 8889SOL    HW227567   3.759   6.716   5.010
 8890SOL     OW27568   1.185   4.671   4.555
 8890SOL    HW127569   1.160   4.588   4.605
 8890SOL    HW227570   1.141   4.750   4.597
 8891SOL     OW27571   2.635   1.990   6.914
 8891SOL    HW127572   2.685   2.043   6.982
 8891SOL    HW227573   2.615   1.899   6.951
 8892SOL     OW27574   1.133   6.742   2.404
 8892SOL    HW127575   1.231   6.738   2.425
 8892SOL    HW227576   1.118   6.715   2.309
 8893SOL     OW27577   0.647   1.500   1.834
 8893SOL    HW127578   0.670   1.405   1.855
 8893SOL    HW227579   0.707   1.561   1.885
 8894SOL     OW27580   3.775   3.499   6.575
 8894SOL    HW127581   3.758   3.512   6.478
 8894SOL    HW227582   3.769   3.588   6.621
 8895SOL     OW27583   0.678   0.243   1.903
 8895SOL    HW127584   0.634   0.274   1.987
 8895SOL    HW227585   0.619   0.179   1.855
 8896SOL     OW27586   2.102   4.023   5.291
 8896SOL    HW127587   2.140   4.013   5.200
 8896SOL    HW227588   2.128   3.945   5.348
 8897SOL     OW27589   1.511   2.293   1.719
 8897SOL    HW127590   1.571   2.256   1.790
 8897SOL    HW227591   1.440   2.349   1.761
 8898SOL     OW27592   6.790   2.938   4.957
 8898SOL    HW127593   6.884   2.906   4.962
 8898SOL    HW227594   6.741   2.909   5.039
 8899SOL     OW27595   2.626   4.182   0.005
 8899SOL    HW127596   2.529   4.180   7.004
 8899SOL    HW227597   2.637   4.189   0.105
 8900SOL     OW27598   5.922   2.008   3.211
 8900SOL    HW127599   5.840   2.030   3.262
 8900SOL    HW227600   5.944   1.911   3.223
 8901SOL     OW27601   2.512   6.367   2.499
 8901SOL    HW127602   2.609   6.343   2.495
 8901SOL    HW227603   2.464   6.322   2.424
 8902SOL     OW27604   1.900   5.379   6.254
 8902SOL    HW127605   1.905   5.465   6.304
 8902SOL    HW227606   1.805   5.350   6.247
 8903SOL     OW27607   0.914   2.106   4.048
 8903SOL    HW127608   1.002   2.070   4.016
 8903SOL    HW227609   0.869   2.156   3.975
 8904SOL     OW27610   0.735   5.314   3.589
 8904SOL    HW127611   0.704   5.400   3.548
 8904SOL    HW227612   0.772   5.331   3.680
 8905SOL     OW27613   2.727   4.090   5.317
 8905SOL    HW127614   2.654   4.123   5.377
 8905SOL    HW227615   2.697   4.006   5.271
 8906SOL     OW27616   1.550   5.051   5.144
 8906SOL    HW127617   1.462   5.016   5.111
 8906SOL    HW227618   1.619   5.041   5.073
 8907SOL     OW27619   4.003   2.770   5.694
 8907SOL    HW127620   3.973   2.862   5.670
 8907SOL    HW227621   4.099   2.773   5.723
 8908SOL     OW27622   0.198   2.871   1.440
 8908SOL    HW127623   0.261   2.892   1.366
 8908SOL    HW227624   0.143   2.953   1.461
 8909SOL     OW27625   3.075   6.599   5.909
 8909SOL    HW127626   3.009   6.596   5.984
 8909SOL    HW227627   3.158   6.645   5.941
 8910SOL     OW27628   3.873   3.905   6.417
 8910SOL    HW127629   3.793   3.861   6.456
 8910SOL    HW227630   3.868   4.004   6.431
 8911SOL     OW27631   3.682   2.111   3.963
 8911SOL    HW127632   3.596   2.161   3.962
 8911SOL    HW227633   3.730   2.130   4.049
 8912SOL     OW27634   5.280   2.509   6.174
 8912SOL    HW127635   5.351   2.454   6.131
 8912SOL    HW227636   5.282   2.495   6.273
 8913SOL     OW27637   4.977   3.883   0.997
 8913SOL    HW127638   5.030   3.818   0.944
 8913SOL    HW227639   4.907   3.835   1.050
 8914SOL     OW27640   4.417   2.010   3.483
 8914SOL    HW127641   4.379   2.093   3.523
 8914SOL    HW227642   4.388   2.003   3.387
 8915SOL     OW27643   1.110   4.762   1.668
 8915SOL    HW127644   1.209   4.757   1.680
 8915SOL    HW227645   1.066   4.754   1.757
 8916SOL     OW27646   0.006   3.923   1.807
 8916SOL    HW127647   6.972   4.002   1.784
 8916SOL    HW227648   6.968   3.843   1.817
 8917SOL     OW27649   6.126   5.685   5.783
 8917SOL    HW127650   6.071   5.737   5.719
 8917SOL    HW227651   6.113   5.721   5.876
 8918SOL     OW27652   4.589   4.525   6.505
 8918SOL    HW127653   4.595   4.441   6.450
 8918SOL    HW227654   4.680   4.565   6.514
 8919SOL     OW27655   2.191   3.830   1.455
 8919SOL    HW127656   2.216   3.891   1.380
 8919SOL    HW227657   2.139   3.881   1.523
 8920SOL     OW27658   6.377   5.847   5.804
 8920SOL    HW127659   6.315   5.794   5.746
 8920SOL    HW227660   6.347   5.942   5.808
 8921SOL     OW27661   1.556   6.425   3.497
 8921SOL    HW127662   1.573   6.513   3.452
 8921SOL    HW227663   1.624   6.359   3.467
 8922SOL     OW27664   6.263   4.283   0.449
 8922SOL    HW127665   6.325   4.360   0.463
 8922SOL    HW227666   6.316   4.201   0.426
 8923SOL     OW27667   1.679   4.213   5.241
 8923SOL    HW127668   1.751   4.239   5.177
 8923SOL    HW227669   1.712   4.140   5.301
 8924SOL     OW27670   2.507   5.831   5.384
 8924SOL    HW127671   2.459   5.773   5.318
 8924SOL    HW227672   2.598   5.853   5.349
 8925SOL     OW27673   5.964   6.425   1.643
 8925SOL    HW127674   6.027   6.465   1.709
 8925SOL    HW227675   5.943   6.492   1.572
 8926SOL     OW27676   6.015   1.368   0.168
 8926SOL    HW127677   6.115   1.365   0.169
 8926SOL    HW227678   5.980   1.321   0.249
 8927SOL     OW27679   2.719   1.806   5.039
 8927SOL    HW127680   2.752   1.714   5.019
 8927SOL    HW227681   2.623   1.814   5.012
 8928SOL     OW27682   0.439   6.797   5.239
 8928SOL    HW127683   0.387   6.829   5.160
 8928SOL    HW227684   0.378   6.790   5.318
 8929SOL     OW27685   5.589   3.516   4.612
 8929SOL    HW127686   5.545   3.605   4.616
 8929SOL    HW227687   5.533   3.453   4.557
 8930SOL     OW27688   0.854   4.783   5.066
 8930SOL    HW127689   0.905   4.720   5.124
 8930SOL    HW227690   0.781   4.734   5.018
 8931SOL     OW27691   5.551   1.436   1.277
 8931SOL    HW127692   5.644   1.404   1.297
 8931SOL    HW227693   5.487   1.392   1.340
 8932SOL     OW27694   6.772   0.737   6.756
 8932SOL    HW127695   6.798   0.664   6.818
 8932SOL    HW227696   6.852   0.792   6.732
 8933SOL     OW27697   2.051   6.940   5.859
 8933SOL    HW127698   2.134   6.968   5.907
 8933SOL    HW227699   2.014   7.017   5.807
 8934SOL     OW27700   4.925   6.753   2.890
 8934SOL    HW127701   4.919   6.656   2.867
 8934SOL    HW227702   4.957   6.804   2.811
 8935SOL     OW27703   5.298   2.927   3.443
 8935SOL    HW127704   5.366   2.929   3.370
 8935SOL    HW227705   5.237   2.849   3.429
 8936SOL     OW27706   2.012   4.603   2.940
 8936SOL    HW127707   2.027   4.544   2.860
 8936SOL    HW227708   1.933   4.570   2.991
 8937SOL     OW27709   4.973   7.005   5.715
 8937SOL    HW127710   5.022   0.070   5.722
 8937SOL    HW227711   5.026   6.933   5.760
 8938SOL     OW27712   5.377   6.609   2.237
 8938SOL    HW127713   5.451   6.557   2.281
 8938SOL    HW227714   5.379   6.703   2.271
 8939SOL     OW27715   0.208   2.962   3.573
 8939SOL    HW127716   0.207   3.055   3.535
 8939SOL    HW227717   0.242   2.964   3.667
 8940SOL     OW27718   6.477   2.874   0.998
 8940SOL    HW127719   6.483   2.810   0.921
 8940SOL    HW227720   6.443   2.826   1.079
 8941SOL     OW27721   4.656   2.620   1.926
 8941SOL    HW127722   4.703   2.678   1.993
 8941SOL    HW227723   4.724   2.574   1.868
 8942SOL     OW27724   5.574   3.853   4.290
 8942SOL    HW127725   5.605   3.945   4.316
 8942SOL    HW227726   5.645   3.808   4.237
 8943SOL     OW27727   4.815   3.747   1.166
 8943SOL    HW127728   4.743   3.809   1.198
 8943SOL    HW227729   4.817   3.665   1.223
 8944SOL     OW27730   5.274   4.854   5.039
 8944SOL    HW127731   5.181   4.842   5.003
 8944SOL    HW227732   5.269   4.880   5.135
 8945SOL     OW27733   5.197   4.116   3.347
 8945SOL    HW127734   5.216   4.075   3.258
 8945SOL    HW227735   5.152   4.049   3.406
 8946SOL     OW27736   4.985   0.998   5.392
 8946SOL    HW127737   4.964   1.062   5.466
 8946SOL    HW227738   4.987   1.047   5.305
 8947SOL     OW27739   2.001   5.011   6.795
 8947SOL    HW127740   2.089   4.976   6.828
 8947SOL    HW227741   1.963   4.947   6.729
 8948SOL     OW27742   4.690   1.147   2.943
 8948SOL    HW127743   4.649   1.129   2.854
 8948SOL    HW227744   4.666   1.073   3.006
 8949SOL     OW27745   4.119   6.007   1.112
 8949SOL    HW127746   4.156   6.031   1.202
 8949SOL    HW227747   4.021   6.025   1.109
 8950SOL     OW27748   4.042   3.655   1.148
 8950SOL    HW127749   3.981   3.587   1.190
 8950SOL    HW227750   4.085   3.710   1.220
 8951SOL     OW27751   1.572   0.329   4.642
 8951SOL    HW127752   1.600   0.251   4.586
 8951SOL    HW227753   1.493   0.304   4.698
 8952SOL     OW27754   1.732   4.816   3.895
 8952SOL    HW127755   1.714   4.783   3.987
 8952SOL    HW227756   1.756   4.913   3.898
 8953SOL     OW27757   0.985   5.080   1.084
 8953SOL    HW127758   0.989   5.131   1.170
 8953SOL    HW227759   0.903   5.105   1.034
 8954SOL     OW27760   2.713   4.351   5.811
 8954SOL    HW127761   2.765   4.436   5.807
 8954SOL    HW227762   2.688   4.323   5.719
 8955SOL     OW27763   5.146   2.516   4.950
 8955SOL    HW127764   5.195   2.584   4.896
 8955SOL    HW227765   5.048   2.534   4.946
 8956SOL     OW27766   0.758   6.287   0.098
 8956SOL    HW127767   0.701   6.282   0.180
 8956SOL    HW227768   0.841   6.233   0.110
 8957SOL     OW27769   0.147   6.168   2.796
 8957SOL    HW127770   0.108   6.245   2.745
 8957SOL    HW227771   0.157   6.194   2.892
 8958SOL     OW27772   1.763   2.981   4.778
 8958SOL    HW127773   1.775   2.915   4.852
 8958SOL    HW227774   1.690   3.045   4.802
 8959SOL     OW27775   5.983   2.520   3.290
 8959SOL    HW127776   6.032   2.501   3.375
 8959SOL    HW227777   5.987   2.440   3.230
 8960SOL     OW27778   5.385   4.579   2.735
 8960SOL    HW127779   5.316   4.646   2.763
 8960SOL    HW227780   5.460   4.626   2.688
 8961SOL     OW27781   2.353   1.653   5.026
 8961SOL    HW127782   2.324   1.732   5.079
 8961SOL    HW227783   2.377   1.681   4.933
 8962SOL     OW27784   6.570   5.758   1.854
 8962SOL    HW127785   6.577   5.833   1.920
 8962SOL    HW227786   6.491   5.775   1.794
 8963SOL     OW27787   4.487   6.429   6.369
 8963SOL    HW127788   4.488   6.511   6.426
 8963SOL    HW227789   4.488   6.347   6.427
 8964SOL     OW27790   2.124   2.547   4.309
 8964SOL    HW127791   2.213   2.561   4.352
 8964SOL    HW227792   2.052   2.569   4.375
 8965SOL     OW27793   3.595   5.857   6.768
 8965SOL    HW127794   3.642   5.769   6.764
 8965SOL    HW227795   3.579   5.891   6.676
 8966SOL     OW27796   4.759   5.898   4.822
 8966SOL    HW127797   4.757   5.910   4.723
 8966SOL    HW227798   4.854   5.894   4.853
 8967SOL     OW27799   3.393   0.192   3.669
 8967SOL    HW127800   3.363   0.240   3.752
 8967SOL    HW227801   3.321   0.196   3.601
 8968SOL     OW27802   3.211   4.998   2.432
 8968SOL    HW127803   3.270   5.077   2.412
 8968SOL    HW227804   3.185   4.954   2.346
 8969SOL     OW27805   0.697   0.940   2.323
 8969SOL    HW127806   0.748   0.868   2.276
 8969SOL    HW227807   0.661   0.904   2.410
 8970SOL     OW27808   1.961   0.619   3.681
 8970SOL    HW127809   1.990   0.713   3.662
 8970SOL    HW227810   1.866   0.619   3.711
 8971SOL     OW27811   3.057   4.495   0.293
 8971SOL    HW127812   2.972   4.472   0.245
 8971SOL    HW227813   3.086   4.417   0.349
 8972SOL     OW27814   5.784   4.066   6.831
 8972SOL    HW127815   5.879   4.100   6.832
 8972SOL    HW227816   5.784   3.969   6.807
 8973SOL     OW27817   1.447   2.616   3.568
 8973SOL    HW127818   1.477   2.561   3.646
 8973SOL    HW227819   1.440   2.559   3.487
 8974SOL     OW27820   2.487   4.552   4.894
 8974SOL    HW127821   2.507   4.560   4.992
 8974SOL    HW227822   2.435   4.468   4.878
 8975SOL     OW27823   0.186   5.029   5.640
 8975SOL    HW127824   0.218   4.965   5.710
 8975SOL    HW227825   0.246   5.025   5.561
 8976SOL     OW27826   5.670   0.457   2.326
 8976SOL    HW127827   5.671   0.509   2.240
 8976SOL    HW227828   5.751   0.482   2.380
 8977SOL     OW27829   6.297   4.259   6.674
 8977SOL    HW127830   6.362   4.220   6.610
 8977SOL    HW227831   6.212   4.281   6.627
 8978SOL     OW27832   6.141   6.145   0.168
 8978SOL    HW127833   6.166   6.242   0.166
 8978SOL    HW227834   6.105   6.118   0.079
 8979SOL     OW27835   1.366   4.857   4.455
 8979SOL    HW127836   1.304   4.791   4.497
 8979SOL    HW227837   1.358   4.945   4.503
 8980SOL     OW27838   3.509   0.606   6.912
 8980SOL    HW127839   3.486   0.509   6.922
 8980SOL    HW227840   3.536   0.643   7.001
 8981SOL     OW27841   4.496   3.531   6.421
 8981SOL    HW127842   4.562   3.456   6.416
 8981SOL    HW227843   4.512   3.595   6.346
 8982SOL     OW27844   0.390   1.918   2.135
 8982SOL    HW127845   0.292   1.908   2.124
 8982SOL    HW227846   0.425   1.986   2.071
 8983SOL     OW27847   2.103   6.549   2.006
 8983SOL    HW127848   2.106   6.648   1.994
 8983SOL    HW227849   2.088   6.527   2.102
 8984SOL     OW27850   0.057   0.805   4.447
 8984SOL    HW127851   0.000   0.745   4.389
 8984SOL    HW227852   0.039   0.785   4.543
 8985SOL     OW27853   4.834   1.873   1.810
 8985SOL    HW127854   4.746   1.838   1.778
 8985SOL    HW227855   4.860   1.826   1.895
 8986SOL     OW27856   7.010   5.059   0.379
 8986SOL    HW127857   0.068   5.056   0.319
 8986SOL    HW227858   6.986   4.967   0.407
 8987SOL     OW27859   2.281   6.436   1.676
 8987SOL    HW127860   2.328   6.523   1.691
 8987SOL    HW227861   2.183   6.450   1.680
 8988SOL     OW27862   2.659   0.054   1.063
 8988SOL    HW127863   2.714   7.007   1.017
 8988SOL    HW227864   2.714   0.098   1.135
 8989SOL     OW27865   5.215   1.503   2.872
 8989SOL    HW127866   5.139   1.552   2.829
 8989SOL    HW227867   5.196   1.405   2.870
 8990SOL     OW27868   2.899   0.702   2.591
 8990SOL    HW127869   2.976   0.660   2.544
 8990SOL    HW227870   2.821   0.709   2.528
 8991SOL     OW27871   1.249   2.068   0.645
 8991SOL    HW127872   1.253   2.110   0.736
 8991SOL    HW227873   1.319   2.109   0.587
 8992SOL     OW27874   0.160   4.018   6.455
 8992SOL    HW127875   0.071   3.988   6.420
 8992SOL    HW227876   0.231   3.957   6.421
 8993SOL     OW27877   5.230   3.537   4.862
 8993SOL    HW127878   5.231   3.545   4.762
 8993SOL    HW227879   5.314   3.576   4.900
 8994SOL     OW27880   1.155   5.610   2.781
 8994SOL    HW127881   1.086   5.588   2.713
 8994SOL    HW227882   1.142   5.705   2.812
 8995SOL     OW27883   2.078   3.762   4.957
 8995SOL    HW127884   2.101   3.837   4.895
 8995SOL    HW227885   2.110   3.676   4.918
 8996SOL     OW27886   1.329   3.773   1.817
 8996SOL    HW127887   1.282   3.771   1.729
 8996SOL    HW227888   1.427   3.761   1.802
 8997SOL     OW27889   4.463   2.116   5.550
 8997SOL    HW127890   4.544   2.101   5.608
 8997SOL    HW227891   4.461   2.047   5.478
 8998SOL     OW27892   0.979   1.361   6.173
 8998SOL    HW127893   1.015   1.446   6.212
 8998SOL    HW227894   1.031   1.283   6.208
 8999SOL     OW27895   4.849   1.412   5.045
 8999SOL    HW127896   4.808   1.500   5.067
 8999SOL    HW227897   4.848   1.398   4.946
 9000SOL     OW27898   2.406   4.586   0.085
 9000SOL    HW127899   2.417   4.605   7.009
 9000SOL    HW227900   2.496   4.588   0.129
 9001SOL     OW27901   2.065   4.509   3.615
 9001SOL    HW127902   2.079   4.602   3.584
 9001SOL    HW227903   2.043   4.450   3.537
 9002SOL     OW27904   5.258   4.225   5.580
 9002SOL    HW127905   5.244   4.126   5.567
 9002SOL    HW227906   5.308   4.262   5.503
 9003SOL     OW27907   6.443   3.169   6.290
 9003SOL    HW127908   6.376   3.155   6.363
 9003SOL    HW227909   6.521   3.220   6.326
 9004SOL     OW27910   4.698   5.665   1.058
 9004SOL    HW127911   4.769   5.643   1.124
 9004SOL    HW227912   4.736   5.663   0.966
 9005SOL     OW27913   4.525   2.241   2.742
 9005SOL    HW127914   4.555   2.165   2.684
 9005SOL    HW227915   4.508   2.322   2.684
 9006SOL     OW27916   2.293   6.548   1.001
 9006SOL    HW127917   2.209   6.600   0.997
 9006SOL    HW227918   2.304   6.495   0.917
 9007SOL     OW27919   2.237   6.648   4.382
 9007SOL    HW127920   2.280   6.604   4.461
 9007SOL    HW227921   2.181   6.581   4.334
 9008SOL     OW27922   6.900   4.478   2.596
 9008SOL    HW127923   6.970   4.535   2.553
 9008SOL    HW227924   6.944   4.401   2.643
 9009SOL     OW27925   4.349   5.950   0.745
 9009SOL    HW127926   4.418   5.903   0.800
 9009SOL    HW227927   4.316   6.031   0.795
 9010SOL     OW27928   0.624   5.467   5.039
 9010SOL    HW127929   0.660   5.399   5.102
 9010SOL    HW227930   0.529   5.489   5.063
 9011SOL     OW27931   4.227   2.135   1.891
 9011SOL    HW127932   4.139   2.181   1.880
 9011SOL    HW227933   4.224   2.046   1.845
 9012SOL     OW27934   5.768   5.364   1.888
 9012SOL    HW127935   5.854   5.350   1.838
 9012SOL    HW227936   5.780   5.437   1.955
 9013SOL     OW27937   4.627   5.922   2.467
 9013SOL    HW127938   4.660   5.939   2.560
 9013SOL    HW227939   4.585   5.831   2.463
 9014SOL     OW27940   2.550   0.760   0.754
 9014SOL    HW127941   2.614   0.820   0.802
 9014SOL    HW227942   2.600   0.679   0.721
 9015SOL     OW27943   6.552   1.163   4.820
 9015SOL    HW127944   6.589   1.119   4.738
 9015SOL    HW227945   6.468   1.117   4.848
 9016SOL     OW27946   6.782   5.879   6.486
 9016SOL    HW127947   6.691   5.854   6.520
 9016SOL    HW227948   6.797   5.977   6.497
 9017SOL     OW27949   0.234   4.213   3.688
 9017SOL    HW127950   0.298   4.140   3.661
 9017SOL    HW227951   0.170   4.231   3.614
 9018SOL     OW27952   3.476   1.700   6.186
 9018SOL    HW127953   3.379   1.676   6.177
 9018SOL    HW227954   3.507   1.677   6.279
 9019SOL     OW27955   1.498   5.893   0.485
 9019SOL    HW127956   1.499   5.845   0.572
 9019SOL    HW227957   1.575   5.863   0.429
 9020SOL     OW27958   0.225   4.907   2.950
 9020SOL    HW127959   0.207   4.995   2.906
 9020SOL    HW227960   0.323   4.890   2.953
 9021SOL     OW27961   6.635   6.016   5.327
 9021SOL    HW127962   6.696   5.994   5.251
 9021SOL    HW227963   6.606   6.111   5.320
 9022SOL     OW27964   3.625   1.386   6.613
 9022SOL    HW127965   3.540   1.401   6.564
 9022SOL    HW227966   3.698   1.365   6.547
 9023SOL     OW27967   3.036   3.109   2.832
 9023SOL    HW127968   3.023   3.123   2.930
 9023SOL    HW227969   2.967   3.161   2.782
 9024SOL     OW27970   1.339   0.710   6.569
 9024SOL    HW127971   1.416   0.679   6.514
 9024SOL    HW227972   1.350   0.678   6.663
 9025SOL     OW27973   0.275   3.951   0.746
 9025SOL    HW127974   0.206   3.878   0.745
 9025SOL    HW227975   0.348   3.927   0.810
 9026SOL     OW27976   2.891   3.025   5.614
 9026SOL    HW127977   2.927   3.051   5.524
 9026SOL    HW227978   2.881   3.106   5.671
 9027SOL     OW27979   2.477   2.530   2.971
 9027SOL    HW127980   2.449   2.626   2.973
 9027SOL    HW227981   2.433   2.481   3.046
 9028SOL     OW27982   2.606   5.024   5.289
 9028SOL    HW127983   2.557   4.992   5.370
 9028SOL    HW227984   2.589   4.963   5.212
 9029SOL     OW27985   4.822   5.405   2.992
 9029SOL    HW127986   4.887   5.401   2.916
 9029SOL    HW227987   4.870   5.428   3.076
 9030SOL     OW27988   3.054   1.795   1.553
 9030SOL    HW127989   3.046   1.778   1.651
 9030SOL    HW227990   3.009   1.881   1.529
 9031SOL     OW27991   1.758   1.450   1.335
 9031SOL    HW127992   1.702   1.501   1.270
 9031SOL    HW227993   1.747   1.489   1.426
 9032SOL     OW27994   1.327   2.444   2.996
 9032SOL    HW127995   1.267   2.416   2.921
 9032SOL    HW227996   1.340   2.543   2.994
 9033SOL     OW27997   1.421   3.684   2.727
 9033SOL    HW127998   1.404   3.632   2.811
 9033SOL    HW227999   1.481   3.761   2.747
 9034SOL     OW28000   1.187   0.091   5.864
 9034SOL    HW128001   1.277   0.103   5.821
 9034SOL    HW228002   1.193   0.121   5.960
 9035SOL     OW28003   6.853   0.430   4.400
 9035SOL    HW128004   6.764   0.420   4.356
 9035SOL    HW228005   6.840   0.450   4.497
 9036SOL     OW28006   1.268   1.525   4.959
 9036SOL    HW128007   1.231   1.608   5.001
 9036SOL    HW228008   1.328   1.479   5.024
 9037SOL     OW28009   2.888   3.842   5.676
 9037SOL    HW128010   2.911   3.791   5.759
 9037SOL    HW228011   2.972   3.866   5.627
 9038SOL     OW28012   5.296   6.605   5.736
 9038SOL    HW128013   5.269   6.513   5.764
 9038SOL    HW228014   5.383   6.628   5.777
 9039SOL     OW28015   2.154   4.845   6.374
 9039SOL    HW128016   2.104   4.927   6.346
 9039SOL    HW228017   2.252   4.865   6.377
 9040SOL     OW28018   2.503   1.704   1.893
 9040SOL    HW128019   2.595   1.741   1.891
 9040SOL    HW228020   2.452   1.746   1.968
 9041SOL     OW28021   1.734   2.959   0.021
 9041SOL    HW128022   1.685   3.003   6.967
 9041SOL    HW228023   1.820   2.920   7.009
 9042SOL     OW28024   2.129   5.410   3.187
 9042SOL    HW128025   2.110   5.385   3.092
 9042SOL    HW228026   2.101   5.505   3.203
 9043SOL     OW28027   6.742   2.319   0.725
 9043SOL    HW128028   6.789   2.375   0.656
 9043SOL    HW228029   6.810   2.274   0.783
 9044SOL     OW28030   6.294   4.786   0.839
 9044SOL    HW128031   6.239   4.774   0.922
 9044SOL    HW228032   6.344   4.702   0.819
 9045SOL     OW28033   3.146   5.812   4.153
 9045SOL    HW128034   3.170   5.855   4.240
 9045SOL    HW228035   3.049   5.787   4.154
 9046SOL     OW28036   3.535   4.434   6.023
 9046SOL    HW128037   3.582   4.379   5.954
 9046SOL    HW228038   3.591   4.441   6.105
 9047SOL     OW28039   1.195   4.603   5.039
 9047SOL    HW128040   1.151   4.646   5.118
 9047SOL    HW228041   1.265   4.538   5.071
 9048SOL     OW28042   1.447   2.126   5.360
 9048SOL    HW128043   1.461   2.097   5.455
 9048SOL    HW228044   1.532   2.115   5.309
 9049SOL     OW28045   5.271   6.158   6.324
 9049SOL    HW128046   5.224   6.161   6.236
 9049SOL    HW228047   5.226   6.093   6.384
 9050SOL     OW28048   0.081   5.744   5.352
 9050SOL    HW128049   0.056   5.841   5.351
 9050SOL    HW228050   0.131   5.721   5.268
 9051SOL     OW28051   5.501   6.789   6.359
 9051SOL    HW128052   5.526   6.709   6.413
 9051SOL    HW228053   5.516   6.872   6.412
 9052SOL     OW28054   2.193   5.182   4.992
 9052SOL    HW128055   2.189   5.087   4.963
 9052SOL    HW228056   2.113   5.204   5.048
 9053SOL     OW28057   2.997   1.573   3.663
 9053SOL    HW128058   3.049   1.489   3.673
 9053SOL    HW228059   3.059   1.648   3.637
 9054SOL     OW28060   3.948   7.020   0.728
 9054SOL    HW128061   3.926   6.978   0.816
 9054SOL    HW228062   3.863   0.014   0.677
 9055SOL     OW28063   0.812   1.391   4.915
 9055SOL    HW128064   0.815   1.345   4.826
 9055SOL    HW228065   0.721   1.378   4.955
 9056SOL     OW28066   5.343   1.795   2.583
 9056SOL    HW128067   5.272   1.856   2.617
 9056SOL    HW228068   5.418   1.850   2.544
 9057SOL     OW28069   4.595   6.537   6.958
 9057SOL    HW128070   4.518   6.538   6.894
 9057SOL    HW228071   4.576   6.473   0.010
 9058SOL     OW28072   2.465   2.242   4.259
 9058SOL    HW128073   2.543   2.216   4.317
 9058SOL    HW228074   2.469   2.340   4.240
 9059SOL     OW28075   6.837   0.444   2.561
 9059SOL    HW128076   6.847   0.517   2.629
 9059SOL    HW228077   6.927   0.405   2.541
 9060SOL     OW28078   0.740   5.758   1.884
 9060SOL    HW128079   0.783   5.811   1.811
 9060SOL    HW228080   0.641   5.769   1.879
 9061SOL     OW28081   6.007   3.997   2.905
 9061SOL    HW128082   5.989   4.093   2.925
 9061SOL    HW228083   5.925   3.956   2.864
 9062SOL     OW28084   0.537   6.151   3.006
 9062SOL    HW128085   0.589   6.079   2.960
 9062SOL    HW228086   0.479   6.110   3.076
 9063SOL     OW28087   4.791   2.149   1.833
 9063SOL    HW128088   4.811   2.056   1.802
 9063SOL    HW228089   4.692   2.163   1.836
 9064SOL     OW28090   0.690   5.700   2.853
 9064SOL    HW128091   0.670   5.602   2.856
 9064SOL    HW228092   0.767   5.717   2.791
 9065SOL     OW28093   3.058   4.096   5.697
 9065SOL    HW128094   3.069   4.185   5.654
 9065SOL    HW228095   3.019   4.107   5.789
 9066SOL     OW28096   4.909   4.841   4.557
 9066SOL    HW128097   4.921   4.856   4.655
 9066SOL    HW228098   4.833   4.897   4.524
 9067SOL     OW28099   1.020   6.058   4.574
 9067SOL    HW128100   0.947   6.040   4.509
 9067SOL    HW228101   1.038   6.156   4.577
 9068SOL     OW28102   4.477   0.097   6.179
 9068SOL    HW128103   4.514   0.170   6.237
 9068SOL    HW228104   4.378   0.092   6.192
 9069SOL     OW28105   5.285   2.351   0.885
 9069SOL    HW128106   5.279   2.436   0.938
 9069SOL    HW228107   5.255   2.274   0.942
 9070SOL     OW28108   1.929   1.428   5.827
 9070SOL    HW128109   1.990   1.491   5.780
 9070SOL    HW228110   1.846   1.476   5.856
 9071SOL     OW28111   5.447   2.540   6.672
 9071SOL    HW128112   5.406   2.450   6.656
 9071SOL    HW228113   5.473   2.580   6.584
 9072SOL     OW28114   4.997   0.735   3.169
 9072SOL    HW128115   5.040   0.736   3.260
 9072SOL    HW228116   4.950   0.647   3.156
 9073SOL     OW28117   4.706   2.341   5.058
 9073SOL    HW128118   4.610   2.352   5.030
 9073SOL    HW228119   4.710   2.328   5.157
 9074SOL     OW28120   1.615   1.048   2.202
 9074SOL    HW128121   1.573   1.126   2.247
 9074SOL    HW228122   1.632   0.976   2.269
 9075SOL     OW28123   6.212   6.007   0.540
 9075SOL    HW128124   6.239   6.103   0.532
 9075SOL    HW228125   6.159   5.981   0.459
 9076SOL     OW28126   6.576   0.014   2.549
 9076SOL    HW128127   6.604   0.087   2.487
 9076SOL    HW228128   6.521   0.052   2.623
 9077SOL     OW28129   6.762   1.542   6.301
 9077SOL    HW128130   6.775   1.595   6.217
 9077SOL    HW228131   6.770   1.445   6.281
 9078SOL     OW28132   5.240   6.559   0.106
 9078SOL    HW128133   5.333   6.543   0.140
 9078SOL    HW228134   5.176   6.554   0.182
 9079SOL     OW28135   1.522   1.568   6.865
 9079SOL    HW128136   1.507   1.569   6.766
 9079SOL    HW228137   1.525   1.662   6.900
 9080SOL     OW28138   6.462   3.557   2.151
 9080SOL    HW128139   6.447   3.652   2.123
 9080SOL    HW228140   6.551   3.526   2.118
 9081SOL     OW28141   5.220   1.035   0.545
 9081SOL    HW128142   5.222   1.130   0.513
 9081SOL    HW228143   5.141   1.022   0.605
 9082SOL     OW28144   3.485   5.798   5.858
 9082SOL    HW128145   3.553   5.859   5.900
 9082SOL    HW228146   3.439   5.746   5.930
 9083SOL     OW28147   4.029   5.585   6.938
 9083SOL    HW128148   4.006   5.528   7.016
 9083SOL    HW228149   4.104   5.647   6.962
 9084SOL     OW28150   6.825   2.754   5.796
 9084SOL    HW128151   6.880   2.740   5.713
 9084SOL    HW228152   6.812   2.852   5.811
 9085SOL     OW28153   2.420   4.896   0.088
 9085SOL    HW128154   2.418   4.996   0.086
 9085SOL    HW228155   2.504   4.863   0.045
 9086SOL     OW28156   0.252   4.825   1.102
 9086SOL    HW128157   0.241   4.923   1.121
 9086SOL    HW228158   0.162   4.781   1.105
 9087SOL     OW28159   5.831   0.950   1.147
 9087SOL    HW128160   5.816   1.048   1.143
 9087SOL    HW228161   5.903   0.924   1.082
 9088SOL     OW28162   6.544   6.447   0.890
 9088SOL    HW128163   6.464   6.488   0.933
 9088SOL    HW228164   6.579   6.373   0.948
 9089SOL     OW28165   5.118   5.291   3.610
 9089SOL    HW128166   5.189   5.274   3.679
 9089SOL    HW228167   5.103   5.208   3.557
 9090SOL     OW28168   4.988   6.230   5.747
 9090SOL    HW128169   5.052   6.269   5.680
 9090SOL    HW228170   4.895   6.243   5.715
 9091SOL     OW28171   2.089   1.565   1.623
 9091SOL    HW128172   2.019   1.631   1.596
 9091SOL    HW228173   2.119   1.584   1.716
 9092SOL     OW28174   1.825   1.264   5.401
 9092SOL    HW128175   1.855   1.184   5.452
 9092SOL    HW228176   1.901   1.329   5.393
 9093SOL     OW28177   1.862   3.905   0.588
 9093SOL    HW128178   1.878   3.831   0.524
 9093SOL    HW228179   1.764   3.916   0.604
 9094SOL     OW28180   6.977   4.480   1.564
 9094SOL    HW128181   0.022   4.406   1.556
 9094SOL    HW228182   6.960   4.499   1.661
 9095SOL     OW28183   3.195   2.641   6.916
 9095SOL    HW128184   3.266   2.574   6.895
 9095SOL    HW228185   3.205   2.720   6.855
 9096SOL     OW28186   5.101   3.038   2.862
 9096SOL    HW128187   5.112   3.058   2.765
 9096SOL    HW228188   5.006   3.054   2.889
 9097SOL     OW28189   0.929   5.113   6.826
 9097SOL    HW128190   0.877   5.179   6.881
 9097SOL    HW228191   0.866   5.047   6.784
 9098SOL     OW28192   3.946   3.767   2.906
 9098SOL    HW128193   3.903   3.855   2.925
 9098SOL    HW228194   3.876   3.700   2.883
 9099SOL     OW28195   2.043   3.403   0.812
 9099SOL    HW128196   2.142   3.393   0.803
 9099SOL    HW228197   2.007   3.332   0.873
 9100SOL     OW28198   0.581   3.295   1.201
 9100SOL    HW128199   0.666   3.285   1.149
 9100SOL    HW228200   0.598   3.270   1.296
 9101SOL     OW28201   2.089   2.603   1.078
 9101SOL    HW128202   2.130   2.677   1.131
 9101SOL    HW228203   2.153   2.574   1.007
 9102SOL     OW28204   3.638   5.371   2.600
 9102SOL    HW128205   3.569   5.401   2.665
 9102SOL    HW228206   3.728   5.402   2.630
 9103SOL     OW28207   0.452   4.018   6.883
 9103SOL    HW128208   0.514   3.997   6.807
 9103SOL    HW228209   0.438   4.116   6.887
 9104SOL     OW28210   4.357   6.437   1.305
 9104SOL    HW128211   4.336   6.398   1.395
 9104SOL    HW228212   4.275   6.481   1.268
 9105SOL     OW28213   2.045   1.959   5.774
 9105SOL    HW128214   2.082   1.987   5.863
 9105SOL    HW228215   2.121   1.936   5.713
 9106SOL     OW28216   6.754   5.149   0.951
 9106SOL    HW128217   6.658   5.178   0.950
 9106SOL    HW228218   6.775   5.108   1.040
 9107SOL     OW28219   4.426   0.433   1.367
 9107SOL    HW128220   4.418   0.354   1.428
 9107SOL    HW228221   4.394   0.515   1.415
 9108SOL     OW28222   4.610   5.379   6.146
 9108SOL    HW128223   4.543   5.450   6.170
 9108SOL    HW228224   4.561   5.299   6.111
 9109SOL     OW28225   3.096   1.856   3.834
 9109SOL    HW128226   3.060   1.944   3.804
 9109SOL    HW228227   3.022   1.799   3.869
 9110SOL     OW28228   1.645   3.975   3.682
 9110SOL    HW128229   1.740   3.945   3.690
 9110SOL    HW228230   1.621   4.030   3.762
 9111SOL     OW28231   3.731   4.173   1.613
 9111SOL    HW128232   3.664   4.247   1.616
 9111SOL    HW228233   3.694   4.092   1.658
 9112SOL     OW28234   6.995   4.835   2.272
 9112SOL    HW128235   6.914   4.794   2.313
 9112SOL    HW228236   0.047   4.767   2.268
 9113SOL     OW28237   3.940   6.514   0.462
 9113SOL    HW128238   3.922   6.417   0.443
 9113SOL    HW228239   3.884   6.571   0.402
 9114SOL     OW28240   2.586   4.472   1.715
 9114SOL    HW128241   2.684   4.455   1.704
 9114SOL    HW228242   2.570   4.528   1.796
 9115SOL     OW28243   1.485   4.747   5.102
 9115SOL    HW128244   1.422   4.824   5.091
 9115SOL    HW228245   1.528   4.752   5.192
 9116SOL     OW28246   0.432   1.287   6.205
 9116SOL    HW128247   0.502   1.249   6.265
 9116SOL    HW228248   0.346   1.239   6.219
 9117SOL     OW28249   6.558   2.349   0.135
 9117SOL    HW128250   6.503   2.327   0.216
 9117SOL    HW228251   6.530   2.291   0.059
 9118SOL     OW28252   6.343   6.489   1.829
 9118SOL    HW128253   6.391   6.536   1.902
 9118SOL    HW228254   6.400   6.415   1.793
 9119SOL     OW28255   6.588   0.516   1.607
 9119SOL    HW128256   6.652   0.591   1.596
 9119SOL    HW228257   6.524   0.536   1.681
 9120SOL     OW28258   5.442   1.248   6.264
 9120SOL    HW128259   5.413   1.330   6.214
 9120SOL    HW228260   5.498   1.276   6.342
 9121SOL     OW28261   0.892   1.078   6.321
 9121SOL    HW128262   0.920   1.163   6.366
 9121SOL    HW228263   0.972   1.019   6.309
 9122SOL     OW28264   1.427   2.737   2.440
 9122SOL    HW128265   1.398   2.656   2.492
 9122SOL    HW228266   1.492   2.789   2.494
 9123SOL     OW28267   2.249   5.482   0.042
 9123SOL    HW128268   2.346   5.508   0.037
 9123SOL    HW228269   2.228   5.420   6.988
 9124SOL     OW28270   6.556   5.521   5.354
 9124SOL    HW128271   6.624   5.448   5.358
 9124SOL    HW228272   6.467   5.482   5.329
 9125SOL     OW28273   4.798   4.528   3.940
 9125SOL    HW128274   4.802   4.525   3.840
 9125SOL    HW228275   4.886   4.559   3.976
 9126SOL     OW28276   5.954   0.884   1.385
 9126SOL    HW128277   5.918   0.912   1.474
 9126SOL    HW228278   5.898   0.925   1.312
 9127SOL     OW28279   5.150   0.691   0.200
 9127SOL    HW128280   5.207   0.646   0.132
 9127SOL    HW228281   5.199   0.770   0.238
 9128SOL     OW28282   4.230   1.911   4.965
 9128SOL    HW128283   4.271   1.841   4.905
 9128SOL    HW228284   4.131   1.911   4.953
 9129SOL     OW28285   2.034   1.879   6.619
 9129SOL    HW128286   2.089   1.934   6.682
 9129SOL    HW228287   2.093   1.839   6.549
 9130SOL     OW28288   5.918   4.463   0.787
 9130SOL    HW128289   5.863   4.383   0.763
 9130SOL    HW228290   6.010   4.434   0.812
 9131SOL     OW28291   0.980   4.177   4.675
 9131SOL    HW128292   0.928   4.155   4.593
 9131SOL    HW228293   1.036   4.258   4.658
 9132SOL     OW28294   0.142   3.221   4.324
 9132SOL    HW128295   0.220   3.173   4.285
 9132SOL    HW228296   0.116   3.177   4.410
 9133SOL     OW28297   2.383   4.120   1.288
 9133SOL    HW128298   2.466   4.079   1.251
 9133SOL    HW228299   2.303   4.067   1.259
 9134SOL     OW28300   2.966   5.813   6.516
 9134SOL    HW128301   3.021   5.795   6.434
 9134SOL    HW228302   2.995   5.899   6.557
 9135SOL     OW28303   6.481   5.991   4.309
 9135SOL    HW128304   6.541   5.934   4.366
 9135SOL    HW228305   6.523   6.006   4.220
 9136SOL     OW28306   4.512   5.240   5.815
 9136SOL    HW128307   4.603   5.279   5.805
 9136SOL    HW228308   4.519   5.149   5.855
 9137SOL     OW28309   4.312   1.434   1.481
 9137SOL    HW128310   4.374   1.378   1.536
 9137SOL    HW228311   4.254   1.374   1.425
 9138SOL     OW28312   4.671   5.301   6.384
 9138SOL    HW128313   4.637   5.325   6.293
 9138SOL    HW228314   4.692   5.203   6.386
 9139SOL     OW28315   3.344   1.265   5.352
 9139SOL    HW128316   3.387   1.240   5.438
 9139SOL    HW228317   3.250   1.292   5.368
 9140SOL     OW28318   6.762   2.330   2.803
 9140SOL    HW128319   6.729   2.388   2.878
 9140SOL    HW228320   6.857   2.306   2.818
 9141SOL     OW28321   5.240   0.060   5.846
 9141SOL    HW128322   5.300   0.123   5.896
 9141SOL    HW228323   5.268   0.056   5.751
 9142SOL     OW28324   0.172   3.068   6.099
 9142SOL    HW128325   0.126   3.073   6.010
 9142SOL    HW228326   0.109   3.029   6.167
 9143SOL     OW28327   4.844   3.470   0.637
 9143SOL    HW128328   4.910   3.528   0.686
 9143SOL    HW228329   4.765   3.452   0.695
 9144SOL     OW28330   2.518   5.614   5.834
 9144SOL    HW128331   2.421   5.590   5.826
 9144SOL    HW228332   2.550   5.652   5.747
 9145SOL     OW28333   0.112   4.606   6.632
 9145SOL    HW128334   0.029   4.638   6.587
 9145SOL    HW228335   0.129   4.511   6.606
 9146SOL     OW28336   6.061   2.715   1.296
 9146SOL    HW128337   6.008   2.795   1.267
 9146SOL    HW228338   6.030   2.635   1.244
 9147SOL     OW28339   4.597   5.536   4.687
 9147SOL    HW128340   4.592   5.563   4.783
 9147SOL    HW228341   4.684   5.567   4.648
 9148SOL     OW28342   4.963   5.437   3.230
 9148SOL    HW128343   5.045   5.495   3.238
 9148SOL    HW228344   4.953   5.384   3.314
 9149SOL     OW28345   5.135   3.073   4.633
 9149SOL    HW128346   5.054   3.016   4.647
 9149SOL    HW228347   5.173   3.099   4.722
 9150SOL     OW28348   4.827   0.172   3.556
 9150SOL    HW128349   4.828   0.266   3.524
 9150SOL    HW228350   4.801   0.111   3.482
 9151SOL     OW28351   1.750   4.164   2.097
 9151SOL    HW128352   1.752   4.251   2.048
 9151SOL    HW228353   1.656   4.140   2.119
 9152SOL     OW28354   2.054   5.898   3.520
 9152SOL    HW128355   1.990   5.865   3.450
 9152SOL    HW228356   2.116   5.966   3.481
 9153SOL     OW28357   1.916   2.672   6.296
 9153SOL    HW128358   1.937   2.582   6.258
 9153SOL    HW228359   1.817   2.681   6.309
 9154SOL     OW28360   2.613   6.029   7.018
 9154SOL    HW128361   2.628   6.122   0.030
 9154SOL    HW228362   2.538   5.987   0.047
 9155SOL     OW28363   1.834   3.849   6.815
 9155SOL    HW128364   1.741   3.848   6.854
 9155SOL    HW228365   1.828   3.866   6.717
 9156SOL     OW28366   4.510   2.566   1.424
 9156SOL    HW128367   4.590   2.514   1.394
 9156SOL    HW228368   4.472   2.525   1.507
 9157SOL     OW28369   5.621   3.726   5.504
 9157SOL    HW128370   5.547   3.761   5.446
 9157SOL    HW228371   5.642   3.792   5.575
 9158SOL     OW28372   0.688   3.387   4.671
 9158SOL    HW128373   0.626   3.397   4.748
 9158SOL    HW228374   0.668   3.302   4.622
 9159SOL     OW28375   6.401   5.560   2.254
 9159SOL    HW128376   6.437   5.531   2.166
 9159SOL    HW228377   6.435   5.499   2.326
 9160SOL     OW28378   0.744   6.987   6.659
 9160SOL    HW128379   0.668   0.019   6.624
 9160SOL    HW228380   0.779   6.926   6.588
 9161SOL     OW28381   4.963   3.646   4.495
 9161SOL    HW128382   4.905   3.647   4.577
 9161SOL    HW228383   4.979   3.740   4.465
 9162SOL     OW28384   4.691   2.750   2.543
 9162SOL    HW128385   4.753   2.814   2.499
 9162SOL    HW228386   4.657   2.685   2.475
 9163SOL     OW28387   3.060   2.135   3.751
 9163SOL    HW128388   2.997   2.206   3.783
 9163SOL    HW228389   3.079   2.148   3.654
 9164SOL     OW28390   2.686   0.793   6.257
 9164SOL    HW128391   2.782   0.774   6.236
 9164SOL    HW228392   2.680   0.852   6.337
 9165SOL     OW28393   5.430   0.733   6.679
 9165SOL    HW128394   5.372   0.763   6.603
 9165SOL    HW228395   5.497   0.804   6.700
 9166SOL     OW28396   3.422   5.168   0.914
 9166SOL    HW128397   3.355   5.139   0.982
 9166SOL    HW228398   3.397   5.130   0.825
 9167SOL     OW28399   1.769   3.795   5.687
 9167SOL    HW128400   1.717   3.773   5.604
 9167SOL    HW228401   1.716   3.766   5.767
 9168SOL     OW28402   2.367   0.210   5.884
 9168SOL    HW128403   2.349   0.147   5.809
 9168SOL    HW228404   2.307   0.189   5.961
 9169SOL     OW28405   0.806   1.026   3.953
 9169SOL    HW128406   0.724   0.983   3.990
 9169SOL    HW228407   0.805   1.020   3.853
 9170SOL     OW28408   6.877   5.509   0.265
 9170SOL    HW128409   6.802   5.444   0.271
 9170SOL    HW228410   6.846   5.598   0.300
 9171SOL     OW28411   2.799   5.825   7.009
 9171SOL    HW128412   2.735   5.902   7.003
 9171SOL    HW228413   2.891   5.857   6.983
 9172SOL     OW28414   3.381   1.439   3.963
 9172SOL    HW128415   3.411   1.512   3.903
 9172SOL    HW228416   3.460   1.389   3.997
 9173SOL     OW28417   0.114   5.195   4.764
 9173SOL    HW128418   0.031   5.168   4.813
 9173SOL    HW228419   0.185   5.221   4.830
 9174SOL     OW28420   0.226   4.821   6.771
 9174SOL    HW128421   0.164   4.857   6.841
 9174SOL    HW228422   0.176   4.754   6.715
 9175SOL     OW28423   2.417   5.688   6.086
 9175SOL    HW128424   2.499   5.664   6.139
 9175SOL    HW228425   2.410   5.629   6.006
 9176SOL     OW28426   2.103   0.579   5.487
 9176SOL    HW128427   2.151   0.491   5.486
 9176SOL    HW228428   2.170   0.654   5.484
 9177SOL     OW28429   1.262   4.527   3.910
 9177SOL    HW128430   1.357   4.520   3.881
 9177SOL    HW228431   1.242   4.623   3.932
 9178SOL     OW28432   2.020   5.249   0.903
 9178SOL    HW128433   1.945   5.194   0.867
 9178SOL    HW228434   1.987   5.340   0.926
 9179SOL     OW28435   3.342   4.939   3.783
 9179SOL    HW128436   3.343   5.027   3.831
 9179SOL    HW228437   3.420   4.884   3.812
 9180SOL     OW28438   5.968   2.354   3.822
 9180SOL    HW128439   5.973   2.408   3.905
 9180SOL    HW228440   5.991   2.259   3.843
 9181SOL     OW28441   4.363   2.436   2.255
 9181SOL    HW128442   4.415   2.429   2.170
 9181SOL    HW228443   4.266   2.450   2.233
 9182SOL     OW28444   1.554   6.442   1.983
 9182SOL    HW128445   1.651   6.465   1.986
 9182SOL    HW228446   1.537   6.362   2.041
 9183SOL     OW28447   4.957   6.246   0.758
 9183SOL    HW128448   4.962   6.219   0.855
 9183SOL    HW228449   5.010   6.182   0.703
 9184SOL     OW28450   5.008   6.927   0.782
 9184SOL    HW128451   4.955   6.937   0.698
 9184SOL    HW228452   4.946   6.918   0.860
 9185SOL     OW28453   3.411   0.582   5.101
 9185SOL    HW128454   3.409   0.575   5.201
 9185SOL    HW228455   3.412   0.678   5.074
 9186SOL     OW28456   5.857   0.931   5.626
 9186SOL    HW128457   5.957   0.929   5.629
 9186SOL    HW228458   5.825   1.025   5.616
 9187SOL     OW28459   2.455   6.103   2.117
 9187SOL    HW128460   2.369   6.065   2.083
 9187SOL    HW228461   2.436   6.168   2.191
 9188SOL     OW28462   2.943   6.946   0.959
 9188SOL    HW128463   3.019   6.885   0.983
 9188SOL    HW228464   2.863   6.891   0.937
 9189SOL     OW28465   5.226   5.921   3.145
 9189SOL    HW128466   5.128   5.898   3.142
 9189SOL    HW228467   5.236   6.018   3.167
 9190SOL     OW28468   1.545   5.635   0.657
 9190SOL    HW128469   1.608   5.578   0.710
 9190SOL    HW228470   1.461   5.584   0.640
 9191SOL     OW28471   6.497   0.373   5.687
 9191SOL    HW128472   6.548   0.301   5.640
 9191SOL    HW228473   6.558   0.421   5.750
 9192SOL     OW28474   0.385   4.085   4.286
 9192SOL    HW128475   0.419   4.106   4.377
 9192SOL    HW228476   0.351   3.991   4.283
 9193SOL     OW28477   3.136   3.259   6.603
 9193SOL    HW128478   3.130   3.193   6.677
 9193SOL    HW228479   3.055   3.318   6.604
 9194SOL     OW28480   2.886   0.691   3.533
 9194SOL    HW128481   2.881   0.769   3.595
 9194SOL    HW228482   2.796   0.675   3.492
 9195SOL     OW28483   2.199   2.051   4.086
 9195SOL    HW128484   2.184   2.146   4.112
 9195SOL    HW228485   2.296   2.035   4.072
 9196SOL     OW28486   4.757   1.654   5.071
 9196SOL    HW128487   4.784   1.740   5.027
 9196SOL    HW228488   4.658   1.641   5.061
 9197SOL     OW28489   2.412   3.690   1.686
 9197SOL    HW128490   2.400   3.615   1.751
 9197SOL    HW228491   2.392   3.777   1.731
 9198SOL     OW28492   6.574   5.760   5.466
 9198SOL    HW128493   6.572   5.667   5.429
 9198SOL    HW228494   6.588   5.825   5.392
 9199SOL     OW28495   6.912   4.191   5.132
 9199SOL    HW128496   7.000   4.156   5.102
 9199SOL    HW228497   6.910   4.291   5.121
 9200SOL     OW28498   3.444   0.632   0.685
 9200SOL    HW128499   3.348   0.623   0.710
 9200SOL    HW228500   3.493   0.680   0.758
 9201SOL     OW28501   1.413   3.994   0.388
 9201SOL    HW128502   1.326   3.971   0.344
 9201SOL    HW228503   1.415   3.955   0.480
 9202SOL     OW28504   1.588   6.696   3.416
 9202SOL    HW128505   1.679   6.656   3.403
 9202SOL    HW228506   1.576   6.720   3.512
 9203SOL     OW28507   6.823   5.508   0.954
 9203SOL    HW128508   6.782   5.436   0.899
 9203SOL    HW228509   6.787   5.503   1.047
 9204SOL     OW28510   5.085   1.048   6.215
 9204SOL    HW128511   5.083   0.973   6.149
 9204SOL    HW228512   5.137   1.125   6.177
 9205SOL     OW28513   6.967   4.056   3.064
 9205SOL    HW128514   0.018   3.992   3.039
 9205SOL    HW228515   6.878   4.010   3.058
 9206SOL     OW28516   4.207   5.847   0.532
 9206SOL    HW128517   4.286   5.839   0.470
 9206SOL    HW228518   4.239   5.871   0.623
 9207SOL     OW28519   4.884   5.514   0.602
 9207SOL    HW128520   4.928   5.472   0.523
 9207SOL    HW228521   4.856   5.443   0.666
 9208SOL     OW28522   0.454   4.132   4.540
 9208SOL    HW128523   0.509   4.209   4.572
 9208SOL    HW228524   0.478   4.050   4.592
 9209SOL     OW28525   2.234   1.208   6.279
 9209SOL    HW128526   2.242   1.108   6.287
 9209SOL    HW228527   2.291   1.240   6.204
 9210SOL     OW28528   6.629   1.438   3.253
 9210SOL    HW128529   6.554   1.413   3.315
 9210SOL    HW228530   6.645   1.362   3.189
 9211SOL     OW28531   0.274   1.867   3.721
 9211SOL    HW128532   0.305   1.878   3.816
 9211SOL    HW228533   0.315   1.784   3.683
 9212SOL     OW28534   3.064   4.992   4.870
 9212SOL    HW128535   3.006   4.998   4.788
 9212SOL    HW228536   3.049   5.072   4.928
 9213SOL     OW28537   5.905   3.721   6.058
 9213SOL    HW128538   5.938   3.798   6.005
 9213SOL    HW228539   5.808   3.705   6.038
 9214SOL     OW28540   0.355   5.818   1.049
 9214SOL    HW128541   0.410   5.742   1.084
 9214SOL    HW228542   0.405   5.904   1.063
 9215SOL     OW28543   1.263   1.087   0.604
 9215SOL    HW128544   1.189   1.140   0.645
 9215SOL    HW228545   1.267   1.106   0.506
 9216SOL     OW28546   2.362   6.703   2.387
 9216SOL    HW128547   2.408   6.740   2.468
 9216SOL    HW228548   2.280   6.653   2.415
 9217SOL     OW28549   0.589   2.052   6.324
 9217SOL    HW128550   0.676   2.093   6.295
 9217SOL    HW228551   0.593   1.953   6.310
 9218SOL     OW28552   3.554   0.379   0.674
 9218SOL    HW128553   3.488   0.332   0.733
 9218SOL    HW228554   3.546   0.478   0.688
 9219SOL     OW28555   0.992   2.343   1.028
 9219SOL    HW128556   0.999   2.308   0.935
 9219SOL    HW228557   1.076   2.392   1.052
 9220SOL     OW28558   3.411   6.679   1.527
 9220SOL    HW128559   3.332   6.720   1.572
 9220SOL    HW228560   3.493   6.730   1.550
 9221SOL     OW28561   2.815   6.168   3.705
 9221SOL    HW128562   2.860   6.247   3.747
 9221SOL    HW228563   2.797   6.099   3.775
 9222SOL     OW28564   2.456   1.698   6.381
 9222SOL    HW128565   2.500   1.788   6.385
 9222SOL    HW228566   2.510   1.632   6.433
 9223SOL     OW28567   2.421   2.820   5.421
 9223SOL    HW128568   2.440   2.802   5.517
 9223SOL    HW228569   2.369   2.905   5.412
 9224SOL     OW28570   2.021   5.384   4.416
 9224SOL    HW128571   1.998   5.475   4.451
 9224SOL    HW228572   1.952   5.319   4.446
 9225SOL     OW28573   3.060   5.929   6.939
 9225SOL    HW128574   3.010   5.995   6.883
 9225SOL    HW228575   3.101   5.976   7.017
 9226SOL     OW28576   5.164   6.256   1.146
 9226SOL    HW128577   5.138   6.237   1.241
 9226SOL    HW228578   5.082   6.256   1.089
 9227SOL     OW28579   1.209   5.359   2.490
 9227SOL    HW128580   1.300   5.336   2.525
 9227SOL    HW228581   1.147   5.376   2.567
 9228SOL     OW28582   1.371   0.983   6.825
 9228SOL    HW128583   1.300   1.049   6.803
 9228SOL    HW228584   1.328   0.901   6.864
 9229SOL     OW28585   1.130   6.022   4.152
 9229SOL    HW128586   1.085   6.111   4.144
 9229SOL    HW228587   1.088   5.959   4.086
 9230SOL     OW28588   5.534   0.628   4.081
 9230SOL    HW128589   5.615   0.686   4.080
 9230SOL    HW228590   5.471   0.656   4.009
 9231SOL     OW28591   1.355   2.267   4.292
 9231SOL    HW128592   1.312   2.291   4.205
 9231SOL    HW228593   1.386   2.172   4.288
 9232SOL     OW28594   3.477   5.379   0.701
 9232SOL    HW128595   3.480   5.279   0.708
 9232SOL    HW228596   3.453   5.418   0.790
 9233SOL     OW28597   5.542   4.954   1.108
 9233SOL    HW128598   5.638   4.963   1.136
 9233SOL    HW228599   5.486   4.931   1.188
 9234SOL     OW28600   2.653   5.390   3.560
 9234SOL    HW128601   2.741   5.346   3.577
 9234SOL    HW228602   2.594   5.329   3.507
 9235SOL     OW28603   0.757   2.125   3.116
 9235SOL    HW128604   0.833   2.188   3.136
 9235SOL    HW228605   0.707   2.158   3.036
 9236SOL     OW28606   2.867   3.255   5.059
 9236SOL    HW128607   2.789   3.212   5.105
 9236SOL    HW228608   2.945   3.194   5.062
 9237SOL     OW28609   1.900   4.146   4.125
 9237SOL    HW128610   1.996   4.141   4.098
 9237SOL    HW228611   1.842   4.136   4.044
 9238SOL     OW28612   4.747   2.995   6.518
 9238SOL    HW128613   4.667   3.004   6.577
 9238SOL    HW228614   4.722   2.946   6.435
 9239SOL     OW28615   0.920   3.918   0.954
 9239SOL    HW128616   0.942   3.859   1.033
 9239SOL    HW228617   0.858   3.869   0.893
 9240SOL     OW28618   4.685   1.506   1.661
 9240SOL    HW128619   4.610   1.569   1.638
 9240SOL    HW228620   4.650   1.413   1.667
 9241SOL     OW28621   0.394   5.338   6.719
 9241SOL    HW128622   0.338   5.296   6.647
 9241SOL    HW228623   0.356   5.316   6.808
 9242SOL     OW28624   6.217   5.993   2.185
 9242SOL    HW128625   6.144   6.050   2.223
 9242SOL    HW228626   6.203   5.984   2.086
 9243SOL     OW28627   6.363   6.038   5.048
 9243SOL    HW128628   6.422   5.977   4.994
 9243SOL    HW228629   6.413   6.121   5.070
 9244SOL     OW28630   3.645   4.973   6.635
 9244SOL    HW128631   3.687   4.895   6.587
 9244SOL    HW228632   3.584   5.021   6.572
 9245SOL     OW28633   0.454   5.979   1.700
 9245SOL    HW128634   0.520   6.049   1.674
 9245SOL    HW228635   0.459   5.964   1.799
 9246SOL     OW28636   6.120   5.448   3.815
 9246SOL    HW128637   6.056   5.375   3.841
 9246SOL    HW228638   6.211   5.426   3.849
 9247SOL     OW28639   1.139   6.836   2.670
 9247SOL    HW128640   1.154   6.815   2.574
 9247SOL    HW228641   1.173   6.927   2.691
 9248SOL     OW28642   2.773   2.316   6.206
 9248SOL    HW128643   2.753   2.388   6.138
 9248SOL    HW228644   2.789   2.359   6.295
 9249SOL     OW28645   4.624   0.809   3.949
 9249SOL    HW128646   4.576   0.886   3.908
 9249SOL    HW228647   4.705   0.787   3.895
 9250SOL     OW28648   4.910   3.807   3.857
 9250SOL    HW128649   4.887   3.873   3.929
 9250SOL    HW228650   4.879   3.843   3.768
 9251SOL     OW28651   3.457   1.412   3.018
 9251SOL    HW128652   3.552   1.425   3.046
 9251SOL    HW228653   3.453   1.399   2.919
 9252SOL     OW28654   0.180   0.037   4.803
 9252SOL    HW128655   0.223   0.122   4.833
 9252SOL    HW228656   0.138   0.051   4.713
 9253SOL     OW28657   1.964   0.048   5.617
 9253SOL    HW128658   1.894   0.092   5.561
 9253SOL    HW228659   1.935   6.976   5.639
 9254SOL     OW28660   6.016   3.704   1.703
 9254SOL    HW128661   6.043   3.798   1.726
 9254SOL    HW228662   5.923   3.704   1.665
 9255SOL     OW28663   5.477   3.778   0.796
 9255SOL    HW128664   5.465   3.843   0.872
 9255SOL    HW228665   5.420   3.697   0.813
 9256SOL     OW28666   4.233   4.575   1.790
 9256SOL    HW128667   4.265   4.566   1.884
 9256SOL    HW228668   4.297   4.530   1.728
 9257SOL     OW28669   1.036   3.925   1.871
 9257SOL    HW128670   1.056   3.910   1.968
 9257SOL    HW228671   0.962   3.992   1.863
 9258SOL     OW28672   3.742   2.964   3.493
 9258SOL    HW128673   3.787   2.970   3.404
 9258SOL    HW228674   3.744   3.054   3.537
 9259SOL     OW28675   1.200   2.244   1.633
 9259SOL    HW128676   1.119   2.294   1.665
 9259SOL    HW228677   1.275   2.308   1.619
 9260SOL     OW28678   5.189   3.669   6.220
 9260SOL    HW128679   5.192   3.570   6.237
 9260SOL    HW228680   5.254   3.693   6.149
 9261SOL     OW28681   4.099   0.392   6.598
 9261SOL    HW128682   4.198   0.401   6.607
 9261SOL    HW228683   4.054   0.462   6.653
 9262SOL     OW28684   5.235   0.871   5.384
 9262SOL    HW128685   5.155   0.924   5.355
 9262SOL    HW228686   5.213   0.820   5.467
 9263SOL     OW28687   5.425   4.030   1.255
 9263SOL    HW128688   5.509   4.034   1.309
 9263SOL    HW228689   5.348   4.062   1.310
 9264SOL     OW28690   6.079   4.001   6.670
 9264SOL    HW128691   6.021   3.925   6.698
 9264SOL    HW228692   6.087   4.066   6.746
 9265SOL     OW28693   2.978   1.572   0.383
 9265SOL    HW128694   3.024   1.586   0.471
 9265SOL    HW228695   3.038   1.602   0.309
 9266SOL     OW28696   2.271   6.390   2.653
 9266SOL    HW128697   2.224   6.303   2.657
 9266SOL    HW228698   2.353   6.381   2.595
 9267SOL     OW28699   0.840   4.477   4.661
 9267SOL    HW128700   0.907   4.530   4.714
 9267SOL    HW228701   0.880   4.451   4.573
 9268SOL     OW28702   0.436   6.699   2.839
 9268SOL    HW128703   0.399   6.651   2.919
 9268SOL    HW228704   0.428   6.640   2.759
 9269SOL     OW28705   3.414   1.944   6.840
 9269SOL    HW128706   3.400   1.971   6.935
 9269SOL    HW228707   3.402   1.845   6.832
 9270SOL     OW28708   6.840   6.685   6.275
 9270SOL    HW128709   6.804   6.770   6.236
 9270SOL    HW228710   6.829   6.610   6.210
 9271SOL     OW28711   1.718   5.880   1.037
 9271SOL    HW128712   1.814   5.870   1.012
 9271SOL    HW228713   1.662   5.884   0.955
 9272SOL     OW28714   2.518   4.589   6.359
 9272SOL    HW128715   2.543   4.494   6.336
 9272SOL    HW228716   2.528   4.646   6.278
 9273SOL     OW28717   4.526   5.146   4.180
 9273SOL    HW128718   4.444   5.096   4.153
 9273SOL    HW228719   4.501   5.216   4.248
 9274SOL     OW28720   5.628   1.933   6.284
 9274SOL    HW128721   5.712   1.882   6.305
 9274SOL    HW228722   5.590   1.971   6.369
 9275SOL     OW28723   1.580   0.529   5.504
 9275SOL    HW128724   1.549   0.439   5.535
 9275SOL    HW228725   1.557   0.598   5.573
 9276SOL     OW28726   3.564   6.010   4.601
 9276SOL    HW128727   3.478   6.033   4.647
 9276SOL    HW228728   3.607   6.094   4.568
 9277SOL     OW28729   3.758   3.213   6.853
 9277SOL    HW128730   3.729   3.178   6.764
 9277SOL    HW228731   3.856   3.198   6.865
 9278SOL     OW28732   1.151   2.217   3.809
 9278SOL    HW128733   1.073   2.268   3.772
 9278SOL    HW228734   1.203   2.178   3.733
 9279SOL     OW28735   3.085   0.546   2.232
 9279SOL    HW128736   3.169   0.513   2.189
 9279SOL    HW228737   3.102   0.565   2.329
 9280SOL     OW28738   1.756   6.828   3.981
 9280SOL    HW128739   1.817   6.821   3.902
 9280SOL    HW228740   1.799   6.784   4.060
 9281SOL     OW28741   2.080   2.461   0.740
 9281SOL    HW128742   2.164   2.512   0.757
 9281SOL    HW228743   2.016   2.474   0.815
 9282SOL     OW28744   4.496   1.594   5.027
 9282SOL    HW128745   4.409   1.599   5.076
 9282SOL    HW228746   4.500   1.508   4.975
 9283SOL     OW28747   5.700   2.601   2.400
 9283SOL    HW128748   5.638   2.611   2.322
 9283SOL    HW228749   5.795   2.608   2.369
 9284SOL     OW28750   3.185   3.614   1.109
 9284SOL    HW128751   3.257   3.684   1.106
 9284SOL    HW228752   3.097   3.657   1.124
 9285SOL     OW28753   6.877   2.527   6.613
 9285SOL    HW128754   6.837   2.566   6.530
 9285SOL    HW228755   6.977   2.534   6.609
 9286SOL     OW28756   5.429   0.013   5.044
 9286SOL    HW128757   5.379   0.071   5.109
 9286SOL    HW228758   5.377   6.951   5.028
 9287SOL     OW28759   2.800   5.932   0.883
 9287SOL    HW128760   2.750   5.868   0.825
 9287SOL    HW228761   2.815   5.891   0.973
 9288SOL     OW28762   4.312   1.892   5.686
 9288SOL    HW128763   4.350   1.974   5.643
 9288SOL    HW228764   4.216   1.909   5.710
 9289SOL     OW28765   4.942   2.250   2.256
 9289SOL    HW128766   4.873   2.300   2.308
 9289SOL    HW228767   4.897   2.183   2.197
 9290SOL     OW28768   4.784   1.706   4.585
 9290SOL    HW128769   4.716   1.741   4.650
 9290SOL    HW228770   4.749   1.717   4.492
 9291SOL     OW28771   1.268   0.492   4.949
 9291SOL    HW128772   1.324   0.415   4.917
 9291SOL    HW228773   1.174   0.461   4.965
 9292SOL     OW28774   0.063   3.337   6.135
 9292SOL    HW128775   6.987   3.327   6.153
 9292SOL    HW228776   0.108   3.249   6.147
 9293SOL     OW28777   5.300   4.451   0.333
 9293SOL    HW128778   5.234   4.491   0.270
 9293SOL    HW228779   5.353   4.380   0.286
 9294SOL     OW28780   5.510   6.102   0.157
 9294SOL    HW128781   5.446   6.143   0.092
 9294SOL    HW228782   5.540   6.171   0.223
 9295SOL     OW28783   4.474   1.426   3.146
 9295SOL    HW128784   4.486   1.522   3.173
 9295SOL    HW228785   4.415   1.421   3.066
 9296SOL     OW28786   6.065   6.483   5.973
 9296SOL    HW128787   5.991   6.542   6.005
 9296SOL    HW228788   6.040   6.444   5.884
 9297SOL     OW28789   0.449   0.764   0.990
 9297SOL    HW128790   0.524   0.761   0.923
 9297SOL    HW228791   0.411   0.673   1.002
 9298SOL     OW28792   1.835   6.169   5.235
 9298SOL    HW128793   1.850   6.248   5.294
 9298SOL    HW228794   1.920   6.146   5.187
 9299SOL     OW28795   1.335   3.700   4.478
 9299SOL    HW128796   1.382   3.767   4.420
 9299SOL    HW228797   1.263   3.746   4.530
 9300SOL     OW28798   5.579   4.259   4.639
 9300SOL    HW128799   5.663   4.311   4.621
 9300SOL    HW228800   5.500   4.318   4.629
 9301SOL     OW28801   5.085   4.192   2.683
 9301SOL    HW128802   4.995   4.195   2.728
 9301SOL    HW228803   5.078   4.138   2.599
 9302SOL     OW28804   2.359   2.186   2.937
 9302SOL    HW128805   2.277   2.178   2.994
 9302SOL    HW228806   2.440   2.175   2.995
 9303SOL     OW28807   3.759   6.341   6.917
 9303SOL    HW128808   3.689   6.302   6.977
 9303SOL    HW228809   3.724   6.426   6.877
 9304SOL     OW28810   3.133   3.265   0.780
 9304SOL    HW128811   3.061   3.231   0.719
 9304SOL    HW228812   3.165   3.354   0.746
 9305SOL     OW28813   6.169   2.510   2.153
 9305SOL    HW128814   6.202   2.437   2.094
 9305SOL    HW228815   6.225   2.592   2.140
 9306SOL     OW28816   6.641   4.619   4.268
 9306SOL    HW128817   6.673   4.531   4.233
 9306SOL    HW228818   6.719   4.682   4.275
 9307SOL     OW28819   1.740   2.005   0.746
 9307SOL    HW128820   1.672   2.052   0.802
 9307SOL    HW228821   1.737   2.040   0.653
 9308SOL     OW28822   0.702   3.199   0.702
 9308SOL    HW128823   0.668   3.292   0.712
 9308SOL    HW228824   0.626   3.134   0.716
 9309SOL     OW28825   4.433   3.968   5.766
 9309SOL    HW128826   4.398   3.895   5.825
 9309SOL    HW228827   4.357   4.026   5.737
 9310SOL     OW28828   4.359   5.860   6.465
 9310SOL    HW128829   4.306   5.776   6.459
 9310SOL    HW228830   4.331   5.923   6.391
 9311SOL     OW28831   5.679   3.808   0.635
 9311SOL    HW128832   5.603   3.798   0.699
 9311SOL    HW228833   5.693   3.721   0.586
 9312SOL     OW28834   1.178   4.395   6.742
 9312SOL    HW128835   1.151   4.426   6.651
 9312SOL    HW228836   1.167   4.296   6.748
 9313SOL     OW28837   0.147   6.733   2.628
 9313SOL    HW128838   0.104   6.762   2.713
 9313SOL    HW228839   0.233   6.782   2.615
 9314SOL     OW28840   4.644   5.511   6.768
 9314SOL    HW128841   4.576   5.509   6.695
 9314SOL    HW228842   4.725   5.460   6.741
 9315SOL     OW28843   6.796   0.377   5.797
 9315SOL    HW128844   6.889   0.358   5.829
 9315SOL    HW228845   6.733   0.378   5.875
 9316SOL     OW28846   3.881   5.951   3.587
 9316SOL    HW128847   3.790   5.989   3.600
 9316SOL    HW228848   3.912   5.908   3.672
 9317SOL     OW28849   6.462   5.147   3.615
 9317SOL    HW128850   6.407   5.092   3.679
 9317SOL    HW228851   6.402   5.212   3.568
 9318SOL     OW28852   0.094   0.594   6.850
 9318SOL    HW128853   0.075   0.540   6.932
 9318SOL    HW228854   0.068   0.689   6.866
 9319SOL     OW28855   0.710   3.365   6.270
 9319SOL    HW128856   0.617   3.329   6.281
 9319SOL    HW228857   0.713   3.459   6.303
 9320SOL     OW28858   4.489   2.509   5.847
 9320SOL    HW128859   4.445   2.420   5.831
 9320SOL    HW228860   4.578   2.495   5.889
 9321SOL     OW28861   6.545   6.082   2.878
 9321SOL    HW128862   6.593   6.047   2.958
 9321SOL    HW228863   6.448   6.056   2.883
 9322SOL     OW28864   0.760   6.211   5.588
 9322SOL    HW128865   0.702   6.144   5.540
 9322SOL    HW228866   0.704   6.287   5.619
 9323SOL     OW28867   0.899   1.458   6.834
 9323SOL    HW128868   0.949   1.375   6.861
 9323SOL    HW228869   0.963   1.526   6.801
 9324SOL     OW28870   1.354   5.399   0.673
 9324SOL    HW128871   1.331   5.440   0.761
 9324SOL    HW228872   1.369   5.300   0.685
 9325SOL     OW28873   5.673   2.056   0.967
 9325SOL    HW128874   5.621   2.134   0.932
 9325SOL    HW228875   5.614   1.975   0.965
 9326SOL     OW28876   1.680   7.002   1.186
 9326SOL    HW128877   1.723   0.021   1.267
 9326SOL    HW228878   1.581   7.017   1.190
 9327SOL     OW28879   4.455   0.185   2.802
 9327SOL    HW128880   4.464   0.260   2.736
 9327SOL    HW228881   4.535   0.126   2.797
 9328SOL     OW28882   3.523   1.755   0.633
 9328SOL    HW128883   3.508   1.831   0.696
 9328SOL    HW228884   3.535   1.791   0.540
 9329SOL     OW28885   0.585   3.703   2.271
 9329SOL    HW128886   0.610   3.606   2.266
 9329SOL    HW228887   0.667   3.757   2.293
 9330SOL     OW28888   6.298   0.735   0.968
 9330SOL    HW128889   6.311   0.675   1.047
 9330SOL    HW228890   6.385   0.776   0.942
 9331SOL     OW28891   0.363   0.702   6.940
 9331SOL    HW128892   0.421   0.626   6.970
 9331SOL    HW228893   0.280   0.667   6.897
 9332SOL     OW28894   2.917   3.417   4.492
 9332SOL    HW128895   2.957   3.350   4.555
 9332SOL    HW228896   2.956   3.507   4.511
 9333SOL     OW28897   6.308   4.672   1.274
 9333SOL    HW128898   6.402   4.657   1.303
 9333SOL    HW228899   6.250   4.689   1.353
 9334SOL     OW28900   2.457   0.383   4.156
 9334SOL    HW128901   2.510   0.341   4.082
 9334SOL    HW228902   2.464   0.327   4.238
 9335SOL     OW28903   1.788   0.907   6.846
 9335SOL    HW128904   1.730   0.850   6.787
 9335SOL    HW228905   1.809   0.993   6.799
 9336SOL     OW28906   2.886   6.860   6.160
 9336SOL    HW128907   2.849   6.915   6.085
 9336SOL    HW228908   2.913   6.921   6.235
 9337SOL     OW28909   5.082   0.498   2.100
 9337SOL    HW128910   5.009   0.550   2.054
 9337SOL    HW228911   5.165   0.502   2.045
 9338SOL     OW28912   3.533   0.122   2.891
 9338SOL    HW128913   3.611   0.153   2.945
 9338SOL    HW228914   3.542   0.154   2.797
 9339SOL     OW28915   4.798   6.332   1.348
 9339SOL    HW128916   4.731   6.267   1.313
 9339SOL    HW228917   4.754   6.391   1.416
 9340SOL     OW28918   6.102   3.529   6.719
 9340SOL    HW128919   6.030   3.461   6.733
 9340SOL    HW228920   6.116   3.544   6.621
 9341SOL     OW28921   0.965   5.429   6.634
 9341SOL    HW128922   0.991   5.359   6.568
 9341SOL    HW228923   0.885   5.397   6.686
 9342SOL     OW28924   1.446   6.917   6.184
 9342SOL    HW128925   1.480   6.921   6.091
 9342SOL    HW228926   1.517   6.948   6.247
 9343SOL     OW28927   6.323   5.271   5.048
 9343SOL    HW128928   6.287   5.228   4.965
 9343SOL    HW228929   6.417   5.242   5.063
 9344SOL     OW28930   5.184   6.480   1.374
 9344SOL    HW128931   5.251   6.483   1.300
 9344SOL    HW228932   5.132   6.565   1.376
 9345SOL     OW28933   0.132   3.168   0.674
 9345SOL    HW128934   0.165   3.256   0.640
 9345SOL    HW228935   0.085   3.181   0.761
 9346SOL     OW28936   6.004   0.250   1.089
 9346SOL    HW128937   5.995   0.276   1.185
 9346SOL    HW228938   5.936   0.300   1.035
 9347SOL     OW28939   1.703   6.599   1.611
 9347SOL    HW128940   1.719   6.623   1.516
 9347SOL    HW228941   1.736   6.506   1.628
 9348SOL     OW28942   3.184   4.778   6.951
 9348SOL    HW128943   3.137   4.701   6.909
 9348SOL    HW228944   3.281   4.757   6.960
 9349SOL     OW28945   1.637   6.443   2.748
 9349SOL    HW128946   1.546   6.408   2.727
 9349SOL    HW228947   1.628   6.526   2.804
 9350SOL     OW28948   0.633   2.764   5.836
 9350SOL    HW128949   0.629   2.855   5.878
 9350SOL    HW228950   0.560   2.707   5.874
 9351SOL     OW28951   3.735   2.079   6.915
 9351SOL    HW128952   3.814   2.062   6.856
 9351SOL    HW228953   3.694   2.167   6.893
 9352SOL     OW28954   2.228   4.535   6.392
 9352SOL    HW128955   2.325   4.559   6.392
 9352SOL    HW228956   2.173   4.618   6.389
 9353SOL     OW28957   6.712   6.960   1.238
 9353SOL    HW128958   6.760   6.883   1.281
 9353SOL    HW228959   6.776   0.014   1.222
 9354SOL     OW28960   6.338   2.211   6.519
 9354SOL    HW128961   6.431   2.230   6.551
 9354SOL    HW228962   6.281   2.183   6.596
 9355SOL     OW28963   0.396   1.680   5.177
 9355SOL    HW128964   0.466   1.655   5.111
 9355SOL    HW228965   0.437   1.733   5.251
 9356SOL     OW28966   4.205   6.473   2.076
 9356SOL    HW128967   4.217   6.395   2.137
 9356SOL    HW228968   4.292   6.520   2.064
 9357SOL     OW28969   0.716   1.986   6.919
 9357SOL    HW128970   0.689   1.926   6.994
 9357SOL    HW228971   0.654   1.973   6.842
 9358SOL     OW28972   1.253   3.260   2.727
 9358SOL    HW128973   1.181   3.202   2.691
 9358SOL    HW228974   1.214   3.346   2.759
 9359SOL     OW28975   1.455   0.328   6.033
 9359SOL    HW128976   1.508   0.407   6.004
 9359SOL    HW228977   1.358   0.345   6.016
 9360SOL     OW28978   0.726   0.876   6.670
 9360SOL    HW128979   0.795   0.877   6.743
 9360SOL    HW228980   0.763   0.827   6.591
 9361SOL     OW28981   2.265   5.949   4.415
 9361SOL    HW128982   2.307   5.913   4.331
 9361SOL    HW228983   2.310   5.909   4.494
 9362SOL     OW28984   1.692   0.164   2.191
 9362SOL    HW128985   1.628   0.198   2.123
 9362SOL    HW228986   1.641   0.125   2.268
 9363SOL     OW28987   3.052   5.259   2.735
 9363SOL    HW128988   3.014   5.303   2.817
 9363SOL    HW228989   3.135   5.209   2.761
 9364SOL     OW28990   0.960   2.260   1.301
 9364SOL    HW128991   0.996   2.335   1.357
 9364SOL    HW228992   0.935   2.294   1.211
 9365SOL     OW28993   3.344   2.137   4.479
 9365SOL    HW128994   3.287   2.131   4.560
 9365SOL    HW228995   3.291   2.108   4.399
 9366SOL     OW28996   3.723   5.887   0.449
 9366SOL    HW128997   3.815   5.854   0.429
 9366SOL    HW228998   3.662   5.859   0.375
 9367SOL     OW28999   6.438   0.764   1.302
 9367SOL    HW129000   6.516   0.827   1.302
 9367SOL    HW229001   6.471   0.671   1.284
 9368SOL     OW29002   3.452   0.726   2.470
 9368SOL    HW129003   3.372   0.767   2.425
 9368SOL    HW229004   3.458   0.629   2.444
 9369SOL     OW29005   2.195   5.310   6.865
 9369SOL    HW129006   2.267   5.249   6.832
 9369SOL    HW229007   2.123   5.317   6.795
 9370SOL     OW29008   4.253   1.604   4.128
 9370SOL    HW129009   4.305   1.543   4.187
 9370SOL    HW229010   4.314   1.644   4.059
 9371SOL     OW29011   4.467   5.275   1.480
 9371SOL    HW129012   4.415   5.324   1.411
 9371SOL    HW229013   4.419   5.191   1.505
 9372SOL     OW29014   4.791   6.520   1.142
 9372SOL    HW129015   4.707   6.569   1.164
 9372SOL    HW229016   4.822   6.470   1.223
 9373SOL     OW29017   6.605   1.819   0.463
 9373SOL    HW129018   6.618   1.759   0.541
 9373SOL    HW229019   6.615   1.914   0.491
 9374SOL     OW29020   0.308   5.294   6.087
 9374SOL    HW129021   0.287   5.339   6.001
 9374SOL    HW229022   0.276   5.199   6.084
 9375SOL     OW29023   0.091   0.678   0.221
 9375SOL    HW129024   0.061   0.736   0.297
 9375SOL    HW229025   0.122   0.736   0.145
 9376SOL     OW29026   2.180   3.981   1.933
 9376SOL    HW129027   2.192   4.059   1.871
 9376SOL    HW229028   2.234   3.996   2.016
 9377SOL     OW29029   2.050   0.523   3.435
 9377SOL    HW129030   2.068   0.425   3.433
 9377SOL    HW229031   2.016   0.550   3.525
 9378SOL     OW29032   3.040   0.417   4.084
 9378SOL    HW129033   2.985   0.392   4.164
 9378SOL    HW229034   2.986   0.404   4.001
 9379SOL     OW29035   4.124   5.997   5.223
 9379SOL    HW129036   4.049   5.932   5.210
 9379SOL    HW229037   4.210   5.956   5.192
 9380SOL     OW29038   5.272   5.971   0.447
 9380SOL    HW129039   5.338   6.028   0.496
 9380SOL    HW229040   5.310   5.948   0.357
 9381SOL     OW29041   5.466   1.664   4.703
 9381SOL    HW129042   5.396   1.655   4.773
 9381SOL    HW229043   5.549   1.617   4.732
 9382SOL     OW29044   3.137   6.747   4.867
 9382SOL    HW129045   3.229   6.768   4.832
 9382SOL    HW229046   3.069   6.795   4.812
 9383SOL     OW29047   5.508   4.257   3.147
 9383SOL    HW129048   5.524   4.353   3.123
 9383SOL    HW229049   5.493   4.249   3.245
 9384SOL     OW29050   2.905   0.408   2.406
 9384SOL    HW129051   2.806   0.420   2.403
 9384SOL    HW229052   2.946   0.456   2.328
 9385SOL     OW29053   4.110   1.495   3.290
 9385SOL    HW129054   4.104   1.561   3.364
 9385SOL    HW229055   4.108   1.543   3.202
 9386SOL     OW29056   4.649   6.475   6.653
 9386SOL    HW129057   4.620   6.412   6.725
 9386SOL    HW229058   4.711   6.427   6.590
 9387SOL     OW29059   2.406   2.172   0.446
 9387SOL    HW129060   2.311   2.143   0.443
 9387SOL    HW229061   2.451   2.149   0.360
 9388SOL     OW29062   2.219   6.592   4.792
 9388SOL    HW129063   2.150   6.598   4.864
 9388SOL    HW229064   2.306   6.561   4.832
 9389SOL     OW29065   2.653   4.890   1.690
 9389SOL    HW129066   2.721   4.819   1.669
 9389SOL    HW229067   2.698   4.980   1.689
 9390SOL     OW29068   4.857   4.992   4.818
 9390SOL    HW129069   4.834   5.028   4.908
 9390SOL    HW229070   4.775   4.956   4.774
 9391SOL     OW29071   1.403   5.323   4.517
 9391SOL    HW129072   1.421   5.311   4.420
 9391SOL    HW229073   1.481   5.369   4.560
 9392SOL     OW29074   5.448   3.692   2.999
 9392SOL    HW129075   5.523   3.757   2.993
 9392SOL    HW229076   5.363   3.736   2.968
 9393SOL     OW29077   2.469   6.850   6.450
 9393SOL    HW129078   2.434   6.822   6.540
 9393SOL    HW229079   2.537   6.921   6.462
 9394SOL     OW29080   3.860   0.458   0.081
 9394SOL    HW129081   3.881   0.556   0.087
 9394SOL    HW229082   3.864   0.429   7.007
 9395SOL     OW29083   2.021   1.706   0.778
 9395SOL    HW129084   1.989   1.730   0.687
 9395SOL    HW229085   2.098   1.765   0.803
 9396SOL     OW29086   0.765   6.577   6.838
 9396SOL    HW129087   0.841   6.619   6.789
 9396SOL    HW229088   0.745   6.488   6.797
 9397SOL     OW29089   3.143   0.827   5.221
 9397SOL    HW129090   3.123   0.919   5.253
 9397SOL    HW229091   3.214   0.786   5.278
 9398SOL     OW29092   0.786   1.660   0.472
 9398SOL    HW129093   0.800   1.659   0.572
 9398SOL    HW229094   0.848   1.727   0.431
 9399SOL     OW29095   1.714   2.537   4.108
 9399SOL    HW129096   1.680   2.524   4.015
 9399SOL    HW229097   1.711   2.450   4.157
 9400SOL     OW29098   5.484   1.241   0.447
 9400SOL    HW129099   5.507   1.152   0.486
 9400SOL    HW229100   5.563   1.278   0.397
 9401SOL     OW29101   0.231   2.594   3.814
 9401SOL    HW129102   0.238   2.588   3.715
 9401SOL    HW229103   0.322   2.603   3.854
 9402SOL     OW29104   1.914   6.692   4.153
 9402SOL    HW129105   1.939   6.663   4.245
 9402SOL    HW229106   1.991   6.674   4.091
 9403SOL     OW29107   6.016   2.534   2.413
 9403SOL    HW129108   6.061   2.503   2.329
 9403SOL    HW229109   6.041   2.630   2.430
 9404SOL     OW29110   2.188   2.708   0.799
 9404SOL    HW129111   2.100   2.717   0.844
 9404SOL    HW229112   2.198   2.779   0.729
 9405SOL     OW29113   0.107   5.580   5.782
 9405SOL    HW129114   0.193   5.632   5.776
 9405SOL    HW229115   0.124   5.494   5.830
 9406SOL     OW29116   0.647   2.801   0.154
 9406SOL    HW129117   0.664   2.858   0.234
 9406SOL    HW229118   0.553   2.768   0.156
 9407SOL     OW29119   1.037   5.352   5.647
 9407SOL    HW129120   0.974   5.419   5.686
 9407SOL    HW229121   1.127   5.361   5.690
 9408SOL     OW29122   0.623   3.658   4.481
 9408SOL    HW129123   0.716   3.624   4.497
 9408SOL    HW229124   0.614   3.688   4.386
 9409SOL     OW29125   6.657   5.205   2.952
 9409SOL    HW129126   6.585   5.150   2.910
 9409SOL    HW229127   6.628   5.301   2.956
 9410SOL     OW29128   3.573   1.311   0.680
 9410SOL    HW129129   3.518   1.229   0.699
 9410SOL    HW229130   3.527   1.367   0.611
 9411SOL     OW29131   2.923   3.359   3.185
 9411SOL    HW129132   2.923   3.321   3.278
 9411SOL    HW229133   2.891   3.454   3.189
 9412SOL     OW29134   5.990   6.349   0.625
 9412SOL    HW129135   5.928   6.270   0.627
 9412SOL    HW229136   6.065   6.330   0.561
 9413SOL     OW29137   5.240   3.929   2.847
 9413SOL    HW129138   5.188   3.844   2.853
 9413SOL    HW229139   5.227   3.970   2.757
 9414SOL     OW29140   1.572   1.986   2.914
 9414SOL    HW129141   1.601   1.934   2.995
 9414SOL    HW229142   1.559   2.082   2.938
 9415SOL     OW29143   3.835   1.140   1.915
 9415SOL    HW129144   3.795   1.206   1.978
 9415SOL    HW229145   3.801   1.156   1.823
 9416SOL     OW29146   5.783   5.283   5.655
 9416SOL    HW129147   5.698   5.280   5.707
 9416SOL    HW229148   5.801   5.378   5.628
 9417SOL     OW29149   3.353   5.305   1.940
 9417SOL    HW129150   3.329   5.327   1.845
 9417SOL    HW229151   3.295   5.356   2.002
 9418SOL     OW29152   3.837   1.789   5.242
 9418SOL    HW129153   3.800   1.734   5.167
 9418SOL    HW229154   3.761   1.834   5.290
 9419SOL     OW29155   1.770   3.049   6.344
 9419SOL    HW129156   1.715   3.125   6.311
 9419SOL    HW229157   1.722   2.962   6.328
 9420SOL     OW29158   6.450   4.305   6.148
 9420SOL    HW129159   6.480   4.375   6.083
 9420SOL    HW229160   6.403   4.231   6.099
 9421SOL     OW29161   4.201   6.297   6.272
 9421SOL    HW129162   4.247   6.386   6.266
 9421SOL    HW229163   4.103   6.309   6.259
 9422SOL     OW29164   2.073   6.204   5.458
 9422SOL    HW129165   2.057   6.126   5.518
 9422SOL    HW229166   2.128   6.176   5.380
 9423SOL     OW29167   5.061   4.620   3.005
 9423SOL    HW129168   5.088   4.524   2.996
 9423SOL    HW229169   4.961   4.626   3.007
 9424SOL     OW29170   5.974   6.816   3.960
 9424SOL    HW129171   6.033   6.828   4.040
 9424SOL    HW229172   6.031   6.795   3.880
 9425SOL     OW29173   6.593   4.673   1.294
 9425SOL    HW129174   6.633   4.731   1.365
 9425SOL    HW229175   6.646   4.590   1.284
 9426SOL     OW29176   0.137   2.119   6.153
 9426SOL    HW129177   0.203   2.083   6.218
 9426SOL    HW229178   0.182   2.135   6.065
 9427SOL     OW29179   4.595   4.369   2.621
 9427SOL    HW129180   4.543   4.366   2.536
 9427SOL    HW229181   4.663   4.295   2.622
 9428SOL     OW29182   0.451   6.140   5.588
 9428SOL    HW129183   0.508   6.186   5.656
 9428SOL    HW229184   0.486   6.048   5.571
 9429SOL     OW29185   2.855   2.293   4.221
 9429SOL    HW129186   2.827   2.312   4.127
 9429SOL    HW229187   2.890   2.200   4.227
 9430SOL     OW29188   1.629   1.789   4.737
 9430SOL    HW129189   1.657   1.885   4.737
 9430SOL    HW229190   1.691   1.736   4.680
 9431SOL     OW29191   0.941   4.612   5.434
 9431SOL    HW129192   0.992   4.622   5.519
 9431SOL    HW229193   0.999   4.642   5.357
 9432SOL     OW29194   6.986   1.301   3.220
 9432SOL    HW129195   6.949   1.284   3.311
 9432SOL    HW229196   6.989   1.215   3.168
 9433SOL     OW29197   4.477   5.373   2.078
 9433SOL    HW129198   4.468   5.459   2.128
 9433SOL    HW229199   4.572   5.363   2.048
 9434SOL     OW29200   4.542   5.401   3.701
 9434SOL    HW129201   4.523   5.363   3.791
 9434SOL    HW229202   4.532   5.500   3.703
 9435SOL     OW29203   0.664   3.679   1.682
 9435SOL    HW129204   0.647   3.679   1.780
 9435SOL    HW229205   0.585   3.641   1.634
 9436SOL     OW29206   2.030   0.592   2.531
 9436SOL    HW129207   2.034   0.493   2.518
 9436SOL    HW229208   2.088   0.617   2.609
 9437SOL     OW29209   5.337   6.552   4.751
 9437SOL    HW129210   5.376   6.597   4.832
 9437SOL    HW229211   5.326   6.619   4.678
 9438SOL     OW29212   4.706   6.721   2.047
 9438SOL    HW129213   4.704   6.819   2.031
 9438SOL    HW229214   4.798   6.686   2.027
 9439SOL     OW29215   1.391   3.442   0.931
 9439SOL    HW129216   1.351   3.350   0.921
 9439SOL    HW229217   1.471   3.437   0.991
 9440SOL     OW29218   2.135   5.112   3.803
 9440SOL    HW129219   2.071   5.184   3.775
 9440SOL    HW229220   2.189   5.084   3.723
 9441SOL     OW29221   0.315   6.802   4.298
 9441SOL    HW129222   0.399   6.765   4.259
 9441SOL    HW229223   0.334   6.844   4.386
 9442SOL     OW29224   5.337   2.938   0.230
 9442SOL    HW129225   5.357   2.853   0.279
 9442SOL    HW229226   5.239   2.955   0.233
 9443SOL     OW29227   2.198   4.230   2.667
 9443SOL    HW129228   2.189   4.174   2.750
 9443SOL    HW229229   2.253   4.311   2.688
 9444SOL     OW29230   0.994   4.278   5.847
 9444SOL    HW129231   0.951   4.215   5.782
 9444SOL    HW229232   0.941   4.363   5.852
 9445SOL     OW29233   0.907   1.165   4.141
 9445SOL    HW129234   0.845   1.201   4.211
 9445SOL    HW229235   0.854   1.142   4.059
 9446SOL     OW29236   6.477   4.236   3.678
 9446SOL    HW129237   6.389   4.276   3.653
 9446SOL    HW229238   6.548   4.270   3.616
 9447SOL     OW29239   4.773   4.188   2.021
 9447SOL    HW129240   4.676   4.184   1.995
 9447SOL    HW229241   4.796   4.283   2.045
 9448SOL     OW29242   6.384   1.087   5.528
 9448SOL    HW129243   6.446   1.064   5.604
 9448SOL    HW229244   6.309   1.020   5.526
 9449SOL     OW29245   5.607   0.354   1.683
 9449SOL    HW129246   5.547   0.318   1.754
 9449SOL    HW229247   5.608   0.291   1.605
 9450SOL     OW29248   0.885   5.903   2.698
 9450SOL    HW129249   0.960   5.944   2.749
 9450SOL    HW229250   0.921   5.855   2.617
 9451SOL     OW29251   3.692   4.739   6.486
 9451SOL    HW129252   3.619   4.761   6.421
 9451SOL    HW229253   3.685   4.643   6.513
 9452SOL     OW29254   5.806   4.552   6.611
 9452SOL    HW129255   5.809   4.454   6.632
 9452SOL    HW229256   5.875   4.600   6.666
 9453SOL     OW29257   5.194   5.470   1.940
 9453SOL    HW129258   5.186   5.371   1.931
 9453SOL    HW229259   5.236   5.508   1.857
 9454SOL     OW29260   5.865   4.248   0.296
 9454SOL    HW129261   5.795   4.244   0.225
 9454SOL    HW229262   5.837   4.313   0.367
 9455SOL     OW29263   3.338   1.249   1.833
 9455SOL    HW129264   3.366   1.345   1.843
 9455SOL    HW229265   3.405   1.190   1.878
 9456SOL     OW29266   0.221   3.218   2.527
 9456SOL    HW129267   0.183   3.268   2.605
 9456SOL    HW229268   0.259   3.131   2.559
 9457SOL     OW29269   6.302   6.631   4.957
 9457SOL    HW129270   6.381   6.588   5.002
 9457SOL    HW229271   6.229   6.564   4.946
 9458SOL     OW29272   6.602   3.940   6.924
 9458SOL    HW129273   6.525   3.999   6.900
 9458SOL    HW229274   6.577   3.845   6.906
 9459SOL     OW29275   4.747   4.608   5.574
 9459SOL    HW129276   4.819   4.650   5.630
 9459SOL    HW229277   4.779   4.518   5.542
 9460SOL     OW29278   1.140   2.906   2.975
 9460SOL    HW129279   1.119   2.907   3.073
 9460SOL    HW229280   1.055   2.915   2.923
 9461SOL     OW29281   1.497   1.829   2.227
 9461SOL    HW129282   1.446   1.856   2.146
 9461SOL    HW229283   1.595   1.844   2.211
 9462SOL     OW29284   0.239   0.932   4.274
 9462SOL    HW129285   0.191   0.887   4.348
 9462SOL    HW229286   0.264   1.025   4.302
 9463SOL     OW29287   5.756   4.535   1.495
 9463SOL    HW129288   5.826   4.550   1.425
 9463SOL    HW229289   5.686   4.473   1.460
 9464SOL     OW29290   1.035   1.317   1.813
 9464SOL    HW129291   1.003   1.278   1.900
 9464SOL    HW229292   1.049   1.416   1.825
 9465SOL     OW29293   6.641   4.827   1.045
 9465SOL    HW129294   6.705   4.784   0.981
 9465SOL    HW229295   6.638   4.774   1.130
 9466SOL     OW29296   3.901   4.450   5.688
 9466SOL    HW129297   3.960   4.529   5.705
 9466SOL    HW229298   3.931   4.373   5.744
 9467SOL     OW29299   2.068   3.827   0.784
 9467SOL    HW129300   1.987   3.836   0.727
 9467SOL    HW229301   2.057   3.751   0.847
 9468SOL     OW29302   6.220   1.710   0.343
 9468SOL    HW129303   6.277   1.657   0.280
 9468SOL    HW229304   6.234   1.676   0.436
 9469SOL     OW29305   0.073   6.676   1.164
 9469SOL    HW129306   0.052   6.724   1.079
 9469SOL    HW229307   0.140   6.730   1.216
 9470SOL     OW29308   3.381   3.462   0.443
 9470SOL    HW129309   3.435   3.422   0.517
 9470SOL    HW229310   3.376   3.398   0.367
 9471SOL     OW29311   6.427   2.609   4.646
 9471SOL    HW129312   6.392   2.702   4.638
 9471SOL    HW229313   6.393   2.567   4.730
 9472SOL     OW29314   1.685   3.236   6.160
 9472SOL    HW129315   1.709   3.173   6.086
 9472SOL    HW229316   1.593   3.272   6.142
 9473SOL     OW29317   2.599   4.037   1.141
 9473SOL    HW129318   2.631   3.948   1.171
 9473SOL    HW229319   2.554   4.028   1.052
 9474SOL     OW29320   6.215   3.657   0.677
 9474SOL    HW129321   6.295   3.689   0.728
 9474SOL    HW229322   6.137   3.716   0.698
 9475SOL     OW29323   5.121   4.467   6.332
 9475SOL    HW129324   5.130   4.566   6.342
 9475SOL    HW229325   5.072   4.430   6.411
 9476SOL     OW29326   3.777   3.478   0.018
 9476SOL    HW129327   3.725   3.458   6.957
 9476SOL    HW229328   3.866   3.432   0.013
 9477SOL     OW29329   1.716   4.197   0.321
 9477SOL    HW129330   1.691   4.294   0.314
 9477SOL    HW229331   1.725   4.172   0.417
 9478SOL     OW29332   5.466   3.631   6.395
 9478SOL    HW129333   5.525   3.661   6.469
 9478SOL    HW229334   5.372   3.660   6.414
 9479SOL     OW29335   3.688   0.423   2.262
 9479SOL    HW129336   3.607   0.386   2.216
 9479SOL    HW229337   3.724   0.500   2.211
 9480SOL     OW29338   6.421   0.999   0.547
 9480SOL    HW129339   6.430   1.096   0.527
 9480SOL    HW229340   6.468   0.977   0.632
 9481SOL     OW29341   4.034   6.797   3.470
 9481SOL    HW129342   3.970   6.722   3.484
 9481SOL    HW229343   4.007   6.850   3.390
 9482SOL     OW29344   6.509   6.314   6.952
 9482SOL    HW129345   6.546   6.251   7.020
 9482SOL    HW229346   6.519   6.274   6.860
 9483SOL     OW29347   6.428   6.965   0.352
 9483SOL    HW129348   6.508   6.921   0.392
 9483SOL    HW229349   6.449   6.992   0.258
 9484SOL     OW29350   3.781   5.836   4.624
 9484SOL    HW129351   3.795   5.806   4.718
 9484SOL    HW229352   3.731   5.922   4.623
 9485SOL     OW29353   0.056   0.838   7.015
 9485SOL    HW129354   0.127   0.908   7.013
 9485SOL    HW229355   7.000   0.867   6.958
 9486SOL     OW29356   5.385   5.859   0.191
 9486SOL    HW129357   5.429   5.947   0.175
 9486SOL    HW229358   5.322   5.838   0.116
 9487SOL     OW29359   3.472   3.222   3.060
 9487SOL    HW129360   3.386   3.259   3.093
 9487SOL    HW229361   3.467   3.206   2.962
 9488SOL     OW29362   1.610   0.362   1.302
 9488SOL    HW129363   1.636   0.316   1.217
 9488SOL    HW229364   1.683   0.426   1.328
 9489SOL     OW29365   5.592   3.019   0.130
 9489SOL    HW129366   5.512   2.968   0.162
 9489SOL    HW229367   5.573   3.117   0.137
 9490SOL     OW29368   5.399   3.240   4.544
 9490SOL    HW129369   5.315   3.203   4.582
 9490SOL    HW229370   5.377   3.303   4.469
 9491SOL     OW29371   5.189   6.127   2.819
 9491SOL    HW129372   5.146   6.124   2.729
 9491SOL    HW229373   5.288   6.113   2.809
 9492SOL     OW29374   5.065   2.737   3.426
 9492SOL    HW129375   4.997   2.810   3.437
 9492SOL    HW229376   5.018   2.653   3.399
 9493SOL     OW29377   4.135   6.287   1.474
 9493SOL    HW129378   4.181   6.200   1.455
 9493SOL    HW229379   4.095   6.322   1.389
 9494SOL     OW29380   5.789   2.227   1.785
 9494SOL    HW129381   5.750   2.248   1.875
 9494SOL    HW229382   5.792   2.311   1.730
 9495SOL     OW29383   0.336   2.247   1.378
 9495SOL    HW129384   0.329   2.345   1.397
 9495SOL    HW229385   0.344   2.197   1.465
 9496SOL     OW29386   5.568   2.142   1.647
 9496SOL    HW129387   5.661   2.164   1.675
 9496SOL    HW229388   5.549   2.046   1.665
 9497SOL     OW29389   4.641   4.341   4.685
 9497SOL    HW129390   4.685   4.426   4.655
 9497SOL    HW229391   4.547   4.338   4.651
 9498SOL     OW29392   0.165   5.610   4.528
 9498SOL    HW129393   0.181   5.514   4.550
 9498SOL    HW229394   0.109   5.617   4.445
 9499SOL     OW29395   6.131   5.980   5.164
 9499SOL    HW129396   6.221   6.000   5.125
 9499SOL    HW229397   6.062   6.040   5.123
 9500SOL     OW29398   3.792   1.711   0.639
 9500SOL    HW129399   3.698   1.701   0.671
 9500SOL    HW229400   3.855   1.705   0.716
 9501SOL     OW29401   1.986   3.089   5.095
 9501SOL    HW129402   2.054   3.109   5.166
 9501SOL    HW229403   2.006   3.000   5.054
 9502SOL     OW29404   5.055   4.634   3.995
 9502SOL    HW129405   5.035   4.726   4.029
 9502SOL    HW229406   5.122   4.591   4.054
 9503SOL     OW29407   6.998   1.534   0.107
 9503SOL    HW129408   0.049   1.535   0.176
 9503SOL    HW229409   6.923   1.593   0.137
 9504SOL     OW29410   5.950   5.359   2.154
 9504SOL    HW129411   5.854   5.366   2.182
 9504SOL    HW229412   5.997   5.446   2.172
 9505SOL     OW29413   4.032   5.193   6.015
 9505SOL    HW129414   4.035   5.147   6.104
 9505SOL    HW229415   4.122   5.191   5.972
 9506SOL     OW29416   3.000   0.833   0.947
 9506SOL    HW129417   2.948   0.757   0.985
 9506SOL    HW229418   3.008   0.821   0.848
 9507SOL     OW29419   5.436   0.250   1.882
 9507SOL    HW129420   5.338   0.235   1.891
 9507SOL    HW229421   5.485   0.165   1.899
 9508SOL     OW29422   4.616   1.953   2.440
 9508SOL    HW129423   4.628   1.898   2.358
 9508SOL    HW229424   4.590   2.047   2.415
 9509SOL     OW29425   5.382   0.622   3.434
 9509SOL    HW129426   5.463   0.677   3.413
 9509SOL    HW229427   5.400   0.566   3.514
 9510SOL     OW29428   1.230   3.140   3.886
 9510SOL    HW129429   1.158   3.090   3.934
 9510SOL    HW229430   1.203   3.236   3.874
 9511SOL     OW29431   0.386   1.646   1.215
 9511SOL    HW129432   0.486   1.643   1.210
 9511SOL    HW229433   0.358   1.683   1.303
 9512SOL     OW29434   6.342   2.141   1.374
 9512SOL    HW129435   6.343   2.122   1.473
 9512SOL    HW229436   6.273   2.084   1.330
 9513SOL     OW29437   4.498   4.429   5.740
 9513SOL    HW129438   4.420   4.426   5.677
 9513SOL    HW229439   4.475   4.381   5.825
 9514SOL     OW29440   3.617   2.792   6.694
 9514SOL    HW129441   3.630   2.890   6.678
 9514SOL    HW229442   3.674   2.763   6.770
 9515SOL     OW29443   0.963   5.739   3.013
 9515SOL    HW129444   0.963   5.647   2.973
 9515SOL    HW229445   1.043   5.750   3.071
 9516SOL     OW29446   0.442   4.683   0.028
 9516SOL    HW129447   0.381   4.626   0.083
 9516SOL    HW229448   0.458   4.640   6.961
 9517SOL     OW29449   0.505   5.685   1.235
 9517SOL    HW129450   0.442   5.702   1.310
 9517SOL    HW229451   0.599   5.691   1.267
 9518SOL     OW29452   1.061   1.230   0.762
 9518SOL    HW129453   1.110   1.188   0.838
 9518SOL    HW229454   1.026   1.320   0.790
 9519SOL     OW29455   1.281   3.290   5.354
 9519SOL    HW129456   1.366   3.343   5.353
 9519SOL    HW229457   1.244   3.284   5.262
 9520SOL     OW29458   4.286   6.874   1.657
 9520SOL    HW129459   4.237   6.887   1.743
 9520SOL    HW229460   4.348   6.796   1.664
 9521SOL     OW29461   5.267   5.142   3.786
 9521SOL    HW129462   5.297   5.103   3.699
 9521SOL    HW229463   5.197   5.083   3.826
 9522SOL     OW29464   3.288   6.338   1.077
 9522SOL    HW129465   3.334   6.251   1.056
 9522SOL    HW229466   3.328   6.378   1.160
 9523SOL     OW29467   2.857   5.703   5.506
 9523SOL    HW129468   2.955   5.694   5.527
 9523SOL    HW229469   2.840   5.665   5.415
 9524SOL     OW29470   4.606   2.491   0.848
 9524SOL    HW129471   4.669   2.414   0.845
 9524SOL    HW229472   4.632   2.553   0.922
 9525SOL     OW29473   3.569   0.516   5.612
 9525SOL    HW129474   3.562   0.591   5.677
 9525SOL    HW229475   3.663   0.482   5.610
 9526SOL     OW29476   4.958   5.569   2.078
 9526SOL    HW129477   5.043   5.529   2.044
 9526SOL    HW229478   4.925   5.637   2.014
 9527SOL     OW29479   5.935   2.040   1.033
 9527SOL    HW129480   5.839   2.053   1.006
 9527SOL    HW229481   5.963   2.116   1.091
 9528SOL     OW29482   6.130   0.571   1.822
 9528SOL    HW129483   6.108   0.561   1.919
 9528SOL    HW229484   6.054   0.616   1.775
 9529SOL     OW29485   0.879   3.247   4.828
 9529SOL    HW129486   0.835   3.281   4.745
 9529SOL    HW229487   0.841   3.157   4.851
 9530SOL     OW29488   1.747   2.144   4.136
 9530SOL    HW129489   1.771   2.201   4.214
 9530SOL    HW229490   1.787   2.054   4.147
 9531SOL     OW29491   2.884   6.318   3.311
 9531SOL    HW129492   2.955   6.303   3.380
 9531SOL    HW229493   2.824   6.239   3.307
 9532SOL     OW29494   3.122   1.087   1.053
 9532SOL    HW129495   3.081   0.999   1.028
 9532SOL    HW229496   3.059   1.138   1.111
 9533SOL     OW29497   1.762   0.422   4.890
 9533SOL    HW129498   1.677   0.377   4.916
 9533SOL    HW229499   1.783   0.494   4.957
 9534SOL     OW29500   4.679   1.710   4.120
 9534SOL    HW129501   4.736   1.792   4.122
 9534SOL    HW229502   4.734   1.632   4.091
 9535SOL     OW29503   2.410   2.248   5.646
 9535SOL    HW129504   2.380   2.226   5.553
 9535SOL    HW229505   2.505   2.218   5.658
 9536SOL     OW29506   3.434   0.217   6.699
 9536SOL    HW129507   3.527   0.244   6.673
 9536SOL    HW229508   3.382   0.191   6.618
 9537SOL     OW29509   2.720   6.805   0.928
 9537SOL    HW129510   2.771   6.745   0.867
 9537SOL    HW229511   2.631   6.763   0.949
 9538SOL     OW29512   5.968   3.047   4.093
 9538SOL    HW129513   6.064   3.035   4.118
 9538SOL    HW229514   5.920   2.960   4.103
 9539SOL     OW29515   0.232   5.189   1.238
 9539SOL    HW129516   0.251   5.159   1.144
 9539SOL    HW229517   0.142   5.156   1.266
 9540SOL     OW29518   5.444   3.466   5.249
 9540SOL    HW129519   5.503   3.425   5.319
 9540SOL    HW229520   5.351   3.476   5.286
 9541SOL     OW29521   0.469   2.063   3.269
 9541SOL    HW129522   0.538   1.995   3.243
 9541SOL    HW229523   0.381   2.018   3.280
 9542SOL     OW29524   5.117   4.083   4.231
 9542SOL    HW129525   5.136   4.055   4.325
 9542SOL    HW229526   5.175   4.030   4.168
 9543SOL     OW29527   5.420   2.182   1.895
 9543SOL    HW129528   5.441   2.207   1.800
 9543SOL    HW229529   5.376   2.092   1.896
 9544SOL     OW29530   3.247   1.791   1.972
 9544SOL    HW129531   3.341   1.822   1.984
 9544SOL    HW229532   3.187   1.844   2.032
 9545SOL     OW29533   0.335   0.130   4.417
 9545SOL    HW129534   0.389   0.048   4.439
 9545SOL    HW229535   0.389   0.212   4.436
 9546SOL     OW29536   2.469   4.237   1.781
 9546SOL    HW129537   2.503   4.325   1.749
 9546SOL    HW229538   2.371   4.231   1.765
 9547SOL     OW29539   6.224   5.688   2.802
 9547SOL    HW129540   6.207   5.781   2.837
 9547SOL    HW229541   6.316   5.684   2.762
 9548SOL     OW29542   4.537   6.426   2.779
 9548SOL    HW129543   4.522   6.420   2.878
 9548SOL    HW229544   4.532   6.521   2.749
 9549SOL     OW29545   2.753   5.595   0.143
 9549SOL    HW129546   2.782   5.679   0.098
 9549SOL    HW229547   2.829   5.557   0.196
 9550SOL     OW29548   1.199   1.891   0.381
 9550SOL    HW129549   1.282   1.882   0.325
 9550SOL    HW229550   1.224   1.924   0.472
 9551SOL     OW29551   1.994   5.998   5.616
 9551SOL    HW129552   2.051   5.928   5.659
 9551SOL    HW229553   1.987   6.077   5.678
 9552SOL     OW29554   0.488   5.714   3.700
 9552SOL    HW129555   0.484   5.736   3.602
 9552SOL    HW229556   0.520   5.619   3.711
 9553SOL     OW29557   5.240   4.548   5.301
 9553SOL    HW129558   5.253   4.466   5.357
 9553SOL    HW229559   5.308   4.616   5.325
 9554SOL     OW29560   2.040   0.986   1.875
 9554SOL    HW129561   1.958   0.996   1.931
 9554SOL    HW229562   2.027   0.908   1.813
 9555SOL     OW29563   6.606   2.277   6.308
 9555SOL    HW129564   6.611   2.328   6.393
 9555SOL    HW229565   6.512   2.275   6.275
 9556SOL     OW29566   6.983   2.223   0.852
 9556SOL    HW129567   0.032   2.191   0.788
 9556SOL    HW229568   7.021   2.229   0.944
 9557SOL     OW29569   5.392   2.609   1.440
 9557SOL    HW129570   5.437   2.686   1.485
 9557SOL    HW229571   5.297   2.603   1.472
 9558SOL     OW29572   5.941   4.655   1.856
 9558SOL    HW129573   5.944   4.717   1.778
 9558SOL    HW229574   5.931   4.708   1.940
 9559SOL     OW29575   6.558   2.833   2.753
 9559SOL    HW129576   6.503   2.774   2.813
 9559SOL    HW229577   6.507   2.852   2.669
 9560SOL     OW29578   3.898   1.695   4.665
 9560SOL    HW129579   3.987   1.653   4.654
 9560SOL    HW229580   3.839   1.636   4.720
 9561SOL     OW29581   3.534   6.651   0.489
 9561SOL    HW129582   3.569   6.564   0.456
 9561SOL    HW229583   3.593   6.726   0.458
 9562SOL     OW29584   5.680   5.165   3.430
 9562SOL    HW129585   5.747   5.164   3.355
 9562SOL    HW229586   5.693   5.247   3.485
 9563SOL     OW29587   0.069   5.689   6.823
 9563SOL    HW129588   7.017   5.676   6.889
 9563SOL    HW229589   0.050   5.769   6.767
 9564SOL     OW29590   1.859   0.174   6.432
 9564SOL    HW129591   1.843   0.160   6.334
 9564SOL    HW229592   1.881   0.087   6.475
 9565SOL     OW29593   3.673   5.924   4.002
 9565SOL    HW129594   3.588   5.883   3.969
 9565SOL    HW229595   3.703   5.876   4.085
 9566SOL     OW29596   3.138   4.694   5.562
 9566SOL    HW129597   3.135   4.668   5.465
 9566SOL    HW229598   3.233   4.696   5.593
 9567SOL     OW29599   6.290   5.777   5.528
 9567SOL    HW129600   6.236   5.697   5.503
 9567SOL    HW229601   6.386   5.760   5.505
 9568SOL     OW29602   5.503   4.015   6.120
 9568SOL    HW129603   5.406   4.013   6.144
 9568SOL    HW229604   5.545   3.927   6.142
 9569SOL     OW29605   5.172   6.613   1.752
 9569SOL    HW129606   5.241   6.656   1.694
 9569SOL    HW229607   5.203   6.522   1.779
 9570SOL     OW29608   0.829   0.544   6.751
 9570SOL    HW129609   0.865   0.634   6.729
 9570SOL    HW229610   0.769   0.512   6.677
 9571SOL     OW29611   2.358   2.837   6.724
 9571SOL    HW129612   2.301   2.914   6.695
 9571SOL    HW229613   2.348   2.762   6.659
 9572SOL     OW29614   0.403   4.418   0.854
 9572SOL    HW129615   0.415   4.332   0.904
 9572SOL    HW229616   0.488   4.470   0.856
 9573SOL     OW29617   6.350   1.698   1.915
 9573SOL    HW129618   6.325   1.602   1.899
 9573SOL    HW229619   6.417   1.703   1.989
 9574SOL     OW29620   2.519   2.054   4.023
 9574SOL    HW129621   2.524   2.114   4.103
 9574SOL    HW229622   2.529   1.959   4.052
 9575SOL     OW29623   4.761   0.935   2.673
 9575SOL    HW129624   4.774   0.903   2.767
 9575SOL    HW229625   4.848   0.968   2.637
 9576SOL     OW29626   4.159   2.177   5.445
 9576SOL    HW129627   4.151   2.159   5.542
 9576SOL    HW229628   4.104   2.111   5.394
 9577SOL     OW29629   0.594   6.482   3.075
 9577SOL    HW129630   0.517   6.445   3.024
 9577SOL    HW229631   0.665   6.511   3.010
 9578SOL     OW29632   6.410   3.953   1.938
 9578SOL    HW129633   6.479   3.967   2.009
 9578SOL    HW229634   6.375   4.042   1.908
 9579SOL     OW29635   1.592   6.073   2.850
 9579SOL    HW129636   1.525   6.134   2.893
 9579SOL    HW229637   1.560   6.046   2.760
 9580SOL     OW29638   4.483   3.488   5.639
 9580SOL    HW129639   4.571   3.462   5.677
 9580SOL    HW229640   4.475   3.588   5.638
 9581SOL     OW29641   1.439   5.171   5.975
 9581SOL    HW129642   1.439   5.073   5.993
 9581SOL    HW229643   1.533   5.203   5.961
 9582SOL     OW29644   4.509   4.833   3.685
 9582SOL    HW129645   4.484   4.809   3.591
 9582SOL    HW229646   4.475   4.762   3.747
 9583SOL     OW29647   2.283   4.673   1.866
 9583SOL    HW129648   2.239   4.587   1.840
 9583SOL    HW229649   2.382   4.660   1.869
 9584SOL     OW29650   5.877   5.491   6.867
 9584SOL    HW129651   5.881   5.395   6.895
 9584SOL    HW229652   5.796   5.534   6.907
 9585SOL     OW29653   0.292   6.993   3.057
 9585SOL    HW129654   0.325   6.938   3.133
 9585SOL    HW229655   0.195   7.013   3.070
 9586SOL     OW29656   5.282   2.826   2.443
 9586SOL    HW129657   5.273   2.735   2.402
 9586SOL    HW229658   5.229   2.831   2.528
 9587SOL     OW29659   4.728   6.730   2.478
 9587SOL    HW129660   4.774   6.658   2.427
 9587SOL    HW229661   4.796   6.786   2.526
 9588SOL     OW29662   6.886   7.005   3.460
 9588SOL    HW129663   6.901   6.957   3.373
 9588SOL    HW229664   6.963   0.046   3.476
 9589SOL     OW29665   2.482   1.561   5.436
 9589SOL    HW129666   2.562   1.603   5.394
 9589SOL    HW229667   2.479   1.584   5.533
 9590SOL     OW29668   0.284   4.814   4.278
 9590SOL    HW129669   0.317   4.848   4.190
 9590SOL    HW229670   0.362   4.795   4.338
 9591SOL     OW29671   1.572   4.644   2.988
 9591SOL    HW129672   1.510   4.713   3.025
 9591SOL    HW229673   1.628   4.685   2.915
 9592SOL     OW29674   4.615   5.923   1.693
 9592SOL    HW129675   4.614   5.919   1.793
 9592SOL    HW229676   4.704   5.956   1.662
 9593SOL     OW29677   1.611   3.161   3.778
 9593SOL    HW129678   1.542   3.201   3.718
 9593SOL    HW229679   1.630   3.067   3.750
 9594SOL     OW29680   6.173   6.879   1.746
 9594SOL    HW129681   6.166   6.970   1.786
 9594SOL    HW229682   6.185   6.887   1.647
 9595SOL     OW29683   1.145   4.372   4.658
 9595SOL    HW129684   1.133   4.449   4.721
 9595SOL    HW229685   1.234   4.329   4.676
 9596SOL     OW29686   5.007   5.411   2.773
 9596SOL    HW129687   5.082   5.425   2.838
 9596SOL    HW229688   4.993   5.313   2.759
 9597SOL     OW29689   1.684   4.405   0.949
 9597SOL    HW129690   1.603   4.404   1.007
 9597SOL    HW229691   1.658   4.432   0.856
 9598SOL     OW29692   1.589   5.861   5.570
 9598SOL    HW129693   1.510   5.919   5.549
 9598SOL    HW229694   1.667   5.889   5.514
 9599SOL     OW29695   4.520   1.448   4.070
 9599SOL    HW129696   4.468   1.371   4.033
 9599SOL    HW229697   4.592   1.475   4.006
 9600SOL     OW29698   1.745   5.914   0.052
 9600SOL    HW129699   1.750   5.824   0.009
 9600SOL    HW229700   1.805   5.977   0.003
 9601SOL     OW29701   0.815   6.796   6.441
 9601SOL    HW129702   0.871   6.794   6.358
 9601SOL    HW229703   0.734   6.739   6.429
 9602SOL     OW29704   0.861   5.685   0.321
 9602SOL    HW129705   0.822   5.777   0.318
 9602SOL    HW229706   0.927   5.675   0.246
 9603SOL     OW29707   1.204   5.074   3.421
 9603SOL    HW129708   1.215   4.975   3.425
 9603SOL    HW229709   1.107   5.097   3.413
 9604SOL     OW29710   6.695   0.036   0.391
 9604SOL    HW129711   6.738   6.985   0.444
 9604SOL    HW229712   6.674   0.113   0.452
 9605SOL     OW29713   2.426   5.908   0.146
 9605SOL    HW129714   2.411   5.823   0.197
 9605SOL    HW229715   2.342   5.931   0.095
 9606SOL     OW29716   6.201   0.675   5.158
 9606SOL    HW129717   6.228   0.714   5.246
 9606SOL    HW229718   6.269   0.607   5.130
 9607SOL     OW29719   0.002   2.499   2.662
 9607SOL    HW129720   6.944   2.560   2.660
 9607SOL    HW229721   6.996   2.407   2.637
 9608SOL     OW29722   6.221   0.365   2.618
 9608SOL    HW129723   6.131   0.355   2.661
 9608SOL    HW229724   6.226   0.307   2.538
 9609SOL     OW29725   1.565   2.510   3.781
 9609SOL    HW129726   1.654   2.556   3.788
 9609SOL    HW229727   1.578   2.411   3.789
 9610SOL     OW29728   3.844   1.491   6.110
 9610SOL    HW129729   3.800   1.402   6.124
 9610SOL    HW229730   3.912   1.483   6.037
 9611SOL     OW29731   6.325   5.382   0.715
 9611SOL    HW129732   6.367   5.451   0.775
 9611SOL    HW229733   6.256   5.331   0.767
 9612SOL     OW29734   4.866   3.531   2.855
 9612SOL    HW129735   4.921   3.526   2.772
 9612SOL    HW229736   4.772   3.554   2.831
 9613SOL     OW29737   5.940   6.535   5.235
 9613SOL    HW129738   6.033   6.525   5.272
 9613SOL    HW229739   5.942   6.596   5.156
 9614SOL     OW29740   3.344   2.798   1.988
 9614SOL    HW129741   3.355   2.734   2.064
 9614SOL    HW229742   3.363   2.750   1.902
 9615SOL     OW29743   0.555   6.158   4.043
 9615SOL    HW129744   0.620   6.153   4.119
 9615SOL    HW229745   0.603   6.144   3.957
 9616SOL     OW29746   1.891   3.183   1.660
 9616SOL    HW129747   1.810   3.195   1.717
 9616SOL    HW229748   1.972   3.212   1.710
 9617SOL     OW29749   0.353   2.720   2.408
 9617SOL    HW129750   0.438   2.773   2.413
 9617SOL    HW229751   0.290   2.753   2.478
 9618SOL     OW29752   4.233   4.140   0.439
 9618SOL    HW129753   4.135   4.157   0.428
 9618SOL    HW229754   4.269   4.095   0.357
 9619SOL     OW29755   1.399   7.012   1.174
 9619SOL    HW129756   1.359   0.082   1.177
 9619SOL    HW229757   1.391   6.975   1.081
 9620SOL     OW29758   3.666   2.001   0.138
 9620SOL    HW129759   3.617   2.068   0.193
 9620SOL    HW229760   3.649   2.017   0.041
 9621SOL     OW29761   0.622   1.561   2.368
 9621SOL    HW129762   0.622   1.658   2.343
 9621SOL    HW229763   0.699   1.515   2.323
 9622SOL     OW29764   0.446   5.725   6.394
 9622SOL    HW129765   0.469   5.773   6.478
 9622SOL    HW229766   0.528   5.714   6.338
 9623SOL     OW29767   4.325   6.473   5.853
 9623SOL    HW129768   4.300   6.486   5.949
 9623SOL    HW229769   4.247   6.434   5.804
 9624SOL     OW29770   4.733   5.004   4.334
 9624SOL    HW129771   4.687   5.064   4.400
 9624SOL    HW229772   4.671   4.982   4.259
 9625SOL     OW29773   5.084   4.123   6.167
 9625SOL    HW129774   5.126   4.194   6.110
 9625SOL    HW229775   5.156   4.061   6.201
 9626SOL     OW29776   2.491   2.439   0.022
 9626SOL    HW129777   2.532   2.404   6.959
 9626SOL    HW229778   2.533   2.527   0.046
 9627SOL     OW29779   0.438   5.281   0.180
 9627SOL    HW129780   0.453   5.375   0.150
 9627SOL    HW229781   0.497   5.219   0.130
 9628SOL     OW29782   6.505   1.810   6.526
 9628SOL    HW129783   6.531   1.868   6.604
 9628SOL    HW229784   6.424   1.757   6.549
 9629SOL     OW29785   0.172   6.126   3.689
 9629SOL    HW129786   0.174   6.028   3.709
 9629SOL    HW229787   0.207   6.177   3.767
 9630SOL     OW29788   6.117   0.845   5.521
 9630SOL    HW129789   6.175   0.764   5.529
 9630SOL    HW229790   6.027   0.819   5.485
 9631SOL     OW29791   4.256   6.425   0.756
 9631SOL    HW129792   4.238   6.424   0.854
 9631SOL    HW229793   4.289   6.515   0.729
 9632SOL     OW29794   2.658   5.335   2.780
 9632SOL    HW129795   2.722   5.383   2.840
 9632SOL    HW229796   2.641   5.243   2.815
 9633SOL     OW29797   3.445   3.443   3.354
 9633SOL    HW129798   3.433   3.540   3.376
 9633SOL    HW229799   3.530   3.431   3.303
 9634SOL     OW29800   5.385   4.920   3.042
 9634SOL    HW129801   5.394   4.859   3.121
 9634SOL    HW229802   5.369   4.866   2.960
 9635SOL     OW29803   0.718   5.385   3.874
 9635SOL    HW129804   0.746   5.479   3.896
 9635SOL    HW229805   0.770   5.321   3.930
 9636SOL     OW29806   5.190   3.775   3.881
 9636SOL    HW129807   5.098   3.795   3.849
 9636SOL    HW229808   5.256   3.797   3.809
 9637SOL     OW29809   1.083   3.505   6.862
 9637SOL    HW129810   1.089   3.586   6.804
 9637SOL    HW229811   0.996   3.459   6.845
 9638SOL     OW29812   6.114   5.733   6.066
 9638SOL    HW129813   6.054   5.747   6.144
 9638SOL    HW229814   6.163   5.646   6.076
 9639SOL     OW29815   4.602   1.766   1.341
 9639SOL    HW129816   4.542   1.756   1.262
 9639SOL    HW229817   4.639   1.858   1.344
 9640SOL     OW29818   4.299   0.460   3.679
 9640SOL    HW129819   4.200   0.471   3.692
 9640SOL    HW229820   4.316   0.386   3.614
 9641SOL     OW29821   6.751   3.362   3.405
 9641SOL    HW129822   6.696   3.292   3.452
 9641SOL    HW229823   6.762   3.441   3.465
 9642SOL     OW29824   0.673   0.659   4.641
 9642SOL    HW129825   0.769   0.686   4.636
 9642SOL    HW229826   0.658   0.608   4.725
 9643SOL     OW29827   4.771   5.197   3.917
 9643SOL    HW129828   4.824   5.193   4.001
 9643SOL    HW229829   4.690   5.255   3.931
 9644SOL     OW29830   0.688   5.519   4.181
 9644SOL    HW129831   0.718   5.583   4.110
 9644SOL    HW229832   0.708   5.557   4.271
 9645SOL     OW29833   1.012   4.865   6.314
 9645SOL    HW129834   1.027   4.905   6.223
 9645SOL    HW229835   1.083   4.898   6.376
 9646SOL     OW29836   4.084   5.442   6.700
 9646SOL    HW129837   4.176   5.416   6.727
 9646SOL    HW229838   4.044   5.502   6.769
 9647SOL     OW29839   6.023   6.729   2.736
 9647SOL    HW129840   6.014   6.811   2.681
 9647SOL    HW229841   6.002   6.649   2.680
 9648SOL     OW29842   4.020   2.080   1.176
 9648SOL    HW129843   4.099   2.040   1.223
 9648SOL    HW229844   3.973   2.010   1.122
 9649SOL     OW29845   0.388   5.932   0.411
 9649SOL    HW129846   0.487   5.945   0.406
 9649SOL    HW229847   0.367   5.836   0.433
 9650SOL     OW29848   0.036   4.858   4.180
 9650SOL    HW129849   0.052   4.893   4.088
 9650SOL    HW229850   0.123   4.847   4.227
 9651SOL     OW29851   4.387   1.705   6.996
 9651SOL    HW129852   4.292   1.733   7.010
 9651SOL    HW229853   4.429   1.763   6.927
 9652SOL     OW29854   0.664   4.240   0.556
 9652SOL    HW129855   0.735   4.310   0.564
 9652SOL    HW229856   0.576   4.283   0.536
 9653SOL     OW29857   4.809   4.384   5.985
 9653SOL    HW129858   4.751   4.333   5.921
 9653SOL    HW229859   4.830   4.326   6.064
 9654SOL     OW29860   3.295   3.604   3.022
 9654SOL    HW129861   3.251   3.663   3.090
 9654SOL    HW229862   3.281   3.508   3.048
 9655SOL     OW29863   4.553   1.668   0.667
 9655SOL    HW129864   4.558   1.717   0.754
 9655SOL    HW229865   4.460   1.674   0.630
 9656SOL     OW29866   5.621   4.232   6.300
 9656SOL    HW129867   5.573   4.171   6.237
 9656SOL    HW229868   5.555   4.293   6.344
 9657SOL     OW29869   5.958   3.887   4.076
 9657SOL    HW129870   5.900   3.809   4.101
 9657SOL    HW229871   6.040   3.886   4.132
 9658SOL     OW29872   4.679   1.527   1.975
 9658SOL    HW129873   4.600   1.567   1.928
 9658SOL    HW229874   4.753   1.512   1.909
 9659SOL     OW29875   2.265   3.122   6.692
 9659SOL    HW129876   2.202   3.106   6.767
 9659SOL    HW229877   2.269   3.220   6.672
 9660SOL     OW29878   1.836   6.290   1.632
 9660SOL    HW129879   1.864   6.203   1.671
 9660SOL    HW229880   1.806   6.277   1.538
 9661SOL     OW29881   4.656   3.912   1.318
 9661SOL    HW129882   4.680   4.009   1.325
 9661SOL    HW229883   4.556   3.902   1.322
 9662SOL     OW29884   5.605   6.434   6.529
 9662SOL    HW129885   5.517   6.436   6.481
 9662SOL    HW229886   5.667   6.371   6.483
 9663SOL     OW29887   0.992   5.431   2.073
 9663SOL    HW129888   0.936   5.478   2.004
 9663SOL    HW229889   0.972   5.334   2.070
 9664SOL     OW29890   4.140   4.927   2.154
 9664SOL    HW129891   4.074   5.000   2.173
 9664SOL    HW229892   4.227   4.967   2.125
 9665SOL     OW29893   0.019   5.442   6.203
 9665SOL    HW129894   6.972   5.509   6.176
 9665SOL    HW229895   0.109   5.473   6.176
 9666SOL     OW29896   5.718   4.321   6.741
 9666SOL    HW129897   5.682   4.366   6.822
 9666SOL    HW229898   5.748   4.229   6.765
 9667SOL     OW29899   5.942   6.297   6.772
 9667SOL    HW129900   5.908   6.239   6.698
 9667SOL    HW229901   5.913   6.259   6.860
 9668SOL     OW29902   1.235   0.974   5.936
 9668SOL    HW129903   1.242   0.907   6.009
 9668SOL    HW229904   1.183   0.935   5.860
 9669SOL     OW29905   3.213   0.473   0.554
 9669SOL    HW129906   3.179   0.397   0.499
 9669SOL    HW229907   3.309   0.490   0.532
 9670SOL     OW29908   0.755   0.067   0.353
 9670SOL    HW129909   0.705   0.080   0.438
 9670SOL    HW229910   0.828   0.135   0.346
 9671SOL     OW29911   0.964   5.235   6.446
 9671SOL    HW129912   0.876   5.190   6.431
 9671SOL    HW229913   1.035   5.167   6.464
 9672SOL     OW29914   0.871   3.694   4.346
 9672SOL    HW129915   0.909   3.787   4.344
 9672SOL    HW229916   0.860   3.661   4.252
 9673SOL     OW29917   1.569   3.434   0.230
 9673SOL    HW129918   1.507   3.462   0.303
 9673SOL    HW229919   1.581   3.335   0.232
 9674SOL     OW29920   1.898   6.332   4.088
 9674SOL    HW129921   1.947   6.337   4.001
 9674SOL    HW229922   1.834   6.255   4.086
 9675SOL     OW29923   6.427   3.752   6.312
 9675SOL    HW129924   6.524   3.759   6.286
 9675SOL    HW229925   6.377   3.829   6.273
 9676SOL     OW29926   0.830   2.708   6.527
 9676SOL    HW129927   0.926   2.736   6.529
 9676SOL    HW229928   0.772   2.790   6.531
 9677SOL     OW29929   6.850   5.462   2.036
 9677SOL    HW129930   6.937   5.507   2.015
 9677SOL    HW229931   6.844   5.446   2.134
 9678SOL     OW29932   3.320   3.395   5.384
 9678SOL    HW129933   3.258   3.461   5.427
 9678SOL    HW229934   3.298   3.303   5.416
 9679SOL     OW29935   1.835   1.486   4.176
 9679SOL    HW129936   1.895   1.551   4.131
 9679SOL    HW229937   1.757   1.466   4.116
 9680SOL     OW29938   4.204   6.846   1.923
 9680SOL    HW129939   4.106   6.861   1.920
 9680SOL    HW229940   4.223   6.753   1.954
 9681SOL     OW29941   1.093   2.109   1.835
 9681SOL    HW129942   1.167   2.150   1.782
 9681SOL    HW229943   1.018   2.085   1.774
 9682SOL     OW29944   5.053   6.299   6.034
 9682SOL    HW129945   5.135   6.242   6.039
 9682SOL    HW229946   5.010   6.287   5.944
 9683SOL     OW29947   3.362   6.183   3.225
 9683SOL    HW129948   3.375   6.251   3.153
 9683SOL    HW229949   3.323   6.100   3.187
 9684SOL     OW29950   6.864   3.699   5.630
 9684SOL    HW129951   6.906   3.752   5.556
 9684SOL    HW229952   6.790   3.643   5.594
 9685SOL     OW29953   3.329   4.231   1.172
 9685SOL    HW129954   3.413   4.177   1.174
 9685SOL    HW229955   3.267   4.198   1.244
 9686SOL     OW29956   6.126   1.057   5.346
 9686SOL    HW129957   6.045   1.060   5.288
 9686SOL    HW229958   6.120   0.980   5.409
 9687SOL     OW29959   5.741   0.895   3.140
 9687SOL    HW129960   5.823   0.895   3.198
 9687SOL    HW229961   5.696   0.984   3.147
 9688SOL     OW29962   0.876   5.087   1.411
 9688SOL    HW129963   0.935   5.043   1.478
 9688SOL    HW229964   0.781   5.085   1.443
 9689SOL     OW29965   2.180   6.226   0.947
 9689SOL    HW129966   2.176   6.302   0.883
 9689SOL    HW229967   2.276   6.205   0.969
 9690SOL     OW29968   6.482   4.450   4.891
 9690SOL    HW129969   6.536   4.399   4.824
 9690SOL    HW229970   6.541   4.514   4.940
 9691SOL     OW29971   2.914   3.646   1.689
 9691SOL    HW129972   2.929   3.664   1.787
 9691SOL    HW229973   3.001   3.651   1.641
 9692SOL     OW29974   5.093   4.334   0.901
 9692SOL    HW129975   5.192   4.318   0.896
 9692SOL    HW229976   5.067   4.407   0.838
 9693SOL     OW29977   4.731   3.010   5.155
 9693SOL    HW129978   4.800   3.081   5.171
 9693SOL    HW229979   4.682   2.992   5.241
 9694SOL     OW29980   2.806   0.112   1.940
 9694SOL    HW129981   2.869   0.034   1.940
 9694SOL    HW229982   2.714   0.080   1.917
 9695SOL     OW29983   1.123   3.020   3.635
 9695SOL    HW129984   1.169   3.043   3.721
 9695SOL    HW229985   1.185   3.039   3.558
 9696SOL     OW29986   5.515   2.708   3.673
 9696SOL    HW129987   5.522   2.648   3.593
 9696SOL    HW229988   5.447   2.671   3.737
 9697SOL     OW29989   0.524   6.635   0.717
 9697SOL    HW129990   0.463   6.588   0.782
 9697SOL    HW229991   0.600   6.676   0.767
 9698SOL     OW29992   6.706   3.312   1.785
 9698SOL    HW129993   6.796   3.340   1.753
 9698SOL    HW229994   6.698   3.331   1.883
 9699SOL     OW29995   1.707   5.943   1.292
 9699SOL    HW129996   1.703   5.922   1.194
 9699SOL    HW229997   1.639   5.889   1.341
 9700SOL     OW29998   5.379   0.005   5.552
 9700SOL    HW129999   5.409   0.054   5.470
 9700SOL    HW230000   5.374   6.929   5.532
 9701SOL     OW30001   4.479   4.210   6.894
 9701SOL    HW130002   4.413   4.229   6.967
 9701SOL    HW230003   4.456   4.123   6.850
 9702SOL     OW30004   3.654   3.945   2.312
 9702SOL    HW130005   3.636   4.033   2.268
 9702SOL    HW230006   3.707   3.887   2.250
 9703SOL     OW30007   5.844   4.399   4.016
 9703SOL    HW130008   5.940   4.372   4.001
 9703SOL    HW230009   5.810   4.356   4.100
 9704SOL     OW30010   1.454   4.442   2.857
 9704SOL    HW130011   1.426   4.533   2.888
 9704SOL    HW230012   1.456   4.441   2.757
 9705SOL     OW30013   0.370   2.726   5.110
 9705SOL    HW130014   0.323   2.637   5.116
 9705SOL    HW230015   0.439   2.731   5.182
 9706SOL     OW30016   0.896   1.403   2.762
 9706SOL    HW130017   0.804   1.365   2.754
 9706SOL    HW230018   0.891   1.498   2.792
 9707SOL     OW30019   1.024   4.726   1.932
 9707SOL    HW130020   1.050   4.730   2.029
 9707SOL    HW230021   1.046   4.636   1.895
 9708SOL     OW30022   2.724   0.604   2.079
 9708SOL    HW130023   2.806   0.661   2.080
 9708SOL    HW230024   2.737   0.529   2.015
 9709SOL     OW30025   5.665   2.505   1.389
 9709SOL    HW130026   5.683   2.408   1.400
 9709SOL    HW230027   5.569   2.523   1.410
 9710SOL     OW30028   6.292   5.418   4.182
 9710SOL    HW130029   6.230   5.469   4.242
 9710SOL    HW230030   6.252   5.329   4.161
 9711SOL     OW30031   3.434   0.728   0.402
 9711SOL    HW130032   3.463   0.693   0.491
 9711SOL    HW230033   3.334   0.735   0.400
 9712SOL     OW30034   5.682   1.451   6.833
 9712SOL    HW130035   5.601   1.467   6.890
 9712SOL    HW230036   5.759   1.425   6.890
 9713SOL     OW30037   1.861   6.389   2.619
 9713SOL    HW130038   1.924   6.466   2.607
 9713SOL    HW230039   1.777   6.420   2.663
 9714SOL     OW30040   2.299   4.340   4.835
 9714SOL    HW130041   2.246   4.351   4.919
 9714SOL    HW230042   2.309   4.242   4.815
 9715SOL     OW30043   6.406   3.894   6.665
 9715SOL    HW130044   6.436   3.802   6.692
 9715SOL    HW230045   6.306   3.893   6.652
 9716SOL     OW30046   2.095   5.372   0.402
 9716SOL    HW130047   2.007   5.410   0.431
 9716SOL    HW230048   2.169   5.413   0.455
 9717SOL     OW30049   4.017   1.934   5.414
 9717SOL    HW130050   3.978   1.945   5.506
 9717SOL    HW230051   3.945   1.907   5.351
 9718SOL     OW30052   4.109   2.206   5.966
 9718SOL    HW130053   4.148   2.261   6.040
 9718SOL    HW230054   4.115   2.109   5.989
 9719SOL     OW30055   5.067   6.575   6.066
 9719SOL    HW130056   5.005   6.515   6.015
 9719SOL    HW230057   5.081   6.538   6.158
 9720SOL     OW30058   2.177   3.343   3.443
 9720SOL    HW130059   2.200   3.390   3.528
 9720SOL    HW230060   2.142   3.409   3.377
 9721SOL     OW30061   0.823   1.324   0.473
 9721SOL    HW130062   0.906   1.354   0.425
 9721SOL    HW230063   0.801   1.389   0.545
 9722SOL     OW30064   3.924   2.313   5.261
 9722SOL    HW130065   3.882   2.403   5.259
 9722SOL    HW230066   3.896   2.261   5.181
 9723SOL     OW30067   6.635   0.291   5.125
 9723SOL    HW130068   6.606   0.382   5.153
 9723SOL    HW230069   6.555   0.236   5.101
 9724SOL     OW30070   1.575   4.900   0.537
 9724SOL    HW130071   1.505   4.867   0.601
 9724SOL    HW230072   1.664   4.865   0.564
 9725SOL     OW30073   4.124   4.873   4.844
 9725SOL    HW130074   4.045   4.928   4.872
 9725SOL    HW230075   4.136   4.879   4.745
 9726SOL     OW30076   0.128   0.699   3.389
 9726SOL    HW130077   0.211   0.696   3.444
 9726SOL    HW230078   0.136   0.771   3.320
 9727SOL     OW30079   6.501   1.896   1.441
 9727SOL    HW130080   6.466   1.897   1.347
 9727SOL    HW230081   6.533   1.987   1.466
 9728SOL     OW30082   4.662   1.816   4.367
 9728SOL    HW130083   4.630   1.909   4.351
 9728SOL    HW230084   4.659   1.764   4.281
 9729SOL     OW30085   0.040   4.879   3.142
 9729SOL    HW130086   6.980   4.916   3.099
 9729SOL    HW230087   0.113   4.872   3.074
 9730SOL     OW30088   1.207   4.574   3.015
 9730SOL    HW130089   1.258   4.650   3.056
 9730SOL    HW230090   1.214   4.579   2.916
 9731SOL     OW30091   5.758   3.145   2.134
 9731SOL    HW130092   5.756   3.203   2.053
 9731SOL    HW230093   5.755   3.202   2.216
 9732SOL     OW30094   1.408   3.530   3.004
 9732SOL    HW130095   1.487   3.490   2.958
 9732SOL    HW230096   1.438   3.598   3.071
 9733SOL     OW30097   5.749   4.721   2.146
 9733SOL    HW130098   5.764   4.623   2.153
 9733SOL    HW230099   5.686   4.750   2.219
 9734SOL     OW30100   5.517   5.651   6.456
 9734SOL    HW130101   5.532   5.595   6.375
 9734SOL    HW230102   5.522   5.593   6.538
 9735SOL     OW30103   0.696   2.200   1.129
 9735SOL    HW130104   0.610   2.152   1.140
 9735SOL    HW230105   0.680   2.285   1.078
 9736SOL     OW30106   4.712   2.021   4.645
 9736SOL    HW130107   4.628   1.966   4.644
 9736SOL    HW230108   4.732   2.050   4.738
 9737SOL     OW30109   6.591   3.463   3.207
 9737SOL    HW130110   6.662   3.406   3.249
 9737SOL    HW230111   6.513   3.470   3.270
 9738SOL     OW30112   2.576   7.015   1.863
 9738SOL    HW130113   2.595   6.942   1.929
 9738SOL    HW230114   2.482   0.025   1.874
 9739SOL     OW30115   6.226   0.015   0.655
 9739SOL    HW130116   6.230   6.945   0.614
 9739SOL    HW230117   6.210   0.083   0.584
 9740SOL     OW30118   6.270   1.418   2.671
 9740SOL    HW130119   6.186   1.404   2.724
 9740SOL    HW230120   6.316   1.331   2.656
 9741SOL     OW30121   2.769   1.888   4.338
 9741SOL    HW130122   2.829   1.867   4.416
 9741SOL    HW230123   2.701   1.815   4.328
 9742SOL     OW30124   3.751   2.012   6.402
 9742SOL    HW130125   3.672   2.073   6.400
 9742SOL    HW230126   3.752   1.961   6.489
 9743SOL     OW30127   5.273   3.931   4.081
 9743SOL    HW130128   5.310   3.872   4.153
 9743SOL    HW230129   5.220   3.876   4.017
 9744SOL     OW30130   1.911   1.781   2.943
 9744SOL    HW130131   1.827   1.774   2.890
 9744SOL    HW230132   1.988   1.750   2.888
 9745SOL     OW30133   0.035   0.599   6.235
 9745SOL    HW130134   0.125   0.634   6.261
 9745SOL    HW230135   7.004   0.579   6.318
 9746SOL     OW30136   4.319   5.242   6.033
 9746SOL    HW130137   4.342   5.250   5.935
 9746SOL    HW230138   4.374   5.170   6.074
 9747SOL     OW30139   2.463   1.451   2.655
 9747SOL    HW130140   2.449   1.389   2.732
 9747SOL    HW230141   2.518   1.530   2.684
 9748SOL     OW30142   1.160   1.094   3.434
 9748SOL    HW130143   1.244   1.095   3.378
 9748SOL    HW230144   1.087   1.139   3.384
 9749SOL     OW30145   0.089   0.586   2.070
 9749SOL    HW130146   0.093   0.567   1.972
 9749SOL    HW230147   0.050   0.677   2.085
 9750SOL     OW30148   6.005   3.534   4.417
 9750SOL    HW130149   5.915   3.534   4.375
 9750SOL    HW230150   6.008   3.467   4.491
 9751SOL     OW30151   3.637   6.855   1.685
 9751SOL    HW130152   3.688   6.940   1.671
 9751SOL    HW230153   3.700   6.781   1.704
 9752SOL     OW30154   3.197   3.247   0.099
 9752SOL    HW130155   3.250   3.182   0.043
 9752SOL    HW230156   3.237   3.338   0.090
 9753SOL     OW30157   6.741   6.467   5.359
 9753SOL    HW130158   6.777   6.480   5.267
 9753SOL    HW230159   6.690   6.548   5.387
 9754SOL     OW30160   2.938   0.726   1.707
 9754SOL    HW130161   2.907   0.776   1.788
 9754SOL    HW230162   2.880   0.646   1.693
 9755SOL     OW30163   2.344   3.427   0.413
 9755SOL    HW130164   2.373   3.461   0.324
 9755SOL    HW230165   2.373   3.491   0.484
 9756SOL     OW30166   5.664   0.346   5.816
 9756SOL    HW130167   5.623   0.258   5.840
 9756SOL    HW230168   5.655   0.362   5.718
 9757SOL     OW30169   5.539   3.895   3.967
 9757SOL    HW130170   5.592   3.970   3.928
 9757SOL    HW230171   5.451   3.929   4.000
 9758SOL     OW30172   2.003   0.642   2.184
 9758SOL    HW130173   1.942   0.565   2.167
 9758SOL    HW230174   1.979   0.686   2.270
 9759SOL     OW30175   6.890   1.406   1.700
 9759SOL    HW130176   6.807   1.386   1.648
 9759SOL    HW230177   6.883   1.364   1.790
 9760SOL     OW30178   4.889   0.674   6.859
 9760SOL    HW130179   4.863   0.718   6.945
 9760SOL    HW230180   4.933   0.741   6.799
 9761SOL     OW30181   1.330   2.464   1.269
 9761SOL    HW130182   1.269   2.388   1.246
 9761SOL    HW230183   1.425   2.437   1.249
 9762SOL     OW30184   2.615   1.341   5.354
 9762SOL    HW130185   2.548   1.400   5.399
 9762SOL    HW230186   2.695   1.395   5.327
 9763SOL     OW30187   6.521   1.599   1.263
 9763SOL    HW130188   6.424   1.580   1.252
 9763SOL    HW230189   6.533   1.695   1.291
 9764SOL     OW30190   0.016   1.724   2.815
 9764SOL    HW130191   6.961   1.701   2.755
 9764SOL    HW230192   7.013   1.803   2.871
 9765SOL     OW30193   6.894   6.958   2.206
 9765SOL    HW130194   6.857   6.971   2.298
 9765SOL    HW230195   6.825   6.984   2.138
 9766SOL     OW30196   1.953   2.178   3.761
 9766SOL    HW130197   1.954   2.114   3.837
 9766SOL    HW230198   2.047   2.199   3.734
 9767SOL     OW30199   2.232   1.561   5.370
 9767SOL    HW130200   2.326   1.546   5.399
 9767SOL    HW230201   2.181   1.476   5.377
 9768SOL     OW30202   5.620   3.238   0.535
 9768SOL    HW130203   5.608   3.207   0.629
 9768SOL    HW230204   5.548   3.199   0.478
 9769SOL     OW30205   3.670   1.728   5.557
 9769SOL    HW130206   3.578   1.693   5.539
 9769SOL    HW230207   3.663   1.818   5.601
 9770SOL     OW30208   2.312   2.723   6.267
 9770SOL    HW130209   2.263   2.801   6.305
 9770SOL    HW230210   2.267   2.693   6.182
 9771SOL     OW30211   3.173   0.152   2.183
 9771SOL    HW130212   3.131   0.137   2.273
 9771SOL    HW230213   3.251   0.090   2.172
 9772SOL     OW30214   1.132   0.828   1.051
 9772SOL    HW130215   1.060   0.784   0.997
 9772SOL    HW230216   1.214   0.837   0.994
 9773SOL     OW30217   5.507   5.137   2.117
 9773SOL    HW130218   5.503   5.145   2.216
 9773SOL    HW230219   5.548   5.049   2.092
 9774SOL     OW30220   1.462   4.313   5.376
 9774SOL    HW130221   1.391   4.243   5.369
 9774SOL    HW230222   1.546   4.280   5.333
 9775SOL     OW30223   2.579   1.453   3.619
 9775SOL    HW130224   2.637   1.404   3.685
 9775SOL    HW230225   2.559   1.393   3.542
 9776SOL     OW30226   2.332   5.230   0.555
 9776SOL    HW130227   2.249   5.200   0.509
 9776SOL    HW230228   2.411   5.183   0.516
 9777SOL     OW30229   4.058   0.918   5.459
 9777SOL    HW130230   4.147   0.894   5.496
 9777SOL    HW230231   3.986   0.896   5.525
 9778SOL     OW30232   0.469   4.071   3.564
 9778SOL    HW130233   0.562   4.065   3.599
 9778SOL    HW230234   0.470   4.094   3.467
 9779SOL     OW30235   2.386   0.978   3.428
 9779SOL    HW130236   2.311   0.916   3.403
 9779SOL    HW230237   2.452   0.929   3.484
 9780SOL     OW30238   1.036   2.591   2.251
 9780SOL    HW130239   1.057   2.514   2.312
 9780SOL    HW230240   1.099   2.666   2.269
 9781SOL     OW30241   1.827   2.038   2.788
 9781SOL    HW130242   1.767   2.056   2.866
 9781SOL    HW230243   1.779   1.981   2.721
 9782SOL     OW30244   0.258   2.453   0.756
 9782SOL    HW130245   0.160   2.470   0.771
 9782SOL    HW230246   0.311   2.521   0.807
 9783SOL     OW30247   3.751   1.028   2.941
 9783SOL    HW130248   3.846   1.060   2.940
 9783SOL    HW230249   3.702   1.070   3.017
 9784SOL     OW30250   1.437   1.298   6.442
 9784SOL    HW130251   1.506   1.362   6.407
 9784SOL    HW230252   1.417   1.321   6.537
 9785SOL     OW30253   0.024   3.852   4.371
 9785SOL    HW130254   0.053   3.831   4.278
 9785SOL    HW230255   0.104   3.871   4.428
 9786SOL     OW30256   2.277   4.031   6.951
 9786SOL    HW130257   2.180   4.053   6.939
 9786SOL    HW230258   2.295   3.939   6.915
 9787SOL     OW30259   2.922   3.719   2.846
 9787SOL    HW130260   2.998   3.748   2.787
 9787SOL    HW230261   2.839   3.768   2.820
 9788SOL     OW30262   4.127   0.158   2.200
 9788SOL    HW130263   4.212   0.107   2.194
 9788SOL    HW230264   4.119   0.218   2.120
 9789SOL     OW30265   3.782   1.739   0.186
 9789SOL    HW130266   3.854   1.807   0.198
 9789SOL    HW230267   3.712   1.774   0.124
 9790SOL     OW30268   6.459   5.424   4.468
 9790SOL    HW130269   6.414   5.339   4.494
 9790SOL    HW230270   6.405   5.470   4.398
 9791SOL     OW30271   1.028   6.763   1.408
 9791SOL    HW130272   1.108   6.705   1.414
 9791SOL    HW230273   0.970   6.733   1.332
 9792SOL     OW30274   4.108   5.249   1.016
 9792SOL    HW130275   4.092   5.213   1.108
 9792SOL    HW230276   4.154   5.179   0.961
 9793SOL     OW30277   5.789   0.939   3.563
 9793SOL    HW130278   5.889   0.940   3.554
 9793SOL    HW230279   5.749   0.996   3.492
 9794SOL     OW30280   4.706   4.592   4.563
 9794SOL    HW130281   4.751   4.642   4.490
 9794SOL    HW230282   4.609   4.616   4.567
 9795SOL     OW30283   1.751   3.451   3.214
 9795SOL    HW130284   1.831   3.510   3.226
 9795SOL    HW230285   1.730   3.406   3.300
 9796SOL     OW30286   3.704   4.164   4.046
 9796SOL    HW130287   3.780   4.102   4.063
 9796SOL    HW230288   3.739   4.254   4.022
 9797SOL     OW30289   2.407   5.173   0.057
 9797SOL    HW130290   2.313   5.183   0.089
 9797SOL    HW230291   2.468   5.223   0.119
 9798SOL     OW30292   0.040   3.824   6.793
 9798SOL    HW130293   0.059   3.884   6.870
 9798SOL    HW230294   0.102   3.745   6.796
 9799SOL     OW30295   2.736   0.532   6.559
 9799SOL    HW130296   2.785   0.496   6.479
 9799SOL    HW230297   2.799   0.537   6.637
 9800SOL     OW30298   6.724   3.375   4.346
 9800SOL    HW130299   6.747   3.372   4.443
 9800SOL    HW230300   6.706   3.470   4.319
 9801SOL     OW30301   6.453   6.580   6.874
 9801SOL    HW130302   6.381   6.611   6.936
 9801SOL    HW230303   6.478   6.485   6.896
 9802SOL     OW30304   4.008   4.131   0.226
 9802SOL    HW130305   3.985   4.034   0.233
 9802SOL    HW230306   3.983   4.178   0.311
 9803SOL     OW30307   1.022   3.759   6.724
 9803SOL    HW130308   1.024   3.785   6.628
 9803SOL    HW230309   1.058   3.834   6.780
 9804SOL     OW30310   0.238   5.709   2.572
 9804SOL    HW130311   0.158   5.699   2.632
 9804SOL    HW230312   0.255   5.806   2.556
 9805SOL     OW30313   0.751   6.040   4.208
 9805SOL    HW130314   0.728   5.947   4.237
 9805SOL    HW230315   0.812   6.036   4.129
 9806SOL     OW30316   4.128   1.744   0.154
 9806SOL    HW130317   4.047   1.686   0.141
 9806SOL    HW230318   4.101   1.826   0.205
 9807SOL     OW30319   3.885   2.951   2.318
 9807SOL    HW130320   3.788   2.946   2.344
 9807SOL    HW230321   3.905   2.878   2.252
 9808SOL     OW30322   4.325   5.541   2.648
 9808SOL    HW130323   4.287   5.599   2.576
 9808SOL    HW230324   4.274   5.557   2.733
 9809SOL     OW30325   6.765   3.642   0.609
 9809SOL    HW130326   6.721   3.630   0.520
 9809SOL    HW230327   6.846   3.583   0.615
 9810SOL     OW30328   3.030   2.306   0.301
 9810SOL    HW130329   3.049   2.249   0.222
 9810SOL    HW230330   3.098   2.289   0.372
 9811SOL     OW30331   5.512   3.425   4.194
 9811SOL    HW130332   5.446   3.489   4.154
 9811SOL    HW230333   5.479   3.331   4.183
 9812SOL     OW30334   3.693   6.364   5.738
 9812SOL    HW130335   3.758   6.289   5.727
 9812SOL    HW230336   3.742   6.451   5.729
 9813SOL     OW30337   5.347   1.056   1.631
 9813SOL    HW130338   5.277   1.128   1.630
 9813SOL    HW230339   5.333   0.994   1.554
 9814SOL     OW30340   5.731   1.173   0.038
 9814SOL    HW130341   5.785   1.233   7.001
 9814SOL    HW230342   5.779   1.086   0.050
 9815SOL     OW30343   4.410   2.429   4.486
 9815SOL    HW130344   4.329   2.376   4.457
 9815SOL    HW230345   4.467   2.448   4.406
 9816SOL     OW30346   2.386   0.193   0.366
 9816SOL    HW130347   2.465   0.134   0.352
 9816SOL    HW230348   2.344   0.215   0.278
 9817SOL     OW30349   6.327   6.743   2.459
 9817SOL    HW130350   6.394   6.720   2.389
 9817SOL    HW230351   6.289   6.659   2.497
 9818SOL     OW30352   6.106   2.761   4.735
 9818SOL    HW130353   6.166   2.840   4.749
 9818SOL    HW230354   6.035   2.785   4.668
 9819SOL     OW30355   3.866   0.848   2.379
 9819SOL    HW130356   3.777   0.892   2.390
 9819SOL    HW230357   3.908   0.834   2.469
 9820SOL     OW30358   4.678   3.060   5.664
 9820SOL    HW130359   4.594   3.113   5.653
 9820SOL    HW230360   4.663   2.987   5.731
 9821SOL     OW30361   6.360   5.022   0.434
 9821SOL    HW130362   6.397   5.084   0.504
 9821SOL    HW230363   6.425   5.014   0.359
 9822SOL     OW30364   0.691   6.839   2.254
 9822SOL    HW130365   0.707   6.912   2.188
 9822SOL    HW230366   0.595   6.812   2.251
 9823SOL     OW30367   3.548   1.064   1.647
 9823SOL    HW130368   3.579   1.149   1.689
 9823SOL    HW230369   3.607   1.041   1.570
 9824SOL     OW30370   1.181   3.803   5.988
 9824SOL    HW130371   1.210   3.869   5.919
 9824SOL    HW230372   1.146   3.852   6.068
 9825SOL     OW30373   3.983   4.957   5.195
 9825SOL    HW130374   3.935   4.976   5.109
 9825SOL    HW230375   3.945   4.876   5.238
 9826SOL     OW30376   4.621   0.567   5.691
 9826SOL    HW130377   4.641   0.632   5.765
 9826SOL    HW230378   4.652   0.476   5.717
 9827SOL     OW30379   1.595   4.174   4.583
 9827SOL    HW130380   1.675   4.117   4.569
 9827SOL    HW230381   1.538   4.134   4.655
 9828SOL     OW30382   3.518   2.597   6.533
 9828SOL    HW130383   3.419   2.592   6.518
 9828SOL    HW230384   3.539   2.677   6.589
 9829SOL     OW30385   3.080   4.781   0.262
 9829SOL    HW130386   3.076   4.682   0.250
 9829SOL    HW230387   2.999   4.823   0.221
 9830SOL     OW30388   5.855   0.841   0.864
 9830SOL    HW130389   5.942   0.886   0.884
 9830SOL    HW230390   5.793   0.907   0.822
 9831SOL     OW30391   6.302   6.296   1.309
 9831SOL    HW130392   6.267   6.202   1.315
 9831SOL    HW230393   6.262   6.351   1.382
 9832SOL     OW30394   4.591   4.803   1.083
 9832SOL    HW130395   4.547   4.892   1.073
 9832SOL    HW230396   4.588   4.754   0.996
 9833SOL     OW30397   3.728   3.864   5.223
 9833SOL    HW130398   3.688   3.824   5.306
 9833SOL    HW230399   3.658   3.919   5.176
 9834SOL     OW30400   0.509   3.337   4.207
 9834SOL    HW130401   0.502   3.409   4.276
 9834SOL    HW230402   0.493   3.377   4.116
 9835SOL     OW30403   4.856   1.912   4.125
 9835SOL    HW130404   4.948   1.886   4.096
 9835SOL    HW230405   4.813   1.968   4.054
 9836SOL     OW30406   5.161   5.366   3.016
 9836SOL    HW130407   5.174   5.441   3.081
 9836SOL    HW230408   5.209   5.284   3.050
 9837SOL     OW30409   2.427   6.132   4.153
 9837SOL    HW130410   2.505   6.113   4.213
 9837SOL    HW230411   2.357   6.182   4.203
 9838SOL     OW30412   1.107   5.583   6.223
 9838SOL    HW130413   1.086   5.637   6.142
 9838SOL    HW230414   1.119   5.487   6.198
 9839SOL     OW30415   6.850   2.028   1.794
 9839SOL    HW130416   6.762   1.986   1.820
 9839SOL    HW230417   6.870   2.104   1.856
 9840SOL     OW30418   6.673   0.872   1.208
 9840SOL    HW130419   6.748   0.809   1.185
 9840SOL    HW230420   6.672   0.948   1.144
 9841SOL     OW30421   1.804   3.506   4.454
 9841SOL    HW130422   1.827   3.539   4.545
 9841SOL    HW230423   1.860   3.426   4.432
 9842SOL     OW30424   3.312   3.095   1.982
 9842SOL    HW130425   3.273   3.140   2.063
 9842SOL    HW230426   3.319   2.996   1.999
 9843SOL     OW30427   6.537   2.616   2.255
 9843SOL    HW130428   6.509   2.545   2.190
 9843SOL    HW230429   6.568   2.697   2.205
 9844SOL     OW30430   5.114   0.310   2.282
 9844SOL    HW130431   5.104   0.373   2.205
 9844SOL    HW230432   5.050   0.337   2.354
 9845SOL     OW30433   1.311   2.149   3.579
 9845SOL    HW130434   1.390   2.166   3.638
 9845SOL    HW230435   1.298   2.050   3.569
 9846SOL     OW30436   3.048   3.472   2.883
 9846SOL    HW130437   3.067   3.403   2.953
 9846SOL    HW230438   2.972   3.529   2.912
 9847SOL     OW30439   2.004   3.703   5.810
 9847SOL    HW130440   1.933   3.740   5.749
 9847SOL    HW230441   2.093   3.739   5.783
 9848SOL     OW30442   5.101   3.169   6.654
 9848SOL    HW130443   5.029   3.152   6.721
 9848SOL    HW230444   5.083   3.115   6.571
 9849SOL     OW30445   0.271   6.800   6.309
 9849SOL    HW130446   0.282   6.761   6.400
 9849SOL    HW230447   0.283   6.899   6.313
 9850SOL     OW30448   3.840   5.990   2.544
 9850SOL    HW130449   3.826   5.916   2.479
 9850SOL    HW230450   3.828   6.078   2.498
 9851SOL     OW30451   5.526   1.544   5.054
 9851SOL    HW130452   5.441   1.587   5.023
 9851SOL    HW230453   5.522   1.446   5.037
 9852SOL     OW30454   5.005   1.558   3.780
 9852SOL    HW130455   5.057   1.582   3.862
 9852SOL    HW230456   4.917   1.606   3.782
 9853SOL     OW30457   6.186   3.941   2.648
 9853SOL    HW130458   6.140   3.950   2.736
 9853SOL    HW230459   6.149   4.008   2.584
 9854SOL     OW30460   5.284   5.303   4.020
 9854SOL    HW130461   5.292   5.250   4.104
 9854SOL    HW230462   5.287   5.242   3.941
 9855SOL     OW30463   1.261   3.719   1.553
 9855SOL    HW130464   1.227   3.799   1.505
 9855SOL    HW230465   1.217   3.636   1.517
 9856SOL     OW30466   3.976   2.785   0.836
 9856SOL    HW130467   4.074   2.777   0.852
 9856SOL    HW230468   3.955   2.874   0.797
 9857SOL     OW30469   5.781   3.714   3.130
 9857SOL    HW130470   5.788   3.739   3.033
 9857SOL    HW230471   5.793   3.615   3.140
 9858SOL     OW30472   5.291   0.945   1.882
 9858SOL    HW130473   5.368   0.954   1.819
 9858SOL    HW230474   5.205   0.953   1.831
 9859SOL     OW30475   6.021   0.286   2.311
 9859SOL    HW130476   6.114   0.248   2.305
 9859SOL    HW230477   5.968   0.234   2.378
 9860SOL     OW30478   0.415   1.227   2.328
 9860SOL    HW130479   0.502   1.222   2.377
 9860SOL    HW230480   0.426   1.188   2.237
 9861SOL     OW30481   4.054   6.088   4.786
 9861SOL    HW130482   3.998   6.125   4.860
 9861SOL    HW230483   3.999   6.084   4.702
 9862SOL     OW30484   1.212   2.523   0.875
 9862SOL    HW130485   1.205   2.476   0.787
 9862SOL    HW230486   1.301   2.569   0.881
 9863SOL     OW30487   3.632   7.007   2.575
 9863SOL    HW130488   3.595   6.933   2.630
 9863SOL    HW230489   3.724   0.008   2.607
 9864SOL     OW30490   5.241   6.187   2.240
 9864SOL    HW130491   5.177   6.115   2.267
 9864SOL    HW230492   5.255   6.185   2.141
 9865SOL     OW30493   0.374   0.368   3.993
 9865SOL    HW130494   0.432   0.429   4.047
 9865SOL    HW230495   0.402   0.371   3.897
 9866SOL     OW30496   4.826   4.040   4.019
 9866SOL    HW130497   4.771   4.097   3.958
 9866SOL    HW230498   4.807   4.066   4.114
 9867SOL     OW30499   4.535   1.300   0.081
 9867SOL    HW130500   4.468   1.344   0.140
 9867SOL    HW230501   4.488   1.264   7.021
 9868SOL     OW30502   7.009   4.710   0.356
 9868SOL    HW130503   6.967   4.632   0.311
 9868SOL    HW230504   0.087   4.703   0.350
 9869SOL     OW30505   1.601   4.313   3.054
 9869SOL    HW130506   1.628   4.223   3.020
 9869SOL    HW230507   1.555   4.364   2.981
 9870SOL     OW30508   5.123   5.079   2.826
 9870SOL    HW130509   5.055   5.094   2.754
 9870SOL    HW230510   5.083   5.100   2.915
 9871SOL     OW30511   2.370   0.643   5.324
 9871SOL    HW130512   2.303   0.706   5.364
 9871SOL    HW230513   2.460   0.661   5.364
 9872SOL     OW30514   2.795   4.753   3.433
 9872SOL    HW130515   2.824   4.732   3.526
 9872SOL    HW230516   2.875   4.776   3.378
 9873SOL     OW30517   1.363   2.588   0.211
 9873SOL    HW130518   1.384   2.573   0.308
 9873SOL    HW230519   1.281   2.645   0.204
 9874SOL     OW30520   0.869   3.300   3.452
 9874SOL    HW130521   0.951   3.298   3.509
 9874SOL    HW230522   0.879   3.237   3.375
 9875SOL     OW30523   0.330   0.676   2.832
 9875SOL    HW130524   0.372   0.761   2.864
 9875SOL    HW230525   0.393   0.628   2.771
 9876SOL     OW30526   6.530   6.697   2.292
 9876SOL    HW130527   6.476   6.675   2.210
 9876SOL    HW230528   6.626   6.704   2.267
 9877SOL     OW30529   3.147   6.645   2.871
 9877SOL    HW130530   3.075   6.705   2.907
 9877SOL    HW230531   3.134   6.635   2.772
 9878SOL     OW30532   1.126   5.667   5.718
 9878SOL    HW130533   1.211   5.694   5.673
 9878SOL    HW230534   1.048   5.707   5.671
 9879SOL     OW30535   4.160   5.582   5.293
 9879SOL    HW130536   4.215   5.510   5.250
 9879SOL    HW230537   4.220   5.641   5.348
 9880SOL     OW30538   1.286   1.991   5.959
 9880SOL    HW130539   1.291   1.906   5.906
 9880SOL    HW230540   1.192   2.025   5.959
 9881SOL     OW30541   0.425   2.551   5.845
 9881SOL    HW130542   0.426   2.462   5.891
 9881SOL    HW230543   0.331   2.579   5.829
 9882SOL     OW30544   1.156   2.570   4.100
 9882SOL    HW130545   1.225   2.640   4.082
 9882SOL    HW230546   1.189   2.481   4.070
 9883SOL     OW30547   1.667   0.854   2.384
 9883SOL    HW130548   1.764   0.830   2.378
 9883SOL    HW230549   1.618   0.781   2.431
 9884SOL     OW30550   3.853   0.464   4.293
 9884SOL    HW130551   3.862   0.511   4.381
 9884SOL    HW230552   3.866   0.531   4.219
 9885SOL     OW30553   5.766   4.901   4.621
 9885SOL    HW130554   5.764   4.926   4.718
 9885SOL    HW230555   5.851   4.935   4.580
 9886SOL     OW30556   1.010   4.929   2.791
 9886SOL    HW130557   1.009   4.894   2.697
 9886SOL    HW230558   0.916   4.940   2.823
 9887SOL     OW30559   3.336   1.277   0.061
 9887SOL    HW130560   3.411   1.317   0.009
 9887SOL    HW230561   3.371   1.215   0.131
 9888SOL     OW30562   6.877   4.425   0.372
 9888SOL    HW130563   6.901   4.345   0.316
 9888SOL    HW230564   6.823   4.395   0.450
 9889SOL     OW30565   6.092   4.667   0.508
 9889SOL    HW130566   5.999   4.635   0.526
 9889SOL    HW230567   6.106   4.755   0.552
 9890SOL     OW30568   1.519   2.854   1.455
 9890SOL    HW130569   1.597   2.872   1.396
 9890SOL    HW230570   1.544   2.785   1.523
 9891SOL     OW30571   5.709   2.587   0.454
 9891SOL    HW130572   5.757   2.548   0.375
 9891SOL    HW230573   5.769   2.651   0.502
 9892SOL     OW30574   6.703   4.782   0.105
 9892SOL    HW130575   6.678   4.807   0.199
 9892SOL    HW230576   6.636   4.819   0.041
 9893SOL     OW30577   2.405   1.264   0.950
 9893SOL    HW130578   2.377   1.359   0.959
 9893SOL    HW230579   2.329   1.210   0.913
 9894SOL     OW30580   0.756   2.007   0.514
 9894SOL    HW130581   0.747   2.090   0.569
 9894SOL    HW230582   0.680   1.945   0.534
 9895SOL     OW30583   5.692   3.306   5.343
 9895SOL    HW130584   5.644   3.233   5.294
 9895SOL    HW230585   5.772   3.267   5.390
 9896SOL     OW30586   6.837   0.196   0.165
 9896SOL    HW130587   6.770   0.262   0.132
 9896SOL    HW230588   6.812   0.166   0.257
 9897SOL     OW30589   5.607   5.244   3.078
 9897SOL    HW130590   5.568   5.277   2.992
 9897SOL    HW230591   5.533   5.208   3.136
 9898SOL     OW30592   3.150   5.782   5.819
 9898SOL    HW130593   3.239   5.742   5.844
 9898SOL    HW230594   3.160   5.833   5.734
 9899SOL     OW30595   0.242   5.670   0.214
 9899SOL    HW130596   0.168   5.738   0.212
 9899SOL    HW230597   0.219   5.593   0.156
 9900SOL     OW30598   1.927   4.122   3.818
 9900SOL    HW130599   1.935   4.038   3.764
 9900SOL    HW230600   1.833   4.157   3.811
 9901SOL     OW30601   2.672   2.461   5.731
 9901SOL    HW130602   2.603   2.503   5.672
 9901SOL    HW230603   2.629   2.394   5.790
 9902SOL     OW30604   1.932   4.846   6.576
 9902SOL    HW130605   1.839   4.880   6.566
 9902SOL    HW230606   1.983   4.862   6.491
 9903SOL     OW30607   5.378   1.421   3.433
 9903SOL    HW130608   5.315   1.405   3.357
 9903SOL    HW230609   5.441   1.494   3.409
 9904SOL     OW30610   6.662   3.417   6.844
 9904SOL    HW130611   6.589   3.351   6.824
 9904SOL    HW230612   6.708   3.442   6.759
 9905SOL     OW30613   4.102   1.505   0.483
 9905SOL    HW130614   4.014   1.552   0.472
 9905SOL    HW230615   4.146   1.495   0.394
 9906SOL     OW30616   3.831   3.012   2.959
 9906SOL    HW130617   3.898   2.987   2.889
 9906SOL    HW230618   3.743   2.969   2.938
 9907SOL     OW30619   0.009   0.682   1.734
 9907SOL    HW130620   0.090   0.733   1.762
 9907SOL    HW230621   0.016   0.587   1.763
 9908SOL     OW30622   5.035   2.570   2.641
 9908SOL    HW130623   4.962   2.622   2.685
 9908SOL    HW230624   5.120   2.622   2.645
 9909SOL     OW30625   2.094   6.433   4.288
 9909SOL    HW130626   2.046   6.416   4.202
 9909SOL    HW230627   2.148   6.353   4.313
 9910SOL     OW30628   0.755   4.960   2.877
 9910SOL    HW130629   0.717   4.880   2.831
 9910SOL    HW230630   0.681   5.024   2.899
 9911SOL     OW30631   3.754   6.582   2.135
 9911SOL    HW130632   3.822   6.518   2.172
 9911SOL    HW230633   3.717   6.638   2.210
 9912SOL     OW30634   5.022   1.748   0.432
 9912SOL    HW130635   5.003   1.729   0.529
 9912SOL    HW230636   5.032   1.847   0.419
 9913SOL     OW30637   6.054   2.847   0.531
 9913SOL    HW130638   6.043   2.881   0.438
 9913SOL    HW230639   6.081   2.922   0.592
 9914SOL     OW30640   0.874   2.636   4.776
 9914SOL    HW130641   0.925   2.595   4.700
 9914SOL    HW230642   0.868   2.735   4.763
 9915SOL     OW30643   5.093   1.032   3.428
 9915SOL    HW130644   5.031   0.989   3.494
 9915SOL    HW230645   5.123   0.964   3.361
 9916SOL     OW30646   2.221   2.795   2.210
 9916SOL    HW130647   2.265   2.750   2.132
 9916SOL    HW230648   2.123   2.798   2.196
 9917SOL     OW30649   6.838   4.357   6.072
 9917SOL    HW130650   6.902   4.345   5.996
 9917SOL    HW230651   6.751   4.393   6.036
 9918SOL     OW30652   4.032   1.158   3.042
 9918SOL    HW130653   4.129   1.151   3.019
 9918SOL    HW230654   4.021   1.219   3.121
 9919SOL     OW30655   6.249   6.443   1.530
 9919SOL    HW130656   6.331   6.402   1.570
 9919SOL    HW230657   6.171   6.425   1.590
 9920SOL     OW30658   4.547   1.440   2.774
 9920SOL    HW130659   4.582   1.519   2.824
 9920SOL    HW230660   4.614   1.412   2.704
 9921SOL     OW30661   4.092   5.684   6.204
 9921SOL    HW130662   4.050   5.614   6.147
 9921SOL    HW230663   4.108   5.648   6.296
 9922SOL     OW30664   0.826   6.025   0.691
 9922SOL    HW130665   0.816   6.068   0.601
 9922SOL    HW230666   0.922   6.026   0.718
 9923SOL     OW30667   4.714   5.165   0.086
 9923SOL    HW130668   4.709   5.264   0.069
 9923SOL    HW230669   4.806   5.141   0.115
 9924SOL     OW30670   0.257   3.275   5.029
 9924SOL    HW130671   0.214   3.205   4.973
 9924SOL    HW230672   0.193   3.350   5.045
 9925SOL     OW30673   5.039   2.575   4.283
 9925SOL    HW130674   5.013   2.566   4.379
 9925SOL    HW230675   5.024   2.669   4.252
 9926SOL     OW30676   2.001   4.243   6.771
 9926SOL    HW130677   2.079   4.290   6.813
 9926SOL    HW230678   1.980   4.160   6.822
 9927SOL     OW30679   5.912   0.340   2.689
 9927SOL    HW130680   5.910   0.240   2.697
 9927SOL    HW230681   5.818   0.375   2.687
 9928SOL     OW30682   5.027   4.870   1.380
 9928SOL    HW130683   5.074   4.874   1.292
 9928SOL    HW230684   5.031   4.777   1.416
 9929SOL     OW30685   2.415   5.339   4.987
 9929SOL    HW130686   2.464   5.340   5.074
 9929SOL    HW230687   2.336   5.278   4.994
 9930SOL     OW30688   6.858   0.101   4.763
 9930SOL    HW130689   6.845   0.004   4.783
 9930SOL    HW230690   6.830   0.119   4.669
 9931SOL     OW30691   1.366   3.825   5.080
 9931SOL    HW130692   1.410   3.914   5.076
 9931SOL    HW230693   1.429   3.759   5.122
 9932SOL     OW30694   1.130   6.403   6.453
 9932SOL    HW130695   1.079   6.476   6.500
 9932SOL    HW230696   1.067   6.330   6.427
 9933SOL     OW30697   1.473   5.267   2.037
 9933SOL    HW130698   1.496   5.356   2.076
 9933SOL    HW230699   1.375   5.249   2.051
 9934SOL     OW30700   6.107   2.184   5.345
 9934SOL    HW130701   6.016   2.200   5.382
 9934SOL    HW230702   6.109   2.095   5.298
 9935SOL     OW30703   2.322   0.970   6.694
 9935SOL    HW130704   2.232   0.935   6.666
 9935SOL    HW230705   2.367   1.012   6.615
 9936SOL     OW30706   0.503   4.765   4.455
 9936SOL    HW130707   0.600   4.770   4.431
 9936SOL    HW230708   0.487   4.816   4.539
 9937SOL     OW30709   6.801   2.113   5.966
 9937SOL    HW130710   6.837   2.167   6.042
 9937SOL    HW230711   6.703   2.101   5.976
 9938SOL     OW30712   6.724   6.068   2.652
 9938SOL    HW130713   6.652   6.093   2.717
 9938SOL    HW230714   6.811   6.057   2.700
 9939SOL     OW30715   3.381   3.016   1.368
 9939SOL    HW130716   3.304   3.064   1.409
 9939SOL    HW230717   3.350   2.961   1.291
 9940SOL     OW30718   6.848   1.034   0.786
 9940SOL    HW130719   6.844   1.066   0.691
 9940SOL    HW230720   6.934   0.985   0.801
 9941SOL     OW30721   3.051   4.361   5.601
 9941SOL    HW130722   3.025   4.410   5.685
 9941SOL    HW230723   2.987   4.384   5.528
 9942SOL     OW30724   2.577   5.745   2.577
 9942SOL    HW130725   2.505   5.790   2.524
 9942SOL    HW230726   2.578   5.647   2.554
 9943SOL     OW30727   0.563   5.784   6.108
 9943SOL    HW130728   0.533   5.836   6.028
 9943SOL    HW230729   0.631   5.838   6.159
 9944SOL     OW30730   1.142   4.125   6.748
 9944SOL    HW130731   1.043   4.111   6.753
 9944SOL    HW230732   1.178   4.082   6.665
 9945SOL     OW30733   0.069   5.482   0.104
 9945SOL    HW130734   7.020   5.511   0.169
 9945SOL    HW230735   0.033   5.410   0.045
 9946SOL     OW30736   4.796   0.714   4.851
 9946SOL    HW130737   4.745   0.670   4.926
 9946SOL    HW230738   4.781   0.813   4.854
 9947SOL     OW30739   6.560   4.678   5.292
 9947SOL    HW130740   6.482   4.700   5.234
 9947SOL    HW230741   6.545   4.714   5.383
 9948SOL     OW30742   4.822   4.214   4.866
 9948SOL    HW130743   4.748   4.258   4.815
 9948SOL    HW230744   4.908   4.262   4.847
 9949SOL     OW30745   5.730   4.896   2.955
 9949SOL    HW130746   5.816   4.863   2.994
 9949SOL    HW230747   5.661   4.901   3.027
 9950SOL     OW30748   4.517   6.309   5.186
 9950SOL    HW130749   4.523   6.260   5.273
 9950SOL    HW230750   4.608   6.343   5.162
 9951SOL     OW30751   5.554   2.660   3.230
 9951SOL    HW130752   5.471   2.616   3.197
 9951SOL    HW230753   5.580   2.622   3.319
 9952SOL     OW30754   6.720   4.329   0.592
 9952SOL    HW130755   6.771   4.246   0.616
 9952SOL    HW230756   6.624   4.306   0.578
 9953SOL     OW30757   6.353   1.869   3.551
 9953SOL    HW130758   6.260   1.839   3.573
 9953SOL    HW230759   6.353   1.916   3.463
 9954SOL     OW30760   5.941   0.131   5.145
 9954SOL    HW130761   5.916   0.225   5.171
 9954SOL    HW230762   5.861   0.086   5.105
 9955SOL     OW30763   6.808   4.198   4.366
 9955SOL    HW130764   6.747   4.248   4.304
 9955SOL    HW230765   6.878   4.261   4.400
 9956SOL     OW30766   2.364   6.333   2.257
 9956SOL    HW130767   2.389   6.416   2.207
 9956SOL    HW230768   2.266   6.335   2.276
 9957SOL     OW30769   6.617   4.976   3.457
 9957SOL    HW130770   6.564   5.040   3.512
 9957SOL    HW230771   6.635   5.016   3.367
 9958SOL     OW30772   2.901   3.799   0.811
 9958SOL    HW130773   2.994   3.782   0.842
 9958SOL    HW230774   2.859   3.869   0.869
 9959SOL     OW30775   3.940   3.330   6.312
 9959SOL    HW130776   3.875   3.406   6.322
 9959SOL    HW230777   3.903   3.248   6.354
 9960SOL     OW30778   6.756   1.382   2.412
 9960SOL    HW130779   6.717   1.323   2.484
 9960SOL    HW230780   6.691   1.389   2.336
 9961SOL     OW30781   1.666   5.655   3.970
 9961SOL    HW130782   1.761   5.684   3.963
 9961SOL    HW230783   1.625   5.651   3.879
 9962SOL     OW30784   4.518   6.075   4.907
 9962SOL    HW130785   4.581   6.020   4.962
 9962SOL    HW230786   4.570   6.145   4.857
 9963SOL     OW30787   3.458   1.469   1.046
 9963SOL    HW130788   3.394   1.532   1.090
 9963SOL    HW230789   3.407   1.395   1.001
 9964SOL     OW30790   4.365   5.787   4.905
 9964SOL    HW130791   4.273   5.767   4.870
 9964SOL    HW230792   4.405   5.862   4.852
 9965SOL     OW30793   4.348   0.128   0.026
 9965SOL    HW130794   4.437   0.172   0.029
 9965SOL    HW230795   4.316   0.112   0.120
 9966SOL     OW30796   0.503   6.044   2.054
 9966SOL    HW130797   0.510   6.064   2.152
 9966SOL    HW230798   0.570   6.098   2.004
 9967SOL     OW30799   1.537   5.594   1.754
 9967SOL    HW130800   1.489   5.660   1.697
 9967SOL    HW230801   1.473   5.524   1.787
 9968SOL     OW30802   4.015   3.902   2.287
 9968SOL    HW130803   4.111   3.919   2.307
 9968SOL    HW230804   3.961   3.907   2.371
 9969SOL     OW30805   1.508   3.625   2.251
 9969SOL    HW130806   1.529   3.638   2.348
 9969SOL    HW230807   1.425   3.570   2.242
 9970SOL     OW30808   5.897   4.371   1.641
 9970SOL    HW130809   5.838   4.433   1.589
 9970SOL    HW230810   5.852   4.281   1.649
 9971SOL     OW30811   2.176   4.179   0.404
 9971SOL    HW130812   2.162   4.260   0.346
 9971SOL    HW230813   2.107   4.179   0.477
 9972SOL     OW30814   0.012   4.717   2.533
 9972SOL    HW130815   0.013   4.772   2.616
 9972SOL    HW230816   0.093   4.737   2.478
 9973SOL     OW30817   5.999   1.005   4.307
 9973SOL    HW130818   5.927   0.942   4.336
 9973SOL    HW230819   6.078   0.996   4.367
 9974SOL     OW30820   1.697   0.667   3.715
 9974SOL    HW130821   1.683   0.761   3.682
 9974SOL    HW230822   1.620   0.641   3.774
 9975SOL     OW30823   0.251   2.816   0.057
 9975SOL    HW130824   0.215   2.855   6.994
 9975SOL    HW230825   0.175   2.783   0.114
 9976SOL     OW30826   1.516   6.897   4.775
 9976SOL    HW130827   1.512   6.844   4.861
 9976SOL    HW230828   1.611   6.923   4.757
 9977SOL     OW30829   6.005   4.164   5.012
 9977SOL    HW130830   6.029   4.085   5.069
 9977SOL    HW230831   6.087   4.218   4.994
 9978SOL     OW30832   6.942   2.084   4.149
 9978SOL    HW130833   6.962   1.988   4.128
 9978SOL    HW230834   0.002   2.139   4.136
 9979SOL     OW30835   6.465   3.540   4.600
 9979SOL    HW130836   6.565   3.527   4.597
 9979SOL    HW230837   6.427   3.521   4.509
 9980SOL     OW30838   3.657   0.714   6.456
 9980SOL    HW130839   3.683   0.804   6.491
 9980SOL    HW230840   3.572   0.684   6.501
 9981SOL     OW30841   3.248   1.652   4.141
 9981SOL    HW130842   3.255   1.585   4.067
 9981SOL    HW230843   3.215   1.738   4.104
 9982SOL     OW30844   0.139   6.065   4.004
 9982SOL    HW130845   0.209   6.131   3.975
 9982SOL    HW230846   0.135   6.064   4.104
 9983SOL     OW30847   0.028   1.470   2.010
 9983SOL    HW130848   0.047   1.502   1.917
 9983SOL    HW230849   0.022   1.549   2.072
 9984SOL     OW30850   3.030   1.860   6.725
 9984SOL    HW130851   2.948   1.888   6.675
 9984SOL    HW230852   3.105   1.924   6.706
 9985SOL     OW30853   1.204   1.154   2.110
 9985SOL    HW130854   1.199   1.054   2.100
 9985SOL    HW230855   1.285   1.188   2.063
 9986SOL     OW30856   5.465   3.581   4.998
 9986SOL    HW130857   5.545   3.539   4.955
 9986SOL    HW230858   5.459   3.550   5.093
 9987SOL     OW30859   6.498   3.879   5.994
 9987SOL    HW130860   6.575   3.827   6.031
 9987SOL    HW230861   6.532   3.956   5.940
 9988SOL     OW30862   6.910   0.348   5.110
 9988SOL    HW130863   6.970   0.268   5.113
 9988SOL    HW230864   6.815   0.320   5.124
 9989SOL     OW30865   0.486   3.188   5.153
 9989SOL    HW130866   0.434   3.249   5.093
 9989SOL    HW230867   0.579   3.223   5.164
 9990SOL     OW30868   0.984   5.111   2.976
 9990SOL    HW130869   0.886   5.093   2.968
 9990SOL    HW230870   1.035   5.043   2.922
 9991SOL     OW30871   3.368   1.920   3.803
 9991SOL    HW130872   3.401   1.965   3.886
 9991SOL    HW230873   3.270   1.902   3.812
 9992SOL     OW30874   6.410   5.596   5.922
 9992SOL    HW130875   6.396   5.689   5.887
 9992SOL    HW230876   6.322   5.560   5.953
 9993SOL     OW30877   1.009   1.840   1.972
 9993SOL    HW130878   0.919   1.799   1.958
 9993SOL    HW230879   1.039   1.886   1.889
 9994SOL     OW30880   6.124   4.948   3.549
 9994SOL    HW130881   6.059   4.875   3.569
 9994SOL    HW230882   6.102   4.988   3.459
 9995SOL     OW30883   5.359   0.784   4.684
 9995SOL    HW130884   5.263   0.757   4.686
 9995SOL    HW230885   5.406   0.747   4.765
 9996SOL     OW30886   3.106   4.068   0.299
 9996SOL    HW130887   3.037   4.094   0.232
 9996SOL    HW230888   3.117   4.142   0.366
 9997SOL     OW30889   2.551   0.026   5.465
 9997SOL    HW130890   2.615   0.067   5.399
 9997SOL    HW230891   2.590   6.963   5.501
 9998SOL     OW30892   5.628   5.711   5.551
 9998SOL    HW130893   5.536   5.709   5.512
 9998SOL    HW230894   5.643   5.798   5.597
 9999SOL     OW30895   6.830   2.115   5.061
 9999SOL    HW130896   6.852   2.209   5.087
 9999SOL    HW230897   6.888   2.087   4.985
10000SOL     OW30898   0.252   2.648   6.264
10000SOL    HW130899   0.348   2.650   6.236
10000SOL    HW230900   0.238   2.711   6.340
10001SOL     OW30901   4.059   0.539   2.594
10001SOL    HW130902   3.991   0.470   2.572
10001SOL    HW230903   4.017   0.630   2.592
10002SOL     OW30904   0.815   0.924   1.911
10002SOL    HW130905   0.832   0.962   1.820
10002SOL    HW230906   0.840   0.827   1.912
10003SOL     OW30907   4.036   2.207   3.506
10003SOL    HW130908   3.961   2.232   3.569
10003SOL    HW230909   4.000   2.200   3.413
10004SOL     OW30910   6.828   1.895   2.960
10004SOL    HW130911   6.772   1.951   3.020
10004SOL    HW230912   6.778   1.812   2.935
10005SOL     OW30913   5.199   6.629   4.096
10005SOL    HW130914   5.279   6.677   4.133
10005SOL    HW230915   5.157   6.685   4.025
10006SOL     OW30916   3.653   6.551   4.530
10006SOL    HW130917   3.715   6.573   4.605
10006SOL    HW230918   3.573   6.612   4.534
10007SOL     OW30919   6.745   3.583   3.576
10007SOL    HW130920   6.809   3.611   3.647
10007SOL    HW230921   6.651   3.600   3.607
10008SOL     OW30922   2.813   6.975   3.932
10008SOL    HW130923   2.890   6.965   3.994
10008SOL    HW230924   2.739   6.914   3.960
10009SOL     OW30925   1.219   4.223   1.828
10009SOL    HW130926   1.175   4.215   1.918
10009SOL    HW230927   1.318   4.208   1.838
10010SOL     OW30928   0.981   1.150   5.956
10010SOL    HW130929   0.976   1.228   6.018
10010SOL    HW230930   0.956   1.066   6.005
10011SOL     OW30931   0.067   6.525   5.510
10011SOL    HW130932   0.066   6.464   5.431
10011SOL    HW230933   0.044   6.473   5.593
10012SOL     OW30934   6.048   1.369   3.776
10012SOL    HW130935   5.959   1.393   3.816
10012SOL    HW230936   6.046   1.384   3.677
10013SOL     OW30937   0.600   0.908   2.570
10013SOL    HW130938   0.624   0.902   2.667
10013SOL    HW230939   0.502   0.928   2.561
10014SOL     OW30940   0.723   4.627   6.560
10014SOL    HW130941   0.787   4.550   6.565
10014SOL    HW230942   0.710   4.665   6.651
10015SOL     OW30943   2.001   4.398   0.245
10015SOL    HW130944   1.913   4.388   0.198
10015SOL    HW230945   2.072   4.416   0.178
10016SOL     OW30946   2.589   0.701   5.512
10016SOL    HW130947   2.673   0.693   5.459
10016SOL    HW230948   2.561   0.797   5.517
10017SOL     OW30949   1.735   2.030   4.669
10017SOL    HW130950   1.675   2.107   4.689
10017SOL    HW230951   1.824   2.065   4.638
10018SOL     OW30952   4.929   0.188   6.420
10018SOL    HW130953   5.013   0.149   6.459
10018SOL    HW230954   4.902   0.134   6.340
10019SOL     OW30955   0.675   1.240   2.708
10019SOL    HW130956   0.664   1.223   2.610
10019SOL    HW230957   0.717   1.160   2.751
10020SOL     OW30958   0.417   2.917   1.275
10020SOL    HW130959   0.416   3.016   1.266
10020SOL    HW230960   0.477   2.890   1.350
10021SOL     OW30961   0.143   3.767   0.493
10021SOL    HW130962   0.241   3.758   0.474
10021SOL    HW230963   0.092   3.699   0.441
10022SOL     OW30964   1.478   1.631   6.180
10022SOL    HW130965   1.525   1.663   6.098
10022SOL    HW230966   1.405   1.695   6.204
10023SOL     OW30967   0.016   3.815   0.743
10023SOL    HW130968   0.035   3.814   0.645
10023SOL    HW230969   0.005   3.721   0.776
10024SOL     OW30970   1.725   4.588   3.748
10024SOL    HW130971   1.804   4.528   3.747
10024SOL    HW230972   1.744   4.669   3.804
10025SOL     OW30973   1.566   1.487   0.903
10025SOL    HW130974   1.556   1.394   0.867
10025SOL    HW230975   1.511   1.550   0.848
10026SOL     OW30976   6.692   0.188   3.536
10026SOL    HW130977   6.763   0.132   3.492
10026SOL    HW230978   6.735   0.264   3.585
10027SOL     OW30979   4.706   2.262   5.347
10027SOL    HW130980   4.758   2.195   5.401
10027SOL    HW230981   4.727   2.354   5.380
10028SOL     OW30982   1.913   0.925   0.669
10028SOL    HW130983   1.957   0.835   0.676
10028SOL    HW230984   1.983   0.996   0.670
10029SOL     OW30985   5.813   1.797   3.474
10029SOL    HW130986   5.783   1.889   3.452
10029SOL    HW230987   5.754   1.731   3.428
10030SOL     OW30988   1.875   0.318   3.195
10030SOL    HW130989   1.844   0.227   3.224
10030SOL    HW230990   1.846   0.386   3.261
10031SOL     OW30991   6.289   4.410   5.118
10031SOL    HW130992   6.377   4.376   5.148
10031SOL    HW230993   6.265   4.368   5.030
10032SOL     OW30994   2.875   1.551   4.720
10032SOL    HW130995   2.952   1.510   4.769
10032SOL    HW230996   2.813   1.479   4.690
10033SOL     OW30997   5.341   2.671   4.478
10033SOL    HW130998   5.315   2.601   4.545
10033SOL    HW230999   5.380   2.627   4.397
10034SOL     OW31000   5.413   0.354   5.662
10034SOL    HW131001   5.479   0.284   5.690
10034SOL    HW231002   5.400   0.419   5.736
10035SOL     OW31003   0.219   6.134   2.014
10035SOL    HW131004   0.305   6.107   2.057
10035SOL    HW231005   0.145   6.076   2.047
10036SOL     OW31006   6.999   0.650   0.654
10036SOL    HW131007   0.054   0.693   0.606
10036SOL    HW231008   6.967   0.571   0.602
10037SOL     OW31009   0.876   6.748   0.411
10037SOL    HW131010   0.925   6.695   0.481
10037SOL    HW231011   0.784   6.768   0.444
10038SOL     OW31012   6.324   0.531   1.469
10038SOL    HW131013   6.420   0.534   1.497
10038SOL    HW231014   6.296   0.622   1.439
10039SOL     OW31015   3.024   0.521   3.689
10039SOL    HW131016   2.967   0.582   3.633
10039SOL    HW231017   3.115   0.514   3.649
10040SOL     OW31018   0.982   2.703   1.268
10040SOL    HW131019   1.046   2.744   1.203
10040SOL    HW231020   0.891   2.696   1.225
10041SOL     OW31021   2.203   5.948   0.001
10041SOL    HW131022   2.219   5.957   6.924
10041SOL    HW231023   2.151   5.864   0.019
10042SOL     OW31024   5.884   3.155   2.813
10042SOL    HW131025   5.859   3.064   2.846
10042SOL    HW231026   5.808   3.193   2.759
10043SOL     OW31027   0.570   1.630   4.912
10043SOL    HW131028   0.656   1.639   4.963
10043SOL    HW231029   0.531   1.721   4.897
10044SOL     OW31030   2.796   1.417   5.647
10044SOL    HW131031   2.892   1.442   5.637
10044SOL    HW231032   2.778   1.335   5.591
10045SOL     OW31033   3.271   1.274   0.892
10045SOL    HW131034   3.303   1.191   0.846
10045SOL    HW231035   3.224   1.250   0.976
10046SOL     OW31036   1.269   5.553   0.883
10046SOL    HW131037   1.224   5.608   0.812
10046SOL    HW231038   1.201   5.493   0.926
10047SOL     OW31039   0.882   3.009   1.196
10047SOL    HW131040   0.871   2.926   1.141
10047SOL    HW231041   0.924   2.985   1.284
10048SOL     OW31042   6.289   5.339   3.494
10048SOL    HW131043   6.203   5.300   3.528
10048SOL    HW231044   6.311   5.421   3.546
10049SOL     OW31045   6.855   0.633   5.318
10049SOL    HW131046   6.932   0.570   5.307
10049SOL    HW231047   6.880   0.723   5.283
10050SOL     OW31048   0.081   2.983   6.920
10050SOL    HW131049   7.020   2.968   6.975
10050SOL    HW231050   0.079   3.076   6.883
10051SOL     OW31051   2.393   2.667   3.705
10051SOL    HW131052   2.369   2.716   3.621
10051SOL    HW231053   2.325   2.689   3.776
10052SOL     OW31054   1.264   6.636   3.258
10052SOL    HW131055   1.345   6.695   3.264
10052SOL    HW231056   1.223   6.627   3.349
10053SOL     OW31057   5.803   5.274   4.919
10053SOL    HW131058   5.711   5.259   4.883
10053SOL    HW231059   5.867   5.213   4.874
10054SOL     OW31060   6.755   3.681   5.045
10054SOL    HW131061   6.765   3.607   5.112
10054SOL    HW231062   6.803   3.655   4.961
10055SOL     OW31063   1.295   2.112   6.921
10055SOL    HW131064   1.220   2.121   6.855
10055SOL    HW231065   1.296   2.191   6.981
10056SOL     OW31066   6.086   2.353   3.563
10056SOL    HW131067   6.051   2.383   3.652
10056SOL    HW231068   6.174   2.398   3.545
10057SOL     OW31069   6.050   5.009   5.282
10057SOL    HW131070   6.059   5.096   5.232
10057SOL    HW231071   5.959   5.003   5.322
10058SOL     OW31072   0.073   3.488   5.085
10058SOL    HW131073   0.079   3.499   5.184
10058SOL    HW231074   7.020   3.425   5.063
10059SOL     OW31075   6.015   0.506   6.772
10059SOL    HW131076   6.019   0.546   6.864
10059SOL    HW231077   5.950   0.558   6.716
10060SOL     OW31078   2.675   1.286   1.594
10060SOL    HW131079   2.644   1.380   1.581
10060SOL    HW231080   2.597   1.224   1.590
10061SOL     OW31081   3.910   6.788   2.767
10061SOL    HW131082   3.896   6.717   2.698
10061SOL    HW231083   4.007   6.794   2.790
10062SOL     OW31084   0.469   0.237   5.221
10062SOL    HW131085   0.545   0.172   5.214
10062SOL    HW231086   0.389   0.190   5.259
10063SOL     OW31087   2.341   2.334   5.369
10063SOL    HW131088   2.402   2.409   5.395
10063SOL    HW231089   2.266   2.328   5.434
10064SOL     OW31090   2.739   6.984   0.677
10064SOL    HW131091   2.702   6.898   0.711
10064SOL    HW231092   2.837   6.975   0.664
10065SOL     OW31093   0.297   2.081   1.612
10065SOL    HW131094   0.331   2.006   1.669
10065SOL    HW231095   0.222   2.127   1.659
10066SOL     OW31096   6.160   4.135   4.253
10066SOL    HW131097   6.175   4.124   4.154
10066SOL    HW231098   6.225   4.201   4.289
10067SOL     OW31099   6.963   3.219   4.997
10067SOL    HW131100   6.976   3.122   4.975
10067SOL    HW231101   6.901   3.227   5.075
10068SOL     OW31102   1.918   3.231   3.176
10068SOL    HW131103   1.941   3.192   3.265
10068SOL    HW231104   1.881   3.323   3.189
10069SOL     OW31105   2.832   4.840   0.144
10069SOL    HW131106   2.759   4.785   0.186
10069SOL    HW231107   2.802   4.871   0.054
10070SOL     OW31108   4.137   6.501   6.582
10070SOL    HW131109   4.162   6.407   6.606
10070SOL    HW231110   4.136   6.557   6.664
10071SOL     OW31111   5.615   0.315   4.674
10071SOL    HW131112   5.597   0.249   4.747
10071SOL    HW231113   5.646   0.401   4.715
10072SOL     OW31114   6.587   3.270   1.093
10072SOL    HW131115   6.599   3.234   1.185
10072SOL    HW231116   6.536   3.205   1.037
10073SOL     OW31117   5.575   4.472   5.173
10073SOL    HW131118   5.653   4.499   5.228
10073SOL    HW231119   5.603   4.403   5.106
10074SOL     OW31120   1.740   5.466   0.799
10074SOL    HW131121   1.758   5.456   0.897
10074SOL    HW231122   1.733   5.375   0.757
10075SOL     OW31123   1.328   3.445   2.276
10075SOL    HW131124   1.375   3.357   2.271
10075SOL    HW231125   1.255   3.447   2.207
10076SOL     OW31126   5.340   4.898   4.601
10076SOL    HW131127   5.434   4.932   4.591
10076SOL    HW231128   5.286   4.967   4.649
10077SOL     OW31129   5.330   4.026   6.360
10077SOL    HW131130   5.334   4.111   6.411
10077SOL    HW231131   5.348   3.949   6.422
10078SOL     OW31132   6.588   5.231   5.080
10078SOL    HW131133   6.586   5.273   4.990
10078SOL    HW231134   6.629   5.140   5.074
10079SOL     OW31135   5.338   3.613   4.049
10079SOL    HW131136   5.287   3.666   3.981
10079SOL    HW231137   5.319   3.649   4.140
10080SOL     OW31138   5.160   1.570   6.045
10080SOL    HW131139   5.224   1.613   5.981
10080SOL    HW231140   5.193   1.479   6.070
10081SOL     OW31141   1.300   4.750   0.655
10081SOL    HW131142   1.249   4.666   0.635
10081SOL    HW231143   1.387   4.727   0.697
10082SOL     OW31144   1.254   4.861   1.462
10082SOL    HW131145   1.263   4.954   1.498
10082SOL    HW231146   1.182   4.813   1.512
10083SOL     OW31147   2.983   5.657   2.643
10083SOL    HW131148   2.948   5.615   2.559
10083SOL    HW231149   2.990   5.756   2.630
10084SOL     OW31150   0.626   1.540   4.413
10084SOL    HW131151   0.550   1.590   4.373
10084SOL    HW231152   0.593   1.480   4.486
10085SOL     OW31153   5.229   0.060   0.819
10085SOL    HW131154   5.144   0.014   0.793
10085SOL    HW231155   5.212   0.157   0.834
10086SOL     OW31156   4.754   6.946   3.458
10086SOL    HW131157   4.785   6.908   3.546
10086SOL    HW231158   4.658   6.921   3.443
10087SOL     OW31159   1.253   6.013   4.952
10087SOL    HW131160   1.191   5.950   4.907
10087SOL    HW231161   1.202   6.074   5.013
10088SOL     OW31162   6.862   3.038   1.999
10088SOL    HW131163   6.829   3.050   1.905
10088SOL    HW231164   6.950   3.084   2.009
10089SOL     OW31165   3.356   0.775   1.344
10089SOL    HW131166   3.293   0.785   1.266
10089SOL    HW231167   3.313   0.719   1.414
10090SOL     OW31168   2.486   6.417   3.495
10090SOL    HW131169   2.493   6.336   3.554
10090SOL    HW231170   2.402   6.467   3.516
10091SOL     OW31171   6.014   4.888   5.016
10091SOL    HW131172   6.012   4.789   4.996
10091SOL    HW231173   6.032   4.902   5.113
10092SOL     OW31174   0.946   2.743   3.971
10092SOL    HW131175   1.015   2.683   4.013
10092SOL    HW231176   0.942   2.725   3.872
10093SOL     OW31177   4.458   4.333   6.014
10093SOL    HW131178   4.495   4.410   6.066
10093SOL    HW231179   4.530   4.265   6.000
10094SOL     OW31180   4.039   2.510   1.425
10094SOL    HW131181   3.997   2.577   1.364
10094SOL    HW231182   3.971   2.475   1.489
10095SOL     OW31183   4.428   3.182   5.317
10095SOL    HW131184   4.410   3.206   5.412
10095SOL    HW231185   4.341   3.164   5.271
10096SOL     OW31186   6.888   3.697   1.937
10096SOL    HW131187   6.907   3.780   1.989
10096SOL    HW231188   6.865   3.623   1.999
10097SOL     OW31189   0.275   1.726   0.950
10097SOL    HW131190   0.182   1.756   0.968
10097SOL    HW231191   0.324   1.713   1.036
10098SOL     OW31192   3.169   5.224   4.393
10098SOL    HW131193   3.230   5.299   4.366
10098SOL    HW231194   3.105   5.205   4.319
10099SOL     OW31195   0.178   5.084   2.681
10099SOL    HW131196   0.269   5.049   2.658
10099SOL    HW231197   0.179   5.184   2.678
10100SOL     OW31198   5.431   4.408   3.860
10100SOL    HW131199   5.500   4.373   3.923
10100SOL    HW231200   5.351   4.348   3.861
10101SOL     OW31201   6.798   3.201   0.390
10101SOL    HW131202   6.880   3.172   0.341
10101SOL    HW231203   6.810   3.182   0.488
10102SOL     OW31204   6.792   5.348   3.451
10102SOL    HW131205   6.711   5.407   3.451
10102SOL    HW231206   6.872   5.403   3.426
10103SOL     OW31207   0.552   6.155   6.867
10103SOL    HW131208   0.642   6.172   6.828
10103SOL    HW231209   0.561   6.101   6.951
10104SOL     OW31210   2.640   0.878   4.290
10104SOL    HW131211   2.586   0.905   4.370
10104SOL    HW231212   2.593   0.804   4.242
10105SOL     OW31213   3.057   1.176   4.696
10105SOL    HW131214   3.076   1.084   4.661
10105SOL    HW231215   3.037   1.237   4.619
10106SOL     OW31216   5.417   4.570   1.463
10106SOL    HW131217   5.501   4.529   1.428
10106SOL    HW231218   5.392   4.525   1.549
10107SOL     OW31219   5.182   5.204   0.630
10107SOL    HW131220   5.204   5.254   0.715
10107SOL    HW231221   5.091   5.164   0.639
10108SOL     OW31222   2.057   2.490   5.812
10108SOL    HW131223   2.118   2.504   5.734
10108SOL    HW231224   2.014   2.400   5.805
10109SOL     OW31225   1.028   2.483   1.432
10109SOL    HW131226   1.116   2.507   1.474
10109SOL    HW231227   0.988   2.564   1.390
10110SOL     OW31228   5.620   5.560   2.697
10110SOL    HW131229   5.692   5.629   2.691
10110SOL    HW231230   5.573   5.552   2.609
10111SOL     OW31231   0.327   2.782   2.143
10111SOL    HW131232   0.284   2.699   2.108
10111SOL    HW231233   0.376   2.762   2.227
10112SOL     OW31234   6.741   3.029   3.318
10112SOL    HW131235   6.674   3.102   3.333
10112SOL    HW231236   6.693   2.941   3.313
10113SOL     OW31237   6.223   0.483   6.602
10113SOL    HW131238   6.230   0.386   6.579
10113SOL    HW231239   6.144   0.498   6.662
10114SOL     OW31240   6.013   2.880   1.950
10114SOL    HW131241   5.940   2.868   2.018
10114SOL    HW231242   5.973   2.878   1.859
10115SOL     OW31243   3.568   2.360   6.059
10115SOL    HW131244   3.577   2.387   6.155
10115SOL    HW231245   3.607   2.431   6.000
10116SOL     OW31246   6.959   0.084   5.798
10116SOL    HW131247   0.011   0.151   5.801
10116SOL    HW231248   6.955   0.034   5.885
10117SOL     OW31249   6.521   4.295   3.183
10117SOL    HW131250   6.613   4.286   3.221
10117SOL    HW231251   6.464   4.219   3.214
10118SOL     OW31252   3.934   4.986   3.347
10118SOL    HW131253   3.881   4.911   3.309
10118SOL    HW231254   3.875   5.044   3.403
10119SOL     OW31255   6.206   6.169   6.658
10119SOL    HW131256   6.251   6.258   6.654
10119SOL    HW231257   6.163   6.149   6.571
10120SOL     OW31258   2.515   2.179   3.149
10120SOL    HW131259   2.579   2.251   3.176
10120SOL    HW231260   2.495   2.121   3.228
10121SOL     OW31261   0.238   5.485   1.135
10121SOL    HW131262   0.259   5.387   1.135
10121SOL    HW231263   0.260   5.525   1.046
10122SOL     OW31264   2.074   0.246   3.380
10122SOL    HW131265   2.101   0.292   3.296
10122SOL    HW231266   2.055   0.150   3.361
10123SOL     OW31267   0.042   5.515   6.492
10123SOL    HW131268   0.122   5.534   6.434
10123SOL    HW231269   6.984   5.496   6.434
10124SOL     OW31270   2.527   5.461   2.567
10124SOL    HW131271   2.439   5.414   2.563
10124SOL    HW231272   2.586   5.417   2.635
10125SOL     OW31273   0.943   0.746   4.645
10125SOL    HW131274   0.959   0.822   4.583
10125SOL    HW231275   0.962   0.776   4.739
10126SOL     OW31276   6.889   6.181   6.095
10126SOL    HW131277   6.899   6.226   6.007
10126SOL    HW231278   6.815   6.114   6.090
10127SOL     OW31279   2.145   6.866   6.360
10127SOL    HW131280   2.168   6.771   6.336
10127SOL    HW231281   2.223   6.925   6.337
10128SOL     OW31282   2.107   2.963   0.201
10128SOL    HW131283   2.092   3.009   0.288
10128SOL    HW231284   2.199   2.923   0.199
10129SOL     OW31285   6.244   2.038   4.882
10129SOL    HW131286   6.267   2.107   4.951
10129SOL    HW231287   6.159   2.064   4.836
10130SOL     OW31288   0.573   1.957   4.311
10130SOL    HW131289   0.585   2.051   4.344
10130SOL    HW231290   0.663   1.916   4.293
10131SOL     OW31291   1.975   6.495   4.669
10131SOL    HW131292   2.069   6.520   4.693
10131SOL    HW231293   1.968   6.480   4.571
10132SOL     OW31294   5.332   6.892   1.877
10132SOL    HW131295   5.265   6.854   1.941
10132SOL    HW231296   5.404   6.824   1.862
10133SOL     OW31297   5.663   6.301   0.745
10133SOL    HW131298   5.698   6.375   0.802
10133SOL    HW231299   5.717   6.218   0.762
10134SOL     OW31300   6.948   6.852   3.237
10134SOL    HW131301   6.937   6.767   3.185
10134SOL    HW231302   0.019   6.857   3.274
10135SOL     OW31303   6.132   6.942   3.084
10135SOL    HW131304   6.074   7.008   3.037
10135SOL    HW231305   6.228   6.967   3.073
10136SOL     OW31306   4.846   0.869   3.395
10136SOL    HW131307   4.823   0.963   3.372
10136SOL    HW231308   4.882   0.865   3.489
10137SOL     OW31309   6.611   5.377   4.847
10137SOL    HW131310   6.587   5.326   4.765
10137SOL    HW231311   6.665   5.458   4.821
10138SOL     OW31312   6.650   2.814   2.095
10138SOL    HW131313   6.576   2.823   2.028
10138SOL    HW231314   6.724   2.878   2.072
10139SOL     OW31315   3.066   2.794   6.666
10139SOL    HW131316   3.006   2.720   6.698
10139SOL    HW231317   3.023   2.842   6.590
10140SOL     OW31318   0.972   5.780   5.495
10140SOL    HW131319   0.996   5.837   5.417
10140SOL    HW231320   0.979   5.683   5.469
10141SOL     OW31321   2.015   2.593   4.053
10141SOL    HW131322   1.915   2.596   4.058
10141SOL    HW231323   2.053   2.599   4.145
10142SOL     OW31324   4.136   6.069   3.067
10142SOL    HW131325   4.134   6.047   3.164
10142SOL    HW231326   4.179   5.995   3.016
10143SOL     OW31327   5.827   2.738   5.660
10143SOL    HW131328   5.796   2.725   5.754
10143SOL    HW231329   5.855   2.650   5.622
10144SOL     OW31330   3.401   0.252   0.903
10144SOL    HW131331   3.333   0.227   0.835
10144SOL    HW231332   3.401   0.184   0.977
10145SOL     OW31333   6.529   6.754   6.146
10145SOL    HW131334   6.589   6.835   6.146
10145SOL    HW231335   6.434   6.783   6.136
10146SOL     OW31336   1.550   3.002   5.183
10146SOL    HW131337   1.488   2.969   5.255
10146SOL    HW231338   1.642   3.014   5.222
10147SOL     OW31339   3.824   5.878   5.794
10147SOL    HW131340   3.910   5.928   5.807
10147SOL    HW231341   3.814   5.811   5.867
10148SOL     OW31342   0.638   4.460   0.083
10148SOL    HW131343   0.634   4.475   0.182
10148SOL    HW231344   0.546   4.468   0.044
10149SOL     OW31345   3.929   3.548   1.616
10149SOL    HW131346   3.934   3.493   1.700
10149SOL    HW231347   3.933   3.488   1.536
10150SOL     OW31348   4.423   4.109   1.157
10150SOL    HW131349   4.450   4.036   1.095
10150SOL    HW231350   4.475   4.192   1.136
10151SOL     OW31351   6.656   1.129   6.075
10151SOL    HW131352   6.720   1.192   6.118
10151SOL    HW231353   6.619   1.067   6.144
10152SOL     OW31354   3.789   6.476   2.881
10152SOL    HW131355   3.731   6.398   2.857
10152SOL    HW231356   3.877   6.466   2.834
10153SOL     OW31357   5.178   4.054   1.689
10153SOL    HW131358   5.082   4.079   1.677
10153SOL    HW231359   5.195   4.030   1.784
10154SOL     OW31360   3.831   5.233   5.305
10154SOL    HW131361   3.919   5.188   5.321
10154SOL    HW231362   3.843   5.332   5.316
10155SOL     OW31363   4.070   1.140   3.746
10155SOL    HW131364   4.021   1.224   3.725
10155SOL    HW231365   4.159   1.140   3.700
10156SOL     OW31366   4.042   1.856   5.861
10156SOL    HW131367   3.986   1.815   5.933
10156SOL    HW231368   4.136   1.868   5.895
10157SOL     OW31369   0.165   4.388   1.259
10157SOL    HW131370   0.215   4.321   1.204
10157SOL    HW231371   0.228   4.458   1.292
10158SOL     OW31372   5.891   5.217   6.931
10158SOL    HW131373   5.843   5.141   6.887
10158SOL    HW231374   5.904   5.196   0.006
10159SOL     OW31375   3.214   3.033   1.727
10159SOL    HW131376   3.290   2.987   1.682
10159SOL    HW231377   3.232   3.037   1.825
10160SOL     OW31378   6.655   4.458   2.467
10160SOL    HW131379   6.637   4.359   2.460
10160SOL    HW231380   6.728   4.474   2.534
10161SOL     OW31381   5.512   3.076   5.622
10161SOL    HW131382   5.519   3.129   5.706
10161SOL    HW231383   5.481   2.983   5.644
10162SOL     OW31384   1.575   2.807   2.173
10162SOL    HW131385   1.544   2.751   2.251
10162SOL    HW231386   1.554   2.904   2.192
10163SOL     OW31387   2.668   5.182   4.887
10163SOL    HW131388   2.573   5.211   4.879
10163SOL    HW231389   2.673   5.100   4.943
10164SOL     OW31390   0.000   1.126   3.861
10164SOL    HW131391   0.032   1.184   3.785
10164SOL    HW231392   6.945   1.170   3.907
10165SOL     OW31393   1.104   3.810   4.098
10165SOL    HW131394   1.099   3.866   4.181
10165SOL    HW231395   1.014   3.809   4.054
10166SOL     OW31396   2.763   6.320   2.645
10166SOL    HW131397   2.793   6.226   2.662
10166SOL    HW231398   2.719   6.357   2.727
10167SOL     OW31399   2.383   2.105   6.815
10167SOL    HW131400   2.349   2.174   6.750
10167SOL    HW231401   2.479   2.125   6.837
10168SOL     OW31402   0.054   0.144   6.595
10168SOL    HW131403   7.017   0.152   6.676
10168SOL    HW231404   0.037   0.056   6.550
10169SOL     OW31405   5.321   4.690   3.180
10169SOL    HW131406   5.299   4.720   3.273
10169SOL    HW231407   5.237   4.667   3.132
10170SOL     OW31408   5.030   6.212   0.352
10170SOL    HW131409   5.008   6.165   0.437
10170SOL    HW231410   5.122   6.251   0.359
10171SOL     OW31411   2.360   4.759   5.196
10171SOL    HW131412   2.294   4.687   5.175
10171SOL    HW231413   2.453   4.724   5.185
10172SOL     OW31414   6.649   0.729   2.729
10172SOL    HW131415   6.731   0.688   2.768
10172SOL    HW231416   6.582   0.746   2.802
10173SOL     OW31417   3.785   3.581   5.052
10173SOL    HW131418   3.715   3.649   5.073
10173SOL    HW231419   3.768   3.541   4.962
10174SOL     OW31420   4.578   5.142   1.109
10174SOL    HW131421   4.492   5.091   1.116
10174SOL    HW231422   4.560   5.239   1.121
10175SOL     OW31423   6.675   6.892   4.595
10175SOL    HW131424   6.595   6.847   4.634
10175SOL    HW231425   6.668   6.991   4.610
10176SOL     OW31426   0.206   0.558   4.882
10176SOL    HW131427   0.218   0.638   4.824
10176SOL    HW231428   0.273   0.562   4.957
10177SOL     OW31429   2.277   0.932   4.256
10177SOL    HW131430   2.215   0.918   4.333
10177SOL    HW231431   2.309   0.843   4.223
10178SOL     OW31432   0.617   1.885   1.313
10178SOL    HW131433   0.668   1.799   1.315
10178SOL    HW231434   0.670   1.956   1.360
10179SOL     OW31435   0.518   5.423   0.449
10179SOL    HW131436   0.570   5.388   0.371
10179SOL    HW231437   0.578   5.429   0.529
10180SOL     OW31438   3.765   0.162   6.529
10180SOL    HW131439   3.789   0.202   6.617
10180SOL    HW231440   3.845   0.116   6.490
10181SOL     OW31441   6.694   3.697   3.322
10181SOL    HW131442   6.753   3.637   3.377
10181SOL    HW231443   6.632   3.642   3.267
10182SOL     OW31444   3.899   0.847   1.052
10182SOL    HW131445   3.846   0.931   1.037
10182SOL    HW231446   3.983   0.850   0.997
10183SOL     OW31447   4.524   6.619   5.748
10183SOL    HW131448   4.439   6.577   5.777
10183SOL    HW231449   4.566   6.667   5.825
10184SOL     OW31450   5.255   1.724   5.817
10184SOL    HW131451   5.321   1.656   5.783
10184SOL    HW231452   5.175   1.725   5.758
10185SOL     OW31453   3.323   5.220   1.235
10185SOL    HW131454   3.384   5.294   1.207
10185SOL    HW231455   3.377   5.145   1.274
10186SOL     OW31456   3.396   3.234   6.636
10186SOL    HW131457   3.414   3.283   6.722
10186SOL    HW231458   3.298   3.235   6.617
10187SOL     OW31459   1.799   4.106   5.568
10187SOL    HW131460   1.881   4.051   5.582
10187SOL    HW231461   1.719   4.057   5.603
10188SOL     OW31462   3.045   0.022   6.351
10188SOL    HW131463   3.050   0.119   6.325
10188SOL    HW231464   3.016   0.014   6.446
10189SOL     OW31465   1.822   1.283   4.636
10189SOL    HW131466   1.744   1.227   4.662
10189SOL    HW231467   1.832   1.283   4.537
10190SOL     OW31468   4.228   4.113   0.719
10190SOL    HW131469   4.208   4.016   0.730
10190SOL    HW231470   4.219   4.138   0.622
10191SOL     OW31471   5.557   0.409   6.980
10191SOL    HW131472   5.636   0.460   7.014
10191SOL    HW231473   5.482   0.473   6.961
10192SOL     OW31474   2.065   1.139   4.637
10192SOL    HW131475   2.102   1.211   4.579
10192SOL    HW231476   1.978   1.169   4.675
10193SOL     OW31477   3.819   3.415   3.897
10193SOL    HW131478   3.906   3.437   3.942
10193SOL    HW231479   3.830   3.331   3.843
10194SOL     OW31480   2.921   0.093   2.952
10194SOL    HW131481   2.943   7.020   2.932
10194SOL    HW231482   2.978   0.126   3.027
10195SOL     OW31483   5.316   0.479   1.929
10195SOL    HW131484   5.358   0.529   2.005
10195SOL    HW231485   5.365   0.393   1.914
10196SOL     OW31486   5.113   3.373   4.479
10196SOL    HW131487   5.097   3.472   4.468
10196SOL    HW231488   5.138   3.334   4.390
10197SOL     OW31489   5.335   1.567   2.441
10197SOL    HW131490   5.327   1.653   2.493
10197SOL    HW231491   5.257   1.558   2.379
10198SOL     OW31492   2.771   0.199   1.544
10198SOL    HW131493   2.846   0.199   1.611
10198SOL    HW231494   2.799   0.147   1.463
10199SOL     OW31495   0.926   2.304   0.736
10199SOL    HW131496   0.977   2.219   0.748
10199SOL    HW231497   0.852   2.289   0.670
10200SOL     OW31498   5.852   5.535   5.558
10200SOL    HW131499   5.772   5.591   5.539
10200SOL    HW231500   5.913   5.584   5.621
10201SOL     OW31501   1.717   4.925   3.144
10201SOL    HW131502   1.661   4.948   3.224
10201SOL    HW231503   1.754   4.833   3.155
10202SOL     OW31504   0.434   2.678   2.716
10202SOL    HW131505   0.509   2.634   2.667
10202SOL    HW231506   0.403   2.618   2.790
10203SOL     OW31507   1.114   3.097   2.020
10203SOL    HW131508   1.164   3.126   2.102
10203SOL    HW231509   1.158   3.015   1.982
10204SOL     OW31510   3.081   4.859   4.308
10204SOL    HW131511   3.110   4.776   4.354
10204SOL    HW231512   3.048   4.925   4.375
10205SOL     OW31513   4.180   0.535   1.804
10205SOL    HW131514   4.093   0.582   1.823
10205SOL    HW231515   4.173   0.488   1.716
10206SOL     OW31516   4.751   0.343   5.775
10206SOL    HW131517   4.795   0.342   5.865
10206SOL    HW231518   4.749   0.250   5.739
10207SOL     OW31519   3.725   0.752   3.151
10207SOL    HW131520   3.738   0.778   3.055
10207SOL    HW231521   3.665   0.818   3.196
10208SOL     OW31522   6.397   4.196   5.381
10208SOL    HW131523   6.314   4.249   5.398
10208SOL    HW231524   6.442   4.229   5.299
10209SOL     OW31525   5.561   6.884   6.754
10209SOL    HW131526   5.518   6.808   6.803
10209SOL    HW231527   5.645   6.852   6.711
10210SOL     OW31528   5.475   5.823   1.014
10210SOL    HW131529   5.465   5.723   1.021
10210SOL    HW231530   5.455   5.865   1.102
10211SOL     OW31531   3.542   5.752   5.098
10211SOL    HW131532   3.516   5.728   5.192
10211SOL    HW231533   3.527   5.673   5.039
10212SOL     OW31534   5.853   6.236   5.377
10212SOL    HW131535   5.843   6.336   5.376
10212SOL    HW231536   5.950   6.213   5.382
10213SOL     OW31537   4.631   0.636   4.366
10213SOL    HW131538   4.714   0.579   4.358
10213SOL    HW231539   4.571   0.618   4.289
10214SOL     OW31540   6.997   1.230   1.146
10214SOL    HW131541   0.003   1.267   1.057
10214SOL    HW231542   0.007   1.292   1.218
10215SOL     OW31543   4.076   2.771   6.403
10215SOL    HW131544   4.073   2.731   6.495
10215SOL    HW231545   4.104   2.867   6.409
10216SOL     OW31546   4.901   0.373   2.458
10216SOL    HW131547   4.907   0.406   2.552
10216SOL    HW231548   4.852   0.440   2.402
10217SOL     OW31549   3.158   2.168   5.475
10217SOL    HW131550   3.214   2.250   5.476
10217SOL    HW231551   3.107   2.162   5.389
10218SOL     OW31552   2.549   2.499   0.353
10218SOL    HW131553   2.633   2.510   0.406
10218SOL    HW231554   2.546   2.407   0.315
10219SOL     OW31555   0.742   4.672   0.484
10219SOL    HW131556   0.764   4.584   0.526
10219SOL    HW231557   0.823   4.709   0.438
10220SOL     OW31558   4.179   2.585   0.318
10220SOL    HW131559   4.223   2.672   0.337
10220SOL    HW231560   4.176   2.530   0.402
10221SOL     OW31561   3.153   0.999   4.960
10221SOL    HW131562   3.196   1.004   4.870
10221SOL    HW231563   3.073   0.939   4.955
10222SOL     OW31564   1.961   4.861   5.776
10222SOL    HW131565   1.994   4.856   5.681
10222SOL    HW231566   1.964   4.770   5.817
10223SOL     OW31567   6.828   4.522   0.745
10223SOL    HW131568   6.873   4.585   0.682
10223SOL    HW231569   6.796   4.442   0.695
10224SOL     OW31570   2.568   0.193   5.003
10224SOL    HW131571   2.486   0.213   4.949
10224SOL    HW231572   2.629   0.272   5.002
10225SOL     OW31573   5.469   5.912   4.297
10225SOL    HW131574   5.534   5.976   4.339
10225SOL    HW231575   5.490   5.901   4.200
10226SOL     OW31576   6.908   2.956   0.120
10226SOL    HW131577   6.959   2.872   0.138
10226SOL    HW231578   6.823   2.956   0.172
10227SOL     OW31579   5.720   5.896   6.024
10227SOL    HW131580   5.621   5.897   6.037
10227SOL    HW231581   5.741   5.901   5.926
10228SOL     OW31582   1.189   4.039   2.915
10228SOL    HW131583   1.172   4.137   2.919
10228SOL    HW231584   1.174   4.006   2.822
10229SOL     OW31585   1.752   1.305   1.925
10229SOL    HW131586   1.710   1.386   1.965
10229SOL    HW231587   1.794   1.329   1.837
10230SOL     OW31588   6.010   6.595   4.868
10230SOL    HW131589   5.928   6.546   4.895
10230SOL    HW231590   6.002   6.691   4.894
10231SOL     OW31591   4.482   6.934   4.375
10231SOL    HW131592   4.562   6.962   4.322
10231SOL    HW231593   4.400   6.940   4.317
10232SOL     OW31594   3.773   2.140   4.218
10232SOL    HW131595   3.703   2.173   4.280
10232SOL    HW231596   3.863   2.170   4.249
10233SOL     OW31597   4.746   1.449   5.581
10233SOL    HW131598   4.751   1.384   5.505
10233SOL    HW231599   4.706   1.534   5.548
10234SOL     OW31600   4.927   6.238   1.764
10234SOL    HW131601   4.934   6.270   1.859
10234SOL    HW231602   4.967   6.306   1.703
10235SOL     OW31603   4.938   1.677   6.140
10235SOL    HW131604   5.031   1.641   6.128
10235SOL    HW231605   4.930   1.719   6.230
10236SOL     OW31606   2.240   5.958   1.992
10236SOL    HW131607   2.267   5.866   1.967
10236SOL    HW231608   2.224   6.012   1.909
10237SOL     OW31609   5.777   2.293   3.393
10237SOL    HW131610   5.723   2.295   3.309
10237SOL    HW231611   5.873   2.311   3.373
10238SOL     OW31612   4.641   5.487   4.235
10238SOL    HW131613   4.716   5.462   4.295
10238SOL    HW231614   4.600   5.573   4.267
10239SOL     OW31615   6.584   3.845   4.022
10239SOL    HW131616   6.660   3.906   4.001
10239SOL    HW231617   6.542   3.812   3.937
10240SOL     OW31618   6.098   3.668   3.658
10240SOL    HW131619   6.047   3.748   3.690
10240SOL    HW231620   6.125   3.612   3.737
10241SOL     OW31621   1.875   1.164   3.414
10241SOL    HW131622   1.868   1.252   3.462
10241SOL    HW231623   1.970   1.131   3.420
10242SOL     OW31624   0.785   6.365   6.229
10242SOL    HW131625   0.772   6.385   6.326
10242SOL    HW231626   0.835   6.280   6.219
10243SOL     OW31627   1.297   6.122   2.358
10243SOL    HW131628   1.210   6.090   2.394
10243SOL    HW231629   1.339   6.050   2.303
10244SOL     OW31630   1.489   5.911   0.145
10244SOL    HW131631   1.489   5.951   0.236
10244SOL    HW231632   1.563   5.951   0.091
10245SOL     OW31633   2.005   2.301   0.302
10245SOL    HW131634   2.094   2.310   0.257
10245SOL    HW231635   2.016   2.315   0.401
10246SOL     OW31636   3.401   4.102   4.086
10246SOL    HW131637   3.467   4.126   4.156
10246SOL    HW231638   3.314   4.075   4.129
10247SOL     OW31639   1.072   5.730   5.993
10247SOL    HW131640   0.994   5.787   6.019
10247SOL    HW231641   1.058   5.694   5.901
10248SOL     OW31642   4.345   0.614   2.580
10248SOL    HW131643   4.253   0.592   2.548
10248SOL    HW231644   4.362   0.569   2.668
10249SOL     OW31645   4.812   1.494   6.898
10249SOL    HW131646   4.735   1.538   6.944
10249SOL    HW231647   4.777   1.436   6.824
10250SOL     OW31648   5.533   0.354   0.334
10250SOL    HW131649   5.508   0.411   0.412
10250SOL    HW231650   5.463   0.283   0.321
10251SOL     OW31651   3.962   4.326   6.615
10251SOL    HW131652   4.044   4.365   6.575
10251SOL    HW231653   3.987   4.249   6.674
10252SOL     OW31654   6.246   5.274   2.165
10252SOL    HW131655   6.164   5.319   2.130
10252SOL    HW231656   6.247   5.281   2.265
10253SOL     OW31657   4.031   4.884   6.609
10253SOL    HW131658   3.992   4.970   6.641
10253SOL    HW231659   3.958   4.817   6.595
10254SOL     OW31660   2.073   1.350   4.145
10254SOL    HW131661   2.115   1.278   4.200
10254SOL    HW231662   1.982   1.371   4.181
10255SOL     OW31663   3.268   5.139   3.064
10255SOL    HW131664   3.297   5.163   2.971
10255SOL    HW231665   3.206   5.209   3.099
10256SOL     OW31666   6.128   6.500   6.864
10256SOL    HW131667   6.061   6.434   6.831
10256SOL    HW231668   6.141   6.571   6.794
10257SOL     OW31669   1.984   6.618   6.504
10257SOL    HW131670   2.074   6.624   6.548
10257SOL    HW231671   1.984   6.675   6.422
10258SOL     OW31672   4.065   0.210   3.727
10258SOL    HW131673   4.080   0.112   3.710
10258SOL    HW231674   4.005   0.221   3.806
10259SOL     OW31675   0.738   4.044   3.648
10259SOL    HW131676   0.790   4.066   3.731
10259SOL    HW231677   0.787   3.974   3.595
10260SOL     OW31678   6.911   6.502   1.207
10260SOL    HW131679   6.865   6.453   1.132
10260SOL    HW231680   6.980   6.563   1.170
10261SOL     OW31681   1.983   6.978   1.509
10261SOL    HW131682   1.896   0.003   1.495
10261SOL    HW231683   2.040   0.010   1.571
10262SOL     OW31684   1.035   5.512   5.106
10262SOL    HW131685   1.109   5.551   5.050
10262SOL    HW231686   1.075   5.473   5.189
10263SOL     OW31687   6.420   2.050   5.324
10263SOL    HW131688   6.517   2.062   5.304
10263SOL    HW231689   6.394   1.955   5.311
10264SOL     OW31690   0.710   6.548   0.097
10264SOL    HW131691   0.719   6.560   7.020
10264SOL    HW231692   0.731   6.453   0.121
10265SOL     OW31693   4.093   2.098   2.135
10265SOL    HW131694   4.182   2.098   2.088
10265SOL    HW231695   4.067   2.193   2.155
10266SOL     OW31696   4.385   4.139   6.229
10266SOL    HW131697   4.327   4.187   6.163
10266SOL    HW231698   4.369   4.041   6.221
10267SOL     OW31699   0.233   1.726   6.105
10267SOL    HW131700   0.155   1.737   6.166
10267SOL    HW231701   0.220   1.782   6.023
10268SOL     OW31702   6.231   4.157   1.805
10268SOL    HW131703   6.178   4.241   1.818
10268SOL    HW231704   6.168   4.079   1.801
10269SOL     OW31705   3.172   2.524   6.103
10269SOL    HW131706   3.260   2.572   6.109
10269SOL    HW231707   3.119   2.540   6.186
10270SOL     OW31708   3.081   6.579   1.107
10270SOL    HW131709   3.160   6.524   1.134
10270SOL    HW231710   3.015   6.522   1.059
10271SOL     OW31711   3.432   5.078   0.647
10271SOL    HW131712   3.343   5.063   0.604
10271SOL    HW231713   3.501   5.025   0.598
10272SOL     OW31714   1.042   0.994   5.724
10272SOL    HW131715   0.952   0.997   5.679
10272SOL    HW231716   1.041   1.052   5.805
10273SOL     OW31717   3.987   6.476   3.966
10273SOL    HW131718   4.032   6.389   3.948
10273SOL    HW231719   4.049   6.535   4.019
10274SOL     OW31720   2.061   6.084   6.533
10274SOL    HW131721   2.141   6.037   6.494
10274SOL    HW231722   1.995   6.015   6.564
10275SOL     OW31723   1.084   6.670   2.132
10275SOL    HW131724   1.011   6.603   2.127
10275SOL    HW231725   1.054   6.755   2.089
10276SOL     OW31726   6.915   6.494   6.944
10276SOL    HW131727   6.836   6.550   6.969
10276SOL    HW231728   6.954   6.528   6.858
10277SOL     OW31729   1.338   5.731   2.613
10277SOL    HW131730   1.294   5.670   2.678
10277SOL    HW231731   1.431   5.753   2.645
10278SOL     OW31732   6.555   0.150   6.294
10278SOL    HW131733   6.482   0.083   6.305
10278SOL    HW231734   6.524   0.239   6.329
10279SOL     OW31735   3.545   6.214   3.424
10279SOL    HW131736   3.522   6.289   3.486
10279SOL    HW231737   3.471   6.201   3.358
10280SOL     OW31738   3.402   2.696   6.164
10280SOL    HW131739   3.438   2.752   6.090
10280SOL    HW231740   3.472   2.685   6.235
10281SOL     OW31741   3.829   6.505   4.219
10281SOL    HW131742   3.808   6.530   4.313
10281SOL    HW231743   3.751   6.525   4.161
10282SOL     OW31744   1.332   2.562   4.963
10282SOL    HW131745   1.317   2.650   4.917
10282SOL    HW231746   1.336   2.489   4.895
10283SOL     OW31747   1.646   3.114   5.553
10283SOL    HW131748   1.715   3.104   5.625
10283SOL    HW231749   1.691   3.132   5.466
10284SOL     OW31750   5.334   3.257   6.191
10284SOL    HW131751   5.332   3.157   6.191
10284SOL    HW231752   5.428   3.288   6.203
10285SOL     OW31753   6.103   0.463   0.690
10285SOL    HW131754   6.148   0.389   0.739
10285SOL    HW231755   6.063   0.527   0.756
10286SOL     OW31756   4.141   0.428   4.199
10286SOL    HW131757   4.100   0.519   4.207
10286SOL    HW231758   4.161   0.410   4.102
10287SOL     OW31759   1.972   5.301   1.195
10287SOL    HW131760   2.040   5.316   1.123
10287SOL    HW231761   1.880   5.317   1.159
10288SOL     OW31762   5.138   6.369   4.081
10288SOL    HW131763   5.226   6.322   4.079
10288SOL    HW231764   5.152   6.468   4.074
10289SOL     OW31765   2.894   1.261   1.423
10289SOL    HW131766   2.828   1.273   1.496
10289SOL    HW231767   2.977   1.314   1.444
10290SOL     OW31768   2.875   3.640   1.964
10290SOL    HW131769   2.919   3.643   2.053
10290SOL    HW231770   2.823   3.555   1.956
10291SOL     OW31771   4.118   0.482   5.712
10291SOL    HW131772   4.074   0.461   5.799
10291SOL    HW231773   4.152   0.576   5.713
10292SOL     OW31774   0.013   0.787   4.902
10292SOL    HW131775   7.002   0.708   4.953
10292SOL    HW231776   6.998   0.783   4.809
10293SOL     OW31777   2.739   5.818   3.053
10293SOL    HW131778   2.793   5.754   2.999
10293SOL    HW231779   2.799   5.890   3.089
10294SOL     OW31780   5.987   1.646   3.235
10294SOL    HW131781   6.076   1.602   3.229
10294SOL    HW231782   5.943   1.622   3.321
10295SOL     OW31783   1.655   4.410   4.880
10295SOL    HW131784   1.727   4.430   4.947
10295SOL    HW231785   1.667   4.317   4.845
10296SOL     OW31786   6.301   2.496   0.722
10296SOL    HW131787   6.229   2.512   0.654
10296SOL    HW231788   6.289   2.559   0.799
10297SOL     OW31789   2.351   5.598   4.880
10297SOL    HW131790   2.375   5.504   4.904
10297SOL    HW231791   2.275   5.597   4.815
10298SOL     OW31792   5.586   3.877   3.170
10298SOL    HW131793   5.648   3.799   3.165
10298SOL    HW231794   5.577   3.907   3.265
10299SOL     OW31795   4.819   3.880   2.274
10299SOL    HW131796   4.813   3.783   2.298
10299SOL    HW231797   4.826   3.889   2.175
10300SOL     OW31798   2.203   5.130   2.288
10300SOL    HW131799   2.206   5.099   2.193
10300SOL    HW231800   2.291   5.113   2.332
10301SOL     OW31801   5.258   1.671   1.368
10301SOL    HW131802   5.271   1.576   1.397
10301SOL    HW231803   5.287   1.681   1.273
10302SOL     OW31804   1.592   5.114   3.315
10302SOL    HW131805   1.554   5.111   3.407
10302SOL    HW231806   1.522   5.084   3.250
10303SOL     OW31807   3.300   3.360   1.314
10303SOL    HW131808   3.241   3.385   1.236
10303SOL    HW231809   3.248   3.302   1.377
10304SOL     OW31810   6.216   6.468   3.743
10304SOL    HW131811   6.305   6.458   3.698
10304SOL    HW231812   6.186   6.378   3.777
10305SOL     OW31813   1.663   5.624   1.115
10305SOL    HW131814   1.674   5.722   1.095
10305SOL    HW231815   1.671   5.609   1.213
10306SOL     OW31816   4.374   4.931   0.424
10306SOL    HW131817   4.455   4.960   0.373
10306SOL    HW231818   4.292   4.970   0.382
10307SOL     OW31819   2.891   1.028   5.202
10307SOL    HW131820   2.867   1.076   5.286
10307SOL    HW231821   2.933   1.092   5.138
10308SOL     OW31822   3.118   5.414   3.844
10308SOL    HW131823   3.212   5.394   3.818
10308SOL    HW231824   3.066   5.328   3.852
10309SOL     OW31825   0.617   6.387   3.321
10309SOL    HW131826   0.604   6.288   3.315
10309SOL    HW231827   0.592   6.430   3.235
10310SOL     OW31828   3.205   3.490   4.750
10310SOL    HW131829   3.268   3.488   4.672
10310SOL    HW231830   3.111   3.479   4.717
10311SOL     OW31831   0.530   6.227   1.319
10311SOL    HW131832   0.465   6.223   1.394
10311SOL    HW231833   0.563   6.321   1.309
10312SOL     OW31834   2.445   4.637   0.793
10312SOL    HW131835   2.435   4.735   0.774
10312SOL    HW231836   2.365   4.588   0.758
10313SOL     OW31837   6.052   6.222   3.807
10313SOL    HW131838   6.130   6.168   3.838
10313SOL    HW231839   6.003   6.259   3.886
10314SOL     OW31840   6.244   5.008   5.792
10314SOL    HW131841   6.258   4.930   5.852
10314SOL    HW231842   6.177   4.984   5.722
10315SOL     OW31843   5.512   6.006   4.896
10315SOL    HW131844   5.478   6.070   4.826
10315SOL    HW231845   5.610   6.022   4.911
10316SOL     OW31846   0.122   3.873   2.981
10316SOL    HW131847   0.107   3.855   2.883
10316SOL    HW231848   0.217   3.853   3.004
10317SOL     OW31849   3.959   4.488   0.812
10317SOL    HW131850   3.979   4.579   0.777
10317SOL    HW231851   4.044   4.438   0.826
10318SOL     OW31852   6.391   5.855   2.362
10318SOL    HW131853   6.334   5.901   2.294
10318SOL    HW231854   6.379   5.756   2.354
10319SOL     OW31855   5.030   5.985   4.616
10319SOL    HW131856   5.109   6.024   4.570
10319SOL    HW231857   4.978   5.929   4.552
10320SOL     OW31858   4.549   6.234   1.257
10320SOL    HW131859   4.491   6.316   1.263
10320SOL    HW231860   4.517   6.176   1.182
10321SOL     OW31861   3.760   6.943   4.282
10321SOL    HW131862   3.763   6.913   4.377
10321SOL    HW231863   3.722   6.870   4.226
10322SOL     OW31864   6.666   2.791   0.477
10322SOL    HW131865   6.626   2.709   0.520
10322SOL    HW231866   6.755   2.810   0.518
10323SOL     OW31867   6.676   1.860   5.019
10323SOL    HW131868   6.607   1.879   4.948
10323SOL    HW231869   6.723   1.945   5.043
10324SOL     OW31870   3.169   3.111   3.594
10324SOL    HW131871   3.203   3.023   3.626
10324SOL    HW231872   3.149   3.170   3.672
10325SOL     OW31873   0.896   3.810   3.522
10325SOL    HW131874   0.834   3.734   3.501
10325SOL    HW231875   0.966   3.816   3.452
10326SOL     OW31876   4.671   1.456   1.022
10326SOL    HW131877   4.723   1.405   0.953
10326SOL    HW231878   4.701   1.551   1.023
10327SOL     OW31879   6.733   0.651   3.363
10327SOL    HW131880   6.722   0.690   3.271
10327SOL    HW231881   6.655   0.593   3.384
10328SOL     OW31882   5.979   3.102   2.434
10328SOL    HW131883   6.067   3.104   2.387
10328SOL    HW231884   5.948   3.008   2.442
10329SOL     OW31885   4.079   6.531   2.940
10329SOL    HW131886   4.108   6.584   3.020
10329SOL    HW231887   4.130   6.446   2.935
10330SOL     OW31888   3.433   4.249   0.809
10330SOL    HW131889   3.473   4.331   0.769
10330SOL    HW231890   3.505   4.193   0.850
10331SOL     OW31891   5.431   0.546   4.306
10331SOL    HW131892   5.449   0.448   4.316
10331SOL    HW231893   5.480   0.581   4.226
10332SOL     OW31894   0.219   1.824   0.194
10332SOL    HW131895   0.290   1.837   0.125
10332SOL    HW231896   0.218   1.729   0.224
10333SOL     OW31897   5.059   4.366   4.823
10333SOL    HW131898   5.092   4.443   4.879
10333SOL    HW231899   5.091   4.377   4.729
10334SOL     OW31900   1.141   5.043   4.912
10334SOL    HW131901   1.090   5.040   4.997
10334SOL    HW231902   1.181   5.134   4.899
10335SOL     OW31903   2.456   5.429   1.567
10335SOL    HW131904   2.384   5.365   1.595
10335SOL    HW231905   2.451   5.444   1.468
10336SOL     OW31906   4.234   6.298   2.954
10336SOL    HW131907   4.183   6.233   3.011
10336SOL    HW231908   4.317   6.325   3.002
10337SOL     OW31909   1.145   4.723   5.275
10337SOL    HW131910   1.145   4.813   5.319
10337SOL    HW231911   1.220   4.668   5.310
10338SOL     OW31912   3.777   4.869   3.117
10338SOL    HW131913   3.705   4.911   3.063
10338SOL    HW231914   3.743   4.784   3.159
10339SOL     OW31915   3.321   5.532   0.330
10339SOL    HW131916   3.291   5.517   0.236
10339SOL    HW231917   3.258   5.488   0.394
10340SOL     OW31918   2.149   6.815   0.218
10340SOL    HW131919   2.214   6.822   0.295
10340SOL    HW231920   2.198   6.787   0.136
10341SOL     OW31921   1.220   2.459   2.480
10341SOL    HW131922   1.151   2.403   2.526
10341SOL    HW231923   1.298   2.473   2.542
10342SOL     OW31924   3.017   6.294   3.849
10342SOL    HW131925   3.092   6.299   3.783
10342SOL    HW231926   2.975   6.385   3.858
10343SOL     OW31927   2.227   2.993   3.717
10343SOL    HW131928   2.185   2.905   3.741
10343SOL    HW231929   2.261   3.037   3.800
10344SOL     OW31930   4.401   3.793   0.663
10344SOL    HW131931   4.388   3.808   0.761
10344SOL    HW231932   4.498   3.781   0.644
10345SOL     OW31933   1.538   1.455   5.750
10345SOL    HW131934   1.566   1.405   5.831
10345SOL    HW231935   1.442   1.483   5.760
10346SOL     OW31936   5.608   4.828   0.427
10346SOL    HW131937   5.509   4.832   0.415
10346SOL    HW231938   5.630   4.779   0.512
10347SOL     OW31939   5.029   0.910   1.720
10347SOL    HW131940   5.026   0.828   1.664
10347SOL    HW231941   4.950   0.912   1.781
10348SOL     OW31942   6.782   4.923   5.847
10348SOL    HW131943   6.723   5.003   5.855
10348SOL    HW231944   6.877   4.950   5.864
10349SOL     OW31945   6.768   1.919   1.120
10349SOL    HW131946   6.811   1.857   1.054
10349SOL    HW231947   6.831   1.937   1.195
10350SOL     OW31948   2.172   4.554   5.135
10350SOL    HW131949   2.160   4.455   5.124
10350SOL    HW231950   2.158   4.600   5.047
10351SOL     OW31951   4.382   4.735   4.843
10351SOL    HW131952   4.341   4.676   4.913
10351SOL    HW231953   4.327   4.818   4.833
10352SOL     OW31954   6.346   1.261   6.691
10352SOL    HW131955   6.353   1.278   6.593
10352SOL    HW231956   6.387   1.337   6.742
10353SOL     OW31957   6.201   2.688   3.586
10353SOL    HW131958   6.240   2.603   3.551
10353SOL    HW231959   6.225   2.764   3.524
10354SOL     OW31960   6.407   3.023   1.472
10354SOL    HW131961   6.444   2.930   1.481
10354SOL    HW231962   6.315   3.018   1.432
10355SOL     OW31963   0.494   1.665   0.734
10355SOL    HW131964   0.405   1.685   0.695
10355SOL    HW231965   0.511   1.726   0.811
10356SOL     OW31966   6.132   3.466   5.413
10356SOL    HW131967   6.034   3.481   5.425
10356SOL    HW231968   6.146   3.383   5.359
10357SOL     OW31969   1.494   0.723   5.720
10357SOL    HW131970   1.403   0.686   5.736
10357SOL    HW231971   1.501   0.814   5.760
10358SOL     OW31972   0.810   3.157   3.187
10358SOL    HW131973   0.804   3.057   3.191
10358SOL    HW231974   0.883   3.183   3.124
10359SOL     OW31975   6.684   2.093   2.187
10359SOL    HW131976   6.598   2.084   2.238
10359SOL    HW231977   6.665   2.096   2.089
10360SOL     OW31978   5.564   4.319   1.445
10360SOL    HW131979   5.643   4.264   1.419
10360SOL    HW231980   5.514   4.273   1.518
10361SOL     OW31981   6.318   2.099   2.108
10361SOL    HW131982   6.363   2.090   2.197
10361SOL    HW231983   6.257   2.021   2.093
10362SOL     OW31984   1.720   5.950   2.141
10362SOL    HW131985   1.688   5.874   2.086
10362SOL    HW231986   1.819   5.955   2.136
10363SOL     OW31987   5.409   4.406   6.316
10363SOL    HW131988   5.310   4.421   6.309
10363SOL    HW231989   5.441   4.444   6.403
10364SOL     OW31990   5.971   4.891   2.034
10364SOL    HW131991   5.872   4.893   2.043
10364SOL    HW231992   6.004   4.981   2.005
10365SOL     OW31993   5.920   4.969   0.774
10365SOL    HW131994   6.002   5.011   0.736
10365SOL    HW231995   5.945   4.885   0.822
10366SOL     OW31996   3.137   6.213   3.424
10366SOL    HW131997   3.182   6.232   3.336
10366SOL    HW231998   3.092   6.124   3.420
10367SOL     OW31999   5.446   6.300   1.729
10367SOL    HW132000   5.494   6.212   1.733
10367SOL    HW232001   5.411   6.314   1.636
10368SOL     OW32002   2.459   6.234   1.202
10368SOL    HW132003   2.446   6.178   1.120
10368SOL    HW232004   2.377   6.289   1.218
10369SOL     OW32005   2.527   0.071   6.072
10369SOL    HW132006   2.490   0.145   6.017
10369SOL    HW232007   2.598   0.023   6.021
10370SOL     OW32008   1.449   1.413   5.144
10370SOL    HW132009   1.417   1.365   5.226
10370SOL    HW232010   1.547   1.395   5.130
10371SOL     OW32011   4.617   5.462   2.835
10371SOL    HW132012   4.530   5.427   2.870
10371SOL    HW232013   4.692   5.424   2.889
10372SOL     OW32014   2.393   6.632   1.355
10372SOL    HW132015   2.331   6.705   1.326
10372SOL    HW232016   2.360   6.544   1.321
10373SOL     OW32017   6.584   1.500   5.909
10373SOL    HW132018   6.515   1.541   5.970
10373SOL    HW232019   6.539   1.448   5.837
10374SOL     OW32020   3.468   5.190   3.594
10374SOL    HW132021   3.475   5.239   3.508
10374SOL    HW232022   3.460   5.092   3.576
10375SOL     OW32023   2.562   5.146   0.436
10375SOL    HW132024   2.610   5.175   0.353
10375SOL    HW232025   2.602   5.061   0.469
10376SOL     OW32026   1.826   5.234   4.561
10376SOL    HW132027   1.782   5.146   4.542
10376SOL    HW232028   1.903   5.220   4.624
10377SOL     OW32029   1.815   0.941   2.704
10377SOL    HW132030   1.794   0.950   2.802
10377SOL    HW232031   1.772   1.016   2.654
10378SOL     OW32032   0.047   5.613   4.290
10378SOL    HW132033   0.129   5.659   4.256
10378SOL    HW232034   7.003   5.601   4.215
10379SOL     OW32035   2.022   0.289   4.265
10379SOL    HW132036   2.024   0.308   4.363
10379SOL    HW232037   1.933   0.314   4.228
10380SOL     OW32038   3.122   2.012   4.366
10380SOL    HW132039   3.081   1.943   4.425
10380SOL    HW232040   3.074   2.013   4.278
10381SOL     OW32041   4.495   6.376   1.864
10381SOL    HW132042   4.519   6.419   1.777
10381SOL    HW232043   4.420   6.310   1.849
10382SOL     OW32044   4.277   5.451   1.357
10382SOL    HW132045   4.246   5.476   1.265
10382SOL    HW232046   4.319   5.531   1.401
10383SOL     OW32047   1.274   5.068   0.509
10383SOL    HW132048   1.311   5.078   0.601
10383SOL    HW232049   1.331   5.116   0.443
10384SOL     OW32050   5.500   5.837   1.479
10384SOL    HW132051   5.434   5.765   1.500
10384SOL    HW232052   5.590   5.811   1.513
10385SOL     OW32053   4.245   4.404   0.414
10385SOL    HW132054   4.237   4.305   0.400
10385SOL    HW232055   4.189   4.452   0.347
10386SOL     OW32056   0.072   0.874   0.831
10386SOL    HW132057   0.093   0.809   0.759
10386SOL    HW232058   0.153   0.930   0.851
10387SOL     OW32059   5.430   2.976   1.817
10387SOL    HW132060   5.465   2.975   1.911
10387SOL    HW232061   5.355   3.043   1.811
10388SOL     OW32062   2.338   6.780   5.375
10388SOL    HW132063   2.263   6.843   5.395
10388SOL    HW232064   2.360   6.784   5.278
10389SOL     OW32065   0.422   4.279   0.206
10389SOL    HW132066   0.492   4.343   0.236
10389SOL    HW232067   0.426   4.197   0.261
10390SOL     OW32068   2.563   2.558   1.728
10390SOL    HW132069   2.587   2.464   1.752
10390SOL    HW232070   2.645   2.608   1.700
10391SOL     OW32071   5.310   6.718   4.542
10391SOL    HW132072   5.324   6.815   4.521
10391SOL    HW232073   5.222   6.689   4.505
10392SOL     OW32074   6.402   3.967   4.241
10392SOL    HW132075   6.318   3.922   4.211
10392SOL    HW232076   6.479   3.931   4.190
10393SOL     OW32077   1.405   3.514   4.199
10393SOL    HW132078   1.360   3.587   4.147
10393SOL    HW232079   1.337   3.449   4.232
10394SOL     OW32080   3.212   0.430   4.295
10394SOL    HW132081   3.153   0.432   4.214
10394SOL    HW232082   3.217   0.336   4.330
10395SOL     OW32083   1.114   0.687   0.700
10395SOL    HW132084   1.193   0.749   0.698
10395SOL    HW232085   1.145   0.594   0.681
10396SOL     OW32086   3.007   2.185   4.583
10396SOL    HW132087   3.019   2.260   4.519
10396SOL    HW232088   3.003   2.098   4.533
10397SOL     OW32089   4.012   1.935   3.574
10397SOL    HW132090   3.914   1.933   3.594
10397SOL    HW232091   4.034   2.019   3.525
10398SOL     OW32092   6.140   3.031   1.380
10398SOL    HW132093   6.055   3.083   1.391
10398SOL    HW232094   6.124   2.950   1.324
10399SOL     OW32095   0.885   4.109   1.574
10399SOL    HW132096   0.891   4.010   1.578
10399SOL    HW232097   0.860   4.137   1.481
10400SOL     OW32098   3.855   6.194   0.687
10400SOL    HW132099   3.847   6.096   0.705
10400SOL    HW232100   3.765   6.230   0.662
10401SOL     OW32101   0.430   1.507   6.054
10401SOL    HW132102   0.409   1.427   6.109
10401SOL    HW232103   0.349   1.566   6.046
10402SOL     OW32104   0.399   2.707   4.811
10402SOL    HW132105   0.415   2.719   4.909
10402SOL    HW232106   0.463   2.639   4.775
10403SOL     OW32107   3.165   0.517   1.843
10403SOL    HW132108   3.132   0.532   1.750
10403SOL    HW232109   3.172   0.604   1.891
10404SOL     OW32110   0.123   6.618   6.110
10404SOL    HW132111   0.103   6.527   6.146
10404SOL    HW232112   0.170   6.672   6.180
10405SOL     OW32113   7.002   2.270   6.504
10405SOL    HW132114   0.042   2.300   6.576
10405SOL    HW232115   6.983   2.346   6.442
10406SOL     OW32116   2.974   4.945   1.297
10406SOL    HW132117   3.059   4.993   1.321
10406SOL    HW232118   2.927   4.994   1.225
10407SOL     OW32119   2.989   0.058   6.834
10407SOL    HW132120   2.989   0.059   6.934
10407SOL    HW232121   3.014   0.149   6.800
10408SOL     OW32122   4.122   1.650   6.798
10408SOL    HW132123   4.176   1.570   6.822
10408SOL    HW232124   4.102   1.648   6.700
10409SOL     OW32125   6.156   4.683   1.490
10409SOL    HW132126   6.089   4.730   1.547
10409SOL    HW232127   6.154   4.585   1.511
10410SOL     OW32128   5.955   0.581   0.887
10410SOL    HW132129   5.902   0.662   0.861
10410SOL    HW232130   5.954   0.572   0.987
10411SOL     OW32131   2.494   5.206   3.426
10411SOL    HW132132   2.502   5.194   3.327
10411SOL    HW232133   2.416   5.265   3.447
10412SOL     OW32134   6.583   0.347   0.835
10412SOL    HW132135   6.570   0.290   0.754
10412SOL    HW232136   6.494   0.368   0.876
10413SOL     OW32137   7.005   2.714   1.343
10413SOL    HW132138   0.065   2.769   1.359
10413SOL    HW232139   6.925   2.761   1.382
10414SOL     OW32140   4.532   2.504   4.239
10414SOL    HW132141   4.586   2.588   4.246
10414SOL    HW232142   4.447   2.522   4.189
10415SOL     OW32143   0.753   5.942   6.285
10415SOL    HW132144   0.779   5.868   6.348
10415SOL    HW232145   0.708   6.015   6.337
10416SOL     OW32146   5.508   2.530   3.974
10416SOL    HW132147   5.516   2.461   3.902
10416SOL    HW232148   5.595   2.538   4.022
10417SOL     OW32149   2.490   4.892   4.269
10417SOL    HW132150   2.498   4.798   4.302
10417SOL    HW232151   2.581   4.933   4.262
10418SOL     OW32152   0.824   4.511   5.833
10418SOL    HW132153   0.889   4.567   5.782
10418SOL    HW232154   0.765   4.570   5.888
10419SOL     OW32155   1.604   1.049   1.081
10419SOL    HW132156   1.588   1.111   1.004
10419SOL    HW232157   1.613   1.102   1.165
10420SOL     OW32158   0.566   3.316   3.484
10420SOL    HW132159   0.536   3.276   3.397
10420SOL    HW232160   0.655   3.360   3.471
10421SOL     OW32161   0.079   0.755   2.751
10421SOL    HW132162   0.164   0.704   2.765
10421SOL    HW232163   0.095   0.852   2.769
10422SOL     OW32164   6.320   2.891   6.180
10422SOL    HW132165   6.379   2.952   6.233
10422SOL    HW232166   6.364   2.871   6.092
10423SOL     OW32167   5.238   4.373   3.307
10423SOL    HW132168   5.245   4.274   3.318
10423SOL    HW232169   5.269   4.418   3.391
10424SOL     OW32170   4.930   2.050   6.581
10424SOL    HW132171   4.995   2.100   6.524
10424SOL    HW232172   4.870   2.115   6.629
10425SOL     OW32173   2.077   6.352   2.272
10425SOL    HW132174   1.998   6.333   2.213
10425SOL    HW232175   2.052   6.424   2.338
10426SOL     OW32176   6.668   4.507   0.167
10426SOL    HW132177   6.695   4.602   0.153
10426SOL    HW232178   6.747   4.454   0.201
10427SOL     OW32179   5.275   2.160   0.064
10427SOL    HW132180   5.347   2.139   7.019
10427SOL    HW232181   5.296   2.115   0.151
10428SOL     OW32182   4.580   0.253   4.281
10428SOL    HW132183   4.481   0.239   4.286
10428SOL    HW232184   4.601   0.320   4.210
10429SOL     OW32185   6.081   5.886   1.912
10429SOL    HW132186   6.024   5.967   1.920
10429SOL    HW232187   6.027   5.804   1.932
10430SOL     OW32188   3.968   6.435   2.237
10430SOL    HW132189   4.040   6.427   2.167
10430SOL    HW232190   3.937   6.344   2.263
10431SOL     OW32191   2.847   0.133   4.612
10431SOL    HW132192   2.753   0.111   4.640
10431SOL    HW232193   2.860   0.232   4.611
10432SOL     OW32194   5.694   0.500   5.521
10432SOL    HW132195   5.660   0.594   5.526
10432SOL    HW232196   5.675   0.462   5.431
10433SOL     OW32197   2.391   6.848   0.867
10433SOL    HW132198   2.387   6.849   0.966
10433SOL    HW232199   2.299   6.857   0.829
10434SOL     OW32200   1.805   1.017   3.787
10434SOL    HW132201   1.890   1.049   3.744
10434SOL    HW232202   1.827   0.955   3.862
10435SOL     OW32203   5.060   6.627   6.711
10435SOL    HW132204   5.115   6.687   6.769
10435SOL    HW232205   5.068   6.656   6.616
10436SOL     OW32206   1.628   5.378   3.374
10436SOL    HW132207   1.584   5.298   3.334
10436SOL    HW232208   1.568   5.418   3.444
10437SOL     OW32209   0.028   5.222   6.351
10437SOL    HW132210   6.958   5.199   6.384
10437SOL    HW232211   0.022   5.301   6.289
10438SOL     OW32212   4.154   6.219   0.097
10438SOL    HW132213   4.139   6.121   0.113
10438SOL    HW232214   4.248   6.233   0.066
10439SOL     OW32215   3.750   0.139   5.892
10439SOL    HW132216   3.759   0.173   5.798
10439SOL    HW232217   3.733   0.216   5.954
10440SOL     OW32218   1.926   5.918   0.884
10440SOL    HW132219   1.972   5.975   0.952
10440SOL    HW232220   1.976   5.920   0.798
10441SOL     OW32221   5.316   1.910   6.563
10441SOL    HW132222   5.223   1.890   6.593
10441SOL    HW232223   5.373   1.829   6.574
10442SOL     OW32224   4.169   5.168   5.765
10442SOL    HW132225   4.101   5.098   5.741
10442SOL    HW232226   4.244   5.164   5.699
10443SOL     OW32227   6.189   2.670   4.991
10443SOL    HW132228   6.146   2.702   4.907
10443SOL    HW232229   6.137   2.704   5.070
10444SOL     OW32230   3.948   4.832   4.070
10444SOL    HW132231   3.862   4.797   4.107
10444SOL    HW232232   3.937   4.927   4.043
10445SOL     OW32233   6.819   5.937   5.124
10445SOL    HW132234   6.789   5.841   5.114
10445SOL    HW232235   6.918   5.942   5.113
10446SOL     OW32236   0.988   5.267   6.181
10446SOL    HW132237   0.991   5.246   6.279
10446SOL    HW232238   1.081   5.272   6.145
10447SOL     OW32239   5.826   2.493   1.618
10447SOL    HW132240   5.914   2.447   1.607
10447SOL    HW232241   5.774   2.486   1.533
10448SOL     OW32242   3.578   4.004   2.572
10448SOL    HW132243   3.573   3.923   2.630
10448SOL    HW232244   3.618   3.979   2.484
10449SOL     OW32245   2.541   5.375   4.271
10449SOL    HW132246   2.483   5.294   4.262
10449SOL    HW232247   2.483   5.457   4.273
10450SOL     OW32248   6.608   2.388   1.071
10450SOL    HW132249   6.604   2.465   1.135
10450SOL    HW232250   6.694   2.338   1.084
10451SOL     OW32251   2.516   4.529   2.969
10451SOL    HW132252   2.495   4.530   3.067
10451SOL    HW232253   2.514   4.623   2.934
10452SOL     OW32254   0.894   2.886   4.490
10452SOL    HW132255   0.848   2.801   4.467
10452SOL    HW232256   0.903   2.943   4.408
10453SOL     OW32257   4.948   0.178   1.418
10453SOL    HW132258   4.967   0.254   1.480
10453SOL    HW232259   4.860   0.193   1.373
10454SOL     OW32260   5.109   3.266   2.289
10454SOL    HW132261   5.051   3.229   2.216
10454SOL    HW232262   5.147   3.354   2.259
10455SOL     OW32263   0.132   5.114   3.575
10455SOL    HW132264   0.095   5.156   3.658
10455SOL    HW232265   0.230   5.129   3.571
10456SOL     OW32266   4.499   5.821   0.921
10456SOL    HW132267   4.557   5.771   0.985
10456SOL    HW232268   4.495   5.917   0.947
10457SOL     OW32269   4.015   3.848   3.874
10457SOL    HW132270   4.062   3.769   3.912
10457SOL    HW232271   3.924   3.822   3.842
10458SOL     OW32272   0.864   6.696   1.214
10458SOL    HW132273   0.826   6.609   1.182
10458SOL    HW232274   0.882   6.755   1.135
10459SOL     OW32275   6.664   5.218   2.458
10459SOL    HW132276   6.606   5.153   2.506
10459SOL    HW232277   6.754   5.221   2.501
10460SOL     OW32278   2.061   5.313   2.474
10460SOL    HW132279   2.096   5.235   2.423
10460SOL    HW232280   2.124   5.390   2.465
10461SOL     OW32281   2.757   1.909   6.671
10461SOL    HW132282   2.717   1.926   6.761
10461SOL    HW232283   2.696   1.944   6.600
10462SOL     OW32284   0.128   0.016   1.080
10462SOL    HW132285   0.225   0.022   1.056
10462SOL    HW232286   0.078   6.994   1.005
10463SOL     OW32287   3.111   4.064   0.653
10463SOL    HW132288   3.041   4.003   0.614
10463SOL    HW232289   3.194   4.060   0.597
10464SOL     OW32290   5.074   0.682   1.410
10464SOL    HW132291   5.115   0.591   1.419
10464SOL    HW232292   5.066   0.706   1.313
10465SOL     OW32293   6.247   5.117   6.239
10465SOL    HW132294   6.261   5.096   6.336
10465SOL    HW232295   6.308   5.191   6.211
10466SOL     OW32296   4.767   5.927   5.948
10466SOL    HW132297   4.769   6.027   5.952
10466SOL    HW232298   4.680   5.898   5.909
10467SOL     OW32299   3.671   0.613   4.452
10467SOL    HW132300   3.730   0.627   4.531
10467SOL    HW232301   3.717   0.648   4.370
10468SOL     OW32302   3.875   6.216   2.838
10468SOL    HW132303   3.786   6.207   2.882
10468SOL    HW232304   3.942   6.161   2.888
10469SOL     OW32305   1.538   4.708   0.771
10469SOL    HW132306   1.581   4.640   0.712
10469SOL    HW232307   1.577   4.703   0.863
10470SOL     OW32308   2.838   1.507   4.357
10470SOL    HW132309   2.808   1.425   4.405
10470SOL    HW232310   2.889   1.566   4.420
10471SOL     OW32311   3.971   3.300   0.561
10471SOL    HW132312   4.054   3.251   0.589
10471SOL    HW232313   3.963   3.298   0.461
10472SOL     OW32314   4.522   0.824   2.515
10472SOL    HW132315   4.466   0.756   2.561
10472SOL    HW232316   4.581   0.870   2.582
10473SOL     OW32317   4.922   5.784   0.599
10473SOL    HW132318   4.929   5.685   0.587
10473SOL    HW232319   4.902   5.804   0.695
10474SOL     OW32320   4.115   0.240   4.894
10474SOL    HW132321   4.036   0.298   4.878
10474SOL    HW232322   4.174   0.281   4.964
10475SOL     OW32323   3.884   6.338   1.590
10475SOL    HW132324   3.983   6.345   1.576
10475SOL    HW232325   3.858   6.392   1.671
10476SOL     OW32326   0.095   4.853   0.842
10476SOL    HW132327   0.116   4.765   0.801
10476SOL    HW232328   0.113   4.926   0.776
10477SOL     OW32329   5.676   4.353   4.954
10477SOL    HW132330   5.769   4.349   4.916
10477SOL    HW232331   5.617   4.405   4.893
10478SOL     OW32332   0.602   6.739   1.665
10478SOL    HW132333   0.582   6.642   1.650
10478SOL    HW232334   0.700   6.754   1.655
10479SOL     OW32335   1.600   4.700   3.516
10479SOL    HW132336   1.590   4.623   3.453
10479SOL    HW232337   1.643   4.669   3.601
10480SOL     OW32338   5.786   6.787   2.058
10480SOL    HW132339   5.802   6.886   2.056
10480SOL    HW232340   5.822   6.746   1.975
10481SOL     OW32341   2.228   0.632   4.850
10481SOL    HW132342   2.302   0.685   4.808
10481SOL    HW232343   2.141   0.678   4.834
10482SOL     OW32344   1.256   5.329   6.092
10482SOL    HW132345   1.318   5.259   6.057
10482SOL    HW232346   1.259   5.409   6.032
10483SOL     OW32347   0.049   5.342   0.877
10483SOL    HW132348   0.019   5.432   0.908
10483SOL    HW232349   0.068   5.345   0.779
10484SOL     OW32350   5.945   1.655   1.602
10484SOL    HW132351   5.897   1.642   1.689
10484SOL    HW232352   5.962   1.566   1.560
10485SOL     OW32353   3.768   3.724   3.803
10485SOL    HW132354   3.780   3.625   3.815
10485SOL    HW232355   3.706   3.759   3.872
10486SOL     OW32356   5.721   6.213   5.617
10486SOL    HW132357   5.807   6.186   5.660
10486SOL    HW232358   5.734   6.222   5.519
10487SOL     OW32359   4.739   2.148   2.097
10487SOL    HW132360   4.670   2.076   2.108
10487SOL    HW232361   4.768   2.153   2.001
10488SOL     OW32362   6.529   2.309   5.200
10488SOL    HW132363   6.589   2.338   5.126
10488SOL    HW232364   6.577   2.315   5.287
10489SOL     OW32365   6.002   4.209   4.504
10489SOL    HW132366   5.981   4.241   4.411
10489SOL    HW232367   6.065   4.131   4.499
10490SOL     OW32368   5.839   6.563   6.643
10490SOL    HW132369   5.747   6.536   6.615
10490SOL    HW232370   5.855   6.535   6.738
10491SOL     OW32371   1.960   2.584   5.554
10491SOL    HW132372   1.936   2.557   5.647
10491SOL    HW232373   1.885   2.636   5.514
10492SOL     OW32374   3.848   0.163   6.785
10492SOL    HW132375   3.844   0.259   6.813
10492SOL    HW232376   3.933   0.146   6.736
10493SOL     OW32377   3.752   5.263   1.304
10493SOL    HW132378   3.712   5.261   1.396
10493SOL    HW232379   3.792   5.174   1.283
10494SOL     OW32380   1.224   4.266   4.944
10494SOL    HW132381   1.193   4.324   5.018
10494SOL    HW232382   1.150   4.253   4.878
10495SOL     OW32383   6.637   6.698   0.827
10495SOL    HW132384   6.737   6.699   0.825
10495SOL    HW232385   6.604   6.606   0.847
10496SOL     OW32386   0.751   3.348   5.963
10496SOL    HW132387   0.735   3.349   6.061
10496SOL    HW232388   0.732   3.438   5.924
10497SOL     OW32389   1.755   0.083   1.438
10497SOL    HW132390   1.696   0.066   1.517
10497SOL    HW232391   1.804   0.169   1.450
10498SOL     OW32392   4.749   4.242   0.001
10498SOL    HW132393   4.682   4.213   6.954
10498SOL    HW232394   4.717   4.216   0.092
10499SOL     OW32395   5.956   4.278   2.682
10499SOL    HW132396   6.023   4.333   2.633
10499SOL    HW232397   5.864   4.307   2.657
10500SOL     OW32398   0.917   3.347   5.274
10500SOL    HW132399   0.970   3.268   5.305
10500SOL    HW232400   0.900   3.408   5.351
10501SOL     OW32401   3.834   4.880   2.628
10501SOL    HW132402   3.735   4.869   2.639
10501SOL    HW232403   3.866   4.823   2.552
10502SOL     OW32404   3.220   3.692   2.161
10502SOL    HW132405   3.159   3.771   2.151
10502SOL    HW232406   3.301   3.719   2.212
10503SOL     OW32407   6.903   2.460   6.306
10503SOL    HW132408   6.890   2.554   6.272
10503SOL    HW232409   6.885   2.395   6.233
10504SOL     OW32410   1.006   2.975   5.906
10504SOL    HW132411   0.998   3.070   5.876
10504SOL    HW232412   0.953   2.916   5.845
10505SOL     OW32413   6.004   6.906   1.040
10505SOL    HW132414   5.932   6.975   1.051
10505SOL    HW232415   5.969   6.829   0.986
10506SOL     OW32416   1.474   2.808   6.662
10506SOL    HW132417   1.523   2.874   6.718
10506SOL    HW232418   1.445   2.731   6.718
10507SOL     OW32419   0.806   5.388   6.012
10507SOL    HW132420   0.742   5.416   6.084
10507SOL    HW232421   0.880   5.333   6.052
10508SOL     OW32422   1.847   4.944   5.273
10508SOL    HW132423   1.760   4.965   5.317
10508SOL    HW232424   1.920   4.995   5.318
10509SOL     OW32425   4.410   2.419   2.537
10509SOL    HW132426   4.327   2.427   2.592
10509SOL    HW232427   4.396   2.464   2.449
10510SOL     OW32428   5.738   6.006   3.981
10510SOL    HW132429   5.798   5.928   3.999
10510SOL    HW232430   5.781   6.090   4.014
10511SOL     OW32431   4.883   2.279   1.585
10511SOL    HW132432   4.961   2.221   1.562
10511SOL    HW232433   4.845   2.252   1.673
10512SOL     OW32434   4.641   0.584   5.061
10512SOL    HW132435   4.601   0.525   5.131
10512SOL    HW232436   4.584   0.666   5.050
10513SOL     OW32437   4.220   2.829   0.985
10513SOL    HW132438   4.289   2.793   0.922
10513SOL    HW232439   4.179   2.754   1.036
10514SOL     OW32440   1.474   3.285   1.754
10514SOL    HW132441   1.389   3.324   1.792
10514SOL    HW232442   1.460   3.187   1.735
10515SOL     OW32443   2.370   2.740   4.827
10515SOL    HW132444   2.330   2.674   4.890
10515SOL    HW232445   2.384   2.827   4.874
10516SOL     OW32446   4.360   2.333   1.558
10516SOL    HW132447   4.314   2.370   1.638
10516SOL    HW232448   4.330   2.238   1.543
10517SOL     OW32449   1.049   2.705   2.730
10517SOL    HW132450   0.982   2.688   2.802
10517SOL    HW232451   1.115   2.630   2.727
10518SOL     OW32452   0.653   5.446   2.909
10518SOL    HW132453   0.710   5.414   2.834
10518SOL    HW232454   0.689   5.409   2.995
10519SOL     OW32455   4.047   6.644   0.911
10519SOL    HW132456   4.037   6.721   0.975
10519SOL    HW232457   3.977   6.650   0.840
10520SOL     OW32458   0.874   2.805   5.712
10520SOL    HW132459   0.788   2.771   5.750
10520SOL    HW232460   0.855   2.868   5.637
10521SOL     OW32461   6.690   2.922   2.364
10521SOL    HW132462   6.695   2.870   2.279
10521SOL    HW232463   6.775   2.913   2.414
10522SOL     OW32464   5.149   2.302   3.626
10522SOL    HW132465   5.137   2.349   3.714
10522SOL    HW232466   5.159   2.204   3.642
10523SOL     OW32467   1.051   4.461   3.227
10523SOL    HW132468   1.078   4.478   3.132
10523SOL    HW232469   1.122   4.495   3.288
10524SOL     OW32470   0.071   6.347   5.301
10524SOL    HW132471   7.011   6.292   5.282
10524SOL    HW232472   0.149   6.286   5.316
10525SOL     OW32473   5.013   1.318   3.495
10525SOL    HW132474   4.961   1.292   3.576
10525SOL    HW232475   5.033   1.237   3.441
10526SOL     OW32476   0.721   4.722   0.008
10526SOL    HW132477   0.727   4.629   0.042
10526SOL    HW232478   0.625   4.749   7.020
10527SOL     OW32479   0.647   7.015   5.196
10527SOL    HW132480   0.743   0.020   5.205
10527SOL    HW232481   0.617   6.972   5.282
10528SOL     OW32482   1.480   3.484   5.371
10528SOL    HW132483   1.539   3.420   5.421
10528SOL    HW232484   1.533   3.530   5.300
10529SOL     OW32485   6.938   5.969   0.887
10529SOL    HW132486   6.912   5.922   0.972
10529SOL    HW232487   0.016   5.966   0.877
10530SOL     OW32488   6.827   5.997   1.366
10530SOL    HW132489   6.766   6.046   1.303
10530SOL    HW232490   6.917   5.986   1.324
10531SOL     OW32491   2.762   3.232   5.362
10531SOL    HW132492   2.673   3.278   5.363
10531SOL    HW232493   2.749   3.136   5.339
10532SOL     OW32494   5.340   6.224   7.005
10532SOL    HW132495   5.350   6.319   6.976
10532SOL    HW232496   5.248   6.210   0.020
10533SOL     OW32497   4.209   6.656   2.715
10533SOL    HW132498   4.167   6.604   2.789
10533SOL    HW232499   4.278   6.718   2.753
10534SOL     OW32500   1.242   5.814   4.272
10534SOL    HW132501   1.326   5.787   4.225
10534SOL    HW232502   1.203   5.894   4.228
10535SOL     OW32503   3.623   1.812   2.396
10535SOL    HW132504   3.542   1.857   2.433
10535SOL    HW232505   3.652   1.858   2.312
10536SOL     OW32506   4.845   3.045   4.593
10536SOL    HW132507   4.846   3.112   4.668
10536SOL    HW232508   4.809   2.958   4.626
10537SOL     OW32509   3.498   6.880   3.918
10537SOL    HW132510   3.504   6.909   3.822
10537SOL    HW232511   3.488   6.960   3.977
10538SOL     OW32512   0.424   3.733   2.785
10538SOL    HW132513   0.394   3.753   2.879
10538SOL    HW232514   0.459   3.640   2.781
10539SOL     OW32515   6.683   6.877   3.088
10539SOL    HW132516   6.768   6.915   3.124
10539SOL    HW232517   6.688   6.871   2.988
10540SOL     OW32518   1.842   4.249   6.325
10540SOL    HW132519   1.929   4.280   6.285
10540SOL    HW232520   1.767   4.270   6.262
10541SOL     OW32521   3.535   3.456   5.202
10541SOL    HW132522   3.455   3.418   5.247
10541SOL    HW232523   3.515   3.547   5.166
10542SOL     OW32524   4.769   6.980   3.957
10542SOL    HW132525   4.847   7.014   4.010
10542SOL    HW232526   4.721   0.035   3.915
10543SOL     OW32527   1.385   3.426   4.794
10543SOL    HW132528   1.379   3.523   4.818
10543SOL    HW232529   1.296   3.394   4.762
10544SOL     OW32530   2.249   1.281   3.471
10544SOL    HW132531   2.232   1.378   3.456
10544SOL    HW232532   2.251   1.234   3.383
10545SOL     OW32533   2.238   2.944   2.447
10545SOL    HW132534   2.332   2.974   2.429
10545SOL    HW232535   2.213   2.873   2.381
10546SOL     OW32536   3.179   6.673   6.495
10546SOL    HW132537   3.215   6.587   6.461
10546SOL    HW232538   3.090   6.657   6.539
10547SOL     OW32539   4.463   6.555   5.427
10547SOL    HW132540   4.409   6.618   5.482
10547SOL    HW232541   4.419   6.541   5.338
10548SOL     OW32542   6.777   5.910   2.972
10548SOL    HW132543   6.839   5.948   2.904
10548SOL    HW232544   6.802   5.944   3.063
10549SOL     OW32545   0.197   0.297   1.643
10549SOL    HW132546   0.134   0.235   1.596
10549SOL    HW232547   0.196   0.386   1.597
10550SOL     OW32548   4.733   5.571   3.316
10550SOL    HW132549   4.812   5.542   3.261
10550SOL    HW232550   4.761   5.580   3.411
10551SOL     OW32551   3.156   1.066   5.516
10551SOL    HW132552   3.107   1.149   5.488
10551SOL    HW232553   3.251   1.089   5.537
10552SOL     OW32554   2.899   0.374   3.876
10552SOL    HW132555   2.829   0.326   3.822
10552SOL    HW232556   2.954   0.431   3.815
10553SOL     OW32557   6.766   5.586   1.366
10553SOL    HW132558   6.738   5.633   1.450
10553SOL    HW232559   6.840   5.522   1.386
10554SOL     OW32560   5.454   6.011   2.305
10554SOL    HW132561   5.400   6.077   2.253
10554SOL    HW232562   5.530   6.058   2.350
10555SOL     OW32563   3.793   3.693   0.988
10555SOL    HW132564   3.883   3.733   1.007
10555SOL    HW232565   3.761   3.643   1.068
10556SOL     OW32566   1.997   1.504   2.711
10556SOL    HW132567   2.010   1.438   2.784
10556SOL    HW232568   1.967   1.457   2.628
10557SOL     OW32569   2.880   4.745   3.721
10557SOL    HW132570   2.959   4.795   3.758
10557SOL    HW232571   2.822   4.715   3.797
10558SOL     OW32572   3.486   5.180   5.099
10558SOL    HW132573   3.526   5.091   5.075
10558SOL    HW232574   3.414   5.167   5.166
10559SOL     OW32575   4.174   6.651   1.241
10559SOL    HW132576   4.082   6.687   1.231
10559SOL    HW232577   4.240   6.713   1.197
10560SOL     OW32578   5.414   6.868   2.294
10560SOL    HW132579   5.510   6.896   2.287
10560SOL    HW232580   5.356   6.949   2.300
10561SOL     OW32581   6.447   4.649   0.259
10561SOL    HW132582   6.522   4.600   0.217
10561SOL    HW232583   6.366   4.643   0.201
10562SOL     OW32584   4.440   5.581   2.272
10562SOL    HW132585   4.479   5.575   2.364
10562SOL    HW232586   4.407   5.674   2.255
10563SOL     OW32587   0.419   6.785   2.213
10563SOL    HW132588   0.324   6.774   2.243
10563SOL    HW232589   0.423   6.856   2.143
10564SOL     OW32590   5.221   4.237   3.741
10564SOL    HW132591   5.201   4.309   3.674
10564SOL    HW232592   5.150   4.235   3.810
10565SOL     OW32593   0.664   0.488   6.511
10565SOL    HW132594   0.571   0.472   6.545
10565SOL    HW232595   0.659   0.520   6.416
10566SOL     OW32596   3.737   2.962   0.012
10566SOL    HW132597   3.823   2.911   0.015
10566SOL    HW232598   3.745   3.037   6.968
10567SOL     OW32599   1.264   2.508   6.624
10567SOL    HW132600   1.352   2.499   6.670
10567SOL    HW232601   1.273   2.481   6.528
10568SOL     OW32602   4.731   2.342   5.964
10568SOL    HW132603   4.668   2.289   6.021
10568SOL    HW232604   4.791   2.280   5.914
10569SOL     OW32605   5.757   0.013   0.290
10569SOL    HW132606   5.702   0.013   0.373
10569SOL    HW232607   5.728   0.087   0.230
10570SOL     OW32608   0.965   4.304   3.463
10570SOL    HW132609   0.978   4.359   3.380
10570SOL    HW232610   1.007   4.214   3.451
10571SOL     OW32611   6.457   4.416   5.727
10571SOL    HW132612   6.520   4.401   5.651
10571SOL    HW232613   6.380   4.472   5.695
10572SOL     OW32614   6.311   4.210   1.014
10572SOL    HW132615   6.333   4.294   1.064
10572SOL    HW232616   6.297   4.232   0.917
10573SOL     OW32617   6.116   2.253   2.857
10573SOL    HW132618   6.027   2.208   2.864
10573SOL    HW232619   6.157   2.233   2.768
10574SOL     OW32620   6.401   3.191   2.687
10574SOL    HW132621   6.328   3.136   2.728
10574SOL    HW232622   6.361   3.271   2.643
10575SOL     OW32623   6.104   6.619   1.819
10575SOL    HW132624   6.185   6.564   1.839
10575SOL    HW232625   6.132   6.705   1.776
10576SOL     OW32626   1.900   4.467   4.699
10576SOL    HW132627   1.959   4.459   4.619
10576SOL    HW232628   1.806   4.483   4.670
10577SOL     OW32629   3.401   4.290   0.486
10577SOL    HW132630   3.387   4.199   0.446
10577SOL    HW232631   3.494   4.321   0.465
10578SOL     OW32632   0.283   3.648   4.025
10578SOL    HW132633   0.203   3.690   4.069
10578SOL    HW232634   0.292   3.682   3.932
10579SOL     OW32635   0.856   3.378   6.816
10579SOL    HW132636   0.786   3.446   6.837
10579SOL    HW232637   0.820   3.286   6.830
10580SOL     OW32638   6.238   6.788   0.511
10580SOL    HW132639   6.305   6.779   0.438
10580SOL    HW232640   6.269   6.736   0.591
10581SOL     OW32641   4.857   6.987   3.163
10581SOL    HW132642   4.797   6.950   3.092
10581SOL    HW232643   4.809   6.988   3.250
10582SOL     OW32644   5.852   4.345   6.139
10582SOL    HW132645   5.884   4.421   6.195
10582SOL    HW232646   5.757   4.323   6.163
10583SOL     OW32647   3.130   2.003   5.074
10583SOL    HW132648   3.104   2.098   5.060
10583SOL    HW232649   3.219   1.986   5.033
10584SOL     OW32650   1.184   6.422   4.007
10584SOL    HW132651   1.220   6.492   4.069
10584SOL    HW232652   1.117   6.366   4.056
10585SOL     OW32653   1.064   0.398   5.335
10585SOL    HW132654   1.131   0.462   5.298
10585SOL    HW232655   0.971   0.434   5.321
10586SOL     OW32656   4.059   4.270   5.296
10586SOL    HW132657   4.100   4.196   5.349
10586SOL    HW232658   4.128   4.310   5.236
10587SOL     OW32659   2.121   5.080   5.860
10587SOL    HW132660   2.085   5.167   5.829
10587SOL    HW232661   2.073   5.005   5.814
10588SOL     OW32662   1.028   4.383   3.846
10588SOL    HW132663   1.112   4.435   3.859
10588SOL    HW232664   1.046   4.303   3.789
10589SOL     OW32665   5.820   6.227   4.143
10589SOL    HW132666   5.914   6.205   4.170
10589SOL    HW232667   5.763   6.239   4.224
10590SOL     OW32668   0.847   5.426   2.329
10590SOL    HW132669   0.828   5.506   2.386
10590SOL    HW232670   0.893   5.456   2.245
10591SOL     OW32671   6.838   2.906   1.743
10591SOL    HW132672   6.782   2.980   1.706
10591SOL    HW232673   6.783   2.823   1.752
10592SOL     OW32674   6.986   1.769   5.034
10592SOL    HW132675   0.035   1.798   4.969
10592SOL    HW232676   6.896   1.795   4.998
10593SOL     OW32677   3.446   5.212   3.278
10593SOL    HW132678   3.392   5.168   3.207
10593SOL    HW232679   3.543   5.204   3.255
10594SOL     OW32680   3.141   5.812   3.706
10594SOL    HW132681   3.043   5.821   3.688
10594SOL    HW232682   3.154   5.768   3.795
10595SOL     OW32683   5.297   6.903   0.381
10595SOL    HW132684   5.211   6.862   0.411
10595SOL    HW232685   5.369   6.834   0.384
10596SOL     OW32686   5.157   3.391   0.257
10596SOL    HW132687   5.122   3.472   0.211
10596SOL    HW232688   5.143   3.399   0.356
10597SOL     OW32689   1.922   6.902   5.158
10597SOL    HW132690   2.005   6.944   5.121
10597SOL    HW232691   1.857   6.885   5.085
10598SOL     OW32692   2.620   1.351   6.208
10598SOL    HW132693   2.538   1.319   6.160
10598SOL    HW232694   2.684   1.274   6.219
10599SOL     OW32695   0.014   2.432   0.052
10599SOL    HW132696   0.093   2.429   0.113
10599SOL    HW232697   6.960   2.478   0.100
10600SOL     OW32698   3.216   2.165   1.519
10600SOL    HW132699   3.136   2.205   1.564
10600SOL    HW232700   3.278   2.128   1.588
10601SOL     OW32701   1.583   0.855   5.490
10601SOL    HW132702   1.583   0.941   5.541
10601SOL    HW232703   1.595   0.779   5.553
10602SOL     OW32704   0.043   6.927   1.315
10602SOL    HW132705   0.063   7.000   1.380
10602SOL    HW232706   0.041   6.964   1.222
10603SOL     OW32707   5.666   0.853   2.717
10603SOL    HW132708   5.650   0.947   2.688
10603SOL    HW232709   5.709   0.802   2.642
10604SOL     OW32710   4.632   6.989   4.611
10604SOL    HW132711   4.661   6.899   4.644
10604SOL    HW232712   4.566   6.977   4.537
10605SOL     OW32713   2.585   1.577   1.633
10605SOL    HW132714   2.570   1.622   1.721
10605SOL    HW232715   2.677   1.600   1.599
10606SOL     OW32716   6.436   0.735   0.418
10606SOL    HW132717   6.377   0.693   0.486
10606SOL    HW232718   6.445   0.833   0.438
10607SOL     OW32719   2.904   4.381   6.845
10607SOL    HW132720   2.926   4.477   6.861
10607SOL    HW232721   2.880   4.368   6.748
10608SOL     OW32722   5.780   3.831   3.595
10608SOL    HW132723   5.835   3.828   3.511
10608SOL    HW232724   5.815   3.901   3.656
10609SOL     OW32725   5.344   1.461   6.697
10609SOL    HW132726   5.331   1.483   6.794
10609SOL    HW232727   5.274   1.397   6.668
10610SOL     OW32728   0.448   1.652   3.638
10610SOL    HW132729   0.503   1.652   3.555
10610SOL    HW232730   0.394   1.568   3.642
10611SOL     OW32731   4.112   5.679   4.880
10611SOL    HW132732   4.107   5.767   4.833
10611SOL    HW232733   4.051   5.680   4.960
10612SOL     OW32734   5.959   2.105   3.535
10612SOL    HW132735   6.005   2.190   3.558
10612SOL    HW232736   5.895   2.121   3.460
10613SOL     OW32737   4.210   6.425   4.469
10613SOL    HW132738   4.187   6.360   4.397
10613SOL    HW232739   4.150   6.412   4.547
10614SOL     OW32740   3.856   1.776   6.064
10614SOL    HW132741   3.783   1.843   6.056
10614SOL    HW232742   3.817   1.684   6.061
10615SOL     OW32743   2.064   1.750   5.489
10615SOL    HW132744   2.079   1.741   5.587
10615SOL    HW232745   2.121   1.684   5.440
10616SOL     OW32746   1.999   6.582   0.095
10616SOL    HW132747   1.940   6.539   0.164
10616SOL    HW232748   2.025   6.673   0.126
10617SOL     OW32749   2.111   3.288   1.317
10617SOL    HW132750   2.027   3.240   1.341
10617SOL    HW232751   2.101   3.386   1.336
10618SOL     OW32752   1.033   5.286   3.831
10618SOL    HW132753   0.980   5.311   3.912
10618SOL    HW232754   1.043   5.366   3.772
10619SOL     OW32755   1.776   2.617   3.156
10619SOL    HW132756   1.803   2.547   3.090
10619SOL    HW232757   1.757   2.573   3.244
10620SOL     OW32758   3.354   1.341   6.401
10620SOL    HW132759   3.272   1.397   6.390
10620SOL    HW232760   3.332   1.260   6.455
10621SOL     OW32761   0.892   4.199   3.138
10621SOL    HW132762   0.848   4.251   3.212
10621SOL    HW232763   0.971   4.151   3.175
10622SOL     OW32764   4.511   1.828   6.777
10622SOL    HW132765   4.448   1.887   6.726
10622SOL    HW232766   4.604   1.862   6.766
10623SOL     OW32767   4.866   0.076   6.183
10623SOL    HW132768   4.919   7.013   6.176
10623SOL    HW232769   4.769   0.053   6.196
10624SOL     OW32770   0.495   2.258   0.441
10624SOL    HW132771   0.524   2.337   0.386
10624SOL    HW232772   0.507   2.175   0.387
10625SOL     OW32773   5.821   5.192   0.190
10625SOL    HW132774   5.848   5.252   0.264
10625SOL    HW232775   5.814   5.098   0.224
10626SOL     OW32776   5.525   3.330   1.046
10626SOL    HW132777   5.490   3.277   1.122
10626SOL    HW232778   5.579   3.407   1.080
10627SOL     OW32779   5.682   5.482   5.320
10627SOL    HW132780   5.638   5.393   5.308
10627SOL    HW232781   5.752   5.474   5.392
10628SOL     OW32782   3.396   6.877   0.634
10628SOL    HW132783   3.486   6.871   0.678
10628SOL    HW232784   3.391   6.811   0.559
10629SOL     OW32785   3.587   5.458   4.685
10629SOL    HW132786   3.580   5.365   4.651
10629SOL    HW232787   3.526   5.517   4.632
10630SOL     OW32788   4.116   1.378   1.885
10630SOL    HW132789   4.018   1.366   1.874
10630SOL    HW232790   4.156   1.296   1.925
10631SOL     OW32791   3.366   5.919   0.788
10631SOL    HW132792   3.391   5.921   0.691
10631SOL    HW232793   3.429   5.978   0.839
10632SOL     OW32794   5.084   5.964   3.517
10632SOL    HW132795   5.139   6.046   3.497
10632SOL    HW232796   5.081   5.949   3.616
10633SOL     OW32797   1.624   3.361   1.070
10633SOL    HW132798   1.638   3.351   1.168
10633SOL    HW232799   1.709   3.394   1.028
10634SOL     OW32800   0.387   3.812   0.329
10634SOL    HW132801   0.370   3.714   0.318
10634SOL    HW232802   0.435   3.847   0.249
10635SOL     OW32803   2.410   4.951   6.382
10635SOL    HW132804   2.434   5.045   6.403
10635SOL    HW232805   2.475   4.913   6.316
10636SOL     OW32806   6.888   2.200   0.014
10636SOL    HW132807   6.940   2.277   0.051
10636SOL    HW232808   6.832   2.230   6.958
10637SOL     OW32809   2.599   0.627   6.870
10637SOL    HW132810   2.574   0.709   6.817
10637SOL    HW232811   2.674   0.580   6.824
10638SOL     OW32812   5.605   5.481   1.443
10638SOL    HW132813   5.587   5.460   1.539
10638SOL    HW232814   5.559   5.413   1.385
10639SOL     OW32815   1.086   5.394   1.717
10639SOL    HW132816   0.994   5.431   1.730
10639SOL    HW232817   1.083   5.295   1.724
10640SOL     OW32818   4.219   6.149   3.375
10640SOL    HW132819   4.305   6.185   3.410
10640SOL    HW232820   4.163   6.225   3.340
10641SOL     OW32821   1.333   1.273   3.556
10641SOL    HW132822   1.257   1.210   3.537
10641SOL    HW232823   1.303   1.342   3.622
10642SOL     OW32824   6.530   2.567   6.313
10642SOL    HW132825   6.567   2.544   6.223
10642SOL    HW232826   6.435   2.596   6.303
10643SOL     OW32827   2.306   5.244   6.303
10643SOL    HW132828   2.222   5.219   6.352
10643SOL    HW232829   2.329   5.173   6.238
10644SOL     OW32830   6.671   3.245   2.689
10644SOL    HW132831   6.581   3.235   2.646
10644SOL    HW232832   6.659   3.278   2.783
10645SOL     OW32833   2.777   2.357   3.436
10645SOL    HW132834   2.747   2.340   3.342
10645SOL    HW232835   2.719   2.426   3.478
10646SOL     OW32836   5.406   0.771   3.878
10646SOL    HW132837   5.469   0.836   3.836
10646SOL    HW232838   5.401   0.689   3.823
10647SOL     OW32839   3.136   5.629   4.888
10647SOL    HW132840   3.038   5.639   4.900
10647SOL    HW232841   3.175   5.582   4.967
10648SOL     OW32842   4.704   4.713   5.853
10648SOL    HW132843   4.640   4.688   5.926
10648SOL    HW232844   4.684   4.658   5.772
10649SOL     OW32845   6.642   3.859   2.538
10649SOL    HW132846   6.564   3.920   2.553
10649SOL    HW232847   6.652   3.798   2.617
10650SOL     OW32848   0.743   0.197   3.959
10650SOL    HW132849   0.673   0.153   3.903
10650SOL    HW232850   0.744   0.154   4.050
10651SOL     OW32851   3.613   5.927   6.138
10651SOL    HW132852   3.700   5.908   6.183
10651SOL    HW232853   3.624   6.003   6.074
10652SOL     OW32854   2.502   0.727   0.316
10652SOL    HW132855   2.493   0.790   0.239
10652SOL    HW232856   2.594   0.687   0.316
10653SOL     OW32857   4.162   5.862   4.673
10653SOL    HW132858   4.132   5.835   4.581
10653SOL    HW232859   4.122   5.951   4.696
10654SOL     OW32860   6.028   1.411   4.405
10654SOL    HW132861   6.077   1.356   4.338
10654SOL    HW232862   6.017   1.505   4.370
10655SOL     OW32863   0.241   4.755   1.640
10655SOL    HW132864   0.182   4.741   1.720
10655SOL    HW232865   0.326   4.704   1.652
10656SOL     OW32866   5.741   2.849   3.706
10656SOL    HW132867   5.660   2.800   3.674
10656SOL    HW232868   5.792   2.885   3.628
10657SOL     OW32869   5.117   6.546   4.416
10657SOL    HW132870   5.038   6.602   4.442
10657SOL    HW232871   5.172   6.595   4.348
10658SOL     OW32872   0.919   2.916   4.756
10658SOL    HW132873   0.900   2.921   4.658
10658SOL    HW232874   1.017   2.928   4.771
10659SOL     OW32875   1.166   5.729   0.691
10659SOL    HW132876   1.250   5.734   0.637
10659SOL    HW232877   1.138   5.821   0.717
10660SOL     OW32878   5.814   2.892   5.261
10660SOL    HW132879   5.790   2.926   5.351
10660SOL    HW232880   5.739   2.838   5.224
10661SOL     OW32881   2.569   4.694   5.774
10661SOL    HW132882   2.645   4.686   5.839
10661SOL    HW232883   2.596   4.753   5.698
10662SOL     OW32884   2.515   1.362   1.944
10662SOL    HW132885   2.589   1.426   1.966
10662SOL    HW232886   2.554   1.274   1.917
10663SOL     OW32887   1.076   1.794   3.651
10663SOL    HW132888   1.065   1.748   3.739
10663SOL    HW232889   0.986   1.806   3.609
10664SOL     OW32890   0.873   5.257   4.709
10664SOL    HW132891   0.873   5.348   4.751
10664SOL    HW232892   0.839   5.264   4.616
10665SOL     OW32893   2.634   2.768   6.814
10665SOL    HW132894   2.535   2.778   6.806
10665SOL    HW232895   2.676   2.785   6.724
10666SOL     OW32896   3.390   3.871   1.926
10666SOL    HW132897   3.464   3.938   1.920
10666SOL    HW232898   3.302   3.917   1.919
10667SOL     OW32899   5.108   2.470   3.848
10667SOL    HW132900   5.018   2.512   3.859
10667SOL    HW232901   5.176   2.541   3.829
10668SOL     OW32902   3.713   2.776   5.448
10668SOL    HW132903   3.698   2.704   5.516
10668SOL    HW232904   3.690   2.741   5.357
10669SOL     OW32905   5.847   1.606   1.346
10669SOL    HW132906   5.926   1.657   1.313
10669SOL    HW232907   5.764   1.641   1.302
10670SOL     OW32908   4.924   3.505   4.267
10670SOL    HW132909   4.922   3.545   4.359
10670SOL    HW232910   4.918   3.577   4.199
10671SOL     OW32911   1.761   2.791   4.537
10671SOL    HW132912   1.742   2.785   4.439
10671SOL    HW232913   1.783   2.886   4.560
10672SOL     OW32914   5.920   3.197   1.457
10672SOL    HW132915   5.824   3.179   1.434
10672SOL    HW232916   5.924   3.263   1.532
10673SOL     OW32917   2.011   1.761   1.220
10673SOL    HW132918   2.009   1.712   1.132
10673SOL    HW232919   1.922   1.756   1.263
10674SOL     OW32920   3.553   4.108   3.342
10674SOL    HW132921   3.613   4.116   3.422
10674SOL    HW232922   3.459   4.092   3.372
10675SOL     OW32923   3.994   6.739   5.504
10675SOL    HW132924   4.028   6.708   5.415
10675SOL    HW232925   3.974   6.660   5.562
10676SOL     OW32926   1.945   6.686   5.337
10676SOL    HW132927   1.934   6.760   5.270
10676SOL    HW232928   1.976   6.724   5.424
10677SOL     OW32929   6.883   1.488   0.743
10677SOL    HW132930   6.939   1.487   0.660
10677SOL    HW232931   6.869   1.582   0.773
10678SOL     OW32932   3.942   5.603   3.738
10678SOL    HW132933   3.912   5.697   3.757
10678SOL    HW232934   3.983   5.598   3.648
10679SOL     OW32935   4.166   3.177   6.705
10679SOL    HW132936   4.161   3.143   6.611
10679SOL    HW232937   4.260   3.169   6.738
10680SOL     OW32938   4.148   1.143   4.369
10680SOL    HW132939   4.192   1.054   4.381
10680SOL    HW232940   4.146   1.166   4.272
10681SOL     OW32941   1.345   2.936   5.386
10681SOL    HW132942   1.305   3.026   5.370
10681SOL    HW232943   1.297   2.868   5.330
10682SOL     OW32944   5.154   3.486   5.780
10682SOL    HW132945   5.226   3.452   5.841
10682SOL    HW232946   5.114   3.569   5.817
10683SOL     OW32947   3.057   0.559   3.361
10683SOL    HW132948   3.137   0.619   3.354
10683SOL    HW232949   2.990   0.601   3.422
10684SOL     OW32950   4.371   4.565   2.036
10684SOL    HW132951   4.402   4.472   2.021
10684SOL    HW232952   4.450   4.627   2.042
10685SOL     OW32953   0.996   5.987   1.497
10685SOL    HW132954   1.047   5.911   1.457
10685SOL    HW232955   0.956   6.042   1.424
10686SOL     OW32956   2.439   2.253   6.547
10686SOL    HW132957   2.488   2.333   6.513
10686SOL    HW232958   2.357   2.239   6.492
10687SOL     OW32959   0.560   4.464   3.585
10687SOL    HW132960   0.471   4.508   3.580
10687SOL    HW232961   0.557   4.393   3.656
10688SOL     OW32962   5.491   1.922   2.315
10688SOL    HW132963   5.478   2.021   2.316
10688SOL    HW232964   5.586   1.901   2.340
10689SOL     OW32965   0.010   0.189   2.607
10689SOL    HW132966   0.092   0.164   2.658
10689SOL    HW232967   6.951   0.170   2.663
10690SOL     OW32968   0.133   0.246   3.789
10690SOL    HW132969   0.216   0.296   3.764
10690SOL    HW232970   0.071   0.306   3.839
10691SOL     OW32971   3.491   0.722   2.740
10691SOL    HW132972   3.478   0.738   2.643
10691SOL    HW232973   3.406   0.686   2.779
10692SOL     OW32974   2.350   0.108   3.980
10692SOL    HW132975   2.352   0.198   3.938
10692SOL    HW232976   2.363   0.038   3.909
10693SOL     OW32977   1.635   6.129   0.382
10693SOL    HW132978   1.718   6.117   0.437
10693SOL    HW232979   1.566   6.063   0.411
10694SOL     OW32980   4.375   6.589   5.150
10694SOL    HW132981   4.286   6.622   5.120
10694SOL    HW232982   4.420   6.542   5.075
10695SOL     OW32983   6.893   4.177   1.763
10695SOL    HW132984   6.811   4.142   1.717
10695SOL    HW232985   6.936   4.247   1.706
10696SOL     OW32986   6.630   5.128   4.717
10696SOL    HW132987   6.572   5.055   4.752
10696SOL    HW232988   6.694   5.091   4.649
10697SOL     OW32989   1.632   4.734   5.680
10697SOL    HW132990   1.701   4.673   5.641
10697SOL    HW232991   1.597   4.694   5.765
10698SOL     OW32992   4.654   3.078   6.978
10698SOL    HW132993   4.642   2.985   6.943
10698SOL    HW232994   4.606   3.087   0.044
10699SOL     OW32995   3.337   3.704   0.272
10699SOL    HW132996   3.358   3.629   0.335
10699SOL    HW232997   3.260   3.757   0.308
10700SOL     OW32998   4.885   0.922   0.932
10700SOL    HW132999   4.835   1.007   0.918
10700SOL    HW233000   4.825   0.856   0.979
10701SOL     OW33001   2.452   0.787   6.124
10701SOL    HW133002   2.388   0.718   6.157
10701SOL    HW233003   2.541   0.774   6.168
10702SOL     OW33004   5.530   2.251   2.147
10702SOL    HW133005   5.487   2.207   2.068
10702SOL    HW233006   5.473   2.236   2.228
10703SOL     OW33007   1.387   2.873   6.407
10703SOL    HW133008   1.296   2.908   6.384
10703SOL    HW233009   1.396   2.869   6.507
10704SOL     OW33010   6.422   0.059   1.981
10704SOL    HW133011   6.334   0.096   2.009
10704SOL    HW233012   6.408   7.005   1.918
10705SOL     OW33013   6.053   4.398   1.226
10705SOL    HW133014   5.986   4.326   1.211
10705SOL    HW233015   6.139   4.357   1.257
10706SOL     OW33016   4.906   0.295   1.828
10706SOL    HW133017   4.971   0.229   1.865
10706SOL    HW233018   4.950   0.384   1.819
10707SOL     OW33019   5.934   0.229   4.106
10707SOL    HW133020   5.929   0.199   4.011
10707SOL    HW233021   5.842   0.253   4.138
10708SOL     OW33022   4.129   1.849   2.220
10708SOL    HW133023   4.218   1.837   2.264
10708SOL    HW233024   4.116   1.946   2.199
10709SOL     OW33025   5.704   5.310   3.670
10709SOL    HW133026   5.746   5.388   3.624
10709SOL    HW233027   5.608   5.330   3.689
10710SOL     OW33028   5.588   1.417   3.227
10710SOL    HW133029   5.646   1.420   3.309
10710SOL    HW233030   5.587   1.325   3.190
10711SOL     OW33031   3.556   6.664   1.881
10711SOL    HW133032   3.577   6.726   1.805
10711SOL    HW233033   3.641   6.632   1.923
10712SOL     OW33034   4.687   0.043   2.715
10712SOL    HW133035   4.634   0.019   2.634
10712SOL    HW233036   4.780   0.067   2.688
10713SOL     OW33037   1.291   4.234   0.875
10713SOL    HW133038   1.222   4.177   0.921
10713SOL    HW233039   1.364   4.255   0.940
10714SOL     OW33040   3.901   3.124   4.134
10714SOL    HW133041   3.805   3.152   4.122
10714SOL    HW233042   3.940   3.101   4.045
10715SOL     OW33043   6.120   0.804   2.128
10715SOL    HW133044   6.154   0.737   2.194
10715SOL    HW233045   6.026   0.782   2.103
10716SOL     OW33046   6.279   2.483   3.213
10716SOL    HW133047   6.311   2.578   3.209
10716SOL    HW233048   6.234   2.459   3.128
10717SOL     OW33049   0.794   2.468   6.678
10717SOL    HW133050   0.784   2.417   6.592
10717SOL    HW233051   0.829   2.559   6.658
10718SOL     OW33052   1.250   4.831   5.692
10718SOL    HW133053   1.321   4.865   5.631
10718SOL    HW233054   1.292   4.785   5.771
10719SOL     OW33055   6.667   5.531   4.331
10719SOL    HW133056   6.600   5.495   4.396
10719SOL    HW233057   6.756   5.488   4.347
10720SOL     OW33058   5.671   5.621   4.269
10720SOL    HW133059   5.574   5.618   4.244
10720SOL    HW233060   5.680   5.600   4.366
10721SOL     OW33061   5.100   3.839   5.180
10721SOL    HW133062   5.146   3.759   5.219
10721SOL    HW233063   5.169   3.903   5.146
10722SOL     OW33064   6.988   3.998   6.162
10722SOL    HW133065   6.977   3.907   6.202
10722SOL    HW233066   6.933   4.063   6.214
10723SOL     OW33067   0.466   0.432   0.238
10723SOL    HW133068   0.440   0.370   0.164
10723SOL    HW233069   0.565   0.444   0.238
10724SOL     OW33070   6.910   6.539   0.346
10724SOL    HW133071   6.885   6.635   0.352
10724SOL    HW233072   6.842   6.490   0.291
10725SOL     OW33073   2.295   5.455   5.399
10725SOL    HW133074   2.360   5.438   5.325
10725SOL    HW233075   2.247   5.371   5.422
10726SOL     OW33076   4.792   0.644   3.641
10726SOL    HW133077   4.699   0.649   3.677
10726SOL    HW233078   4.789   0.612   3.546
10727SOL     OW33079   1.463   5.695   6.138
10727SOL    HW133080   1.434   5.749   6.217
10727SOL    HW233081   1.507   5.754   6.070
10728SOL     OW33082   6.677   5.356   0.704
10728SOL    HW133083   6.613   5.280   0.694
10728SOL    HW233084   6.627   5.443   0.696
10729SOL     OW33085   6.382   2.423   1.401
10729SOL    HW133086   6.382   2.324   1.413
10729SOL    HW233087   6.356   2.446   1.308
10730SOL     OW33088   3.981   0.725   1.948
10730SOL    HW133089   3.902   0.730   1.887
10730SOL    HW233090   4.039   0.804   1.934
10731SOL     OW33091   3.852   1.067   0.729
10731SOL    HW133092   3.830   1.010   0.809
10731SOL    HW233093   3.881   1.157   0.759
10732SOL     OW33094   0.259   5.295   5.023
10732SOL    HW133095   0.243   5.205   5.064
10732SOL    HW233096   0.173   5.347   5.021
10733SOL     OW33097   6.052   2.125   6.417
10733SOL    HW133098   6.056   2.210   6.469
10733SOL    HW233099   5.975   2.070   6.449
10734SOL     OW33100   1.140   1.830   1.575
10734SOL    HW133101   1.240   1.828   1.571
10734SOL    HW233102   1.103   1.740   1.554
10735SOL     OW33103   0.251   3.633   1.960
10735SOL    HW133104   0.151   3.635   1.960
10735SOL    HW233105   0.284   3.602   2.049
10736SOL     OW33106   2.821   6.622   4.144
10736SOL    HW133107   2.754   6.686   4.105
10736SOL    HW233108   2.909   6.668   4.155
10737SOL     OW33109   7.007   2.433   1.694
10737SOL    HW133110   7.017   2.458   1.597
10737SOL    HW233111   6.974   2.512   1.745
10738SOL     OW33112   4.080   6.918   3.184
10738SOL    HW133113   4.142   6.981   3.137
10738SOL    HW233114   3.985   6.945   3.165
10739SOL     OW33115   2.167   2.228   1.664
10739SOL    HW133116   2.214   2.275   1.738
10739SOL    HW233117   2.074   2.263   1.655
10740SOL     OW33118   5.242   5.090   4.754
10740SOL    HW133119   5.234   5.115   4.850
10740SOL    HW233120   5.197   5.158   4.697
10741SOL     OW33121   3.305   0.384   2.185
10741SOL    HW133122   3.239   0.309   2.186
10741SOL    HW233123   3.344   0.392   2.093
10742SOL     OW33124   5.696   5.159   1.386
10742SOL    HW133125   5.654   5.161   1.477
10742SOL    HW233126   5.704   5.064   1.355
10743SOL     OW33127   2.451   2.244   3.546
10743SOL    HW133128   2.492   2.316   3.491
10743SOL    HW233129   2.507   2.228   3.627
10744SOL     OW33130   3.922   2.313   1.283
10744SOL    HW133131   3.966   2.224   1.277
10744SOL    HW233132   3.973   2.373   1.344
10745SOL     OW33133   0.065   5.976   6.045
10745SOL    HW133134   0.001   6.011   6.113
10745SOL    HW233135   0.132   5.916   6.089
10746SOL     OW33136   0.800   3.784   5.220
10746SOL    HW133137   0.786   3.881   5.237
10746SOL    HW233138   0.807   3.736   5.308
10747SOL     OW33139   3.196   0.926   4.283
10747SOL    HW133140   3.209   0.836   4.324
10747SOL    HW233141   3.188   0.917   4.184
10748SOL     OW33142   5.419   1.314   2.576
10748SOL    HW133143   5.394   1.399   2.530
10748SOL    HW233144   5.355   1.242   2.550
10749SOL     OW33145   1.550   6.636   4.924
10749SOL    HW133146   1.647   6.658   4.923
10749SOL    HW233147   1.537   6.541   4.897
10750SOL     OW33148   4.040   0.670   5.015
10750SOL    HW133149   4.115   0.700   5.075
10750SOL    HW233150   4.063   0.688   4.920
10751SOL     OW33151   2.022   5.371   4.144
10751SOL    HW133152   2.020   5.388   4.242
10751SOL    HW233153   2.066   5.283   4.126
10752SOL     OW33154   5.233   4.587   4.844
10752SOL    HW133155   5.159   4.646   4.873
10752SOL    HW233156   5.314   4.605   4.899
10753SOL     OW33157   0.230   3.014   3.901
10753SOL    HW133158   0.155   3.077   3.919
10753SOL    HW233159   0.207   2.923   3.936
10754SOL     OW33160   0.891   0.041   2.957
10754SOL    HW133161   0.951   0.112   2.993
10754SOL    HW233162   0.941   6.977   2.949
10755SOL     OW33163   6.687   6.951   2.042
10755SOL    HW133164   6.589   6.971   2.033
10755SOL    HW233165   6.709   6.870   1.988
10756SOL     OW33166   6.870   6.196   5.209
10756SOL    HW133167   6.849   6.278   5.155
10756SOL    HW233168   6.845   6.115   5.156
10757SOL     OW33169   1.982   2.719   0.492
10757SOL    HW133170   1.932   2.786   0.437
10757SOL    HW233171   2.033   2.658   0.433
10758SOL     OW33172   0.534   6.748   3.603
10758SOL    HW133173   0.509   6.704   3.517
10758SOL    HW233174   0.587   6.684   3.659
10759SOL     OW33175   0.590   2.914   0.436
10759SOL    HW133176   0.570   2.986   0.503
10759SOL    HW233177   0.515   2.908   0.370
10760SOL     OW33178   6.058   1.011   3.519
10760SOL    HW133179   6.073   0.981   3.613
10760SOL    HW233180   6.111   1.095   3.503
10761SOL     OW33181   2.138   5.435   6.067
10761SOL    HW133182   2.041   5.453   6.084
10761SOL    HW233183   2.181   5.402   6.151
10762SOL     OW33184   2.544   0.572   4.671
10762SOL    HW133185   2.608   0.574   4.594
10762SOL    HW233186   2.492   0.486   4.669
10763SOL     OW33187   3.616   0.785   3.798
10763SOL    HW133188   3.693   0.829   3.752
10763SOL    HW233189   3.557   0.741   3.730
10764SOL     OW33190   4.735   1.270   4.341
10764SOL    HW133191   4.654   1.225   4.304
10764SOL    HW233192   4.706   1.346   4.399
10765SOL     OW33193   5.086   3.521   1.202
10765SOL    HW133194   5.015   3.541   1.269
10765SOL    HW233195   5.151   3.455   1.240
10766SOL     OW33196   3.390   3.597   0.872
10766SOL    HW133197   3.369   3.629   0.964
10766SOL    HW233198   3.317   3.537   0.840
10767SOL     OW33199   2.239   0.393   1.429
10767SOL    HW133200   2.232   0.461   1.356
10767SOL    HW233201   2.208   0.304   1.395
10768SOL     OW33202   6.529   4.937   0.818
10768SOL    HW133203   6.595   4.907   0.887
10768SOL    HW233204   6.442   4.891   0.832
10769SOL     OW33205   2.370   3.600   6.019
10769SOL    HW133206   2.418   3.598   6.107
10769SOL    HW233207   2.438   3.610   5.945
10770SOL     OW33208   4.464   5.883   3.148
10770SOL    HW133209   4.388   5.869   3.084
10770SOL    HW233210   4.545   5.834   3.116
10771SOL     OW33211   3.103   0.059   3.967
10771SOL    HW133212   3.039   0.067   3.891
10771SOL    HW233213   3.171   0.132   3.963
10772SOL     OW33214   6.163   5.521   4.385
10772SOL    HW133215   6.158   5.472   4.472
10772SOL    HW233216   6.192   5.615   4.401
10773SOL     OW33217   5.175   4.556   4.231
10773SOL    HW133218   5.124   4.599   4.306
10773SOL    HW233219   5.255   4.612   4.210
10774SOL     OW33220   1.503   1.155   3.773
10774SOL    HW133221   1.467   1.229   3.716
10774SOL    HW233222   1.528   1.078   3.714
10775SOL     OW33223   1.105   4.473   1.831
10775SOL    HW133224   1.142   4.381   1.823
10775SOL    HW233225   1.041   4.491   1.757
10776SOL     OW33226   2.214   0.697   6.435
10776SOL    HW133227   2.142   0.694   6.504
10776SOL    HW233228   2.303   0.678   6.478
10777SOL     OW33229   3.423   5.644   1.400
10777SOL    HW133230   3.437   5.597   1.312
10777SOL    HW233231   3.325   5.656   1.415
10778SOL     OW33232   5.438   6.530   3.982
10778SOL    HW133233   5.422   6.445   4.031
10778SOL    HW233234   5.454   6.604   4.048
10779SOL     OW33235   5.982   2.919   3.530
10779SOL    HW133236   6.046   2.956   3.462
10779SOL    HW233237   6.023   2.926   3.621
10780SOL     OW33238   0.700   1.319   3.163
10780SOL    HW133239   0.736   1.410   3.185
10780SOL    HW233240   0.608   1.328   3.124
10781SOL     OW33241   3.622   0.187   4.389
10781SOL    HW133242   3.559   0.258   4.357
10781SOL    HW233243   3.626   0.189   4.489
10782SOL     OW33244   5.949   6.630   4.482
10782SOL    HW133245   5.881   6.701   4.467
10782SOL    HW233246   5.980   6.594   4.394
10783SOL     OW33247   6.335   2.926   3.177
10783SOL    HW133248   6.359   2.842   3.225
10783SOL    HW233249   6.410   2.952   3.116
10784SOL     OW33250   2.723   1.298   3.830
10784SOL    HW133251   2.717   1.219   3.891
10784SOL    HW233252   2.778   1.370   3.873
10785SOL     OW33253   0.494   3.908   0.108
10785SOL    HW133254   0.532   3.978   0.169
10785SOL    HW233255   0.509   3.935   0.013
10786SOL     OW33256   5.948   5.646   2.747
10786SOL    HW133257   6.047   5.659   2.742
10786SOL    HW233258   5.918   5.654   2.842
10787SOL     OW33259   0.916   0.867   4.905
10787SOL    HW133260   0.885   0.961   4.887
10787SOL    HW233261   0.997   0.870   4.963
10788SOL     OW33262   0.183   4.085   6.735
10788SOL    HW133263   0.254   4.023   6.770
10788SOL    HW233264   0.179   4.077   6.635
10789SOL     OW33265   6.819   2.579   0.123
10789SOL    HW133266   6.761   2.607   0.046
10789SOL    HW233267   6.762   2.552   0.200
10790SOL     OW33268   0.529   0.020   1.838
10790SOL    HW133269   0.449   0.028   1.898
10790SOL    HW233270   0.528   6.952   1.794
10791SOL     OW33271   6.030   5.994   2.552
10791SOL    HW133272   6.025   6.030   2.645
10791SOL    HW233273   6.126   5.986   2.525
10792SOL     OW33274   3.988   3.709   5.258
10792SOL    HW133275   3.895   3.746   5.261
10792SOL    HW233276   4.053   3.785   5.258
10793SOL     OW33277   5.928   3.302   5.102
10793SOL    HW133278   5.934   3.202   5.104
10793SOL    HW233279   5.832   3.329   5.099
10794SOL     OW33280   3.479   3.088   3.784
10794SOL    HW133281   3.483   3.157   3.712
10794SOL    HW233282   3.463   3.133   3.872
10795SOL     OW33283   1.170   4.312   2.879
10795SOL    HW133284   1.179   4.378   2.954
10795SOL    HW233285   1.252   4.315   2.822
10796SOL     OW33286   0.666   6.662   5.229
10796SOL    HW133287   0.673   6.590   5.159
10796SOL    HW233288   0.585   6.719   5.210
10797SOL     OW33289   4.402   3.058   0.387
10797SOL    HW133290   4.496   3.048   0.354
10797SOL    HW233291   4.365   3.145   0.357
10798SOL     OW33292   1.534   1.307   1.713
10798SOL    HW133293   1.465   1.258   1.661
10798SOL    HW233294   1.619   1.254   1.715
10799SOL     OW33295   4.038   1.045   2.282
10799SOL    HW133296   3.981   0.966   2.302
10799SOL    HW233297   3.982   1.128   2.285
10800SOL     OW33298   1.289   6.515   0.230
10800SOL    HW133299   1.285   6.433   0.172
10800SOL    HW233300   1.197   6.537   0.263
10801SOL     OW33301   1.598   0.837   0.621
10801SOL    HW133302   1.686   0.790   0.609
10801SOL    HW233303   1.612   0.936   0.613
10802SOL     OW33304   6.409   6.504   3.312
10802SOL    HW133305   6.371   6.594   3.290
10802SOL    HW233306   6.334   6.438   3.321
10803SOL     OW33307   1.424   5.463   6.619
10803SOL    HW133308   1.445   5.399   6.545
10803SOL    HW233309   1.357   5.530   6.587
10804SOL     OW33310   0.445   3.433   3.963
10804SOL    HW133311   0.375   3.504   3.977
10804SOL    HW233312   0.455   3.415   3.865
10805SOL     OW33313   5.910   0.785   5.375
10805SOL    HW133314   5.884   0.876   5.345
10805SOL    HW233315   5.899   0.720   5.299
10806SOL     OW33316   1.987   4.460   6.598
10806SOL    HW133317   2.012   4.373   6.641
10806SOL    HW233318   1.890   4.478   6.613
10807SOL     OW33319   2.487   5.985   3.740
10807SOL    HW133320   2.532   5.938   3.816
10807SOL    HW233321   2.425   6.054   3.776
10808SOL     OW33322   0.220   2.369   5.847
10808SOL    HW133323   0.191   2.315   5.767
10808SOL    HW233324   0.163   2.451   5.854
10809SOL     OW33325   2.407   5.240   4.735
10809SOL    HW133326   2.410   5.278   4.828
10809SOL    HW233327   2.355   5.301   4.676
10810SOL     OW33328   0.481   0.352   4.453
10810SOL    HW133329   0.545   0.341   4.529
10810SOL    HW233330   0.532   0.375   4.370
10811SOL     OW33331   4.540   5.249   4.799
10811SOL    HW133332   4.603   5.236   4.875
10811SOL    HW233333   4.486   5.332   4.813
10812SOL     OW33334   0.214   2.863   6.726
10812SOL    HW133335   0.152   2.916   6.784
10812SOL    HW233336   0.308   2.895   6.738
10813SOL     OW33337   0.224   3.438   6.326
10813SOL    HW133338   0.176   3.438   6.238
10813SOL    HW233339   0.299   3.504   6.324
10814SOL     OW33340   2.277   0.326   0.163
10814SOL    HW133341   2.338   0.377   0.102
10814SOL    HW233342   2.244   0.386   0.235
10815SOL     OW33343   4.755   0.985   4.458
10815SOL    HW133344   4.782   0.918   4.389
10815SOL    HW233345   4.781   1.076   4.428
10816SOL     OW33346   3.592   3.208   3.533
10816SOL    HW133347   3.564   3.166   3.446
10816SOL    HW233348   3.546   3.295   3.545
10817SOL     OW33349   2.446   6.923   3.004
10817SOL    HW133350   2.467   6.829   3.028
10817SOL    HW233351   2.497   6.949   2.922
10818SOL     OW33352   4.514   4.944   5.842
10818SOL    HW133353   4.432   4.888   5.828
10818SOL    HW233354   4.583   4.920   5.773
10819SOL     OW33355   0.223   5.834   6.245
10819SOL    HW133356   0.156   5.851   6.317
10819SOL    HW233357   0.313   5.818   6.287
10820SOL     OW33358   2.136   4.445   5.704
10820SOL    HW133359   2.153   4.535   5.743
10820SOL    HW233360   2.143   4.450   5.604
10821SOL     OW33361   4.992   5.105   3.085
10821SOL    HW133362   4.988   5.038   3.160
10821SOL    HW233363   4.910   5.162   3.088
10822SOL     OW33364   5.822   2.796   0.714
10822SOL    HW133365   5.848   2.837   0.802
10822SOL    HW233366   5.884   2.828   0.643
10823SOL     OW33367   6.404   6.551   2.883
10823SOL    HW133368   6.315   6.596   2.879
10823SOL    HW233369   6.404   6.471   2.823
10824SOL     OW33370   1.453   1.378   4.164
10824SOL    HW133371   1.371   1.418   4.206
10824SOL    HW233372   1.487   1.438   4.092
10825SOL     OW33373   1.177   1.812   0.759
10825SOL    HW133374   1.201   1.887   0.697
10825SOL    HW233375   1.231   1.818   0.842
10826SOL     OW33376   1.372   2.719   2.998
10826SOL    HW133377   1.428   2.769   2.932
10826SOL    HW233378   1.291   2.773   3.019
10827SOL     OW33379   6.833   3.201   5.238
10827SOL    HW133380   6.869   3.233   5.326
10827SOL    HW233381   6.760   3.135   5.253
10828SOL     OW33382   6.359   4.461   6.416
10828SOL    HW133383   6.379   4.368   6.387
10828SOL    HW233384   6.445   4.510   6.434
10829SOL     OW33385   4.175   3.622   5.919
10829SOL    HW133386   4.150   3.665   5.832
10829SOL    HW233387   4.266   3.653   5.947
10830SOL     OW33388   4.935   0.904   3.637
10830SOL    HW133389   4.874   0.833   3.671
10830SOL    HW233390   5.017   0.908   3.695
10831SOL     OW33391   3.734   1.125   2.595
10831SOL    HW133392   3.701   1.161   2.682
10831SOL    HW233393   3.661   1.073   2.551
10832SOL     OW33394   7.007   3.679   0.061
10832SOL    HW133395   0.002   3.606   0.127
10832SOL    HW233396   6.908   3.688   0.045
10833SOL     OW33397   0.650   0.783   0.805
10833SOL    HW133398   0.626   0.849   0.734
10833SOL    HW233399   0.744   0.802   0.836
10834SOL     OW33400   6.334   6.625   0.697
10834SOL    HW133401   6.404   6.560   0.666
10834SOL    HW233402   6.335   6.630   0.796
10835SOL     OW33403   6.795   2.342   5.427
10835SOL    HW133404   6.815   2.317   5.522
10835SOL    HW233405   6.827   2.270   5.366
10836SOL     OW33406   0.056   1.919   3.563
10836SOL    HW133407   6.994   1.901   3.616
10836SOL    HW233408   0.136   1.908   3.622
10837SOL     OW33409   0.002   4.217   2.698
10837SOL    HW133410   0.076   4.232   2.764
10837SOL    HW233411   6.937   4.210   2.746
10838SOL     OW33412   6.272   5.882   4.129
10838SOL    HW133413   6.224   5.806   4.087
10838SOL    HW233414   6.351   5.907   4.074
10839SOL     OW33415   4.675   3.736   0.650
10839SOL    HW133416   4.686   3.673   0.574
10839SOL    HW233417   4.695   3.688   0.736
10840SOL     OW33418   3.111   0.591   0.782
10840SOL    HW133419   3.129   0.539   0.699
10840SOL    HW233420   3.172   0.561   0.855
10841SOL     OW33421   1.026   4.855   4.727
10841SOL    HW133422   1.086   4.911   4.785
10841SOL    HW233423   0.932   4.889   4.733
10842SOL     OW33424   4.923   4.125   0.865
10842SOL    HW133425   4.986   4.200   0.886
10842SOL    HW233426   4.935   4.053   0.934
10843SOL     OW33427   2.023   2.467   1.311
10843SOL    HW133428   1.976   2.379   1.308
10843SOL    HW233429   2.061   2.488   1.221
10844SOL     OW33430   1.070   5.201   5.153
10844SOL    HW133431   1.159   5.247   5.154
10844SOL    HW233432   0.999   5.267   5.131
10845SOL     OW33433   4.393   6.445   4.900
10845SOL    HW133434   4.358   6.359   4.862
10845SOL    HW233435   4.489   6.434   4.925
10846SOL     OW33436   5.735   0.267   0.568
10846SOL    HW133437   5.804   0.274   0.496
10846SOL    HW233438   5.682   0.183   0.555
10847SOL     OW33439   1.706   1.769   0.621
10847SOL    HW133440   1.705   1.855   0.673
10847SOL    HW233441   1.629   1.767   0.558
10848SOL     OW33442   1.958   4.246   1.374
10848SOL    HW133443   1.903   4.296   1.440
10848SOL    HW233444   1.943   4.283   1.282
10849SOL     OW33445   2.285   5.982   3.979
10849SOL    HW133446   2.350   6.002   4.052
10849SOL    HW233447   2.327   5.922   3.911
10850SOL     OW33448   3.760   6.998   0.006
10850SOL    HW133449   3.721   6.906   0.009
10850SOL    HW233450   3.771   0.005   6.932
10851SOL     OW33451   2.400   5.084   1.378
10851SOL    HW133452   2.432   5.088   1.284
10851SOL    HW233453   2.433   5.000   1.421
10852SOL     OW33454   2.297   1.754   1.297
10852SOL    HW133455   2.202   1.741   1.269
10852SOL    HW233456   2.320   1.687   1.367
10853SOL     OW33457   2.610   2.037   6.478
10853SOL    HW133458   2.610   2.038   6.378
10853SOL    HW233459   2.538   2.098   6.512
10854SOL     OW33460   4.583   6.316   5.494
10854SOL    HW133461   4.526   6.396   5.477
10854SOL    HW233462   4.597   6.305   5.593
10855SOL     OW33463   3.386   1.059   0.764
10855SOL    HW133464   3.345   1.071   0.674
10855SOL    HW233465   3.350   0.976   0.806
10856SOL     OW33466   0.043   0.983   0.378
10856SOL    HW133467   0.083   1.039   0.306
10856SOL    HW233468   6.969   0.962   0.354
10857SOL     OW33469   6.118   1.881   2.912
10857SOL    HW133470   6.191   1.831   2.865
10857SOL    HW233471   6.158   1.954   2.968
10858SOL     OW33472   2.565   5.811   1.365
10858SOL    HW133473   2.524   5.809   1.456
10858SOL    HW233474   2.655   5.853   1.370
10859SOL     OW33475   0.817   5.664   3.668
10859SOL    HW133476   0.786   5.738   3.608
10859SOL    HW233477   0.882   5.606   3.618
10860SOL     OW33478   6.952   3.023   3.146
10860SOL    HW133479   6.917   3.027   3.052
10860SOL    HW233480   6.876   3.033   3.210
10861SOL     OW33481   3.585   3.061   4.215
10861SOL    HW133482   3.613   3.056   4.311
10861SOL    HW233483   3.644   3.002   4.160
10862SOL     OW33484   1.391   0.211   4.792
10862SOL    HW133485   1.444   0.210   4.877
10862SOL    HW233486   1.376   0.117   4.761
10863SOL     OW33487   2.909   5.693   5.018
10863SOL    HW133488   2.826   5.649   4.983
10863SOL    HW233489   2.887   5.786   5.047
10864SOL     OW33490   3.584   6.285   2.860
10864SOL    HW133491   3.540   6.244   2.780
10864SOL    HW233492   3.516   6.304   2.930
10865SOL     OW33493   6.589   1.926   6.264
10865SOL    HW133494   6.656   1.996   6.288
10865SOL    HW233495   6.548   1.889   6.347
10866SOL     OW33496   5.299   4.783   0.420
10866SOL    HW133497   5.298   4.706   0.483
10866SOL    HW233498   5.207   4.821   0.412
10867SOL     OW33499   3.490   2.977   0.353
10867SOL    HW133500   3.493   2.944   0.258
10867SOL    HW233501   3.421   3.049   0.361
10868SOL     OW33502   3.215   1.591   2.925
10868SOL    HW133503   3.267   1.615   2.843
10868SOL    HW233504   3.266   1.618   3.006
10869NA      NA33505   6.331   2.240   5.402
10870NA      NA33506   4.353   4.507   5.311
10871NA      NA33507   2.280   3.620   1.501
10872NA      NA33508   4.865   3.838   5.166
10873NA      NA33509   4.178   2.323   5.269
10874NA      NA33510   3.815   4.616   1.662
10875NA      NA33511   6.780   5.710   5.654
10876NA      NA33512   4.001   3.509   5.139
10877NA      NA33513   4.709   6.720   7.004
10878NA      NA33514   3.564   6.929   5.388
10879NA      NA33515   6.445   4.799   2.109
10880NA      NA33516   2.051   0.440   2.966
10881NA      NA33517   3.208   4.527   0.798
10882NA      NA33518   3.475   3.705   2.870
   7.02156   7.02156   7.02156
