Generated by trjconv : CNT in water t= 243.00000
33518
    1C        C    1   2.834   2.762   4.743
    1C        C    2   2.891   2.715   4.864
    1C        C    3   2.838   2.770   4.981
    1C        C    4   2.844   2.768   4.258
    1C        C    5   2.898   2.721   4.380
    1C        C    6   2.841   2.768   4.501
    1C        C    7   3.010   2.639   4.622
    1C        C    8   2.892   2.717   4.622
    1C        C    9   3.076   2.603   4.741
    1C        C   10   3.007   2.634   4.861
    1C        C   11   3.175   2.490   4.974
    1C        C   12   3.055   2.562   4.971
    1C        C   13   2.840   2.761   3.769
    1C        C   14   2.891   2.713   3.892
    1C        C   15   2.843   2.767   4.014
    1C        C   16   3.011   2.637   4.133
    1C        C   17   2.896   2.719   4.136
    1C        C   18   3.074   2.606   4.256
    1C        C   19   3.016   2.643   4.379
    1C        C   20   3.208   2.554   4.501
    1C        C   21   3.076   2.605   4.501
    1C        C   22   3.277   2.535   4.623
    1C        C   23   3.206   2.547   4.744
    1C        C   24   3.408   2.480   4.861
    1C        C   25   3.267   2.501   4.865
    1C        C   26   3.486   2.468   4.977
    1C        C   27   2.848   2.764   3.279
    1C        C   28   2.899   2.720   3.403
    1C        C   29   2.846   2.769   3.525
    1C        C   30   3.012   2.637   3.647
    1C        C   31   2.896   2.719   3.647
    1C        C   32   3.075   2.603   3.768
    1C        C   33   3.008   2.635   3.889
    1C        C   34   3.203   2.548   4.013
    1C        C   35   3.072   2.602   4.011
    1C        C   36   3.272   2.533   4.135
    1C        C   37   3.207   2.560   4.258
    1C        C   38   3.416   2.511   4.378
    1C        C   39   3.278   2.542   4.379
    1C        C   40   3.486   2.500   4.500
    1C        C   41   3.416   2.510   4.622
    1C        C   42   3.628   2.486   4.742
    1C        C   43   3.486   2.484   4.742
    1C        C   44   3.703   2.489   4.862
    1C        C   45   3.625   2.479   4.978
    1C        C   46   2.828   2.745   2.790
    1C        C   47   2.887   2.700   2.910
    1C        C   48   2.839   2.750   3.033
    1C        C   49   3.014   2.633   3.158
    1C        C   50   2.898   2.715   3.156
    1C        C   51   3.075   2.600   3.281
    1C        C   52   3.015   2.639   3.403
    1C        C   53   3.203   2.544   3.523
    1C        C   54   3.073   2.599   3.525
    1C        C   55   3.271   2.523   3.645
    1C        C   56   3.206   2.551   3.767
    1C        C   57   3.411   2.511   3.890
    1C        C   58   3.271   2.530   3.891
    1C        C   59   3.482   2.501   4.012
    1C        C   60   3.410   2.504   4.133
    1C        C   61   3.624   2.502   4.254
    1C        C   62   3.483   2.500   4.254
    1C        C   63   3.697   2.509   4.375
    1C        C   64   3.628   2.507   4.499
    1C        C   65   3.833   2.547   4.618
    1C        C   66   3.697   2.507   4.621
    1C        C   67   3.903   2.560   4.740
    1C        C   68   3.841   2.521   4.860
    1C        C   69   4.052   2.575   4.972
    1C        C   70   3.925   2.516   4.972
    1C        C   71   2.824   2.735   2.306
    1C        C   72   2.879   2.687   2.427
    1C        C   73   2.827   2.739   2.548
    1C        C   74   3.001   2.620   2.669
    1C        C   75   2.880   2.692   2.670
    1C        C   76   3.066   2.586   2.790
    1C        C   77   3.006   2.624   2.912
    1C        C   78   3.202   2.545   3.033
    1C        C   79   3.071   2.598   3.034
    1C        C   80   3.269   2.523   3.155
    1C        C   81   3.203   2.542   3.279
    1C        C   82   3.411   2.502   3.401
    1C        C   83   3.271   2.522   3.402
    1C        C   84   3.482   2.493   3.523
    1C        C   85   3.411   2.503   3.645
    1C        C   86   3.622   2.496   3.765
    1C        C   87   3.481   2.500   3.767
    1C        C   88   3.694   2.506   3.887
    1C        C   89   3.624   2.506   4.009
    1C        C   90   3.832   2.542   4.133
    1C        C   91   3.693   2.518   4.132
    1C        C   92   3.900   2.567   4.254
    1C        C   93   3.833   2.543   4.377
    1C        C   94   4.030   2.627   4.496
    1C        C   95   3.905   2.561   4.497
    1C        C   96   4.092   2.664   4.617
    1C        C   97   4.031   2.623   4.738
    1C        C   98   4.194   2.758   4.859
    1C        C   99   4.097   2.653   4.860
    1C        C  100   4.217   2.834   4.974
    1C        C  101   2.822   2.733   2.067
    1C        C  102   2.985   2.591   2.188
    1C        C  103   2.869   2.675   2.185
    1C        C  104   3.060   2.570   2.306
    1C        C  105   2.996   2.608   2.426
    1C        C  106   3.195   2.532   2.549
    1C        C  107   3.063   2.581   2.548
    1C        C  108   3.266   2.517   2.670
    1C        C  109   3.197   2.533   2.792
    1C        C  110   3.408   2.488   2.911
    1C        C  111   3.270   2.516   2.912
    1C        C  112   3.478   2.486   3.034
    1C        C  113   3.408   2.497   3.156
    1C        C  114   3.621   2.503   3.275
    1C        C  115   3.480   2.496   3.277
    1C        C  116   3.691   2.509   3.398
    1C        C  117   3.623   2.501   3.521
    1C        C  118   3.829   2.546   3.643
    1C        C  119   3.693   2.510   3.644
    1C        C  120   3.896   2.570   3.765
    1C        C  121   3.830   2.542   3.887
    1C        C  122   4.022   2.633   4.010
    1C        C  123   3.897   2.566   4.009
    1C        C  124   4.082   2.673   4.131
    1C        C  125   4.024   2.635   4.254
    1C        C  126   4.196   2.762   4.375
    1C        C  127   4.086   2.673   4.375
    1C        C  128   4.245   2.816   4.496
    1C        C  129   4.191   2.764   4.615
    1C        C  130   4.322   2.931   4.737
    1C        C  131   4.240   2.816   4.738
    1C        C  132   4.353   3.000   4.857
    1C        C  133   4.282   2.957   4.970
    1C        C  134   3.167   2.470   2.076
    1C        C  135   3.032   2.507   2.081
    1C        C  136   3.254   2.477   2.185
    1C        C  137   3.192   2.518   2.305
    1C        C  138   3.399   2.476   2.424
    1C        C  139   3.261   2.502   2.428
    1C        C  140   3.474   2.482   2.544
    1C        C  141   3.406   2.496   2.666
    1C        C  142   3.619   2.496   2.785
    1C        C  143   3.478   2.489   2.788
    1C        C  144   3.689   2.502   2.907
    1C        C  145   3.619   2.494   3.029
    1C        C  146   3.828   2.533   3.153
    1C        C  147   3.689   2.506   3.151
    1C        C  148   3.897   2.559   3.273
    1C        C  149   3.828   2.544   3.396
    1C        C  150   4.024   2.621   3.519
    1C        C  151   3.894   2.565   3.519
    1C        C  152   4.084   2.659   3.641
    1C        C  153   4.023   2.632   3.766
    1C        C  154   4.196   2.754   3.885
    1C        C  155   4.084   2.669   3.888
    1C        C  156   4.246   2.806   4.007
    1C        C  157   4.194   2.759   4.130
    1C        C  158   4.338   2.916   4.248
    1C        C  159   4.248   2.807   4.251
    1C        C  160   4.373   2.982   4.368
    1C        C  161   4.330   2.929   4.492
    1C        C  162   4.437   3.110   4.614
    1C        C  163   4.366   2.988   4.615
    1C        C  164   4.464   3.181   4.733
    1C        C  165   4.429   3.118   4.855
    1C        C  166   4.514   3.317   4.971
    1C        C  167   4.480   3.182   4.969
    1C        C  168   3.469   2.428   2.073
    1C        C  169   3.394   2.457   2.187
    1C        C  170   3.615   2.463   2.304
    1C        C  171   3.473   2.459   2.304
    1C        C  172   3.689   2.485   2.422
    1C        C  173   3.615   2.489   2.542
    1C        C  174   3.825   2.536   2.662
    1C        C  175   3.688   2.502   2.662
    1C        C  176   3.892   2.560   2.784
    1C        C  177   3.826   2.537   2.907
    1C        C  178   4.020   2.621   3.027
    1C        C  179   3.893   2.558   3.030
    1C        C  180   4.080   2.659   3.150
    1C        C  181   4.023   2.622   3.274
    1C        C  182   4.193   2.746   3.394
    1C        C  183   4.085   2.656   3.396
    1C        C  184   4.242   2.797   3.517
    1C        C  185   4.196   2.745   3.640
    1C        C  186   4.333   2.910   3.762
    1C        C  187   4.246   2.799   3.761
    1C        C  188   4.370   2.977   3.882
    1C        C  189   4.332   2.917   4.005
    1C        C  190   4.443   3.100   4.125
    1C        C  191   4.378   2.975   4.126
    1C        C  192   4.465   3.169   4.246
    1C        C  193   4.438   3.107   4.370
    1C        C  194   4.504   3.310   4.489
    1C        C  195   4.467   3.173   4.491
    1C        C  196   4.514   3.384   4.609
    1C        C  197   4.503   3.317   4.733
    1C        C  198   4.557   3.530   4.848
    1C        C  199   4.527   3.391   4.853
    1C        C  200   4.583   3.618   4.958
    1C        C  201   3.609   2.415   2.071
    1C        C  202   3.822   2.507   2.178
    1C        C  203   3.689   2.456   2.182
    1C        C  204   3.894   2.540   2.296
    1C        C  205   3.827   2.518   2.418
    1C        C  206   4.021   2.610   2.539
    1C        C  207   3.893   2.552   2.539
    1C        C  208   4.081   2.650   2.660
    1C        C  209   4.018   2.623   2.784
    1C        C  210   4.191   2.746   2.904
    1C        C  211   4.081   2.658   2.905
    1C        C  212   4.240   2.798   3.026
    1C        C  213   4.190   2.747   3.149
    1C        C  214   4.331   2.905   3.271
    1C        C  215   4.243   2.794   3.271
    1C        C  216   4.366   2.966   3.394
    1C        C  217   4.324   2.911   3.517
    1C        C  218   4.429   3.096   3.636
    1C        C  219   4.366   2.970   3.639
    1C        C  220   4.459   3.163   3.756
    1C        C  221   4.437   3.101   3.881
    1C        C  222   4.496   3.305   4.000
    1C        C  223   4.467   3.167   4.002
    1C        C  224   4.503   3.376   4.122
    1C        C  225   4.497   3.307   4.245
    1C        C  226   4.512   3.519   4.364
    1C        C  227   4.514   3.377   4.366
    1C        C  228   4.513   3.593   4.484
    1C        C  229   4.525   3.525   4.608
    1C        C  230   4.500   3.739   4.722
    1C        C  231   4.534   3.601   4.727
    1C        C  232   4.495   3.815   4.840
    1C        C  233   4.548   3.754   4.954
    1C        C  234   4.011   2.606   2.059
    1C        C  235   3.886   2.546   2.059
    1C        C  236   4.083   2.641   2.174
    1C        C  237   4.021   2.605   2.296
    1C        C  238   4.198   2.728   2.420
    1C        C  239   4.081   2.647   2.416
    1C        C  240   4.249   2.780   2.541
    1C        C  241   4.192   2.737   2.663
    1C        C  242   4.338   2.898   2.781
    1C        C  243   4.248   2.788   2.782
    1C        C  244   4.374   2.958   2.903
    1C        C  245   4.334   2.903   3.027
    1C        C  246   4.436   3.089   3.146
    1C        C  247   4.373   2.963   3.149
    1C        C  248   4.459   3.156   3.268
    1C        C  249   4.429   3.093   3.390
    1C        C  250   4.491   3.296   3.510
    1C        C  251   4.453   3.160   3.512
    1C        C  252   4.504   3.369   3.630
    1C        C  253   4.493   3.300   3.753
    1C        C  254   4.512   3.512   3.875
    1C        C  255   4.508   3.370   3.875
    1C        C  256   4.507   3.584   3.997
    1C        C  257   4.507   3.517   4.121
    1C        C  258   4.484   3.730   4.238
    1C        C  259   4.506   3.590   4.242
    1C        C  260   4.469   3.800   4.359
    1C        C  261   4.491   3.732   4.481
    1C        C  262   4.428   3.939   4.600
    1C        C  263   4.478   3.807   4.600
    1C        C  264   4.395   4.007   4.720
    1C        C  265   4.432   3.942   4.839
    1C        C  266   4.318   4.131   4.955
    1C        C  267   4.384   4.009   4.953
    1C        C  268   4.257   2.772   2.060
    1C        C  269   4.193   2.729   2.177
    1C        C  270   4.337   2.887   2.296
    1C        C  271   4.251   2.774   2.298
    1C        C  272   4.374   2.953   2.415
    1C        C  273   4.338   2.890   2.536
    1C        C  274   4.436   3.080   2.657
    1C        C  275   4.378   2.952   2.657
    1C        C  276   4.460   3.149   2.779
    1C        C  277   4.435   3.085   2.902
    1C        C  278   4.498   3.291   3.021
    1C        C  279   4.462   3.154   3.023
    1C        C  280   4.510   3.360   3.143
    1C        C  281   4.499   3.292   3.266
    1C        C  282   4.510   3.506   3.386
    1C        C  283   4.506   3.364   3.387
    1C        C  284   4.505   3.579   3.507
    1C        C  285   4.510   3.510   3.630
    1C        C  286   4.491   3.722   3.750
    1C        C  287   4.509   3.582   3.752
    1C        C  288   4.473   3.792   3.871
    1C        C  289   4.488   3.724   3.993
    1C        C  290   4.422   3.927   4.113
    1C        C  291   4.475   3.796   4.114
    1C        C  292   4.394   3.995   4.234
    1C        C  293   4.424   3.934   4.358
    1C        C  294   4.322   4.123   4.475
    1C        C  295   4.395   4.002   4.478
    1C        C  296   4.283   4.186   4.595
    1C        C  297   4.322   4.129   4.719
    1C        C  298   4.197   4.313   4.833
    1C        C  299   4.280   4.196   4.837
    1C        C  300   4.164   4.399   4.944
    1C        C  301   4.336   2.887   2.060
    1C        C  302   4.462   3.066   2.176
    1C        C  303   4.391   2.942   2.177
    1C        C  304   4.475   3.143   2.295
    1C        C  305   4.445   3.075   2.416
    1C        C  306   4.507   3.281   2.533
    1C        C  307   4.472   3.144   2.536
    1C        C  308   4.505   3.354   2.654
    1C        C  309   4.491   3.287   2.777
    1C        C  310   4.525   3.499   2.897
    1C        C  311   4.509   3.359   2.898
    1C        C  312   4.514   3.571   3.018
    1C        C  313   4.512   3.502   3.141
    1C        C  314   4.479   3.713   3.260
    1C        C  315   4.507   3.574   3.263
    1C        C  316   4.468   3.784   3.382
    1C        C  317   4.486   3.719   3.506
    1C        C  318   4.420   3.922   3.624
    1C        C  319   4.468   3.789   3.628
    1C        C  320   4.393   3.988   3.747
    1C        C  321   4.424   3.925   3.869
    1C        C  322   4.317   4.110   3.988
    1C        C  323   4.390   3.989   3.990
    1C        C  324   4.275   4.169   4.110
    1C        C  325   4.319   4.115   4.233
    1C        C  326   4.181   4.280   4.351
    1C        C  327   4.280   4.180   4.352
    1C        C  328   4.130   4.334   4.471
    1C        C  329   4.188   4.290   4.593
    1C        C  330   4.025   4.438   4.708
    1C        C  331   4.138   4.350   4.710
    1C        C  332   3.969   4.490   4.827
    1C        C  333   4.042   4.467   4.944
    1C        C  334   4.552   3.265   2.060
    1C        C  335   4.530   3.127   2.066
    1C        C  336   4.542   3.349   2.172
    1C        C  337   4.510   3.280   2.292
    1C        C  338   4.519   3.494   2.409
    1C        C  339   4.518   3.353   2.413
    1C        C  340   4.519   3.567   2.530
    1C        C  341   4.516   3.495   2.651
    1C        C  342   4.489   3.705   2.772
    1C        C  343   4.515   3.566   2.773
    1C        C  344   4.469   3.777   2.892
    1C        C  345   4.484   3.709   3.015
    1C        C  346   4.420   3.913   3.135
    1C        C  347   4.464   3.778   3.136
    1C        C  348   4.391   3.979   3.256
    1C        C  349   4.421   3.917   3.379
    1C        C  350   4.315   4.102   3.501
    1C        C  351   4.393   3.984   3.500
    1C        C  352   4.268   4.158   3.622
    1C        C  353   4.315   4.105   3.744
    1C        C  354   4.174   4.265   3.861
    1C        C  355   4.274   4.165   3.865
    1C        C  356   4.121   4.313   3.982
    1C        C  357   4.176   4.269   4.105
    1C        C  358   4.007   4.397   4.227
    1C        C  359   4.123   4.317   4.227
    1C        C  360   3.948   4.446   4.346
    1C        C  361   4.015   4.415   4.466
    1C        C  362   3.823   4.505   4.589
    1C        C  363   3.956   4.458   4.587
    1C        C  364   3.757   4.534   4.711
    1C        C  365   3.834   4.533   4.829
    1C        C  366   3.624   4.586   4.945
    1C        C  367   3.761   4.567   4.944
    1C        C  368   4.513   3.563   2.050
    1C        C  369   4.531   3.490   2.168
    1C        C  370   4.508   3.706   2.287
    1C        C  371   4.527   3.566   2.287
    1C        C  372   4.489   3.779   2.406
    1C        C  373   4.502   3.707   2.526
    1C        C  374   4.425   3.904   2.647
    1C        C  375   4.478   3.773   2.648
    1C        C  376   4.393   3.971   2.768
    1C        C  377   4.426   3.911   2.891
    1C        C  378   4.314   4.094   3.009
    1C        C  379   4.391   3.976   3.012
    1C        C  380   4.271   4.152   3.130
    1C        C  381   4.316   4.099   3.253
    1C        C  382   4.171   4.252   3.376
    1C        C  383   4.271   4.152   3.376
    1C        C  384   4.115   4.304   3.495
    1C        C  385   4.170   4.259   3.617
    1C        C  386   4.002   4.390   3.739
    1C        C  387   4.118   4.308   3.739
    1C        C  388   3.942   4.429   3.861
    1C        C  389   4.004   4.393   3.983
    1C        C  390   3.812   4.483   4.103
    1C        C  391   3.942   4.428   4.105
    1C        C  392   3.746   4.510   4.225
    1C        C  393   3.818   4.501   4.346
    1C        C  394   3.612   4.548   4.471
    1C        C  395   3.752   4.526   4.468
    1C        C  396   3.540   4.558   4.592
    1C        C  397   3.618   4.555   4.711
    1C        C  398   3.406   4.545   4.834
    1C        C  399   3.545   4.565   4.831
    1C        C  400   3.338   4.507   4.951
    1C        C  401   4.513   3.702   2.053
    1C        C  402   4.452   3.915   2.164
    1C        C  403   4.493   3.780   2.168
    1C        C  404   4.411   3.978   2.283
    1C        C  405   4.436   3.910   2.404
    1C        C  406   4.321   4.090   2.524
    1C        C  407   4.394   3.969   2.526
    1C        C  408   4.273   4.148   2.644
    1C        C  409   4.310   4.085   2.766
    1C        C  410   4.170   4.248   2.885
    1C        C  411   4.266   4.144   2.886
    1C        C  412   4.121   4.298   3.008
    1C        C  413   4.170   4.252   3.131
    1C        C  414   3.998   4.375   3.249
    1C        C  415   4.115   4.295   3.254
    1C        C  416   3.937   4.410   3.371
    1C        C  417   3.996   4.380   3.496
    1C        C  418   3.808   4.477   3.616
    1C        C  419   3.939   4.425   3.617
    1C        C  420   3.742   4.504   3.738
    1C        C  421   3.814   4.487   3.858
    1C        C  422   3.607   4.528   3.982
    1C        C  423   3.747   4.507   3.981
    1C        C  424   3.535   4.534   4.104
    1C        C  425   3.607   4.533   4.226
    1C        C  426   3.399   4.541   4.352
    1C        C  427   3.540   4.546   4.350
    1C        C  428   3.326   4.539   4.472
    1C        C  429   3.399   4.550   4.592
    1C        C  430   3.190   4.521   4.718
    1C        C  431   3.330   4.542   4.715
    1C        C  432   3.119   4.494   4.838
    1C        C  433   3.200   4.489   4.953
    1C        C  434   4.383   4.117   2.049
    1C        C  435   4.448   3.993   2.048
    1C        C  436   4.300   4.159   2.157
    1C        C  437   4.331   4.096   2.280
    1C        C  438   4.181   4.248   2.398
    1C        C  439   4.280   4.147   2.402
    1C        C  440   4.125   4.295   2.519
    1C        C  441   4.174   4.248   2.643
    1C        C  442   4.001   4.375   2.760
    1C        C  443   4.117   4.295   2.763
    1C        C  444   3.939   4.406   2.883
    1C        C  445   4.002   4.375   3.005
    1C        C  446   3.808   4.465   3.126
    1C        C  447   3.938   4.411   3.126
    1C        C  448   3.739   4.482   3.248
    1C        C  449   3.807   4.466   3.371
    1C        C  450   3.601   4.516   3.493
    1C        C  451   3.740   4.493   3.492
    1C        C  452   3.535   4.536   3.617
    1C        C  453   3.605   4.537   3.739
    1C        C  454   3.393   4.538   3.861
    1C        C  455   3.534   4.539   3.862
    1C        C  456   3.324   4.531   3.984
    1C        C  457   3.394   4.530   4.106
    1C        C  458   3.188   4.501   4.230
    1C        C  459   3.327   4.526   4.231
    1C        C  460   3.121   4.487   4.353
    1C        C  461   3.188   4.508   4.476
    1C        C  462   2.992   4.431   4.597
    1C        C  463   3.120   4.489   4.599
    1C        C  464   2.929   4.396   4.719
    1C        C  465   2.987   4.440   4.841
    1C        C  466   2.795   4.339   4.955
    1C        C  467   2.899   4.433   4.954
    1C        C  468   4.123   4.282   2.038
    1C        C  469   4.188   4.249   2.158
    1C        C  470   4.006   4.371   2.274
    1C        C  471   4.126   4.294   2.277
    1C        C  472   3.938   4.398   2.395
    1C        C  473   4.002   4.365   2.516
    1C        C  474   3.807   4.458   2.636
    1C        C  475   3.937   4.402   2.636
    1C        C  476   3.742   4.484   2.759
    1C        C  477   3.809   4.462   2.881
    1C        C  478   3.605   4.513   3.006
    1C        C  479   3.744   4.490   3.003
    1C        C  480   3.531   4.525   3.125
    1C        C  481   3.601   4.516   3.248
    1C        C  482   3.391   4.527   3.370
    1C        C  483   3.532   4.526   3.370
    1C        C  484   3.323   4.526   3.494
    1C        C  485   3.393   4.537   3.616
    1C        C  486   3.184   4.509   3.739
    1C        C  487   3.323   4.533   3.738
    1C        C  488   3.120   4.482   3.862
    1C        C  489   3.186   4.501   3.986
    1C        C  490   2.995   4.412   4.112
    1C        C  491   3.118   4.482   4.109
    1C        C  492   2.935   4.382   4.236
    1C        C  493   2.995   4.424   4.357
    1C        C  494   2.819   4.303   4.478
    1C        C  495   2.928   4.392   4.477
    1C        C  496   2.771   4.253   4.601
    1C        C  497   2.820   4.305   4.723
    1C        C  498   2.662   4.162   4.841
    1C        C  499   2.750   4.272   4.841
    1C        C  500   2.592   4.116   4.953
    1C        C  501   4.002   4.351   2.038
    1C        C  502   3.813   4.461   2.147
    1C        C  503   3.942   4.404   2.153
    1C        C  504   3.744   4.479   2.269
    1C        C  505   3.808   4.453   2.392
    1C        C  506   3.601   4.502   2.516
    1C        C  507   3.739   4.474   2.514
    1C        C  508   3.532   4.514   2.639
    1C        C  509   3.603   4.512   2.761
    1C        C  510   3.392   4.523   2.882
    1C        C  511   3.534   4.518   2.883
    1C        C  512   3.318   4.522   3.002
    1C        C  513   3.390   4.529   3.124
    1C        C  514   3.183   4.493   3.249
    1C        C  515   3.321   4.522   3.247
    1C        C  516   3.118   4.471   3.373
    1C        C  517   3.184   4.498   3.495
    1C        C  518   2.992   4.417   3.621
    1C        C  519   3.115   4.485   3.618
    1C        C  520   2.938   4.373   3.744
    1C        C  521   2.998   4.411   3.866
    1C        C  522   2.829   4.283   3.991
    1C        C  523   2.942   4.368   3.989
    1C        C  524   2.781   4.235   4.115
    1C        C  525   2.826   4.292   4.236
    1C        C  526   2.697   4.125   4.360
    1C        C  527   2.774   4.244   4.358
    1C        C  528   2.653   4.071   4.483
    1C        C  529   2.685   4.141   4.601
    1C        C  530   2.579   3.959   4.728
    1C        C  531   2.634   4.090   4.723
    1C        C  532   2.542   3.897   4.850
    1C        C  533   2.532   3.990   4.958
    1C        C  534   3.614   4.555   2.033
    1C        C  535   3.745   4.505   2.033
    1C        C  536   3.535   4.533   2.150
    1C        C  537   3.605   4.510   2.272
    1C        C  538   3.391   4.518   2.397
    1C        C  539   3.532   4.512   2.392
    1C        C  540   3.319   4.508   2.518
    1C        C  541   3.391   4.511   2.639
    1C        C  542   3.181   4.482   2.760
    1C        C  543   3.320   4.510   2.761
    1C        C  544   3.113   4.466   2.883
    1C        C  545   3.180   4.495   3.004
    1C        C  546   2.990   4.408   3.130
    1C        C  547   3.114   4.476   3.127
    1C        C  548   2.935   4.366   3.253
    1C        C  549   2.993   4.405   3.376
    1C        C  550   2.828   4.278   3.500
    1C        C  551   2.934   4.372   3.500
    1C        C  552   2.782   4.228   3.624
    1C        C  553   2.829   4.283   3.746
    1C        C  554   2.700   4.117   3.872
    1C        C  555   2.782   4.232   3.869
    1C        C  556   2.652   4.064   3.994
    1C        C  557   2.693   4.125   4.115
    1C        C  558   2.594   3.939   4.242
    1C        C  559   2.658   4.064   4.238
    1C        C  560   2.569   3.874   4.365
    1C        C  561   2.589   3.945   4.485
    1C        C  562   2.536   3.744   4.611
    1C        C  563   2.565   3.883   4.610
    1C        C  564   2.513   3.677   4.733
    1C        C  565   2.515   3.756   4.852
    1C        C  566   2.530   3.542   4.975
    1C        C  567   2.527   3.681   4.969
    1C        C  568   3.326   4.470   2.038
    1C        C  569   3.395   4.509   2.153
    1C        C  570   3.185   4.467   2.276
    1C        C  571   3.321   4.507   2.275
    1C        C  572   3.115   4.454   2.399
    1C        C  573   3.182   4.476   2.521
    1C        C  574   2.982   4.397   2.644
    1C        C  575   3.108   4.461   2.641
    1C        C  576   2.925   4.358   2.767
    1C        C  577   2.987   4.402   2.887
    1C        C  578   2.821   4.273   3.014
    1C        C  579   2.929   4.364   3.010
    1C        C  580   2.773   4.222   3.137
    1C        C  581   2.827   4.275   3.256
    1C        C  582   2.696   4.111   3.379
    1C        C  583   2.780   4.224   3.379
    1C        C  584   2.663   4.054   3.504
    1C        C  585   2.703   4.111   3.627
    1C        C  586   2.606   3.926   3.751
    1C        C  587   2.668   4.053   3.751
    1C        C  588   2.575   3.865   3.875
    1C        C  589   2.597   3.934   3.996
    1C        C  590   2.541   3.733   4.125
    1C        C  591   2.573   3.871   4.120
    1C        C  592   2.525   3.666   4.248
    1C        C  593   2.527   3.739   4.368
    1C        C  594   2.508   3.530   4.495
    1C        C  595   2.519   3.671   4.492
    1C        C  596   2.512   3.460   4.617
    1C        C  597   2.510   3.535   4.737
    1C        C  598   2.532   3.324   4.860
    1C        C  599   2.522   3.465   4.858
    1C        C  600   2.532   3.246   4.976
    1C        C  601   3.192   4.436   2.040
    1C        C  602   2.979   4.391   2.158
    1C        C  603   3.114   4.438   2.156
    1C        C  604   2.921   4.356   2.283
    1C        C  605   2.987   4.394   2.401
    1C        C  606   2.818   4.265   2.525
    1C        C  607   2.924   4.358   2.522
    1C        C  608   2.769   4.215   2.647
    1C        C  609   2.820   4.264   2.770
    1C        C  610   2.691   4.101   2.893
    1C        C  611   2.773   4.216   2.894
    1C        C  612   2.655   4.043   3.016
    1C        C  613   2.691   4.107   3.137
    1C        C  614   2.587   3.923   3.263
    1C        C  615   2.653   4.048   3.260
    1C        C  616   2.565   3.861   3.388
    1C        C  617   2.599   3.928   3.508
    1C        C  618   2.532   3.726   3.635
    1C        C  619   2.575   3.861   3.630
    1C        C  620   2.520   3.658   3.758
    1C        C  621   2.537   3.729   3.879
    1C        C  622   2.514   3.522   4.007
    1C        C  623   2.528   3.662   4.003
    1C        C  624   2.521   3.451   4.129
    1C        C  625   2.520   3.524   4.250
    1C        C  626   2.538   3.317   4.374
    1C        C  627   2.515   3.457   4.374
    1C        C  628   2.556   3.250   4.496
    1C        C  629   2.540   3.322   4.617
    1C        C  630   2.590   3.116   4.739
    1C        C  631   2.545   3.251   4.739
    1C        C  632   2.613   3.047   4.861
    1C        C  633   2.561   3.109   4.979
    1C        C  634   2.783   4.297   2.050
    1C        C  635   2.888   4.389   2.047
    1C        C  636   2.753   4.219   2.163
    1C        C  637   2.811   4.266   2.282
    1C        C  638   2.675   4.104   2.406
    1C        C  639   2.762   4.216   2.405
    1C        C  640   2.638   4.045   2.529
    1C        C  641   2.678   4.107   2.650
    1C        C  642   2.591   3.913   2.775
    1C        C  643   2.645   4.044   2.772
    1C        C  644   2.569   3.847   2.898
    1C        C  645   2.597   3.914   3.019
    1C        C  646   2.529   3.716   3.146
    1C        C  647   2.567   3.853   3.142
    1C        C  648   2.515   3.651   3.270
    1C        C  649   2.531   3.724   3.390
    1C        C  650   2.509   3.515   3.514
    1C        C  651   2.516   3.656   3.513
    1C        C  652   2.515   3.447   3.638
    1C        C  653   2.509   3.517   3.760
    1C        C  654   2.531   3.311   3.886
    1C        C  655   2.507   3.450   3.885
    1C        C  656   2.548   3.242   4.008
    1C        C  657   2.537   3.311   4.131
    1C        C  658   2.600   3.111   4.255
    1C        C  659   2.552   3.244   4.254
    1C        C  660   2.629   3.049   4.379
    1C        C  661   2.598   3.115   4.500
    1C        C  662   2.701   2.929   4.623
    1C        C  663   2.625   3.048   4.621
    1C        C  664   2.737   2.865   4.744
    1C        C  665   2.690   2.926   4.863
    1C        C  666   2.736   2.865   4.981
    1C        C  667   2.677   4.013   2.048
    1C        C  668   2.686   4.094   2.162
    1C        C  669   2.592   3.906   2.289
    1C        C  670   2.645   4.038   2.285
    1C        C  671   2.559   3.843   2.411
    1C        C  672   2.583   3.915   2.530
    1C        C  673   2.519   3.714   2.657
    1C        C  674   2.560   3.849   2.653
    1C        C  675   2.508   3.642   2.778
    1C        C  676   2.528   3.712   2.898
    1C        C  677   2.500   3.507   3.025
    1C        C  678   2.519   3.647   3.023
    1C        C  679   2.506   3.439   3.149
    1C        C  680   2.503   3.510   3.271
    1C        C  681   2.524   3.301   3.397
    1C        C  682   2.506   3.441   3.394
    1C        C  683   2.546   3.235   3.520
    1C        C  684   2.531   3.306   3.641
    1C        C  685   2.599   3.108   3.767
    1C        C  686   2.547   3.240   3.765
    1C        C  687   2.631   3.045   3.889
    1C        C  688   2.597   3.110   4.010
    1C        C  689   2.707   2.929   4.136
    1C        C  690   2.633   3.049   4.133
    1C        C  691   2.748   2.871   4.259
    1C        C  692   2.702   2.928   4.380
    1C        C  693   2.745   2.871   4.502
    1C        C  694   2.623   3.884   2.053
    1C        C  695   2.524   3.697   2.175
    1C        C  696   2.571   3.830   2.171
    1C        C  697   2.504   3.633   2.299
    1C        C  698   2.517   3.709   2.418
    1C        C  699   2.481   3.500   2.539
    1C        C  700   2.492   3.640   2.539
    1C        C  701   2.493   3.429   2.661
    1C        C  702   2.500   3.501   2.782
    1C        C  703   2.523   3.291   2.907
    1C        C  704   2.503   3.431   2.905
    1C        C  705   2.542   3.226   3.031
    1C        C  706   2.530   3.300   3.151
    1C        C  707   2.594   3.102   3.275
    1C        C  708   2.539   3.233   3.275
    1C        C  709   2.627   3.042   3.398
    1C        C  710   2.597   3.103   3.522
    1C        C  711   2.708   2.926   3.645
    1C        C  712   2.627   3.042   3.646
    1C        C  713   2.750   2.870   3.767
    1C        C  714   2.709   2.927   3.890
    1C        C  715   2.750   2.873   4.014
    1C        C  716   2.456   3.493   2.059
    1C        C  717   2.491   3.629   2.057
    1C        C  718   2.461   3.416   2.180
    1C        C  719   2.478   3.493   2.298
    1C        C  720   2.505   3.285   2.423
    1C        C  721   2.475   3.423   2.421
    1C        C  722   2.528   3.217   2.544
    1C        C  723   2.515   3.289   2.665
    1C        C  724   2.582   3.086   2.790
    1C        C  725   2.533   3.219   2.786
    1C        C  726   2.608   3.022   2.913
    1C        C  727   2.577   3.089   3.034
    1C        C  728   2.705   2.918   3.153
    1C        C  729   2.622   3.033   3.155
    1C        C  730   2.753   2.869   3.276
    1C        C  731   2.705   2.924   3.397
    1C        C  732   2.749   2.872   3.521
    1C        C  733   2.479   3.192   2.070
    1C        C  734   2.490   3.276   2.182
    1C        C  735   2.579   3.080   2.303
    1C        C  736   2.520   3.210   2.304
    1C        C  737   2.614   3.019   2.425
    1C        C  738   2.581   3.086   2.545
    1C        C  739   2.696   2.908   2.667
    1C        C  740   2.616   3.025   2.668
    1C        C  741   2.734   2.851   2.791
    1C        C  742   2.691   2.908   2.913
    1C        C  743   2.743   2.854   3.033
    1C        C  744   2.539   3.066   2.069
    1C        C  745   2.673   2.890   2.184
    1C        C  746   2.603   3.012   2.182
    1C        C  747   2.721   2.834   2.304
    1C        C  748   2.681   2.895   2.425
    1C        C  749   2.735   2.846   2.546
    1C        C  750   2.734   2.841   2.067
    1C        C  751   3.656   2.329   1.960
    1C        O  752   3.691   2.210   1.984
    1C        O  753   3.628   2.353   1.825
    1C        C  754   4.638   3.057   1.992
    1C        O  755   4.634   3.051   1.866
    1C        O  756   4.754   2.992   2.035
    1C        C  757   4.450   4.221   1.967
    1C        O  758   4.560   4.264   2.010
    1C        O  759   4.417   4.237   1.832
    1C        C  760   3.584   4.678   1.956
    1C        O  761   3.618   4.789   2.004
    1C        O  762   3.592   4.671   1.816
    1C        C  763   2.854   4.516   1.978
    1C        O  764   2.866   4.520   1.853
    1C        O  765   2.765   4.609   2.033
    1C        C  766   2.367   3.456   1.947
    1C        O  767   2.426   3.432   1.838
    1C        O  768   2.227   3.451   1.946
    1C        C  769   4.707   3.598   5.037
    1C        O  770   4.720   3.511   5.127
    1C        O  771   4.827   3.657   4.996
    1C        C  772   4.251   4.433   5.059
    1C        O  773   4.219   4.399   5.176
    1C        O  774   4.351   4.531   5.047
    1C        C  775   4.147   2.515   5.068
    1C        O  776   4.196   2.402   5.041
    1C        O  777   4.140   2.542   5.205
    1C        C  778   2.873   4.547   5.045
    1C        O  779   2.841   4.658   4.994
    1C        O  780   2.907   4.560   5.180
    1C        C  781   2.469   3.035   5.069
    1C        O  782   2.350   3.008   5.039
    1C        O  783   2.519   3.008   5.195
    1C        C  784   2.421   3.984   5.056
    1C        O  785   2.300   4.007   5.030
    1C        O  786   2.421   3.916   5.179
    1C        C  787   2.945   2.421   1.999
    1C        O  788   2.949   2.432   1.873
    1C        O  789   2.888   2.308   2.056
    1C        C  790   3.155   2.355   5.031
    1C        O  791   3.154   2.247   4.967
    1C        O  792   3.142   2.335   5.169
    1C        H  793   4.254   3.030   5.043
    1C        H  794   4.216   2.787   5.071
    1C        H  795   4.513   3.124   5.053
    1C        H  796   4.519   3.365   5.066
    1C        H  797   4.585   3.817   5.032
    1C        H  798   4.368   3.957   5.045
    1C        H  799   4.332   4.192   5.041
    1C        H  800   3.992   4.483   5.037
    1C        H  801   3.810   4.601   5.033
    1C        H  802   3.590   4.652   5.023
    1C        H  803   3.388   4.498   5.045
    1C        H  804   3.153   4.528   5.041
    1C        H  805   3.894   2.452   5.052
    1C        H  806   3.668   2.496   5.074
    1C        H  807   2.996   2.572   5.060
    1C        H  808   3.441   2.416   5.059
    1C        H  809   2.864   2.725   5.075
    1C        H  810   2.730   2.915   5.076
    1C        H  811   2.491   3.289   5.065
    1C        H  812   2.557   3.501   5.070
    1C        H  813   2.482   3.721   5.058
    1C        H  814   2.625   4.157   5.046
    1C        H  815   2.736   4.337   5.045
    1C        H  816   2.675   2.853   1.979
    1C        H  817   2.871   2.704   1.976
    1C        H  818   3.203   2.418   1.989
    1C        H  819   3.414   2.406   1.984
    1C        H  820   3.821   2.583   1.983
    1C        H  821   4.052   2.631   1.964
    1C        H  822   4.270   2.700   1.982
    1C        H  823   4.328   2.940   1.967
    1C        H  824   4.514   3.307   1.969
    1C        H  825   4.512   3.513   1.955
    1C        H  826   4.495   3.743   1.956
    1C        H  827   3.795   4.512   1.938
    1C        H  828   3.932   4.294   1.980
    1C        H  829   4.183   4.284   1.950
    1C        H  830   4.524   3.972   1.976
    1C        H  831   2.668   3.821   1.979
    1C        H  832   2.708   4.049   1.952
    1C        H  833   2.698   4.310   1.987
    1C        H  834   3.371   4.470   1.941
    1C        H  835   3.145   4.434   1.944
    1C        H  836   2.539   3.022   1.972
    1C        H  837   2.411   3.212   1.990
    1C        H  838   2.521   3.662   1.960
    2V3OU   H29  839   2.808   3.547   2.494
    2V3OU   C27  840   2.788   3.499   2.593
    2V3OU   H27  841   2.736   3.572   2.660
    2V3OU   H28  842   2.731   3.404   2.576
    2V3OU   O11  843   2.915   3.466   2.649
    2V3OU   C15  844   2.923   3.391   2.765
    2V3OU   C13  845   3.051   3.371   2.821
    2V3OU   C14  846   3.078   3.265   2.908
    2V3OU   C16  847   2.975   3.182   2.952
    2V3OU    H6  848   2.989   3.101   3.024
    2V3OU   C12  849   3.214   3.228   2.952
    2V3OU    O2  850   3.233   3.129   3.026
    2V3OU   C10  851   3.326   3.304   2.894
    2V3OU    C8  852   3.456   3.265   2.924
    2V3OU   O10  853   3.487   3.156   3.000
    2V3OU   H26  854   3.400   3.114   3.008
    2V3OU    C6  855   3.565   3.348   2.885
    2V3OU    C5  856   3.536   3.464   2.814
    2V3OU    C4  857   3.701   3.287   2.878
    2V3OU    H4  858   3.715   3.224   2.971
    2V3OU    H5  859   3.709   3.225   2.784
    2V3OU    C2  860   3.814   3.391   2.874
    2V3OU    O6  861   3.810   3.481   2.985
    2V3OU   H21  862   3.758   3.557   2.957
    2V3OU    C3  863   3.777   3.492   2.765
    2V3OU    H2  864   3.857   3.570   2.760
    2V3OU    H3  865   3.780   3.437   2.667
    2V3OU   C25  866   3.947   3.320   2.850
    2V3OU    O7  867   3.999   3.292   2.742
    2V3OU   C26  868   4.027   3.286   2.975
    2V3OU   H22  869   4.060   3.380   3.026
    2V3OU   H23  870   4.117   3.226   2.947
    2V3OU    O8  871   3.955   3.210   3.070
    2V3OU   H24  872   3.920   3.263   3.143
    2V3OU    C1  873   3.644   3.563   2.781
    2V3OU    H1  874   3.620   3.618   2.686
    2V3OU    O3  875   3.656   3.655   2.890
    2V3OU   C19  876   3.616   3.792   2.880
    2V3OU    H9  877   3.514   3.801   2.831
    2V3OU    O4  878   3.711   3.849   2.793
    2V3OU   C20  879   3.843   3.869   2.844
    2V3OU   H10  880   3.897   3.771   2.860
    2V3OU   C24  881   3.606   3.855   3.018
    2V3OU   H16  882   3.544   3.789   3.084
    2V3OU   H17  883   3.556   3.955   3.013
    2V3OU   C23  884   3.747   3.872   3.076
    2V3OU   H15  885   3.787   3.768   3.098
    2V3OU    N1  886   3.735   3.946   3.201
    2V3OU   H19  887   3.810   3.920   3.262
    2V3OU   H20  888   3.645   3.932   3.241
    2V3OU   C21  889   3.846   3.942   2.978
    2V3OU   H11  890   3.949   3.925   3.022
    2V3OU    O5  891   3.825   4.083   2.976
    2V3OU   H18  892   3.783   4.105   3.061
    2V3OU   C22  893   3.908   3.947   2.731
    2V3OU   H12  894   3.860   4.048   2.724
    2V3OU   H13  895   3.900   3.893   2.633
    2V3OU   H14  896   4.019   3.958   2.743
    2V3OU   C11  897   3.157   3.470   2.800
    2V3OU    O1  898   3.128   3.586   2.766
    2V3OU    C9  899   3.296   3.421   2.819
    2V3OU    C7  900   3.402   3.500   2.778
    2V3OU    O9  901   3.381   3.616   2.706
    2V3OU   H25  902   3.286   3.632   2.717
    2V3OU   C17  903   2.821   3.309   2.819
    2V3OU    H7  904   2.727   3.341   2.775
    2V3OU   C18  905   2.844   3.209   2.912
    2V3OU    H8  906   2.776   3.162   2.985
    3SOL     OW  907   2.726   5.159   0.338
    3SOL    HW1  908   2.717   5.117   0.428
    3SOL    HW2  909   2.822   5.183   0.322
    4SOL     OW  910   6.671   6.882   2.275
    4SOL    HW1  911   6.603   6.946   2.309
    4SOL    HW2  912   6.630   6.822   2.206
    5SOL     OW  913   4.319   2.051   2.720
    5SOL    HW1  914   4.350   2.015   2.808
    5SOL    HW2  915   4.231   2.010   2.697
    6SOL     OW  916   4.165   1.158   1.699
    6SOL    HW1  917   4.214   1.107   1.628
    6SOL    HW2  918   4.230   1.193   1.766
    7SOL     OW  919   0.024   3.418   2.778
    7SOL    HW1  920   6.940   3.418   2.777
    7SOL    HW2  921   0.058   3.327   2.754
    8SOL     OW  922   3.458   0.633   0.047
    8SOL    HW1  923   3.408   0.554   0.011
    8SOL    HW2  924   3.554   0.607   0.062
    9SOL     OW  925   4.689   0.879   5.913
    9SOL    HW1  926   4.652   0.949   5.852
    9SOL    HW2  927   4.787   0.897   5.928
   10SOL     OW  928   1.664   4.743   5.943
   10SOL    HW1  929   1.642   4.818   5.881
   10SOL    HW2  930   1.670   4.658   5.891
   11SOL     OW  931   2.911   0.164   5.983
   11SOL    HW1  932   2.960   0.101   6.043
   11SOL    HW2  933   2.906   0.125   5.891
   12SOL     OW  934   3.679   5.545   3.642
   12SOL    HW1  935   3.722   5.538   3.732
   12SOL    HW2  936   3.722   5.620   3.590
   13SOL     OW  937   3.962   6.508   4.164
   13SOL    HW1  938   4.056   6.474   4.158
   13SOL    HW2  939   3.919   6.470   4.246
   14SOL     OW  940   3.858   5.652   5.687
   14SOL    HW1  941   3.903   5.692   5.607
   14SOL    HW2  942   3.769   5.616   5.660
   15SOL     OW  943   0.483   6.495   2.251
   15SOL    HW1  944   0.481   6.559   2.174
   15SOL    HW2  945   0.470   6.402   2.217
   16SOL     OW  946   5.269   2.666   6.103
   16SOL    HW1  947   5.255   2.731   6.028
   16SOL    HW2  948   5.216   2.695   6.183
   17SOL     OW  949   5.536   6.506   6.233
   17SOL    HW1  950   5.616   6.448   6.243
   17SOL    HW2  951   5.532   6.571   6.309
   18SOL     OW  952   3.220   0.929   5.527
   18SOL    HW1  953   3.146   0.876   5.568
   18SOL    HW2  954   3.308   0.888   5.550
   19SOL     OW  955   0.174   1.978   3.028
   19SOL    HW1  956   0.186   1.884   3.060
   19SOL    HW2  957   0.228   1.992   2.945
   20SOL     OW  958   5.313   1.596   3.798
   20SOL    HW1  959   5.340   1.503   3.771
   20SOL    HW2  960   5.391   1.641   3.842
   21SOL     OW  961   3.368   1.306   2.809
   21SOL    HW1  962   3.324   1.379   2.758
   21SOL    HW2  963   3.444   1.269   2.756
   22SOL     OW  964   2.126   6.452   6.861
   22SOL    HW1  965   2.093   6.477   6.952
   22SOL    HW2  966   2.074   6.503   6.792
   23SOL     OW  967   5.508   5.509   3.385
   23SOL    HW1  968   5.419   5.466   3.377
   23SOL    HW2  969   5.522   5.574   3.310
   24SOL     OW  970   4.249   0.069   3.390
   24SOL    HW1  971   4.292   7.013   3.445
   24SOL    HW2  972   4.155   0.045   3.370
   25SOL     OW  973   3.283   0.801   4.886
   25SOL    HW1  974   3.364   0.805   4.945
   25SOL    HW2  975   3.202   0.784   4.941
   26SOL     OW  976   0.518   0.832   0.553
   26SOL    HW1  977   0.434   0.880   0.530
   26SOL    HW2  978   0.508   0.787   0.641
   27SOL     OW  979   1.347   2.373   2.454
   27SOL    HW1  980   1.441   2.340   2.443
   27SOL    HW2  981   1.335   2.407   2.547
   28SOL     OW  982   3.021   1.659   6.137
   28SOL    HW1  983   3.063   1.748   6.119
   28SOL    HW2  984   2.969   1.631   6.057
   29SOL     OW  985   6.365   1.689   2.213
   29SOL    HW1  986   6.360   1.786   2.189
   29SOL    HW2  987   6.461   1.662   2.223
   30SOL     OW  988   4.218   0.840   3.784
   30SOL    HW1  989   4.165   0.902   3.841
   30SOL    HW2  990   4.306   0.820   3.828
   31SOL     OW  991   0.892   2.680   6.244
   31SOL    HW1  992   0.991   2.674   6.252
   31SOL    HW2  993   0.853   2.589   6.234
   32SOL     OW  994   0.754   1.805   2.631
   32SOL    HW1  995   0.787   1.713   2.656
   32SOL    HW2  996   0.722   1.805   2.537
   33SOL     OW  997   1.358   4.745   5.594
   33SOL    HW1  998   1.315   4.699   5.672
   33SOL    HW2  999   1.404   4.677   5.537
   34SOL     OW 1000   2.861   0.216   4.341
   34SOL    HW1 1001   2.909   0.194   4.256
   34SOL    HW2 1002   2.839   0.132   4.390
   35SOL     OW 1003   3.826   3.940   6.735
   35SOL    HW1 1004   3.797   3.848   6.708
   35SOL    HW2 1005   3.845   3.995   6.654
   36SOL     OW 1006   5.937   1.486   4.707
   36SOL    HW1 1007   6.024   1.526   4.677
   36SOL    HW2 1008   5.953   1.426   4.785
   37SOL     OW 1009   1.368   2.173   0.391
   37SOL    HW1 1010   1.414   2.088   0.364
   37SOL    HW2 1011   1.309   2.156   0.470
   38SOL     OW 1012   0.516   5.124   2.151
   38SOL    HW1 1013   0.467   5.183   2.216
   38SOL    HW2 1014   0.453   5.092   2.080
   39SOL     OW 1015   6.749   4.061   6.514
   39SOL    HW1 1016   6.699   4.137   6.471
   39SOL    HW2 1017   6.727   3.976   6.467
   40SOL     OW 1018   5.086   1.505   0.281
   40SOL    HW1 1019   5.026   1.560   0.340
   40SOL    HW2 1020   5.114   1.560   0.202
   41SOL     OW 1021   6.671   5.159   3.165
   41SOL    HW1 1022   6.682   5.205   3.077
   41SOL    HW2 1023   6.576   5.166   3.195
   42SOL     OW 1024   2.663   5.290   4.630
   42SOL    HW1 1025   2.618   5.262   4.545
   42SOL    HW2 1026   2.703   5.381   4.618
   43SOL     OW 1027   5.226   0.137   5.546
   43SOL    HW1 1028   5.239   0.219   5.603
   43SOL    HW2 1029   5.309   0.082   5.549
   44SOL     OW 1030   4.218   1.333   5.874
   44SOL    HW1 1031   4.273   1.280   5.810
   44SOL    HW2 1032   4.274   1.406   5.915
   45SOL     OW 1033   4.562   6.050   1.953
   45SOL    HW1 1034   4.647   6.085   1.993
   45SOL    HW2 1035   4.556   6.078   1.857
   46SOL     OW 1036   0.331   3.245   2.678
   46SOL    HW1 1037   0.303   3.333   2.639
   46SOL    HW2 1038   0.296   3.238   2.772
   47SOL     OW 1039   5.023   3.968   1.045
   47SOL    HW1 1040   5.024   3.875   1.081
   47SOL    HW2 1041   4.974   3.969   0.958
   48SOL     OW 1042   6.696   3.224   5.656
   48SOL    HW1 1043   6.677   3.318   5.627
   48SOL    HW2 1044   6.791   3.201   5.636
   49SOL     OW 1045   5.105   3.778   1.848
   49SOL    HW1 1046   5.180   3.833   1.810
   49SOL    HW2 1047   5.077   3.709   1.780
   50SOL     OW 1048   5.699   1.162   5.240
   50SOL    HW1 1049   5.611   1.120   5.263
   50SOL    HW2 1050   5.690   1.213   5.154
   51SOL     OW 1051   2.577   6.606   3.148
   51SOL    HW1 1052   2.613   6.518   3.118
   51SOL    HW2 1053   2.543   6.657   3.068
   52SOL     OW 1054   6.468   3.449   3.012
   52SOL    HW1 1055   6.413   3.465   2.930
   52SOL    HW2 1056   6.506   3.536   3.043
   53SOL     OW 1057   3.862   6.335   3.806
   53SOL    HW1 1058   3.792   6.350   3.876
   53SOL    HW2 1059   3.906   6.422   3.784
   54SOL     OW 1060   4.017   4.719   1.036
   54SOL    HW1 1061   4.014   4.737   0.937
   54SOL    HW2 1062   3.976   4.630   1.055
   55SOL     OW 1063   2.174   3.017   6.469
   55SOL    HW1 1064   2.219   2.955   6.534
   55SOL    HW2 1065   2.147   3.101   6.516
   56SOL     OW 1066   0.061   0.670   1.541
   56SOL    HW1 1067   0.001   0.666   1.621
   56SOL    HW2 1068   0.071   0.765   1.512
   57SOL     OW 1069   4.603   1.068   1.882
   57SOL    HW1 1070   4.615   1.096   1.786
   57SOL    HW2 1071   4.690   1.034   1.918
   58SOL     OW 1072   0.454   6.532   5.883
   58SOL    HW1 1073   0.404   6.617   5.898
   58SOL    HW2 1074   0.530   6.526   5.948
   59SOL     OW 1075   1.513   2.572   5.534
   59SOL    HW1 1076   1.437   2.525   5.579
   59SOL    HW2 1077   1.494   2.581   5.437
   60SOL     OW 1078   5.247   2.559   4.722
   60SOL    HW1 1079   5.312   2.582   4.794
   60SOL    HW2 1080   5.171   2.625   4.723
   61SOL     OW 1081   6.705   2.167   4.655
   61SOL    HW1 1082   6.767   2.109   4.603
   61SOL    HW2 1083   6.633   2.111   4.695
   62SOL     OW 1084   1.289   1.262   2.076
   62SOL    HW1 1085   1.198   1.254   2.115
   62SOL    HW2 1086   1.298   1.351   2.030
   63SOL     OW 1087   5.611   1.333   3.498
   63SOL    HW1 1088   5.512   1.341   3.507
   63SOL    HW2 1089   5.647   1.279   3.573
   64SOL     OW 1090   0.458   3.440   5.932
   64SOL    HW1 1091   0.517   3.381   5.988
   64SOL    HW2 1092   0.388   3.385   5.887
   65SOL     OW 1093   0.533   4.982   6.837
   65SOL    HW1 1094   0.480   5.041   6.898
   65SOL    HW2 1095   0.521   5.012   6.743
   66SOL     OW 1096   4.271   1.208   5.367
   66SOL    HW1 1097   4.261   1.307   5.377
   66SOL    HW2 1098   4.319   1.188   5.281
   67SOL     OW 1099   5.891   3.660   5.935
   67SOL    HW1 1100   5.911   3.614   6.022
   67SOL    HW2 1101   5.954   3.628   5.865
   68SOL     OW 1102   6.249   0.763   6.562
   68SOL    HW1 1103   6.230   0.781   6.465
   68SOL    HW2 1104   6.163   0.754   6.612
   69SOL     OW 1105   0.834   3.706   6.136
   69SOL    HW1 1106   0.761   3.768   6.164
   69SOL    HW2 1107   0.900   3.697   6.211
   70SOL     OW 1108   5.424   4.086   5.331
   70SOL    HW1 1109   5.349   4.027   5.302
   70SOL    HW2 1110   5.391   4.152   5.399
   71SOL     OW 1111   4.301   1.544   4.027
   71SOL    HW1 1112   4.384   1.600   4.030
   71SOL    HW2 1113   4.301   1.489   3.944
   72SOL     OW 1114   1.840   0.410   4.100
   72SOL    HW1 1115   1.814   0.475   4.171
   72SOL    HW2 1116   1.809   0.444   4.011
   73SOL     OW 1117   3.683   0.723   1.269
   73SOL    HW1 1118   3.716   0.654   1.333
   73SOL    HW2 1119   3.606   0.773   1.311
   74SOL     OW 1120   4.095   0.540   0.321
   74SOL    HW1 1121   4.179   0.592   0.337
   74SOL    HW2 1122   4.085   0.470   0.392
   75SOL     OW 1123   4.447   0.835   0.907
   75SOL    HW1 1124   4.512   0.799   0.973
   75SOL    HW2 1125   4.424   0.930   0.931
   76SOL     OW 1126   2.857   3.441   1.492
   76SOL    HW1 1127   2.811   3.421   1.405
   76SOL    HW2 1128   2.790   3.436   1.566
   77SOL     OW 1129   0.662   6.997   3.692
   77SOL    HW1 1130   0.628   0.071   3.720
   77SOL    HW2 1131   0.587   6.931   3.694
   78SOL     OW 1132   5.689   1.418   0.206
   78SOL    HW1 1133   5.705   1.457   0.115
   78SOL    HW2 1134   5.610   1.464   0.247
   79SOL     OW 1135   3.140   5.918   0.781
   79SOL    HW1 1136   3.081   5.837   0.785
   79SOL    HW2 1137   3.215   5.908   0.846
   80SOL     OW 1138   4.982   1.436   4.544
   80SOL    HW1 1139   4.967   1.512   4.607
   80SOL    HW2 1140   4.988   1.351   4.596
   81SOL     OW 1141   2.304   0.276   2.416
   81SOL    HW1 1142   2.219   0.329   2.429
   81SOL    HW2 1143   2.286   0.202   2.351
   82SOL     OW 1144   5.729   4.824   0.629
   82SOL    HW1 1145   5.640   4.780   0.642
   82SOL    HW2 1146   5.793   4.792   0.698
   83SOL     OW 1147   0.750   0.330   6.900
   83SOL    HW1 1148   0.696   0.247   6.911
   83SOL    HW2 1149   0.844   0.313   6.929
   84SOL     OW 1150   6.427   2.618   3.411
   84SOL    HW1 1151   6.483   2.596   3.490
   84SOL    HW2 1152   6.349   2.674   3.439
   85SOL     OW 1153   1.722   1.140   4.017
   85SOL    HW1 1154   1.756   1.057   4.060
   85SOL    HW2 1155   1.749   1.143   3.921
   86SOL     OW 1156   0.538   1.488   6.323
   86SOL    HW1 1157   0.473   1.469   6.396
   86SOL    HW2 1158   0.495   1.549   6.256
   87SOL     OW 1159   4.679   4.480   1.209
   87SOL    HW1 1160   4.771   4.511   1.187
   87SOL    HW2 1161   4.670   4.469   1.308
   88SOL     OW 1162   3.675   1.864   6.057
   88SOL    HW1 1163   3.588   1.858   6.106
   88SOL    HW2 1164   3.657   1.860   5.958
   89SOL     OW 1165   2.368   2.625   6.387
   89SOL    HW1 1166   2.431   2.701   6.375
   89SOL    HW2 1167   2.350   2.582   6.299
   90SOL     OW 1168   4.272   4.977   2.288
   90SOL    HW1 1169   4.303   4.939   2.201
   90SOL    HW2 1170   4.348   4.981   2.353
   91SOL     OW 1171   5.989   3.909   5.915
   91SOL    HW1 1172   5.929   3.833   5.892
   91SOL    HW2 1173   6.082   3.888   5.885
   92SOL     OW 1174   4.364   4.694   0.709
   92SOL    HW1 1175   4.442   4.642   0.674
   92SOL    HW2 1176   4.397   4.767   0.768
   93SOL     OW 1177   3.229   3.593   0.298
   93SOL    HW1 1178   3.268   3.508   0.334
   93SOL    HW2 1179   3.148   3.617   0.350
   94SOL     OW 1180   2.090   6.009   5.913
   94SOL    HW1 1181   2.067   5.984   5.819
   94SOL    HW2 1182   2.106   5.927   5.967
   95SOL     OW 1183   0.694   6.836   2.558
   95SOL    HW1 1184   0.792   6.826   2.540
   95SOL    HW2 1185   0.646   6.852   2.472
   96SOL     OW 1186   3.481   0.230   4.948
   96SOL    HW1 1187   3.574   0.261   4.927
   96SOL    HW2 1188   3.463   0.145   4.898
   97SOL     OW 1189   2.554   3.357   6.146
   97SOL    HW1 1190   2.454   3.357   6.149
   97SOL    HW2 1191   2.584   3.345   6.052
   98SOL     OW 1192   0.725   3.452   0.795
   98SOL    HW1 1193   0.681   3.363   0.788
   98SOL    HW2 1194   0.719   3.499   0.707
   99SOL     OW 1195   3.757   2.531   1.375
   99SOL    HW1 1196   3.673   2.478   1.363
   99SOL    HW2 1197   3.759   2.568   1.468
  100SOL     OW 1198   0.920   6.657   5.000
  100SOL    HW1 1199   0.874   6.589   4.942
  100SOL    HW2 1200   1.012   6.626   5.022
  101SOL     OW 1201   1.712   4.993   2.348
  101SOL    HW1 1202   1.741   5.019   2.256
  101SOL    HW2 1203   1.653   4.912   2.343
  102SOL     OW 1204   3.938   5.446   1.486
  102SOL    HW1 1205   3.851   5.460   1.534
  102SOL    HW2 1206   3.924   5.464   1.388
  103SOL     OW 1207   1.953   2.299   1.648
  103SOL    HW1 1208   1.928   2.228   1.714
  103SOL    HW2 1209   2.039   2.275   1.603
  104SOL     OW 1210   1.685   6.096   2.455
  104SOL    HW1 1211   1.764   6.156   2.471
  104SOL    HW2 1212   1.717   6.007   2.424
  105SOL     OW 1213   6.949   1.109   6.085
  105SOL    HW1 1214   7.014   1.047   6.130
  105SOL    HW2 1215   6.998   1.169   6.022
  106SOL     OW 1216   3.543   6.661   4.462
  106SOL    HW1 1217   3.459   6.620   4.426
  106SOL    HW2 1218   3.623   6.613   4.425
  107SOL     OW 1219   0.927   1.209   0.931
  107SOL    HW1 1220   0.960   1.122   0.968
  107SOL    HW2 1221   0.847   1.240   0.983
  108SOL     OW 1222   2.812   6.859   5.868
  108SOL    HW1 1223   2.901   6.861   5.913
  108SOL    HW2 1224   2.781   6.764   5.859
  109SOL     OW 1225   1.070   1.128   2.630
  109SOL    HW1 1226   1.096   1.032   2.639
  109SOL    HW2 1227   1.126   1.172   2.561
  110SOL     OW 1228   3.212   5.932   4.124
  110SOL    HW1 1229   3.137   5.878   4.087
  110SOL    HW2 1230   3.290   5.873   4.143
  111SOL     OW 1231   1.533   1.333   4.156
  111SOL    HW1 1232   1.556   1.306   4.250
  111SOL    HW2 1233   1.561   1.261   4.093
  112SOL     OW 1234   3.139   6.168   6.331
  112SOL    HW1 1235   3.158   6.075   6.300
  112SOL    HW2 1236   3.192   6.233   6.276
  113SOL     OW 1237   0.742   5.271   2.534
  113SOL    HW1 1238   0.655   5.290   2.578
  113SOL    HW2 1239   0.791   5.200   2.584
  114SOL     OW 1240   1.381   6.841   2.432
  114SOL    HW1 1241   1.432   6.914   2.478
  114SOL    HW2 1242   1.386   6.757   2.486
  115SOL     OW 1243   4.684   1.203   3.245
  115SOL    HW1 1244   4.694   1.165   3.152
  115SOL    HW2 1245   4.731   1.291   3.250
  116SOL     OW 1246   6.046   5.612   1.830
  116SOL    HW1 1247   6.019   5.575   1.918
  116SOL    HW2 1248   6.119   5.680   1.843
  117SOL     OW 1249   1.783   1.854   0.687
  117SOL    HW1 1250   1.846   1.924   0.656
  117SOL    HW2 1251   1.689   1.883   0.671
  118SOL     OW 1252   1.693   0.556   2.552
  118SOL    HW1 1253   1.631   0.541   2.630
  118SOL    HW2 1254   1.658   0.630   2.495
  119SOL     OW 1255   0.703   0.614   6.959
  119SOL    HW1 1256   0.746   0.630   0.032
  119SOL    HW2 1257   0.712   0.517   6.936
  120SOL     OW 1258   5.966   0.308   6.474
  120SOL    HW1 1259   5.889   0.245   6.463
  120SOL    HW2 1260   6.002   0.332   6.383
  121SOL     OW 1261   1.881   3.379   6.446
  121SOL    HW1 1262   1.970   3.375   6.401
  121SOL    HW2 1263   1.865   3.472   6.480
  122SOL     OW 1264   1.393   3.710   6.799
  122SOL    HW1 1265   1.482   3.746   6.827
  122SOL    HW2 1266   1.321   3.775   6.826
  123SOL     OW 1267   0.792   1.009   2.870
  123SOL    HW1 1268   0.718   1.011   2.937
  123SOL    HW2 1269   0.757   0.979   2.782
  124SOL     OW 1270   3.658   2.556   0.530
  124SOL    HW1 1271   3.724   2.505   0.585
  124SOL    HW2 1272   3.587   2.493   0.496
  125SOL     OW 1273   3.594   1.829   0.799
  125SOL    HW1 1274   3.687   1.846   0.829
  125SOL    HW2 1275   3.569   1.734   0.818
  126SOL     OW 1276   1.929   4.106   0.809
  126SOL    HW1 1277   1.881   4.085   0.724
  126SOL    HW2 1278   1.894   4.192   0.847
  127SOL     OW 1279   0.861   4.572   0.012
  127SOL    HW1 1280   0.880   4.500   6.962
  127SOL    HW2 1281   0.784   4.627   6.996
  128SOL     OW 1282   5.037   2.148   1.351
  128SOL    HW1 1283   4.958   2.182   1.300
  128SOL    HW2 1284   5.011   2.066   1.403
  129SOL     OW 1285   3.124   3.385   6.305
  129SOL    HW1 1286   3.059   3.367   6.379
  129SOL    HW2 1287   3.140   3.483   6.299
  130SOL     OW 1288   1.375   2.007   4.139
  130SOL    HW1 1289   1.302   1.980   4.077
  130SOL    HW2 1290   1.336   2.033   4.228
  131SOL     OW 1291   4.948   0.314   3.328
  131SOL    HW1 1292   5.028   0.371   3.309
  131SOL    HW2 1293   4.880   0.329   3.257
  132SOL     OW 1294   2.958   3.197   1.761
  132SOL    HW1 1295   2.873   3.169   1.716
  132SOL    HW2 1296   3.004   3.116   1.797
  133SOL     OW 1297   5.431   1.234   4.229
  133SOL    HW1 1298   5.483   1.172   4.170
  133SOL    HW2 1299   5.381   1.299   4.171
  134SOL     OW 1300   6.941   1.127   2.589
  134SOL    HW1 1301   6.980   1.063   2.523
  134SOL    HW2 1302   6.887   1.196   2.541
  135SOL     OW 1303   5.707   3.909   3.888
  135SOL    HW1 1304   5.632   3.851   3.919
  135SOL    HW2 1305   5.783   3.852   3.858
  136SOL     OW 1306   2.181   5.313   5.125
  136SOL    HW1 1307   2.168   5.405   5.089
  136SOL    HW2 1308   2.180   5.316   5.225
  137SOL     OW 1309   5.443   1.296   3.054
  137SOL    HW1 1310   5.534   1.316   3.019
  137SOL    HW2 1311   5.411   1.210   3.014
  138SOL     OW 1312   1.164   3.966   2.676
  138SOL    HW1 1313   1.137   3.980   2.771
  138SOL    HW2 1314   1.191   3.871   2.662
  139SOL     OW 1315   1.313   0.176   5.343
  139SOL    HW1 1316   1.302   0.164   5.245
  139SOL    HW2 1317   1.400   0.222   5.362
  140SOL     OW 1318   1.241   6.806   3.675
  140SOL    HW1 1319   1.143   6.824   3.672
  140SOL    HW2 1320   1.274   6.817   3.768
  141SOL     OW 1321   0.191   2.748   5.103
  141SOL    HW1 1322   0.257   2.789   5.040
  141SOL    HW2 1323   0.156   2.818   5.166
  142SOL     OW 1324   1.057   4.309   1.314
  142SOL    HW1 1325   0.999   4.384   1.348
  142SOL    HW2 1326   1.149   4.319   1.352
  143SOL     OW 1327   5.713   3.767   0.558
  143SOL    HW1 1328   5.801   3.796   0.519
  143SOL    HW2 1329   5.706   3.801   0.653
  144SOL     OW 1330   1.016   4.791   5.790
  144SOL    HW1 1331   1.097   4.733   5.789
  144SOL    HW2 1332   1.010   4.839   5.877
  145SOL     OW 1333   0.717   5.203   1.026
  145SOL    HW1 1334   0.667   5.230   1.109
  145SOL    HW2 1335   0.714   5.278   0.960
  146SOL     OW 1336   4.490   0.769   6.035
  146SOL    HW1 1337   4.569   0.818   5.998
  146SOL    HW2 1338   4.505   0.671   6.030
  147SOL     OW 1339   5.196   3.310   6.190
  147SOL    HW1 1340   5.108   3.340   6.226
  147SOL    HW2 1341   5.261   3.298   6.265
  148SOL     OW 1342   6.784   5.324   0.941
  148SOL    HW1 1343   6.740   5.265   1.009
  148SOL    HW2 1344   6.735   5.316   0.854
  149SOL     OW 1345   3.745   2.162   3.990
  149SOL    HW1 1346   3.681   2.231   3.957
  149SOL    HW2 1347   3.830   2.169   3.938
  150SOL     OW 1348   5.767   0.330   0.722
  150SOL    HW1 1349   5.799   0.236   0.730
  150SOL    HW2 1350   5.678   0.339   0.766
  151SOL     OW 1351   3.260   1.712   1.436
  151SOL    HW1 1352   3.293   1.682   1.525
  151SOL    HW2 1353   3.196   1.644   1.400
  152SOL     OW 1354   0.014   0.929   1.696
  152SOL    HW1 1355   0.053   0.896   1.782
  152SOL    HW2 1356   6.943   0.974   1.713
  153SOL     OW 1357   3.397   0.793   3.475
  153SOL    HW1 1358   3.483   0.840   3.458
  153SOL    HW2 1359   3.333   0.812   3.401
  154SOL     OW 1360   0.689   3.088   1.718
  154SOL    HW1 1361   0.704   3.180   1.683
  154SOL    HW2 1362   0.776   3.038   1.718
  155SOL     OW 1363   0.546   1.596   4.765
  155SOL    HW1 1364   0.521   1.653   4.687
  155SOL    HW2 1365   0.625   1.635   4.812
  156SOL     OW 1366   0.062   0.598   1.110
  156SOL    HW1 1367   0.136   0.544   1.071
  156SOL    HW2 1368   0.099   0.683   1.148
  157SOL     OW 1369   5.385   2.759   1.691
  157SOL    HW1 1370   5.403   2.696   1.766
  157SOL    HW2 1371   5.377   2.852   1.726
  158SOL     OW 1372   1.807   3.519   2.013
  158SOL    HW1 1373   1.806   3.526   1.914
  158SOL    HW2 1374   1.899   3.541   2.047
  159SOL     OW 1375   4.671   4.140   2.680
  159SOL    HW1 1376   4.627   4.228   2.698
  159SOL    HW2 1377   4.685   4.129   2.582
  160SOL     OW 1378   5.402   5.994   0.802
  160SOL    HW1 1379   5.313   6.025   0.770
  160SOL    HW2 1380   5.423   5.905   0.763
  161SOL     OW 1381   1.793   6.217   3.229
  161SOL    HW1 1382   1.770   6.201   3.134
  161SOL    HW2 1383   1.785   6.314   3.251
  162SOL     OW 1384   3.488   6.512   0.345
  162SOL    HW1 1385   3.395   6.538   0.368
  162SOL    HW2 1386   3.525   6.575   0.276
  163SOL     OW 1387   6.380   5.228   1.403
  163SOL    HW1 1388   6.358   5.226   1.305
  163SOL    HW2 1389   6.361   5.320   1.439
  164SOL     OW 1390   0.178   4.452   1.904
  164SOL    HW1 1391   0.148   4.547   1.906
  164SOL    HW2 1392   0.195   4.421   1.998
  165SOL     OW 1393   5.099   3.375   1.277
  165SOL    HW1 1394   5.001   3.390   1.284
  165SOL    HW2 1395   5.144   3.407   1.361
  166SOL     OW 1396   1.595   3.728   2.153
  166SOL    HW1 1397   1.504   3.694   2.176
  166SOL    HW2 1398   1.619   3.699   2.061
  167SOL     OW 1399   4.788   3.721   6.747
  167SOL    HW1 1400   4.834   3.701   6.661
  167SOL    HW2 1401   4.849   3.697   6.823
  168SOL     OW 1402   3.254   2.926   0.746
  168SOL    HW1 1403   3.251   2.829   0.767
  168SOL    HW2 1404   3.287   2.977   0.826
  169SOL     OW 1405   5.709   1.898   1.778
  169SOL    HW1 1406   5.702   1.933   1.872
  169SOL    HW2 1407   5.797   1.853   1.766
  170SOL     OW 1408   0.373   6.898   2.850
  170SOL    HW1 1409   0.347   6.871   2.757
  170SOL    HW2 1410   0.468   6.928   2.851
  171SOL     OW 1411   2.217   4.479   6.862
  171SOL    HW1 1412   2.261   4.490   6.950
  171SOL    HW2 1413   2.275   4.423   6.802
  172SOL     OW 1414   6.581   1.105   2.882
  172SOL    HW1 1415   6.670   1.061   2.871
  172SOL    HW2 1416   6.508   1.040   2.860
  173SOL     OW 1417   6.538   1.065   4.249
  173SOL    HW1 1418   6.511   1.127   4.176
  173SOL    HW2 1419   6.635   1.079   4.271
  174SOL     OW 1420   3.989   5.709   3.896
  174SOL    HW1 1421   4.011   5.754   3.809
  174SOL    HW2 1422   3.903   5.659   3.888
  175SOL     OW 1423   3.086   6.993   2.125
  175SOL    HW1 1424   2.991   6.981   2.096
  175SOL    HW2 1425   3.135   0.032   2.057
  176SOL     OW 1426   6.604   4.147   0.837
  176SOL    HW1 1427   6.610   4.199   0.752
  176SOL    HW2 1428   6.681   4.171   0.897
  177SOL     OW 1429   6.463   3.071   3.287
  177SOL    HW1 1430   6.513   2.995   3.246
  177SOL    HW2 1431   6.465   3.063   3.387
  178SOL     OW 1432   2.867   3.704   6.257
  178SOL    HW1 1433   2.952   3.754   6.249
  178SOL    HW2 1434   2.831   3.712   6.350
  179SOL     OW 1435   4.364   1.691   5.688
  179SOL    HW1 1436   4.285   1.752   5.685
  179SOL    HW2 1437   4.374   1.645   5.600
  180SOL     OW 1438   2.222   6.666   0.260
  180SOL    HW1 1439   2.284   6.726   0.209
  180SOL    HW2 1440   2.147   6.637   0.200
  181SOL     OW 1441   3.423   3.227   5.691
  181SOL    HW1 1442   3.342   3.195   5.740
  181SOL    HW2 1443   3.496   3.158   5.699
  182SOL     OW 1444   3.570   1.811   5.221
  182SOL    HW1 1445   3.582   1.841   5.126
  182SOL    HW2 1446   3.477   1.833   5.251
  183SOL     OW 1447   3.702   2.130   3.047
  183SOL    HW1 1448   3.660   2.075   3.120
  183SOL    HW2 1449   3.643   2.129   2.967
  184SOL     OW 1450   0.895   6.699   4.578
  184SOL    HW1 1451   0.855   6.630   4.638
  184SOL    HW2 1452   0.849   6.697   4.489
  185SOL     OW 1453   0.462   1.209   6.209
  185SOL    HW1 1454   0.445   1.235   6.304
  185SOL    HW2 1455   0.520   1.127   6.207
  186SOL     OW 1456   5.954   0.809   4.105
  186SOL    HW1 1457   6.009   0.738   4.149
  186SOL    HW2 1458   6.009   0.891   4.091
  187SOL     OW 1459   5.202   0.162   2.573
  187SOL    HW1 1460   5.123   0.160   2.634
  187SOL    HW2 1461   5.252   0.076   2.580
  188SOL     OW 1462   1.077   2.905   3.061
  188SOL    HW1 1463   1.158   2.958   3.038
  188SOL    HW2 1464   1.002   2.931   3.001
  189SOL     OW 1465   2.848   5.328   1.182
  189SOL    HW1 1466   2.924   5.264   1.193
  189SOL    HW2 1467   2.858   5.403   1.247
  190SOL     OW 1468   4.945   2.691   5.295
  190SOL    HW1 1469   5.001   2.623   5.248
  190SOL    HW2 1470   4.914   2.653   5.383
  191SOL     OW 1471   6.078   0.286   6.730
  191SOL    HW1 1472   6.071   0.284   6.630
  191SOL    HW2 1473   6.133   0.365   6.757
  192SOL     OW 1474   0.893   5.251   1.888
  192SOL    HW1 1475   0.986   5.267   1.856
  192SOL    HW2 1476   0.866   5.325   1.949
  193SOL     OW 1477   4.537   3.429   5.325
  193SOL    HW1 1478   4.482   3.512   5.337
  193SOL    HW2 1479   4.619   3.452   5.273
  194SOL     OW 1480   4.186   0.633   2.610
  194SOL    HW1 1481   4.110   0.688   2.644
  194SOL    HW2 1482   4.226   0.582   2.686
  195SOL     OW 1483   1.671   0.204   4.107
  195SOL    HW1 1484   1.729   0.285   4.113
  195SOL    HW2 1485   1.667   0.159   4.197
  196SOL     OW 1486   3.164   0.374   0.872
  196SOL    HW1 1487   3.117   0.326   0.947
  196SOL    HW2 1488   3.175   0.471   0.896
  197SOL     OW 1489   2.288   0.027   1.357
  197SOL    HW1 1490   2.237   6.965   1.320
  197SOL    HW2 1491   2.304   0.094   1.285
  198SOL     OW 1492   5.374   6.864   1.400
  198SOL    HW1 1493   5.402   6.782   1.350
  198SOL    HW2 1494   5.298   6.908   1.351
  199SOL     OW 1495   7.005   1.180   3.145
  199SOL    HW1 1496   6.960   1.258   3.102
  199SOL    HW2 1497   0.003   1.200   3.242
  200SOL     OW 1498   1.048   4.627   2.105
  200SOL    HW1 1499   1.078   4.684   2.181
  200SOL    HW2 1500   0.955   4.652   2.079
  201SOL     OW 1501   6.379   6.502   6.164
  201SOL    HW1 1502   6.478   6.514   6.157
  201SOL    HW2 1503   6.335   6.592   6.171
  202SOL     OW 1504   4.532   0.474   6.433
  202SOL    HW1 1505   4.607   0.479   6.366
  202SOL    HW2 1506   4.521   0.379   6.461
  203SOL     OW 1507   4.404   2.390   4.422
  203SOL    HW1 1508   4.338   2.318   4.440
  203SOL    HW2 1509   4.466   2.400   4.499
  204SOL     OW 1510   0.874   0.877   6.603
  204SOL    HW1 1511   0.904   0.805   6.540
  204SOL    HW2 1512   0.776   0.894   6.589
  205SOL     OW 1513   0.635   1.333   3.105
  205SOL    HW1 1514   0.627   1.391   3.186
  205SOL    HW2 1515   0.650   1.238   3.134
  206SOL     OW 1516   6.842   4.718   1.095
  206SOL    HW1 1517   6.849   4.621   1.069
  206SOL    HW2 1518   6.934   4.756   1.106
  207SOL     OW 1519   5.355   1.369   3.475
  207SOL    HW1 1520   5.278   1.431   3.495
  207SOL    HW2 1521   5.320   1.278   3.456
  208SOL     OW 1522   5.667   2.741   5.108
  208SOL    HW1 1523   5.715   2.654   5.118
  208SOL    HW2 1524   5.636   2.751   5.013
  209SOL     OW 1525   0.263   4.600   3.776
  209SOL    HW1 1526   0.322   4.648   3.841
  209SOL    HW2 1527   0.174   4.582   3.819
  210SOL     OW 1528   3.943   1.685   0.681
  210SOL    HW1 1529   3.890   1.749   0.736
  210SOL    HW2 1530   4.020   1.650   0.735
  211SOL     OW 1531   2.534   6.303   3.103
  211SOL    HW1 1532   2.554   6.287   3.199
  211SOL    HW2 1533   2.599   6.253   3.046
  212SOL     OW 1534   1.217   4.326   1.878
  212SOL    HW1 1535   1.248   4.412   1.918
  212SOL    HW2 1536   1.201   4.339   1.780
  213SOL     OW 1537   3.206   0.482   6.962
  213SOL    HW1 1538   3.183   0.414   6.893
  213SOL    HW2 1539   3.183   0.573   6.928
  214SOL     OW 1540   4.496   5.096   1.458
  214SOL    HW1 1541   4.435   5.174   1.473
  214SOL    HW2 1542   4.524   5.058   1.546
  215SOL     OW 1543   1.920   3.540   1.059
  215SOL    HW1 1544   1.998   3.573   1.007
  215SOL    HW2 1545   1.876   3.464   1.010
  216SOL     OW 1546   2.319   6.008   3.941
  216SOL    HW1 1547   2.336   5.913   3.915
  216SOL    HW2 1548   2.302   6.062   3.859
  217SOL     OW 1549   2.240   2.403   4.065
  217SOL    HW1 1550   2.240   2.306   4.040
  217SOL    HW2 1551   2.149   2.428   4.099
  218SOL     OW 1552   0.623   3.598   4.362
  218SOL    HW1 1553   0.550   3.634   4.420
  218SOL    HW2 1554   0.710   3.640   4.388
  219SOL     OW 1555   4.712   6.405   6.150
  219SOL    HW1 1556   4.703   6.495   6.106
  219SOL    HW2 1557   4.622   6.364   6.159
  220SOL     OW 1558   3.746   6.968   1.067
  220SOL    HW1 1559   3.665   7.001   1.018
  220SOL    HW2 1560   3.803   6.915   1.005
  221SOL     OW 1561   6.072   3.003   1.428
  221SOL    HW1 1562   6.165   3.040   1.426
  221SOL    HW2 1563   6.054   2.963   1.518
  222SOL     OW 1564   2.486   4.940   4.926
  222SOL    HW1 1565   2.519   4.877   4.997
  222SOL    HW2 1566   2.487   4.894   4.837
  223SOL     OW 1567   5.604   2.638   0.190
  223SOL    HW1 1568   5.590   2.671   0.283
  223SOL    HW2 1569   5.699   2.609   0.179
  224SOL     OW 1570   2.260   2.251   4.672
  224SOL    HW1 1571   2.193   2.195   4.623
  224SOL    HW2 1572   2.272   2.215   4.765
  225SOL     OW 1573   4.691   2.943   6.322
  225SOL    HW1 1574   4.649   3.034   6.324
  225SOL    HW2 1575   4.622   2.876   6.294
  226SOL     OW 1576   0.960   0.881   6.170
  226SOL    HW1 1577   1.048   0.914   6.205
  226SOL    HW2 1578   0.921   0.815   6.235
  227SOL     OW 1579   1.477   3.513   3.189
  227SOL    HW1 1580   1.563   3.563   3.182
  227SOL    HW2 1581   1.409   3.572   3.233
  228SOL     OW 1582   3.062   6.299   3.920
  228SOL    HW1 1583   3.014   6.365   3.978
  228SOL    HW2 1584   3.119   6.347   3.855
  229SOL     OW 1585   5.012   5.786   7.004
  229SOL    HW1 1586   5.011   5.745   6.912
  229SOL    HW2 1587   4.921   5.779   0.028
  230SOL     OW 1588   3.299   4.895   3.683
  230SOL    HW1 1589   3.216   4.881   3.738
  230SOL    HW2 1590   3.279   4.879   3.587
  231SOL     OW 1591   6.067   2.150   6.996
  231SOL    HW1 1592   6.091   2.186   6.905
  231SOL    HW2 1593   6.122   2.068   7.014
  232SOL     OW 1594   0.953   3.600   6.613
  232SOL    HW1 1595   1.047   3.581   6.583
  232SOL    HW2 1596   0.902   3.514   6.619
  233SOL     OW 1597   2.533   1.935   3.531
  233SOL    HW1 1598   2.487   1.850   3.559
  233SOL    HW2 1599   2.565   1.984   3.612
  234SOL     OW 1600   5.015   0.059   4.940
  234SOL    HW1 1601   5.043   0.032   4.848
  234SOL    HW2 1602   4.962   7.001   4.981
  235SOL     OW 1603   3.653   3.003   1.698
  235SOL    HW1 1604   3.673   2.957   1.612
  235SOL    HW2 1605   3.667   2.939   1.774
  236SOL     OW 1606   4.323   3.067   6.926
  236SOL    HW1 1607   4.332   3.167   6.926
  236SOL    HW2 1608   4.401   3.026   6.881
  237SOL     OW 1609   5.889   4.975   1.996
  237SOL    HW1 1610   5.951   5.002   1.922
  237SOL    HW2 1611   5.855   4.882   1.980
  238SOL     OW 1612   5.008   1.689   0.558
  238SOL    HW1 1613   5.043   1.744   0.482
  238SOL    HW2 1614   5.056   1.713   0.642
  239SOL     OW 1615   0.376   5.545   6.359
  239SOL    HW1 1616   0.414   5.459   6.392
  239SOL    HW2 1617   0.310   5.580   6.426
  240SOL     OW 1618   0.535   2.632   3.586
  240SOL    HW1 1619   0.490   2.712   3.545
  240SOL    HW2 1620   0.465   2.564   3.610
  241SOL     OW 1621   1.710   0.237   4.693
  241SOL    HW1 1622   1.758   0.281   4.617
  241SOL    HW2 1623   1.648   0.303   4.736
  242SOL     OW 1624   3.308   3.302   5.216
  242SOL    HW1 1625   3.361   3.231   5.263
  242SOL    HW2 1626   3.212   3.274   5.212
  243SOL     OW 1627   3.884   0.317   5.719
  243SOL    HW1 1628   3.900   0.246   5.651
  243SOL    HW2 1629   3.812   0.287   5.782
  244SOL     OW 1630   5.613   2.270   4.572
  244SOL    HW1 1631   5.589   2.205   4.644
  244SOL    HW2 1632   5.580   2.361   4.596
  245SOL     OW 1633   6.441   3.530   4.245
  245SOL    HW1 1634   6.531   3.572   4.254
  245SOL    HW2 1635   6.371   3.593   4.279
  246SOL     OW 1636   5.064   2.559   3.289
  246SOL    HW1 1637   5.069   2.612   3.373
  246SOL    HW2 1638   5.069   2.461   3.310
  247SOL     OW 1639   2.803   2.017   1.783
  247SOL    HW1 1640   2.901   2.011   1.802
  247SOL    HW2 1641   2.765   2.098   1.827
  248SOL     OW 1642   3.856   2.178   2.597
  248SOL    HW1 1643   3.945   2.159   2.555
  248SOL    HW2 1644   3.868   2.190   2.695
  249SOL     OW 1645   4.290   0.001   5.214
  249SOL    HW1 1646   4.250   0.059   5.143
  249SOL    HW2 1647   4.337   6.940   5.170
  250SOL     OW 1648   5.348   2.525   1.025
  250SOL    HW1 1649   5.264   2.471   1.021
  250SOL    HW2 1650   5.328   2.619   0.995
  251SOL     OW 1651   4.323   3.709   5.807
  251SOL    HW1 1652   4.262   3.668   5.874
  251SOL    HW2 1653   4.339   3.644   5.732
  252SOL     OW 1654   6.497   6.662   6.709
  252SOL    HW1 1655   6.471   6.591   6.643
  252SOL    HW2 1656   6.586   6.639   6.749
  253SOL     OW 1657   2.747   4.637   0.011
  253SOL    HW1 1658   2.656   4.664   6.994
  253SOL    HW2 1659   2.786   4.569   6.965
  254SOL     OW 1660   4.978   3.037   3.199
  254SOL    HW1 1661   5.056   3.068   3.144
  254SOL    HW2 1662   5.010   2.972   3.268
  255SOL     OW 1663   1.789   3.159   4.501
  255SOL    HW1 1664   1.839   3.231   4.550
  255SOL    HW2 1665   1.763   3.087   4.565
  256SOL     OW 1666   6.639   4.114   6.167
  256SOL    HW1 1667   6.708   4.156   6.108
  256SOL    HW2 1668   6.635   4.165   6.253
  257SOL     OW 1669   5.288   6.505   3.811
  257SOL    HW1 1670   5.358   6.438   3.787
  257SOL    HW2 1671   5.284   6.576   3.741
  258SOL     OW 1672   0.961   4.871   4.611
  258SOL    HW1 1673   1.011   4.940   4.558
  258SOL    HW2 1674   1.004   4.862   4.701
  259SOL     OW 1675   1.476   1.836   2.603
  259SOL    HW1 1676   1.546   1.907   2.594
  259SOL    HW2 1677   1.386   1.879   2.612
  260SOL     OW 1678   4.366   1.112   0.949
  260SOL    HW1 1679   4.422   1.132   0.868
  260SOL    HW2 1680   4.380   1.184   1.017
  261SOL     OW 1681   6.077   3.758   0.034
  261SOL    HW1 1682   6.070   3.659   0.051
  261SOL    HW2 1683   6.165   3.791   0.069
  262SOL     OW 1684   6.607   4.455   0.667
  262SOL    HW1 1685   6.690   4.490   0.624
  262SOL    HW2 1686   6.528   4.504   0.631
  263SOL     OW 1687   0.422   1.383   3.641
  263SOL    HW1 1688   0.505   1.431   3.668
  263SOL    HW2 1689   0.428   1.355   3.546
  264SOL     OW 1690   4.773   3.348   6.578
  264SOL    HW1 1691   4.787   3.443   6.552
  264SOL    HW2 1692   4.786   3.338   6.677
  265SOL     OW 1693   4.599   5.154   2.986
  265SOL    HW1 1694   4.648   5.067   2.978
  265SOL    HW2 1695   4.642   5.223   2.928
  266SOL     OW 1696   3.403   3.062   5.377
  266SOL    HW1 1697   3.364   2.984   5.329
  266SOL    HW2 1698   3.419   3.038   5.473
  267SOL     OW 1699   0.248   1.897   6.358
  267SOL    HW1 1700   0.230   1.839   6.278
  267SOL    HW2 1701   0.342   1.930   6.355
  268SOL     OW 1702   3.901   0.478   5.144
  268SOL    HW1 1703   3.997   0.500   5.162
  268SOL    HW2 1704   3.873   0.400   5.200
  269SOL     OW 1705   1.528   3.323   0.968
  269SOL    HW1 1706   1.548   3.409   1.015
  269SOL    HW2 1707   1.458   3.338   0.899
  270SOL     OW 1708   0.154   0.723   0.224
  270SOL    HW1 1709   0.191   0.691   0.311
  270SOL    HW2 1710   0.059   0.752   0.237
  271SOL     OW 1711   1.793   1.682   0.286
  271SOL    HW1 1712   1.846   1.696   0.370
  271SOL    HW2 1713   1.714   1.624   0.307
  272SOL     OW 1714   3.149   4.943   4.708
  272SOL    HW1 1715   3.248   4.928   4.703
  272SOL    HW2 1716   3.106   4.866   4.755
  273SOL     OW 1717   1.946   4.245   5.083
  273SOL    HW1 1718   1.924   4.185   5.006
  273SOL    HW2 1719   1.969   4.336   5.048
  274SOL     OW 1720   4.953   1.850   3.102
  274SOL    HW1 1721   4.935   1.926   3.039
  274SOL    HW2 1722   4.983   1.886   3.190
  275SOL     OW 1723   6.277   4.463   5.389
  275SOL    HW1 1724   6.225   4.417   5.317
  275SOL    HW2 1725   6.290   4.401   5.466
  276SOL     OW 1726   6.998   5.395   2.516
  276SOL    HW1 1727   0.023   5.482   2.543
  276SOL    HW2 1728   6.899   5.407   2.505
  277SOL     OW 1729   1.504   3.990   0.928
  277SOL    HW1 1730   1.513   3.910   0.987
  277SOL    HW2 1731   1.456   3.964   0.844
  278SOL     OW 1732   6.794   4.932   1.354
  278SOL    HW1 1733   6.734   4.886   1.289
  278SOL    HW2 1734   6.753   5.019   1.382
  279SOL     OW 1735   6.243   2.991   4.771
  279SOL    HW1 1736   6.171   3.043   4.817
  279SOL    HW2 1737   6.201   2.930   4.704
  280SOL     OW 1738   2.489   6.735   2.900
  280SOL    HW1 1739   2.477   6.658   2.837
  280SOL    HW2 1740   2.549   6.803   2.858
  281SOL     OW 1741   3.226   4.902   1.879
  281SOL    HW1 1742   3.303   4.924   1.819
  281SOL    HW2 1743   3.160   4.845   1.829
  282SOL     OW 1744   3.688   1.562   5.258
  282SOL    HW1 1745   3.638   1.648   5.257
  282SOL    HW2 1746   3.780   1.576   5.221
  283SOL     OW 1747   6.900   1.127   5.646
  283SOL    HW1 1748   6.852   1.209   5.679
  283SOL    HW2 1749   6.843   1.047   5.662
  284SOL     OW 1750   1.046   4.191   4.434
  284SOL    HW1 1751   1.038   4.280   4.390
  284SOL    HW2 1752   0.974   4.179   4.502
  285SOL     OW 1753   5.585   5.086   5.655
  285SOL    HW1 1754   5.601   4.988   5.666
  285SOL    HW2 1755   5.665   5.127   5.611
  286SOL     OW 1756   3.391   5.651   4.966
  286SOL    HW1 1757   3.420   5.590   5.040
  286SOL    HW2 1758   3.298   5.683   4.984
  287SOL     OW 1759   0.507   4.530   0.119
  287SOL    HW1 1760   0.520   4.436   0.087
  287SOL    HW2 1761   0.415   4.561   0.095
  288SOL     OW 1762   4.004   1.945   6.102
  288SOL    HW1 1763   3.937   1.894   6.048
  288SOL    HW2 1764   4.068   1.882   6.145
  289SOL     OW 1765   0.066   5.296   4.902
  289SOL    HW1 1766   0.038   5.206   4.934
  289SOL    HW2 1767   0.125   5.339   4.970
  290SOL     OW 1768   5.579   1.476   4.044
  290SOL    HW1 1769   5.617   1.535   3.973
  290SOL    HW2 1770   5.493   1.436   4.012
  291SOL     OW 1771   1.949   2.068   4.822
  291SOL    HW1 1772   1.982   2.070   4.728
  291SOL    HW2 1773   1.863   2.017   4.827
  292SOL     OW 1774   1.743   2.142   3.054
  292SOL    HW1 1775   1.697   2.206   3.115
  292SOL    HW2 1776   1.839   2.132   3.082
  293SOL     OW 1777   4.580   4.726   1.870
  293SOL    HW1 1778   4.520   4.647   1.876
  293SOL    HW2 1779   4.598   4.747   1.774
  294SOL     OW 1780   6.594   5.513   6.048
  294SOL    HW1 1781   6.574   5.473   6.138
  294SOL    HW2 1782   6.520   5.575   6.022
  295SOL     OW 1783   3.311   1.706   4.182
  295SOL    HW1 1784   3.380   1.634   4.172
  295SOL    HW2 1785   3.327   1.777   4.113
  296SOL     OW 1786   5.705   2.025   2.019
  296SOL    HW1 1787   5.776   2.012   2.088
  296SOL    HW2 1788   5.655   2.110   2.038
  297SOL     OW 1789   2.931   4.974   3.066
  297SOL    HW1 1790   2.856   4.925   3.022
  297SOL    HW2 1791   2.911   4.987   3.163
  298SOL     OW 1792   3.409   5.893   0.380
  298SOL    HW1 1793   3.455   5.940   0.456
  298SOL    HW2 1794   3.475   5.875   0.307
  299SOL     OW 1795   3.741   3.610   6.377
  299SOL    HW1 1796   3.645   3.597   6.352
  299SOL    HW2 1797   3.782   3.521   6.397
  300SOL     OW 1798   5.498   0.677   1.979
  300SOL    HW1 1799   5.550   0.633   2.051
  300SOL    HW2 1800   5.407   0.701   2.013
  301SOL     OW 1801   5.674   2.996   0.711
  301SOL    HW1 1802   5.706   2.945   0.631
  301SOL    HW2 1803   5.654   3.090   0.684
  302SOL     OW 1804   0.426   0.995   3.373
  302SOL    HW1 1805   0.433   0.925   3.302
  302SOL    HW2 1806   0.330   1.016   3.389
  303SOL     OW 1807   6.577   6.773   1.799
  303SOL    HW1 1808   6.658   6.800   1.748
  303SOL    HW2 1809   6.496   6.788   1.742
  304SOL     OW 1810   1.869   0.325   5.191
  304SOL    HW1 1811   1.798   0.256   5.197
  304SOL    HW2 1812   1.905   0.327   5.097
  305SOL     OW 1813   0.392   3.314   0.336
  305SOL    HW1 1814   0.404   3.298   0.434
  305SOL    HW2 1815   0.309   3.368   0.321
  306SOL     OW 1816   2.023   0.431   3.749
  306SOL    HW1 1817   2.034   0.340   3.708
  306SOL    HW2 1818   2.086   0.495   3.707
  307SOL     OW 1819   4.988   6.180   0.319
  307SOL    HW1 1820   5.016   6.090   0.352
  307SOL    HW2 1821   4.899   6.174   0.275
  308SOL     OW 1822   6.274   3.098   4.440
  308SOL    HW1 1823   6.200   3.121   4.503
  308SOL    HW2 1824   6.245   3.115   4.346
  309SOL     OW 1825   2.818   5.814   6.594
  309SOL    HW1 1826   2.722   5.797   6.569
  309SOL    HW2 1827   2.877   5.789   6.518
  310SOL     OW 1828   6.155   6.812   5.261
  310SOL    HW1 1829   6.070   6.831   5.211
  310SOL    HW2 1830   6.165   6.713   5.273
  311SOL     OW 1831   4.759   4.784   3.020
  311SOL    HW1 1832   4.733   4.833   2.937
  311SOL    HW2 1833   4.784   4.690   2.996
  312SOL     OW 1834   4.162   1.351   4.633
  312SOL    HW1 1835   4.149   1.331   4.536
  312SOL    HW2 1836   4.177   1.266   4.683
  313SOL     OW 1837   3.085   3.976   2.280
  313SOL    HW1 1838   3.015   3.905   2.274
  313SOL    HW2 1839   3.134   3.983   2.193
  314SOL     OW 1840   3.521   5.573   6.859
  314SOL    HW1 1841   3.463   5.604   6.784
  314SOL    HW2 1842   3.528   5.473   6.857
  315SOL     OW 1843   1.332   2.673   3.902
  315SOL    HW1 1844   1.390   2.620   3.964
  315SOL    HW2 1845   1.333   2.769   3.929
  316SOL     OW 1846   2.999   1.667   4.141
  316SOL    HW1 1847   3.096   1.686   4.122
  316SOL    HW2 1848   2.965   1.599   4.077
  317SOL     OW 1849   0.193   0.855   1.148
  317SOL    HW1 1850   0.110   0.910   1.160
  317SOL    HW2 1851   0.274   0.912   1.164
  318SOL     OW 1852   1.160   5.462   6.525
  318SOL    HW1 1853   1.260   5.459   6.529
  318SOL    HW2 1854   1.131   5.460   6.429
  319SOL     OW 1855   6.759   0.673   3.589
  319SOL    HW1 1856   6.701   0.714   3.659
  319SOL    HW2 1857   6.703   0.614   3.530
  320SOL     OW 1858   6.160   2.197   0.606
  320SOL    HW1 1859   6.123   2.168   0.518
  320SOL    HW2 1860   6.119   2.285   0.632
  321SOL     OW 1861   3.938   1.524   6.946
  321SOL    HW1 1862   4.024   1.485   6.913
  321SOL    HW2 1863   3.862   1.467   6.914
  322SOL     OW 1864   4.046   3.140   4.476
  322SOL    HW1 1865   4.091   3.062   4.519
  322SOL    HW2 1866   4.077   3.225   4.518
  323SOL     OW 1867   1.032   3.141   6.416
  323SOL    HW1 1868   1.063   3.048   6.438
  323SOL    HW2 1869   1.014   3.147   6.318
  324SOL     OW 1870   2.523   1.372   5.122
  324SOL    HW1 1871   2.512   1.325   5.034
  324SOL    HW2 1872   2.443   1.428   5.140
  325SOL     OW 1873   1.046   2.810   2.042
  325SOL    HW1 1874   1.066   2.772   1.952
  325SOL    HW2 1875   0.955   2.781   2.071
  326SOL     OW 1876   1.377   5.150   0.078
  326SOL    HW1 1877   1.460   5.104   0.110
  326SOL    HW2 1878   1.352   5.113   7.004
  327SOL     OW 1879   1.626   4.963   3.648
  327SOL    HW1 1880   1.652   4.868   3.629
  327SOL    HW2 1881   1.527   4.974   3.638
  328SOL     OW 1882   1.366   5.180   2.100
  328SOL    HW1 1883   1.381   5.227   2.013
  328SOL    HW2 1884   1.268   5.181   2.122
  329SOL     OW 1885   3.839   4.129   4.866
  329SOL    HW1 1886   3.740   4.142   4.868
  329SOL    HW2 1887   3.872   4.107   4.959
  330SOL     OW 1888   3.479   0.089   1.709
  330SOL    HW1 1889   3.482   0.132   1.619
  330SOL    HW2 1890   3.408   0.018   1.709
  331SOL     OW 1891   3.441   4.886   0.907
  331SOL    HW1 1892   3.536   4.907   0.930
  331SOL    HW2 1893   3.416   4.932   0.822
  332SOL     OW 1894   4.183   1.751   5.097
  332SOL    HW1 1895   4.150   1.739   5.003
  332SOL    HW2 1896   4.277   1.718   5.105
  333SOL     OW 1897   3.243   6.933   6.034
  333SOL    HW1 1898   3.318   6.952   6.097
  333SOL    HW2 1899   3.280   6.920   5.941
  334SOL     OW 1900   2.779   0.566   1.601
  334SOL    HW1 1901   2.761   0.621   1.683
  334SOL    HW2 1902   2.839   0.616   1.539
  335SOL     OW 1903   4.121   6.969   4.788
  335SOL    HW1 1904   4.026   6.943   4.801
  335SOL    HW2 1905   4.141   0.036   4.840
  336SOL     OW 1906   1.832   0.611   3.406
  336SOL    HW1 1907   1.928   0.640   3.405
  336SOL    HW2 1908   1.780   0.668   3.344
  337SOL     OW 1909   0.382   2.758   0.142
  337SOL    HW1 1910   0.440   2.838   0.129
  337SOL    HW2 1911   0.377   2.735   0.239
  338SOL     OW 1912   2.715   2.439   1.452
  338SOL    HW1 1913   2.636   2.473   1.401
  338SOL    HW2 1914   2.701   2.342   1.474
  339SOL     OW 1915   3.120   6.255   3.479
  339SOL    HW1 1916   3.190   6.325   3.489
  339SOL    HW2 1917   3.029   6.298   3.477
  340SOL     OW 1918   4.793   4.534   5.446
  340SOL    HW1 1919   4.859   4.604   5.474
  340SOL    HW2 1920   4.837   4.472   5.381
  341SOL     OW 1921   6.763   1.027   4.649
  341SOL    HW1 1922   6.850   1.012   4.604
  341SOL    HW2 1923   6.746   0.953   4.715
  342SOL     OW 1924   5.613   3.557   6.722
  342SOL    HW1 1925   5.568   3.582   6.808
  342SOL    HW2 1926   5.712   3.557   6.735
  343SOL     OW 1927   2.074   5.218   0.802
  343SOL    HW1 1928   2.115   5.137   0.842
  343SOL    HW2 1929   2.009   5.190   0.730
  344SOL     OW 1930   1.027   5.002   2.078
  344SOL    HW1 1931   0.930   4.977   2.084
  344SOL    HW2 1932   1.080   4.947   2.142
  345SOL     OW 1933   4.813   1.560   3.585
  345SOL    HW1 1934   4.870   1.510   3.520
  345SOL    HW2 1935   4.767   1.635   3.538
  346SOL     OW 1936   2.452   0.649   2.792
  346SOL    HW1 1937   2.362   0.618   2.822
  346SOL    HW2 1938   2.456   0.749   2.793
  347SOL     OW 1939   3.095   5.493   6.307
  347SOL    HW1 1940   3.123   5.468   6.214
  347SOL    HW2 1941   3.077   5.409   6.359
  348SOL     OW 1942   5.374   3.872   2.472
  348SOL    HW1 1943   5.438   3.900   2.543
  348SOL    HW2 1944   5.420   3.813   2.406
  349SOL     OW 1945   6.944   4.781   0.632
  349SOL    HW1 1946   6.877   4.788   0.706
  349SOL    HW2 1947   0.004   4.843   0.651
  350SOL     OW 1948   3.610   3.634   0.970
  350SOL    HW1 1949   3.515   3.602   0.974
  350SOL    HW2 1950   3.671   3.560   0.995
  351SOL     OW 1951   1.500   2.882   0.470
  351SOL    HW1 1952   1.426   2.883   0.537
  351SOL    HW2 1953   1.588   2.875   0.517
  352SOL     OW 1954   2.793   1.195   4.538
  352SOL    HW1 1955   2.837   1.281   4.563
  352SOL    HW2 1956   2.699   1.213   4.510
  353SOL     OW 1957   2.592   6.400   0.573
  353SOL    HW1 1958   2.612   6.464   0.647
  353SOL    HW2 1959   2.600   6.306   0.606
  354SOL     OW 1960   3.485   2.776   0.558
  354SOL    HW1 1961   3.495   2.773   0.658
  354SOL    HW2 1962   3.551   2.714   0.516
  355SOL     OW 1963   0.899   3.586   2.922
  355SOL    HW1 1964   0.953   3.546   2.848
  355SOL    HW2 1965   0.847   3.664   2.888
  356SOL     OW 1966   3.118   6.945   5.595
  356SOL    HW1 1967   3.152   6.998   5.673
  356SOL    HW2 1968   3.192   6.886   5.560
  357SOL     OW 1969   0.093   6.653   5.363
  357SOL    HW1 1970   0.133   6.583   5.304
  357SOL    HW2 1971   0.093   6.741   5.315
  358SOL     OW 1972   4.729   0.425   1.176
  358SOL    HW1 1973   4.718   0.333   1.138
  358SOL    HW2 1974   4.659   0.441   1.245
  359SOL     OW 1975   1.681   2.513   1.985
  359SOL    HW1 1976   1.736   2.437   2.020
  359SOL    HW2 1977   1.742   2.586   1.954
  360SOL     OW 1978   0.657   5.310   6.516
  360SOL    HW1 1979   0.610   5.286   6.432
  360SOL    HW2 1980   0.708   5.395   6.503
  361SOL     OW 1981   5.933   5.782   2.988
  361SOL    HW1 1982   6.008   5.722   2.959
  361SOL    HW2 1983   5.908   5.761   3.083
  362SOL     OW 1984   4.029   3.928   1.997
  362SOL    HW1 1985   4.016   3.944   2.095
  362SOL    HW2 1986   4.005   3.833   1.975
  363SOL     OW 1987   5.220   4.711   3.809
  363SOL    HW1 1988   5.259   4.755   3.728
  363SOL    HW2 1989   5.290   4.656   3.854
  364SOL     OW 1990   5.993   5.345   5.904
  364SOL    HW1 1991   6.076   5.292   5.919
  364SOL    HW2 1992   5.952   5.368   5.992
  365SOL     OW 1993   5.426   5.893   2.389
  365SOL    HW1 1994   5.346   5.951   2.372
  365SOL    HW2 1995   5.421   5.856   2.482
  366SOL     OW 1996   6.564   0.779   6.197
  366SOL    HW1 1997   6.594   0.776   6.292
  366SOL    HW2 1998   6.611   0.853   6.149
  367SOL     OW 1999   4.567   3.066   1.150
  367SOL    HW1 2000   4.592   2.974   1.119
  367SOL    HW2 2001   4.605   3.083   1.240
  368SOL     OW 2002   0.223   3.824   5.214
  368SOL    HW1 2003   0.141   3.865   5.175
  368SOL    HW2 2004   0.265   3.762   5.148
  369SOL     OW 2005   6.588   5.517   1.120
  369SOL    HW1 2006   6.546   5.557   1.202
  369SOL    HW2 2007   6.649   5.442   1.147
  370SOL     OW 2008   2.581   1.541   6.245
  370SOL    HW1 2009   2.566   1.545   6.344
  370SOL    HW2 2010   2.521   1.607   6.199
  371SOL     OW 2011   2.736   3.702   6.526
  371SOL    HW1 2012   2.818   3.657   6.559
  371SOL    HW2 2013   2.672   3.634   6.490
  372SOL     OW 2014   1.046   6.524   6.096
  372SOL    HW1 2015   1.123   6.545   6.036
  372SOL    HW2 2016   0.962   6.520   6.043
  373SOL     OW 2017   6.994   6.408   4.257
  373SOL    HW1 2018   0.076   6.424   4.264
  373SOL    HW2 2019   6.973   6.368   4.168
  374SOL     OW 2020   2.672   1.884   2.845
  374SOL    HW1 2021   2.757   1.832   2.847
  374SOL    HW2 2022   2.678   1.960   2.911
  375SOL     OW 2023   0.830   4.664   3.752
  375SOL    HW1 2024   0.784   4.698   3.834
  375SOL    HW2 2025   0.871   4.575   3.772
  376SOL     OW 2026   2.167   1.523   4.844
  376SOL    HW1 2027   2.162   1.443   4.905
  376SOL    HW2 2028   2.077   1.565   4.837
  377SOL     OW 2029   0.737   1.848   1.451
  377SOL    HW1 2030   0.682   1.928   1.473
  377SOL    HW2 2031   0.810   1.838   1.518
  378SOL     OW 2032   3.091   2.401   5.598
  378SOL    HW1 2033   3.140   2.451   5.527
  378SOL    HW2 2034   3.012   2.454   5.629
  379SOL     OW 2035   6.075   4.393   0.700
  379SOL    HW1 2036   6.093   4.482   0.659
  379SOL    HW2 2037   6.074   4.323   0.629
  380SOL     OW 2038   2.792   0.814   1.185
  380SOL    HW1 2039   2.717   0.881   1.183
  380SOL    HW2 2040   2.847   0.824   1.102
  381SOL     OW 2041   1.193   4.435   2.522
  381SOL    HW1 2042   1.160   4.373   2.451
  381SOL    HW2 2043   1.241   4.383   2.593
  382SOL     OW 2044   5.486   6.275   6.050
  382SOL    HW1 2045   5.499   6.226   6.136
  382SOL    HW2 2046   5.446   6.365   6.069
  383SOL     OW 2047   4.696   2.997   5.531
  383SOL    HW1 2048   4.742   3.018   5.444
  383SOL    HW2 2049   4.641   3.076   5.559
  384SOL     OW 2050   6.458   5.432   4.403
  384SOL    HW1 2051   6.359   5.418   4.415
  384SOL    HW2 2052   6.474   5.522   4.364
  385SOL     OW 2053   4.329   6.112   5.469
  385SOL    HW1 2054   4.253   6.055   5.440
  385SOL    HW2 2055   4.339   6.189   5.406
  386SOL     OW 2056   2.996   6.448   5.266
  386SOL    HW1 2057   3.010   6.350   5.281
  386SOL    HW2 2058   2.908   6.475   5.305
  387SOL     OW 2059   1.058   6.785   3.362
  387SOL    HW1 2060   1.023   6.819   3.449
  387SOL    HW2 2061   1.007   6.703   3.336
  388SOL     OW 2062   1.498   1.766   3.923
  388SOL    HW1 2063   1.588   1.748   3.885
  388SOL    HW2 2064   1.505   1.837   3.994
  389SOL     OW 2065   4.505   4.189   1.430
  389SOL    HW1 2066   4.456   4.275   1.445
  389SOL    HW2 2067   4.510   4.138   1.516
  390SOL     OW 2068   3.368   1.206   6.921
  390SOL    HW1 2069   3.429   1.144   6.872
  390SOL    HW2 2070   3.323   1.157   6.995
  391SOL     OW 2071   2.150   3.788   5.668
  391SOL    HW1 2072   2.249   3.775   5.658
  391SOL    HW2 2073   2.105   3.768   5.581
  392SOL     OW 2074   1.796   4.399   1.653
  392SOL    HW1 2075   1.701   4.374   1.671
  392SOL    HW2 2076   1.810   4.496   1.675
  393SOL     OW 2077   1.117   4.670   0.038
  393SOL    HW1 2078   1.029   4.648   7.012
  393SOL    HW2 2079   1.184   4.599   0.015
  394SOL     OW 2080   0.017   2.642   0.266
  394SOL    HW1 2081   0.077   2.654   0.344
  394SOL    HW2 2082   0.071   2.631   0.183
  395SOL     OW 2083   4.800   4.601   3.449
  395SOL    HW1 2084   4.793   4.536   3.525
  395SOL    HW2 2085   4.787   4.552   3.363
  396SOL     OW 2086   2.981   3.249   2.114
  396SOL    HW1 2087   3.017   3.158   2.133
  396SOL    HW2 2088   2.890   3.242   2.075
  397SOL     OW 2089   5.506   1.783   6.089
  397SOL    HW1 2090   5.429   1.784   6.025
  397SOL    HW2 2091   5.571   1.855   6.063
  398SOL     OW 2092   1.414   0.080   3.252
  398SOL    HW1 2093   1.427   0.078   3.351
  398SOL    HW2 2094   1.354   0.005   3.224
  399SOL     OW 2095   5.568   6.207   4.243
  399SOL    HW1 2096   5.607   6.121   4.208
  399SOL    HW2 2097   5.625   6.240   4.319
  400SOL     OW 2098   6.450   6.488   5.674
  400SOL    HW1 2099   6.367   6.538   5.652
  400SOL    HW2 2100   6.513   6.492   5.597
  401SOL     OW 2101   4.965   0.149   6.319
  401SOL    HW1 2102   4.889   0.084   6.323
  401SOL    HW2 2103   5.031   0.127   6.391
  402SOL     OW 2104   6.572   0.890   3.424
  402SOL    HW1 2105   6.667   0.858   3.428
  402SOL    HW2 2106   6.558   0.942   3.340
  403SOL     OW 2107   4.061   1.002   4.956
  403SOL    HW1 2108   3.966   0.981   4.931
  403SOL    HW2 2109   4.117   0.920   4.946
  404SOL     OW 2110   1.754   4.776   4.184
  404SOL    HW1 2111   1.685   4.805   4.118
  404SOL    HW2 2112   1.763   4.845   4.256
  405SOL     OW 2113   2.036   3.190   3.203
  405SOL    HW1 2114   2.078   3.106   3.171
  405SOL    HW2 2115   1.940   3.192   3.178
  406SOL     OW 2116   0.239   4.046   5.010
  406SOL    HW1 2117   0.265   4.122   4.951
  406SOL    HW2 2118   0.220   4.081   5.102
  407SOL     OW 2119   1.515   2.620   5.259
  407SOL    HW1 2120   1.491   2.542   5.202
  407SOL    HW2 2121   1.591   2.670   5.217
  408SOL     OW 2122   3.480   2.026   2.856
  408SOL    HW1 2123   3.536   2.010   2.775
  408SOL    HW2 2124   3.400   2.080   2.831
  409SOL     OW 2125   6.631   3.152   1.579
  409SOL    HW1 2126   6.689   3.087   1.629
  409SOL    HW2 2127   6.606   3.228   1.640
  410SOL     OW 2128   0.940   1.656   1.075
  410SOL    HW1 2129   0.931   1.755   1.073
  410SOL    HW2 2130   0.883   1.618   1.148
  411SOL     OW 2131   6.558   0.999   1.566
  411SOL    HW1 2132   6.552   1.081   1.510
  411SOL    HW2 2133   6.548   0.918   1.508
  412SOL     OW 2134   3.745   5.089   2.640
  412SOL    HW1 2135   3.755   5.142   2.724
  412SOL    HW2 2136   3.834   5.057   2.609
  413SOL     OW 2137   5.554   4.187   1.543
  413SOL    HW1 2138   5.570   4.208   1.446
  413SOL    HW2 2139   5.562   4.271   1.597
  414SOL     OW 2140   3.352   6.365   3.794
  414SOL    HW1 2141   3.387   6.277   3.826
  414SOL    HW2 2142   3.384   6.437   3.856
  415SOL     OW 2143   0.443   0.485   6.693
  415SOL    HW1 2144   0.460   0.584   6.698
  415SOL    HW2 2145   0.527   0.439   6.664
  416SOL     OW 2146   4.968   5.365   5.311
  416SOL    HW1 2147   5.046   5.364   5.374
  416SOL    HW2 2148   4.902   5.433   5.341
  417SOL     OW 2149   2.101   0.034   5.857
  417SOL    HW1 2150   2.126   0.038   5.760
  417SOL    HW2 2151   2.124   6.960   5.893
  418SOL     OW 2152   3.071   6.971   6.633
  418SOL    HW1 2153   3.000   6.901   6.649
  418SOL    HW2 2154   3.149   6.929   6.587
  419SOL     OW 2155   0.706   6.673   2.810
  419SOL    HW1 2156   0.687   6.666   2.713
  419SOL    HW2 2157   0.667   6.758   2.846
  420SOL     OW 2158   5.555   1.555   6.558
  420SOL    HW1 2159   5.540   1.599   6.469
  420SOL    HW2 2160   5.577   1.459   6.544
  421SOL     OW 2161   5.558   3.804   4.645
  421SOL    HW1 2162   5.617   3.834   4.720
  421SOL    HW2 2163   5.548   3.705   4.649
  422SOL     OW 2164   4.874   3.225   0.760
  422SOL    HW1 2165   4.811   3.213   0.837
  422SOL    HW2 2166   4.840   3.296   0.699
  423SOL     OW 2167   1.820   2.269   0.249
  423SOL    HW1 2168   1.752   2.332   0.211
  423SOL    HW2 2169   1.820   2.185   0.196
  424SOL     OW 2170   1.798   4.438   2.359
  424SOL    HW1 2171   1.870   4.374   2.387
  424SOL    HW2 2172   1.840   4.521   2.322
  425SOL     OW 2173   5.109   1.980   3.986
  425SOL    HW1 2174   5.020   1.941   4.009
  425SOL    HW2 2175   5.125   1.971   3.887
  426SOL     OW 2176   2.604   2.459   4.563
  426SOL    HW1 2177   2.596   2.557   4.584
  426SOL    HW2 2178   2.667   2.416   4.627
  427SOL     OW 2179   6.315   6.991   4.159
  427SOL    HW1 2180   6.256   6.913   4.138
  427SOL    HW2 2181   6.260   0.049   4.196
  428SOL     OW 2182   4.194   0.496   2.910
  428SOL    HW1 2183   4.190   0.422   2.977
  428SOL    HW2 2184   4.104   0.540   2.903
  429SOL     OW 2185   0.690   4.769   3.532
  429SOL    HW1 2186   0.600   4.801   3.561
  429SOL    HW2 2187   0.759   4.797   3.599
  430SOL     OW 2188   1.152   6.588   4.510
  430SOL    HW1 2189   1.065   6.628   4.538
  430SOL    HW2 2190   1.214   6.586   4.589
  431SOL     OW 2191   2.701   1.228   1.000
  431SOL    HW1 2192   2.706   1.190   0.908
  431SOL    HW2 2193   2.793   1.250   1.032
  432SOL     OW 2194   5.865   2.206   0.838
  432SOL    HW1 2195   5.895   2.137   0.772
  432SOL    HW2 2196   5.815   2.278   0.789
  433SOL     OW 2197   2.243   6.533   5.822
  433SOL    HW1 2198   2.265   6.460   5.886
  433SOL    HW2 2199   2.203   6.610   5.872
  434SOL     OW 2200   4.485   6.230   3.669
  434SOL    HW1 2201   4.498   6.256   3.573
  434SOL    HW2 2202   4.429   6.147   3.674
  435SOL     OW 2203   3.578   2.132   5.118
  435SOL    HW1 2204   3.665   2.121   5.070
  435SOL    HW2 2205   3.502   2.124   5.052
  436SOL     OW 2206   3.017   5.852   2.149
  436SOL    HW1 2207   2.968   5.897   2.224
  436SOL    HW2 2208   2.960   5.779   2.110
  437SOL     OW 2209   0.775   1.404   6.228
  437SOL    HW1 2210   0.682   1.431   6.251
  437SOL    HW2 2211   0.834   1.485   6.226
  438SOL     OW 2212   1.199   3.619   3.768
  438SOL    HW1 2213   1.287   3.634   3.724
  438SOL    HW2 2214   1.151   3.706   3.777
  439SOL     OW 2215   5.681   6.547   2.218
  439SOL    HW1 2216   5.722   6.482   2.154
  439SOL    HW2 2217   5.598   6.507   2.256
  440SOL     OW 2218   2.900   1.453   5.961
  440SOL    HW1 2219   2.851   1.403   6.032
  440SOL    HW2 2220   2.869   1.423   5.871
  441SOL     OW 2221   6.352   3.300   3.763
  441SOL    HW1 2222   6.448   3.284   3.784
  441SOL    HW2 2223   6.324   3.390   3.798
  442SOL     OW 2224   4.934   5.454   5.730
  442SOL    HW1 2225   4.850   5.501   5.704
  442SOL    HW2 2226   4.930   5.359   5.698
  443SOL     OW 2227   5.469   3.882   4.179
  443SOL    HW1 2228   5.456   3.882   4.079
  443SOL    HW2 2229   5.439   3.970   4.216
  444SOL     OW 2230   4.313   0.305   6.076
  444SOL    HW1 2231   4.235   0.307   6.013
  444SOL    HW2 2232   4.307   0.224   6.133
  445SOL     OW 2233   2.421   6.067   2.958
  445SOL    HW1 2234   2.487   6.051   2.884
  445SOL    HW2 2235   2.369   6.150   2.939
  446SOL     OW 2236   4.374   6.011   2.730
  446SOL    HW1 2237   4.430   6.086   2.764
  446SOL    HW2 2238   4.284   6.014   2.773
  447SOL     OW 2239   6.413   3.776   4.770
  447SOL    HW1 2240   6.361   3.722   4.837
  447SOL    HW2 2241   6.501   3.732   4.754
  448SOL     OW 2242   2.738   0.522   2.845
  448SOL    HW1 2243   2.673   0.598   2.845
  448SOL    HW2 2244   2.703   0.448   2.788
  449SOL     OW 2245   2.959   1.457   3.953
  449SOL    HW1 2246   2.924   1.437   3.862
  449SOL    HW2 2247   2.960   1.373   4.008
  450SOL     OW 2248   1.663   4.709   3.553
  450SOL    HW1 2249   1.679   4.700   3.454
  450SOL    HW2 2250   1.750   4.700   3.601
  451SOL     OW 2251   1.948   2.314   4.366
  451SOL    HW1 2252   2.018   2.384   4.375
  451SOL    HW2 2253   1.969   2.257   4.286
  452SOL     OW 2254   4.407   6.566   1.901
  452SOL    HW1 2255   4.446   6.654   1.873
  452SOL    HW2 2256   4.337   6.580   1.970
  453SOL     OW 2257   3.670   6.641   6.015
  453SOL    HW1 2258   3.627   6.668   6.101
  453SOL    HW2 2259   3.724   6.718   5.979
  454SOL     OW 2260   0.079   3.724   6.679
  454SOL    HW1 2261   0.150   3.787   6.711
  454SOL    HW2 2262   0.085   3.638   6.730
  455SOL     OW 2263   5.962   2.728   4.910
  455SOL    HW1 2264   5.909   2.675   4.977
  455SOL    HW2 2265   5.931   2.824   4.912
  456SOL     OW 2266   1.428   0.863   4.622
  456SOL    HW1 2267   1.358   0.792   4.614
  456SOL    HW2 2268   1.484   0.846   4.703
  457SOL     OW 2269   2.255   4.083   4.395
  457SOL    HW1 2270   2.216   4.163   4.350
  457SOL    HW2 2271   2.279   4.107   4.490
  458SOL     OW 2272   3.022   0.389   2.835
  458SOL    HW1 2273   3.027   0.306   2.891
  458SOL    HW2 2274   3.058   0.466   2.888
  459SOL     OW 2275   1.780   0.556   5.080
  459SOL    HW1 2276   1.831   0.642   5.087
  459SOL    HW2 2277   1.815   0.491   5.148
  460SOL     OW 2278   1.207   0.248   5.062
  460SOL    HW1 2279   1.251   0.246   4.972
  460SOL    HW2 2280   1.226   0.336   5.107
  461SOL     OW 2281   6.452   4.607   6.012
  461SOL    HW1 2282   6.358   4.581   6.035
  461SOL    HW2 2283   6.473   4.577   5.919
  462SOL     OW 2284   4.174   3.334   5.517
  462SOL    HW1 2285   4.223   3.308   5.434
  462SOL    HW2 2286   4.087   3.378   5.492
  463SOL     OW 2287   0.380   0.362   3.634
  463SOL    HW1 2288   0.425   0.428   3.573
  463SOL    HW2 2289   0.327   0.412   3.703
  464SOL     OW 2290   3.056   0.639   6.228
  464SOL    HW1 2291   2.971   0.599   6.195
  464SOL    HW2 2292   3.114   0.663   6.151
  465SOL     OW 2293   0.479   2.521   0.032
  465SOL    HW1 2294   0.464   2.620   0.036
  465SOL    HW2 2295   0.449   2.486   6.960
  466SOL     OW 2296   2.532   6.528   4.106
  466SOL    HW1 2297   2.459   6.461   4.087
  466SOL    HW2 2298   2.586   6.542   4.023
  467SOL     OW 2299   1.445   1.746   2.864
  467SOL    HW1 2300   1.508   1.780   2.934
  467SOL    HW2 2301   1.465   1.790   2.776
  468SOL     OW 2302   4.347   5.469   5.162
  468SOL    HW1 2303   4.315   5.383   5.122
  468SOL    HW2 2304   4.328   5.471   5.260
  469SOL     OW 2305   3.061   4.187   5.737
  469SOL    HW1 2306   3.043   4.281   5.709
  469SOL    HW2 2307   3.155   4.180   5.770
  470SOL     OW 2308   4.024   6.009   1.552
  470SOL    HW1 2309   4.062   5.916   1.557
  470SOL    HW2 2310   4.019   6.048   1.643
  471SOL     OW 2311   2.871   2.210   3.956
  471SOL    HW1 2312   2.818   2.220   3.871
  471SOL    HW2 2313   2.811   2.226   4.035
  472SOL     OW 2314   5.851   4.716   6.869
  472SOL    HW1 2315   5.902   4.707   6.784
  472SOL    HW2 2316   5.844   4.813   6.895
  473SOL     OW 2317   0.955   2.425   2.103
  473SOL    HW1 2318   0.878   2.366   2.080
  473SOL    HW2 2319   0.954   2.446   2.201
  474SOL     OW 2320   5.729   5.626   5.373
  474SOL    HW1 2321   5.651   5.578   5.333
  474SOL    HW2 2322   5.736   5.604   5.470
  475SOL     OW 2323   6.160   3.317   0.385
  475SOL    HW1 2324   6.193   3.386   0.319
  475SOL    HW2 2325   6.086   3.264   0.344
  476SOL     OW 2326   0.081   3.468   2.142
  476SOL    HW1 2327   0.084   3.563   2.172
  476SOL    HW2 2328   0.109   3.408   2.217
  477SOL     OW 2329   2.818   5.734   3.667
  477SOL    HW1 2330   2.730   5.704   3.629
  477SOL    HW2 2331   2.881   5.756   3.592
  478SOL     OW 2332   4.236   6.107   3.526
  478SOL    HW1 2333   4.169   6.128   3.598
  478SOL    HW2 2334   4.187   6.080   3.443
  479SOL     OW 2335   3.655   3.082   5.098
  479SOL    HW1 2336   3.632   3.068   5.195
  479SOL    HW2 2337   3.618   3.007   5.044
  480SOL     OW 2338   2.623   0.361   1.450
  480SOL    HW1 2339   2.529   0.396   1.445
  480SOL    HW2 2340   2.682   0.428   1.494
  481SOL     OW 2341   0.456   6.298   1.698
  481SOL    HW1 2342   0.425   6.241   1.623
  481SOL    HW2 2343   0.401   6.382   1.700
  482SOL     OW 2344   4.723   4.974   2.800
  482SOL    HW1 2345   4.793   5.042   2.776
  482SOL    HW2 2346   4.684   4.936   2.717
  483SOL     OW 2347   0.037   2.018   2.382
  483SOL    HW1 2348   0.053   2.110   2.418
  483SOL    HW2 2349   0.123   1.977   2.355
  484SOL     OW 2350   1.674   4.240   4.699
  484SOL    HW1 2351   1.675   4.315   4.632
  484SOL    HW2 2352   1.598   4.179   4.679
  485SOL     OW 2353   5.012   4.942   2.583
  485SOL    HW1 2354   5.065   4.860   2.565
  485SOL    HW2 2355   4.915   4.924   2.567
  486SOL     OW 2356   5.938   1.576   6.761
  486SOL    HW1 2357   5.996   1.583   6.680
  486SOL    HW2 2358   5.845   1.606   6.739
  487SOL     OW 2359   0.854   0.650   3.075
  487SOL    HW1 2360   0.892   0.568   3.033
  487SOL    HW2 2361   0.886   0.731   3.026
  488SOL     OW 2362   0.912   6.607   2.326
  488SOL    HW1 2363   0.964   6.660   2.259
  488SOL    HW2 2364   0.857   6.538   2.278
  489SOL     OW 2365   6.148   5.793   5.058
  489SOL    HW1 2366   6.136   5.742   4.973
  489SOL    HW2 2367   6.118   5.736   5.135
  490SOL     OW 2368   1.433   5.797   3.943
  490SOL    HW1 2369   1.344   5.834   3.920
  490SOL    HW2 2370   1.428   5.697   3.946
  491SOL     OW 2371   1.032   3.293   1.213
  491SOL    HW1 2372   0.996   3.351   1.286
  491SOL    HW2 2373   1.051   3.349   1.132
  492SOL     OW 2374   1.380   1.176   5.753
  492SOL    HW1 2375   1.440   1.132   5.819
  492SOL    HW2 2376   1.356   1.111   5.680
  493SOL     OW 2377   2.443   0.127   5.721
  493SOL    HW1 2378   2.430   0.098   5.626
  493SOL    HW2 2379   2.412   0.222   5.731
  494SOL     OW 2380   1.529   1.492   6.548
  494SOL    HW1 2381   1.601   1.441   6.595
  494SOL    HW2 2382   1.442   1.445   6.560
  495SOL     OW 2383   3.434   6.348   4.436
  495SOL    HW1 2384   3.533   6.363   4.429
  495SOL    HW2 2385   3.414   6.293   4.517
  496SOL     OW 2386   6.326   1.949   1.776
  496SOL    HW1 2387   6.301   1.856   1.802
  496SOL    HW2 2388   6.425   1.956   1.767
  497SOL     OW 2389   3.129   1.188   4.760
  497SOL    HW1 2390   3.046   1.205   4.707
  497SOL    HW2 2391   3.151   1.270   4.814
  498SOL     OW 2392   0.698   4.440   2.777
  498SOL    HW1 2393   0.789   4.404   2.754
  498SOL    HW2 2394   0.647   4.370   2.827
  499SOL     OW 2395   1.840   5.525   5.087
  499SOL    HW1 2396   1.784   5.447   5.114
  499SOL    HW2 2397   1.801   5.567   5.005
  500SOL     OW 2398   5.278   2.531   6.829
  500SOL    HW1 2399   5.332   2.615   6.828
  500SOL    HW2 2400   5.332   2.456   6.790
  501SOL     OW 2401   4.152   0.018   0.952
  501SOL    HW1 2402   4.096   0.097   0.928
  501SOL    HW2 2403   4.094   6.963   0.990
  502SOL     OW 2404   0.466   4.617   6.355
  502SOL    HW1 2405   0.512   4.544   6.406
  502SOL    HW2 2406   0.375   4.633   6.394
  503SOL     OW 2407   1.941   4.883   6.447
  503SOL    HW1 2408   1.860   4.893   6.388
  503SOL    HW2 2409   2.010   4.829   6.399
  504SOL     OW 2410   0.839   5.556   1.564
  504SOL    HW1 2411   0.880   5.634   1.612
  504SOL    HW2 2412   0.787   5.589   1.485
  505SOL     OW 2413   4.540   6.966   4.733
  505SOL    HW1 2414   4.626   6.918   4.748
  505SOL    HW2 2415   4.464   6.905   4.753
  506SOL     OW 2416   2.997   6.063   1.975
  506SOL    HW1 2417   3.044   6.133   2.029
  506SOL    HW2 2418   3.013   5.973   2.016
  507SOL     OW 2419   3.865   0.096   2.474
  507SOL    HW1 2420   3.824   0.119   2.562
  507SOL    HW2 2421   3.795   0.066   2.411
  508SOL     OW 2422   0.013   2.571   2.490
  508SOL    HW1 2423   7.009   2.474   2.499
  508SOL    HW2 2424   0.048   2.606   2.577
  509SOL     OW 2425   4.094   1.420   0.594
  509SOL    HW1 2426   4.092   1.327   0.631
  509SOL    HW2 2427   4.005   1.463   0.608
  510SOL     OW 2428   6.890   4.888   5.937
  510SOL    HW1 2429   6.791   4.901   5.941
  510SOL    HW2 2430   6.933   4.940   6.011
  511SOL     OW 2431   0.939   2.166   6.761
  511SOL    HW1 2432   0.888   2.229   6.818
  511SOL    HW2 2433   0.909   2.072   6.779
  512SOL     OW 2434   6.057   2.661   0.012
  512SOL    HW1 2435   6.065   2.760   0.001
  512SOL    HW2 2436   5.970   2.629   6.990
  513SOL     OW 2437   5.214   6.773   3.117
  513SOL    HW1 2438   5.179   6.713   3.044
  513SOL    HW2 2439   5.178   6.865   3.104
  514SOL     OW 2440   6.898   0.589   4.452
  514SOL    HW1 2441   6.977   0.564   4.395
  514SOL    HW2 2442   6.817   0.599   4.394
  515SOL     OW 2443   1.832   0.216   0.123
  515SOL    HW1 2444   1.783   0.129   0.119
  515SOL    HW2 2445   1.766   0.291   0.136
  516SOL     OW 2446   2.800   4.702   2.468
  516SOL    HW1 2447   2.788   4.638   2.391
  516SOL    HW2 2448   2.894   4.735   2.468
  517SOL     OW 2449   3.417   4.669   1.607
  517SOL    HW1 2450   3.459   4.683   1.697
  517SOL    HW2 2451   3.346   4.738   1.592
  518SOL     OW 2452   2.632   2.116   3.764
  518SOL    HW1 2453   2.613   2.035   3.819
  518SOL    HW2 2454   2.547   2.164   3.744
  519SOL     OW 2455   0.171   6.485   3.709
  519SOL    HW1 2456   0.090   6.437   3.676
  519SOL    HW2 2457   0.190   6.563   3.649
  520SOL     OW 2458   0.110   3.520   6.861
  520SOL    HW1 2459   0.195   3.477   6.893
  520SOL    HW2 2460   0.046   3.450   6.830
  521SOL     OW 2461   5.378   5.461   4.823
  521SOL    HW1 2462   5.290   5.420   4.798
  521SOL    HW2 2463   5.368   5.560   4.826
  522SOL     OW 2464   4.111   3.633   2.826
  522SOL    HW1 2465   4.211   3.634   2.826
  522SOL    HW2 2466   4.076   3.676   2.909
  523SOL     OW 2467   6.820   5.755   1.887
  523SOL    HW1 2468   6.766   5.761   1.803
  523SOL    HW2 2469   6.916   5.738   1.865
  524SOL     OW 2470   1.819   2.784   2.539
  524SOL    HW1 2471   1.766   2.700   2.548
  524SOL    HW2 2472   1.766   2.862   2.572
  525SOL     OW 2473   1.682   3.970   6.156
  525SOL    HW1 2474   1.749   4.001   6.088
  525SOL    HW2 2475   1.639   4.049   6.199
  526SOL     OW 2476   3.266   6.666   4.130
  526SOL    HW1 2477   3.316   6.617   4.058
  526SOL    HW2 2478   3.330   6.694   4.201
  527SOL     OW 2479   0.241   2.229   0.450
  527SOL    HW1 2480   0.193   2.143   0.435
  527SOL    HW2 2481   0.250   2.278   0.363
  528SOL     OW 2482   1.696   2.751   3.884
  528SOL    HW1 2483   1.775   2.692   3.868
  528SOL    HW2 2484   1.688   2.769   3.983
  529SOL     OW 2485   1.807   6.805   4.837
  529SOL    HW1 2486   1.870   6.773   4.765
  529SOL    HW2 2487   1.829   6.900   4.861
  530SOL     OW 2488   4.131   3.492   2.564
  530SOL    HW1 2489   4.064   3.421   2.582
  530SOL    HW2 2490   4.128   3.560   2.638
  531SOL     OW 2491   1.356   0.956   2.857
  531SOL    HW1 2492   1.348   1.055   2.850
  531SOL    HW2 2493   1.316   0.925   2.943
  532SOL     OW 2494   1.369   3.708   0.414
  532SOL    HW1 2495   1.356   3.796   0.460
  532SOL    HW2 2496   1.398   3.639   0.481
  533SOL     OW 2497   4.650   0.000   3.400
  533SOL    HW1 2498   4.566   6.967   3.424
  533SOL    HW2 2499   4.654   0.087   3.451
  534SOL     OW 2500   6.066   6.130   2.609
  534SOL    HW1 2501   6.048   6.117   2.511
  534SOL    HW2 2502   6.055   6.042   2.656
  535SOL     OW 2503   6.891   4.179   2.958
  535SOL    HW1 2504   6.884   4.079   2.956
  535SOL    HW2 2505   6.903   4.210   3.052
  536SOL     OW 2506   6.133   4.967   2.532
  536SOL    HW1 2507   6.148   5.064   2.512
  536SOL    HW2 2508   6.220   4.919   2.530
  537SOL     OW 2509   3.870   0.593   4.154
  537SOL    HW1 2510   3.869   0.693   4.142
  537SOL    HW2 2511   3.792   0.566   4.210
  538SOL     OW 2512   0.810   4.655   4.335
  538SOL    HW1 2513   0.788   4.736   4.280
  538SOL    HW2 2514   0.770   4.665   4.426
  539SOL     OW 2515   1.865   5.262   2.030
  539SOL    HW1 2516   1.785   5.204   2.047
  539SOL    HW2 2517   1.859   5.344   2.086
  540SOL     OW 2518   1.740   1.041   3.372
  540SOL    HW1 2519   1.747   0.974   3.298
  540SOL    HW2 2520   1.681   1.005   3.444
  541SOL     OW 2521   4.905   5.448   3.881
  541SOL    HW1 2522   4.843   5.437   3.958
  541SOL    HW2 2523   4.998   5.423   3.909
  542SOL     OW 2524   4.105   6.568   0.162
  542SOL    HW1 2525   4.147   6.482   0.193
  542SOL    HW2 2526   4.177   6.635   0.145
  543SOL     OW 2527   6.110   3.608   3.507
  543SOL    HW1 2528   6.131   3.559   3.592
  543SOL    HW2 2529   6.195   3.623   3.455
  544SOL     OW 2530   0.387   5.161   6.953
  544SOL    HW1 2531   0.446   5.225   7.003
  544SOL    HW2 2532   0.321   5.121   0.000
  545SOL     OW 2533   3.798   1.170   1.290
  545SOL    HW1 2534   3.774   1.191   1.385
  545SOL    HW2 2535   3.718   1.133   1.243
  546SOL     OW 2536   1.360   4.109   1.668
  546SOL    HW1 2537   1.428   4.050   1.713
  546SOL    HW2 2538   1.268   4.084   1.700
  547SOL     OW 2539   3.349   2.489   0.909
  547SOL    HW1 2540   3.433   2.464   0.958
  547SOL    HW2 2541   3.301   2.406   0.880
  548SOL     OW 2542   3.397   3.617   1.573
  548SOL    HW1 2543   3.330   3.546   1.598
  548SOL    HW2 2544   3.384   3.697   1.631
  549SOL     OW 2545   5.224   2.406   1.802
  549SOL    HW1 2546   5.182   2.367   1.884
  549SOL    HW2 2547   5.154   2.454   1.748
  550SOL     OW 2548   1.130   5.392   3.378
  550SOL    HW1 2549   1.105   5.365   3.285
  550SOL    HW2 2550   1.119   5.491   3.387
  551SOL     OW 2551   0.370   6.957   1.833
  551SOL    HW1 2552   0.303   0.002   1.873
  551SOL    HW2 2553   0.365   6.962   1.733
  552SOL     OW 2554   5.971   4.369   6.231
  552SOL    HW1 2555   5.939   4.305   6.301
  552SOL    HW2 2556   5.896   4.430   6.204
  553SOL     OW 2557   2.799   0.022   3.765
  553SOL    HW1 2558   2.742   0.039   3.685
  553SOL    HW2 2559   2.757   0.063   3.846
  554SOL     OW 2560   5.857   6.984   0.174
  554SOL    HW1 2561   5.925   6.938   0.231
  554SOL    HW2 2562   5.891   0.058   0.147
  555SOL     OW 2563   3.047   4.975   5.028
  555SOL    HW1 2564   2.963   4.957   4.978
  555SOL    HW2 2565   3.048   5.071   5.058
  556SOL     OW 2566   4.766   1.910   3.756
  556SOL    HW1 2567   4.754   1.851   3.676
  556SOL    HW2 2568   4.680   1.954   3.779
  557SOL     OW 2569   6.679   5.424   6.682
  557SOL    HW1 2570   6.768   5.391   6.652
  557SOL    HW2 2571   6.691   5.502   6.744
  558SOL     OW 2572   3.240   2.935   3.714
  558SOL    HW1 2573   3.308   2.863   3.725
  558SOL    HW2 2574   3.221   2.977   3.803
  559SOL     OW 2575   0.173   5.642   5.603
  559SOL    HW1 2576   0.159   5.543   5.607
  559SOL    HW2 2577   0.088   5.687   5.576
  560SOL     OW 2578   6.564   3.876   3.476
  560SOL    HW1 2579   6.523   3.879   3.568
  560SOL    HW2 2580   6.523   3.801   3.424
  561SOL     OW 2581   0.323   1.922   0.643
  561SOL    HW1 2582   0.343   1.920   0.545
  561SOL    HW2 2583   0.226   1.941   0.657
  562SOL     OW 2584   4.103   0.108   6.274
  562SOL    HW1 2585   4.119   0.204   6.295
  562SOL    HW2 2586   4.116   0.053   6.356
  563SOL     OW 2587   2.605   1.270   3.980
  563SOL    HW1 2588   2.557   1.249   4.065
  563SOL    HW2 2589   2.658   1.191   3.951
  564SOL     OW 2590   0.949   3.517   6.976
  564SOL    HW1 2591   1.017   3.470   6.919
  564SOL    HW2 2592   0.884   3.566   6.917
  565SOL     OW 2593   3.459   3.522   4.072
  565SOL    HW1 2594   3.533   3.577   4.111
  565SOL    HW2 2595   3.485   3.493   3.980
  566SOL     OW 2596   0.953   3.335   3.335
  566SOL    HW1 2597   0.859   3.358   3.362
  566SOL    HW2 2598   0.972   3.373   3.245
  567SOL     OW 2599   3.403   2.785   1.289
  567SOL    HW1 2600   3.472   2.843   1.332
  567SOL    HW2 2601   3.345   2.744   1.360
  568SOL     OW 2602   4.421   0.211   0.385
  568SOL    HW1 2603   4.361   0.267   0.328
  568SOL    HW2 2604   4.408   0.236   0.481
  569SOL     OW 2605   0.897   3.308   0.582
  569SOL    HW1 2606   0.991   3.310   0.548
  569SOL    HW2 2607   0.834   3.292   0.505
  570SOL     OW 2608   3.564   0.513   6.665
  570SOL    HW1 2609   3.482   0.485   6.614
  570SOL    HW2 2610   3.581   0.448   6.739
  571SOL     OW 2611   3.193   4.903   3.441
  571SOL    HW1 2612   3.107   4.950   3.461
  571SOL    HW2 2613   3.204   4.894   3.342
  572SOL     OW 2614   2.602   5.168   5.260
  572SOL    HW1 2615   2.606   5.126   5.350
  572SOL    HW2 2616   2.660   5.116   5.197
  573SOL     OW 2617   5.818   1.365   6.078
  573SOL    HW1 2618   5.724   1.336   6.096
  573SOL    HW2 2619   5.823   1.464   6.077
  574SOL     OW 2620   3.410   1.084   4.288
  574SOL    HW1 2621   3.455   1.034   4.213
  574SOL    HW2 2622   3.454   1.059   4.374
  575SOL     OW 2623   4.433   3.078   1.711
  575SOL    HW1 2624   4.512   3.070   1.771
  575SOL    HW2 2625   4.462   3.062   1.616
  576SOL     OW 2626   1.362   3.056   3.057
  576SOL    HW1 2627   1.318   3.043   2.969
  576SOL    HW2 2628   1.339   3.146   3.094
  577SOL     OW 2629   1.428   0.891   2.400
  577SOL    HW1 2630   1.419   0.963   2.469
  577SOL    HW2 2631   1.403   0.926   2.310
  578SOL     OW 2632   0.217   5.499   3.999
  578SOL    HW1 2633   0.141   5.444   3.963
  578SOL    HW2 2634   0.226   5.481   4.097
  579SOL     OW 2635   1.711   3.294   3.806
  579SOL    HW1 2636   1.755   3.289   3.716
  579SOL    HW2 2637   1.770   3.344   3.869
  580SOL     OW 2638   4.340   5.082   5.518
  580SOL    HW1 2639   4.345   5.175   5.554
  580SOL    HW2 2640   4.247   5.063   5.487
  581SOL     OW 2641   1.445   2.999   2.019
  581SOL    HW1 2642   1.488   3.090   2.022
  581SOL    HW2 2643   1.512   2.933   1.984
  582SOL     OW 2644   4.924   5.499   2.380
  582SOL    HW1 2645   4.855   5.571   2.376
  582SOL    HW2 2646   5.005   5.534   2.427
  583SOL     OW 2647   2.583   6.340   4.966
  583SOL    HW1 2648   2.525   6.386   5.033
  583SOL    HW2 2649   2.654   6.404   4.934
  584SOL     OW 2650   2.969   6.386   6.358
  584SOL    HW1 2651   3.026   6.457   6.316
  584SOL    HW2 2652   3.010   6.296   6.342
  585SOL     OW 2653   4.405   1.076   6.895
  585SOL    HW1 2654   4.362   1.059   6.984
  585SOL    HW2 2655   4.414   0.989   6.846
  586SOL     OW 2656   3.124   0.202   6.502
  586SOL    HW1 2657   3.088   0.119   6.544
  586SOL    HW2 2658   3.050   0.267   6.487
  587SOL     OW 2659   4.736   2.409   3.881
  587SOL    HW1 2660   4.640   2.436   3.883
  587SOL    HW2 2661   4.790   2.480   3.837
  588SOL     OW 2662   2.484   5.010   1.845
  588SOL    HW1 2663   2.507   4.923   1.889
  588SOL    HW2 2664   2.515   5.086   1.903
  589SOL     OW 2665   3.689   5.489   1.536
  589SOL    HW1 2666   3.653   5.472   1.445
  589SOL    HW2 2667   3.675   5.585   1.560
  590SOL     OW 2668   5.455   2.530   1.862
  590SOL    HW1 2669   5.380   2.465   1.846
  590SOL    HW2 2670   5.540   2.491   1.827
  591SOL     OW 2671   3.789   5.770   3.493
  591SOL    HW1 2672   3.776   5.845   3.429
  591SOL    HW2 2673   3.886   5.757   3.511
  592SOL     OW 2674   4.489   0.737   1.401
  592SOL    HW1 2675   4.574   0.766   1.445
  592SOL    HW2 2676   4.499   0.643   1.368
  593SOL     OW 2677   4.509   2.582   3.925
  593SOL    HW1 2678   4.582   2.646   3.949
  593SOL    HW2 2679   4.462   2.552   4.009
  594SOL     OW 2680   5.583   0.856   0.570
  594SOL    HW1 2681   5.516   0.804   0.625
  594SOL    HW2 2682   5.673   0.846   0.611
  595SOL     OW 2683   5.700   0.263   3.297
  595SOL    HW1 2684   5.759   0.343   3.288
  595SOL    HW2 2685   5.756   0.180   3.288
  596SOL     OW 2686   0.273   4.934   3.292
  596SOL    HW1 2687   0.249   5.030   3.277
  596SOL    HW2 2688   0.216   4.897   3.365
  597SOL     OW 2689   2.144   0.102   6.900
  597SOL    HW1 2690   2.200   0.097   6.818
  597SOL    HW2 2691   2.100   0.191   6.905
  598SOL     OW 2692   3.528   4.091   4.871
  598SOL    HW1 2693   3.450   4.039   4.906
  598SOL    HW2 2694   3.510   4.119   4.777
  599SOL     OW 2695   2.823   5.862   3.048
  599SOL    HW1 2696   2.745   5.903   3.095
  599SOL    HW2 2697   2.864   5.792   3.106
  600SOL     OW 2698   5.947   1.962   6.659
  600SOL    HW1 2699   5.962   1.873   6.616
  600SOL    HW2 2700   5.936   2.032   6.589
  601SOL     OW 2701   1.520   0.995   3.832
  601SOL    HW1 2702   1.581   1.040   3.898
  601SOL    HW2 2703   1.450   1.059   3.801
  602SOL     OW 2704   1.410   0.904   6.572
  602SOL    HW1 2705   1.488   0.867   6.522
  602SOL    HW2 2706   1.378   0.836   6.638
  603SOL     OW 2707   3.053   2.833   5.355
  603SOL    HW1 2708   2.966   2.784   5.357
  603SOL    HW2 2709   3.041   2.923   5.398
  604SOL     OW 2710   0.677   1.443   1.674
  604SOL    HW1 2711   0.666   1.350   1.709
  604SOL    HW2 2712   0.673   1.442   1.574
  605SOL     OW 2713   6.802   5.339   0.161
  605SOL    HW1 2714   6.767   5.433   0.168
  605SOL    HW2 2715   6.738   5.277   0.206
  606SOL     OW 2716   5.112   6.359   5.620
  606SOL    HW1 2717   5.100   6.455   5.596
  606SOL    HW2 2718   5.154   6.352   5.710
  607SOL     OW 2719   6.407   4.804   5.190
  607SOL    HW1 2720   6.330   4.801   5.254
  607SOL    HW2 2721   6.484   4.853   5.232
  608SOL     OW 2722   4.089   6.326   6.583
  608SOL    HW1 2723   4.116   6.383   6.660
  608SOL    HW2 2724   4.155   6.335   6.509
  609SOL     OW 2725   4.014   3.111   2.501
  609SOL    HW1 2726   4.040   3.152   2.589
  609SOL    HW2 2727   3.980   3.019   2.516
  610SOL     OW 2728   5.853   3.449   0.609
  610SOL    HW1 2729   5.853   3.350   0.596
  610SOL    HW2 2730   5.763   3.485   0.587
  611SOL     OW 2731   4.737   6.994   1.806
  611SOL    HW1 2732   4.667   6.938   1.850
  611SOL    HW2 2733   4.785   0.032   1.875
  612SOL     OW 2734   3.956   5.583   4.514
  612SOL    HW1 2735   3.871   5.633   4.497
  612SOL    HW2 2736   3.992   5.550   4.427
  613SOL     OW 2737   4.733   5.331   4.766
  613SOL    HW1 2738   4.803   5.273   4.809
  613SOL    HW2 2739   4.656   5.342   4.830
  614SOL     OW 2740   5.261   5.448   6.460
  614SOL    HW1 2741   5.352   5.490   6.468
  614SOL    HW2 2742   5.271   5.352   6.433
  615SOL     OW 2743   6.738   1.899   1.499
  615SOL    HW1 2744   6.784   1.984   1.525
  615SOL    HW2 2745   6.797   1.847   1.438
  616SOL     OW 2746   0.184   3.100   2.358
  616SOL    HW1 2747   0.249   3.061   2.424
  616SOL    HW2 2748   0.159   3.030   2.291
  617SOL     OW 2749   0.081   4.410   6.104
  617SOL    HW1 2750   0.181   4.401   6.101
  617SOL    HW2 2751   0.056   4.504   6.080
  618SOL     OW 2752   0.229   2.550   0.713
  618SOL    HW1 2753   0.285   2.625   0.749
  618SOL    HW2 2754   0.230   2.554   0.613
  619SOL     OW 2755   3.528   1.529   0.199
  619SOL    HW1 2756   3.504   1.570   0.111
  619SOL    HW2 2757   3.562   1.600   0.261
  620SOL     OW 2758   4.115   2.600   1.632
  620SOL    HW1 2759   4.099   2.523   1.694
  620SOL    HW2 2760   4.119   2.568   1.538
  621SOL     OW 2761   2.639   6.385   6.663
  621SOL    HW1 2762   2.544   6.416   6.667
  621SOL    HW2 2763   2.646   6.309   6.598
  622SOL     OW 2764   1.183   0.955   6.295
  622SOL    HW1 2765   1.268   1.006   6.309
  622SOL    HW2 2766   1.201   0.857   6.305
  623SOL     OW 2767   0.655   5.365   5.985
  623SOL    HW1 2768   0.575   5.398   5.934
  623SOL    HW2 2769   0.726   5.436   5.984
  624SOL     OW 2770   0.036   2.360   0.599
  624SOL    HW1 2771   0.126   2.333   0.564
  624SOL    HW2 2772   0.040   2.367   0.698
  625SOL     OW 2773   2.371   1.189   1.227
  625SOL    HW1 2774   2.334   1.255   1.162
  625SOL    HW2 2775   2.309   1.180   1.305
  626SOL     OW 2776   2.551   5.680   3.605
  626SOL    HW1 2777   2.480   5.639   3.662
  626SOL    HW2 2778   2.534   5.778   3.595
  627SOL     OW 2779   5.328   6.952   0.518
  627SOL    HW1 2780   5.245   6.997   0.485
  627SOL    HW2 2781   5.383   6.922   0.440
  628SOL     OW 2782   6.086   5.621   5.477
  628SOL    HW1 2783   6.027   5.569   5.538
  628SOL    HW2 2784   6.060   5.718   5.478
  629SOL     OW 2785   7.010   0.143   0.325
  629SOL    HW1 2786   7.008   0.203   0.404
  629SOL    HW2 2787   7.009   0.198   0.241
  630SOL     OW 2788   6.614   1.606   2.216
  630SOL    HW1 2789   6.596   1.596   2.118
  630SOL    HW2 2790   6.661   1.693   2.233
  631SOL     OW 2791   3.070   6.467   5.005
  631SOL    HW1 2792   3.029   6.457   5.095
  631SOL    HW2 2793   3.168   6.482   5.014
  632SOL     OW 2794   2.733   1.454   0.314
  632SOL    HW1 2795   2.825   1.465   0.351
  632SOL    HW2 2796   2.676   1.532   0.340
  633SOL     OW 2797   5.142   4.416   6.960
  633SOL    HW1 2798   5.064   4.371   7.005
  633SOL    HW2 2799   5.219   4.420   0.008
  634SOL     OW 2800   4.828   4.311   1.962
  634SOL    HW1 2801   4.731   4.301   1.984
  634SOL    HW2 2802   4.844   4.403   1.926
  635SOL     OW 2803   4.732   5.097   1.053
  635SOL    HW1 2804   4.726   5.042   1.137
  635SOL    HW2 2805   4.679   5.181   1.065
  636SOL     OW 2806   4.486   5.866   6.431
  636SOL    HW1 2807   4.543   5.826   6.360
  636SOL    HW2 2808   4.509   5.825   6.519
  637SOL     OW 2809   6.401   3.689   2.273
  637SOL    HW1 2810   6.445   3.608   2.312
  637SOL    HW2 2811   6.457   3.725   2.199
  638SOL     OW 2812   5.609   2.599   2.248
  638SOL    HW1 2813   5.685   2.555   2.200
  638SOL    HW2 2814   5.581   2.542   2.325
  639SOL     OW 2815   5.212   4.206   2.757
  639SOL    HW1 2816   5.269   4.245   2.684
  639SOL    HW2 2817   5.244   4.240   2.846
  640SOL     OW 2818   0.711   4.877   4.209
  640SOL    HW1 2819   0.804   4.909   4.228
  640SOL    HW2 2820   0.650   4.956   4.200
  641SOL     OW 2821   0.440   5.682   4.219
  641SOL    HW1 2822   0.364   5.648   4.274
  641SOL    HW2 2823   0.522   5.685   4.275
  642SOL     OW 2824   0.138   3.600   4.758
  642SOL    HW1 2825   0.187   3.634   4.838
  642SOL    HW2 2826   0.200   3.546   4.702
  643SOL     OW 2827   5.090   5.590   5.054
  643SOL    HW1 2828   4.999   5.618   5.023
  643SOL    HW2 2829   5.086   5.496   5.089
  644SOL     OW 2830   1.231   6.228   4.221
  644SOL    HW1 2831   1.264   6.193   4.309
  644SOL    HW2 2832   1.210   6.325   4.230
  645SOL     OW 2833   5.445   2.041   4.396
  645SOL    HW1 2834   5.415   1.966   4.337
  645SOL    HW2 2835   5.511   2.098   4.346
  646SOL     OW 2836   3.125   1.429   3.596
  646SOL    HW1 2837   3.216   1.420   3.555
  646SOL    HW2 2838   3.129   1.403   3.692
  647SOL     OW 2839   5.316   2.216   5.463
  647SOL    HW1 2840   5.408   2.252   5.474
  647SOL    HW2 2841   5.259   2.247   5.539
  648SOL     OW 2842   6.685   4.139   3.382
  648SOL    HW1 2843   6.690   4.211   3.450
  648SOL    HW2 2844   6.659   4.053   3.426
  649SOL     OW 2845   3.814   4.047   0.447
  649SOL    HW1 2846   3.909   4.018   0.451
  649SOL    HW2 2847   3.773   4.038   0.538
  650SOL     OW 2848   5.821   4.855   0.914
  650SOL    HW1 2849   5.839   4.769   0.963
  650SOL    HW2 2850   5.906   4.888   0.872
  651SOL     OW 2851   6.748   6.281   6.832
  651SOL    HW1 2852   6.828   6.238   6.873
  651SOL    HW2 2853   6.754   6.275   6.732
  652SOL     OW 2854   5.582   6.053   3.825
  652SOL    HW1 2855   5.616   5.986   3.890
  652SOL    HW2 2856   5.492   6.025   3.791
  653SOL     OW 2857   3.174   6.808   4.725
  653SOL    HW1 2858   3.145   6.825   4.820
  653SOL    HW2 2859   3.251   6.744   4.724
  654SOL     OW 2860   6.998   3.893   5.432
  654SOL    HW1 2861   6.979   3.917   5.336
  654SOL    HW2 2862   6.947   3.811   5.456
  655SOL     OW 2863   0.673   6.876   1.702
  655SOL    HW1 2864   0.660   6.805   1.771
  655SOL    HW2 2865   0.615   6.856   1.623
  656SOL     OW 2866   1.755   5.977   1.607
  656SOL    HW1 2867   1.748   5.914   1.684
  656SOL    HW2 2868   1.787   6.066   1.640
  657SOL     OW 2869   1.496   2.119   2.008
  657SOL    HW1 2870   1.449   2.183   1.948
  657SOL    HW2 2871   1.519   2.164   2.094
  658SOL     OW 2872   2.960   3.592   6.613
  658SOL    HW1 2873   3.015   3.515   6.645
  658SOL    HW2 2874   2.971   3.669   6.675
  659SOL     OW 2875   2.359   6.133   5.639
  659SOL    HW1 2876   2.408   6.165   5.720
  659SOL    HW2 2877   2.377   6.036   5.625
  660SOL     OW 2878   4.945   4.394   2.350
  660SOL    HW1 2879   5.006   4.315   2.346
  660SOL    HW2 2880   4.854   4.367   2.321
  661SOL     OW 2881   4.042   6.149   3.708
  661SOL    HW1 2882   4.121   6.132   3.767
  661SOL    HW2 2883   3.985   6.221   3.749
  662SOL     OW 2884   3.985   0.720   5.437
  662SOL    HW1 2885   4.039   0.802   5.458
  662SOL    HW2 2886   3.918   0.742   5.366
  663SOL     OW 2887   2.510   3.988   6.229
  663SOL    HW1 2888   2.486   4.085   6.235
  663SOL    HW2 2889   2.579   3.976   6.158
  664SOL     OW 2890   0.172   5.847   6.012
  664SOL    HW1 2891   0.177   5.928   5.953
  664SOL    HW2 2892   0.108   5.865   6.087
  665SOL     OW 2893   4.629   5.345   1.798
  665SOL    HW1 2894   4.678   5.291   1.866
  665SOL    HW2 2895   4.532   5.347   1.820
  666SOL     OW 2896   5.512   2.224   2.099
  666SOL    HW1 2897   5.550   2.312   2.072
  666SOL    HW2 2898   5.412   2.230   2.104
  667SOL     OW 2899   1.500   4.521   3.179
  667SOL    HW1 2900   1.484   4.570   3.093
  667SOL    HW2 2901   1.490   4.423   3.163
  668SOL     OW 2902   4.895   6.202   5.705
  668SOL    HW1 2903   4.852   6.182   5.617
  668SOL    HW2 2904   4.974   6.262   5.691
  669SOL     OW 2905   4.627   0.474   2.724
  669SOL    HW1 2906   4.600   0.500   2.816
  669SOL    HW2 2907   4.547   0.471   2.665
  670SOL     OW 2908   3.243   2.750   1.811
  670SOL    HW1 2909   3.296   2.802   1.878
  670SOL    HW2 2910   3.294   2.667   1.786
  671SOL     OW 2911   2.315   6.549   0.528
  671SOL    HW1 2912   2.414   6.549   0.523
  671SOL    HW2 2913   2.277   6.595   0.447
  672SOL     OW 2914   0.166   5.424   1.658
  672SOL    HW1 2915   0.177   5.360   1.734
  672SOL    HW2 2916   0.214   5.390   1.577
  673SOL     OW 2917   6.919   0.178   1.670
  673SOL    HW1 2918   6.910   0.199   1.767
  673SOL    HW2 2919   6.875   0.249   1.616
  674SOL     OW 2920   0.934   1.303   5.284
  674SOL    HW1 2921   0.894   1.230   5.339
  674SOL    HW2 2922   0.864   1.343   5.225
  675SOL     OW 2923   0.517   1.333   2.603
  675SOL    HW1 2924   0.515   1.422   2.558
  675SOL    HW2 2925   0.606   1.319   2.645
  676SOL     OW 2926   3.512   5.590   2.524
  676SOL    HW1 2927   3.414   5.586   2.545
  676SOL    HW2 2928   3.564   5.591   2.610
  677SOL     OW 2929   5.456   1.702   0.693
  677SOL    HW1 2930   5.430   1.710   0.789
  677SOL    HW2 2931   5.395   1.636   0.647
  678SOL     OW 2932   2.395   0.098   5.458
  678SOL    HW1 2933   2.362   0.008   5.489
  678SOL    HW2 2934   2.460   0.086   5.383
  679SOL     OW 2935   4.464   2.466   3.337
  679SOL    HW1 2936   4.375   2.423   3.352
  679SOL    HW2 2937   4.473   2.492   3.241
  680SOL     OW 2938   5.715   5.355   5.222
  680SOL    HW1 2939   5.740   5.423   5.153
  680SOL    HW2 2940   5.634   5.386   5.272
  681SOL     OW 2941   4.846   4.900   1.774
  681SOL    HW1 2942   4.811   4.822   1.721
  681SOL    HW2 2943   4.872   4.974   1.712
  682SOL     OW 2944   6.480   1.203   1.404
  682SOL    HW1 2945   6.498   1.301   1.396
  682SOL    HW2 2946   6.481   1.161   1.313
  683SOL     OW 2947   5.032   3.042   0.309
  683SOL    HW1 2948   4.984   3.024   0.395
  683SOL    HW2 2949   5.061   2.955   0.268
  684SOL     OW 2950   6.498   0.926   0.399
  684SOL    HW1 2951   6.545   0.935   0.311
  684SOL    HW2 2952   6.546   0.859   0.456
  685SOL     OW 2953   4.338   1.672   3.595
  685SOL    HW1 2954   4.351   1.674   3.694
  685SOL    HW2 2955   4.244   1.696   3.573
  686SOL     OW 2956   4.907   2.639   3.880
  686SOL    HW1 2957   5.001   2.671   3.867
  686SOL    HW2 2958   4.863   2.692   3.952
  687SOL     OW 2959   0.379   2.372   4.639
  687SOL    HW1 2960   0.400   2.469   4.643
  687SOL    HW2 2961   0.281   2.358   4.652
  688SOL     OW 2962   0.065   1.722   0.075
  688SOL    HW1 2963   0.105   1.633   0.096
  688SOL    HW2 2964   6.993   1.730   0.121
  689SOL     OW 2965   0.803   4.767   6.351
  689SOL    HW1 2966   0.843   4.675   6.348
  689SOL    HW2 2967   0.782   4.798   6.258
  690SOL     OW 2968   0.351   3.177   2.962
  690SOL    HW1 2969   0.444   3.153   2.990
  690SOL    HW2 2970   0.298   3.093   2.949
  691SOL     OW 2971   2.647   0.794   0.495
  691SOL    HW1 2972   2.549   0.785   0.476
  691SOL    HW2 2973   2.674   0.890   0.490
  692SOL     OW 2974   4.027   0.744   3.596
  692SOL    HW1 2975   4.083   0.792   3.663
  692SOL    HW2 2976   4.047   0.646   3.599
  693SOL     OW 2977   5.613   0.405   4.207
  693SOL    HW1 2978   5.701   0.448   4.227
  693SOL    HW2 2979   5.622   0.346   4.126
  694SOL     OW 2980   4.462   0.147   4.262
  694SOL    HW1 2981   4.364   0.166   4.261
  694SOL    HW2 2982   4.503   0.181   4.178
  695SOL     OW 2983   4.865   6.485   4.134
  695SOL    HW1 2984   4.896   6.446   4.220
  695SOL    HW2 2985   4.919   6.448   4.059
  696SOL     OW 2986   4.564   4.797   3.228
  696SOL    HW1 2987   4.495   4.735   3.190
  696SOL    HW2 2988   4.643   4.800   3.167
  697SOL     OW 2989   1.134   4.081   3.201
  697SOL    HW1 2990   1.084   4.133   3.269
  697SOL    HW2 2991   1.219   4.045   3.242
  698SOL     OW 2992   4.523   6.326   1.002
  698SOL    HW1 2993   4.508   6.378   1.086
  698SOL    HW2 2994   4.486   6.233   1.013
  699SOL     OW 2995   1.811   3.922   6.647
  699SOL    HW1 2996   1.740   3.898   6.713
  699SOL    HW2 2997   1.774   3.911   6.554
  700SOL     OW 2998   2.539   0.600   2.021
  700SOL    HW1 2999   2.467   0.535   1.999
  700SOL    HW2 3000   2.559   0.596   2.119
  701SOL     OW 3001   6.330   3.816   6.777
  701SOL    HW1 3002   6.381   3.852   6.699
  701SOL    HW2 3003   6.380   3.837   6.861
  702SOL     OW 3004   1.497   6.482   4.991
  702SOL    HW1 3005   1.543   6.494   5.079
  702SOL    HW2 3006   1.514   6.561   4.933
  703SOL     OW 3007   3.391   2.879   6.516
  703SOL    HW1 3008   3.359   2.933   6.594
  703SOL    HW2 3009   3.343   2.909   6.433
  704SOL     OW 3010   1.543   2.834   6.900
  704SOL    HW1 3011   1.502   2.795   6.817
  704SOL    HW2 3012   1.566   2.930   6.883
  705SOL     OW 3013   6.225   5.027   2.799
  705SOL    HW1 3014   6.163   5.019   2.722
  705SOL    HW2 3015   6.243   5.124   2.817
  706SOL     OW 3016   4.328   2.112   5.243
  706SOL    HW1 3017   4.356   2.084   5.151
  706SOL    HW2 3018   4.297   2.031   5.294
  707SOL     OW 3019   4.388   4.572   3.066
  707SOL    HW1 3020   4.295   4.542   3.049
  707SOL    HW2 3021   4.452   4.506   3.028
  708SOL     OW 3022   2.954   0.879   2.376
  708SOL    HW1 3023   2.913   0.836   2.457
  708SOL    HW2 3024   2.951   0.814   2.300
  709SOL     OW 3025   0.343   5.867   0.741
  709SOL    HW1 3026   0.362   5.854   0.838
  709SOL    HW2 3027   0.245   5.853   0.724
  710SOL     OW 3028   3.533   2.358   1.055
  710SOL    HW1 3029   3.487   2.272   1.031
  710SOL    HW2 3030   3.535   2.368   1.154
  711SOL     OW 3031   6.933   3.289   5.958
  711SOL    HW1 3032   6.955   3.311   5.863
  711SOL    HW2 3033   6.936   3.190   5.971
  712SOL     OW 3034   3.917   2.132   1.081
  712SOL    HW1 3035   3.993   2.073   1.106
  712SOL    HW2 3036   3.902   2.200   1.152
  713SOL     OW 3037   3.949   2.895   6.231
  713SOL    HW1 3038   3.881   2.836   6.188
  713SOL    HW2 3039   3.994   2.952   6.162
  714SOL     OW 3040   0.714   4.713   3.257
  714SOL    HW1 3041   0.688   4.620   3.231
  714SOL    HW2 3042   0.701   4.725   3.355
  715SOL     OW 3043   4.915   6.293   0.008
  715SOL    HW1 3044   4.886   6.256   0.096
  715SOL    HW2 3045   4.970   6.375   0.023
  716SOL     OW 3046   0.567   1.118   2.231
  716SOL    HW1 3047   0.558   1.059   2.152
  716SOL    HW2 3048   0.512   1.201   2.218
  717SOL     OW 3049   6.189   4.344   3.596
  717SOL    HW1 3050   6.210   4.423   3.654
  717SOL    HW2 3051   6.265   4.330   3.531
  718SOL     OW 3052   4.323   3.421   6.313
  718SOL    HW1 3053   4.363   3.373   6.391
  718SOL    HW2 3054   4.297   3.355   6.243
  719SOL     OW 3055   6.844   0.412   2.932
  719SOL    HW1 3056   6.752   0.386   2.902
  719SOL    HW2 3057   6.898   0.330   2.950
  720SOL     OW 3058   2.412   0.158   6.151
  720SOL    HW1 3059   2.355   0.215   6.093
  720SOL    HW2 3060   2.487   0.121   6.097
  721SOL     OW 3061   3.036   1.744   2.473
  721SOL    HW1 3062   3.062   1.840   2.478
  721SOL    HW2 3063   2.937   1.736   2.484
  722SOL     OW 3064   2.686   0.565   5.365
  722SOL    HW1 3065   2.709   0.503   5.290
  722SOL    HW2 3066   2.610   0.529   5.418
  723SOL     OW 3067   1.534   4.456   3.655
  723SOL    HW1 3068   1.508   4.373   3.606
  723SOL    HW2 3069   1.545   4.531   3.589
  724SOL     OW 3070   0.914   1.581   3.994
  724SOL    HW1 3071   0.959   1.661   4.032
  724SOL    HW2 3072   0.983   1.515   3.965
  725SOL     OW 3073   1.749   5.494   2.102
  725SOL    HW1 3074   1.756   5.548   2.019
  725SOL    HW2 3075   1.653   5.480   2.126
  726SOL     OW 3076   3.675   4.291   1.368
  726SOL    HW1 3077   3.772   4.267   1.377
  726SOL    HW2 3078   3.667   4.378   1.320
  727SOL     OW 3079   6.023   4.643   5.295
  727SOL    HW1 3080   6.059   4.550   5.282
  727SOL    HW2 3081   6.098   4.703   5.325
  728SOL     OW 3082   6.077   2.636   3.507
  728SOL    HW1 3083   5.980   2.630   3.486
  728SOL    HW2 3084   6.119   2.708   3.451
  729SOL     OW 3085   0.374   1.721   1.121
  729SOL    HW1 3086   0.323   1.789   1.174
  729SOL    HW2 3087   0.472   1.740   1.128
  730SOL     OW 3088   6.573   6.936   4.447
  730SOL    HW1 3089   6.546   6.906   4.356
  730SOL    HW2 3090   6.492   6.950   4.503
  731SOL     OW 3091   4.592   5.274   6.785
  731SOL    HW1 3092   4.632   5.184   6.771
  731SOL    HW2 3093   4.533   5.273   6.866
  732SOL     OW 3094   5.487   2.752   1.352
  732SOL    HW1 3095   5.516   2.769   1.446
  732SOL    HW2 3096   5.559   2.780   1.289
  733SOL     OW 3097   5.286   0.226   4.104
  733SOL    HW1 3098   5.307   0.198   4.198
  733SOL    HW2 3099   5.238   0.313   4.105
  734SOL     OW 3100   6.006   4.760   2.905
  734SOL    HW1 3101   6.101   4.776   2.879
  734SOL    HW2 3102   5.986   4.808   2.991
  735SOL     OW 3103   4.102   1.724   0.435
  735SOL    HW1 3104   4.040   1.751   0.508
  735SOL    HW2 3105   4.049   1.697   0.355
  736SOL     OW 3106   0.355   2.033   3.591
  736SOL    HW1 3107   0.344   2.032   3.492
  736SOL    HW2 3108   0.308   2.112   3.630
  737SOL     OW 3109   5.477   1.963   5.664
  737SOL    HW1 3110   5.449   1.934   5.572
  737SOL    HW2 3111   5.536   2.044   5.656
  738SOL     OW 3112   2.338   3.795   1.215
  738SOL    HW1 3113   2.294   3.866   1.160
  738SOL    HW2 3114   2.437   3.796   1.198
  739SOL     OW 3115   5.333   1.222   4.508
  739SOL    HW1 3116   5.328   1.314   4.548
  739SOL    HW2 3117   5.323   1.229   4.409
  740SOL     OW 3118   5.816   1.565   2.034
  740SOL    HW1 3119   5.773   1.506   1.966
  740SOL    HW2 3120   5.778   1.545   2.124
  741SOL     OW 3121   1.896   7.001   2.987
  741SOL    HW1 3122   1.953   6.987   3.068
  741SOL    HW2 3123   1.922   0.070   2.942
  742SOL     OW 3124   2.311   6.666   2.491
  742SOL    HW1 3125   2.349   6.745   2.443
  742SOL    HW2 3126   2.247   6.618   2.431
  743SOL     OW 3127   1.130   5.325   3.653
  743SOL    HW1 3128   1.041   5.316   3.699
  743SOL    HW2 3129   1.120   5.305   3.556
  744SOL     OW 3130   5.684   0.521   1.022
  744SOL    HW1 3131   5.665   0.450   1.090
  744SOL    HW2 3132   5.781   0.518   0.998
  745SOL     OW 3133   1.642   5.354   5.142
  745SOL    HW1 3134   1.600   5.441   5.168
  745SOL    HW2 3135   1.571   5.290   5.114
  746SOL     OW 3136   6.147   4.257   6.067
  746SOL    HW1 3137   6.079   4.275   6.138
  746SOL    HW2 3138   6.212   4.188   6.099
  747SOL     OW 3139   3.830   6.545   4.500
  747SOL    HW1 3140   3.780   6.458   4.498
  747SOL    HW2 3141   3.928   6.526   4.498
  748SOL     OW 3142   4.145   5.172   2.449
  748SOL    HW1 3143   4.163   5.262   2.410
  748SOL    HW2 3144   4.181   5.102   2.389
  749SOL     OW 3145   6.243   3.763   3.824
  749SOL    HW1 3146   6.190   3.680   3.839
  749SOL    HW2 3147   6.200   3.839   3.874
  750SOL     OW 3148   2.590   1.356   1.331
  750SOL    HW1 3149   2.499   1.326   1.304
  750SOL    HW2 3150   2.651   1.277   1.338
  751SOL     OW 3151   4.442   1.319   6.759
  751SOL    HW1 3152   4.472   1.391   6.822
  751SOL    HW2 3153   4.426   1.235   6.810
  752SOL     OW 3154   2.723   2.454   1.037
  752SOL    HW1 3155   2.806   2.471   0.984
  752SOL    HW2 3156   2.670   2.381   0.993
  753SOL     OW 3157   1.018   3.747   6.365
  753SOL    HW1 3158   1.012   3.845   6.380
  753SOL    HW2 3159   0.988   3.698   6.448
  754SOL     OW 3160   4.805   1.836   5.929
  754SOL    HW1 3161   4.870   1.782   5.876
  754SOL    HW2 3162   4.849   1.922   5.958
  755SOL     OW 3163   1.494   4.334   5.223
  755SOL    HW1 3164   1.462   4.407   5.163
  755SOL    HW2 3165   1.586   4.355   5.255
  756SOL     OW 3166   2.711   6.192   6.478
  756SOL    HW1 3167   2.697   6.130   6.401
  756SOL    HW2 3168   2.787   6.159   6.534
  757SOL     OW 3169   0.324   6.933   4.125
  757SOL    HW1 3170   0.352   7.008   4.066
  757SOL    HW2 3171   0.398   6.911   4.189
  758SOL     OW 3172   3.884   0.659   3.142
  758SOL    HW1 3173   3.788   0.646   3.168
  758SOL    HW2 3174   3.943   0.614   3.209
  759SOL     OW 3175   0.591   2.502   2.105
  759SOL    HW1 3176   0.561   2.423   2.052
  759SOL    HW2 3177   0.512   2.544   2.150
  760SOL     OW 3178   6.147   6.763   4.122
  760SOL    HW1 3179   6.115   6.707   4.045
  760SOL    HW2 3180   6.173   6.704   4.198
  761SOL     OW 3181   5.478   3.735   6.358
  761SOL    HW1 3182   5.572   3.710   6.384
  761SOL    HW2 3183   5.458   3.828   6.390
  762SOL     OW 3184   2.704   0.351   5.189
  762SOL    HW1 3185   2.688   0.287   5.264
  762SOL    HW2 3186   2.625   0.349   5.127
  763SOL     OW 3187   3.848   5.679   6.282
  763SOL    HW1 3188   3.793   5.717   6.357
  763SOL    HW2 3189   3.936   5.647   6.318
  764SOL     OW 3190   5.540   0.909   5.734
  764SOL    HW1 3191   5.595   0.992   5.746
  764SOL    HW2 3192   5.512   0.875   5.824
  765SOL     OW 3193   1.326   5.704   1.435
  765SOL    HW1 3194   1.329   5.609   1.406
  765SOL    HW2 3195   1.413   5.748   1.415
  766SOL     OW 3196   2.477   1.951   5.968
  766SOL    HW1 3197   2.491   2.016   6.042
  766SOL    HW2 3198   2.481   1.858   6.004
  767SOL     OW 3199   6.441   5.837   3.481
  767SOL    HW1 3200   6.459   5.856   3.578
  767SOL    HW2 3201   6.491   5.755   3.454
  768SOL     OW 3202   2.184   5.235   2.890
  768SOL    HW1 3203   2.237   5.150   2.893
  768SOL    HW2 3204   2.089   5.214   2.866
  769SOL     OW 3205   2.540   1.229   5.587
  769SOL    HW1 3206   2.580   1.310   5.543
  769SOL    HW2 3207   2.570   1.225   5.683
  770SOL     OW 3208   1.674   5.156   3.443
  770SOL    HW1 3209   1.671   5.071   3.495
  770SOL    HW2 3210   1.580   5.185   3.423
  771SOL     OW 3211   1.342   5.194   2.810
  771SOL    HW1 3212   1.332   5.293   2.824
  771SOL    HW2 3213   1.289   5.145   2.879
  772SOL     OW 3214   5.476   4.677   6.262
  772SOL    HW1 3215   5.468   4.600   6.199
  772SOL    HW2 3216   5.385   4.708   6.289
  773SOL     OW 3217   0.243   4.457   3.552
  773SOL    HW1 3218   0.290   4.373   3.577
  773SOL    HW2 3219   0.258   4.526   3.623
  774SOL     OW 3220   1.786   0.993   1.498
  774SOL    HW1 3221   1.826   1.064   1.439
  774SOL    HW2 3222   1.734   0.929   1.442
  775SOL     OW 3223   2.527   2.061   4.151
  775SOL    HW1 3224   2.526   2.055   4.251
  775SOL    HW2 3225   2.436   2.037   4.116
  776SOL     OW 3226   0.254   0.508   5.417
  776SOL    HW1 3227   0.255   0.443   5.340
  776SOL    HW2 3228   0.182   0.576   5.401
  777SOL     OW 3229   1.383   4.990   0.475
  777SOL    HW1 3230   1.328   5.030   0.548
  777SOL    HW2 3231   1.467   5.043   0.464
  778SOL     OW 3232   2.200   0.692   1.942
  778SOL    HW1 3233   2.138   0.728   1.873
  778SOL    HW2 3234   2.275   0.757   1.957
  779SOL     OW 3235   0.029   2.317   2.413
  779SOL    HW1 3236   0.035   2.330   2.314
  779SOL    HW2 3237   0.119   2.293   2.449
  780SOL     OW 3238   0.847   2.858   4.447
  780SOL    HW1 3239   0.805   2.770   4.467
  780SOL    HW2 3240   0.844   2.875   4.349
  781SOL     OW 3241   5.817   6.166   0.564
  781SOL    HW1 3242   5.834   6.263   0.544
  781SOL    HW2 3243   5.881   6.110   0.514
  782SOL     OW 3244   1.190   3.376   6.484
  782SOL    HW1 3245   1.113   3.311   6.481
  782SOL    HW2 3246   1.202   3.418   6.394
  783SOL     OW 3247   4.993   4.659   1.916
  783SOL    HW1 3248   4.941   4.727   1.865
  783SOL    HW2 3249   5.089   4.663   1.887
  784SOL     OW 3250   4.220   4.815   0.476
  784SOL    HW1 3251   4.290   4.842   0.411
  784SOL    HW2 3252   4.262   4.764   0.551
  785SOL     OW 3253   0.232   2.022   3.338
  785SOL    HW1 3254   0.195   1.957   3.272
  785SOL    HW2 3255   0.156   2.075   3.377
  786SOL     OW 3256   0.658   0.244   2.920
  786SOL    HW1 3257   0.717   0.282   2.991
  786SOL    HW2 3258   0.562   0.257   2.946
  787SOL     OW 3259   1.149   1.112   6.908
  787SOL    HW1 3260   1.218   1.156   6.966
  787SOL    HW2 3261   1.058   1.133   6.943
  788SOL     OW 3262   3.941   1.520   1.020
  788SOL    HW1 3263   3.974   1.530   1.114
  788SOL    HW2 3264   3.992   1.582   0.960
  789SOL     OW 3265   4.252   4.339   1.655
  789SOL    HW1 3266   4.292   4.372   1.570
  789SOL    HW2 3267   4.325   4.306   1.716
  790SOL     OW 3268   1.904   1.623   3.008
  790SOL    HW1 3269   1.942   1.706   2.968
  790SOL    HW2 3270   1.959   1.596   3.087
  791SOL     OW 3271   1.509   6.062   4.633
  791SOL    HW1 3272   1.549   6.140   4.682
  791SOL    HW2 3273   1.492   5.988   4.698
  792SOL     OW 3274   0.941   1.046   1.967
  792SOL    HW1 3275   0.981   1.036   2.058
  792SOL    HW2 3276   0.884   1.128   1.965
  793SOL     OW 3277   5.048   5.262   4.163
  793SOL    HW1 3278   4.961   5.219   4.184
  793SOL    HW2 3279   5.123   5.198   4.180
  794SOL     OW 3280   2.960   3.981   5.892
  794SOL    HW1 3281   3.005   3.992   5.981
  794SOL    HW2 3282   2.986   4.058   5.833
  795SOL     OW 3283   3.972   0.616   4.853
  795SOL    HW1 3284   4.004   0.566   4.774
  795SOL    HW2 3285   3.897   0.566   4.897
  796SOL     OW 3286   1.131   2.539   6.447
  796SOL    HW1 3287   1.148   2.599   6.369
  796SOL    HW2 3288   1.141   2.443   6.418
  797SOL     OW 3289   5.138   0.582   1.231
  797SOL    HW1 3290   5.153   0.550   1.137
  797SOL    HW2 3291   5.058   0.536   1.270
  798SOL     OW 3292   3.776   6.586   1.993
  798SOL    HW1 3293   3.831   6.608   1.913
  798SOL    HW2 3294   3.832   6.595   2.076
  799SOL     OW 3295   0.249   6.997   6.094
  799SOL    HW1 3296   0.149   7.001   6.090
  799SOL    HW2 3297   0.282   0.046   6.162
  800SOL     OW 3298   5.838   0.768   2.328
  800SOL    HW1 3299   5.827   0.787   2.231
  800SOL    HW2 3300   5.869   0.851   2.375
  801SOL     OW 3301   2.130   4.250   4.218
  801SOL    HW1 3302   2.072   4.325   4.249
  801SOL    HW2 3303   2.198   4.284   4.153
  802SOL     OW 3304   2.800   1.755   0.884
  802SOL    HW1 3305   2.801   1.674   0.826
  802SOL    HW2 3306   2.877   1.752   0.948
  803SOL     OW 3307   1.433   0.411   5.861
  803SOL    HW1 3308   1.493   0.341   5.821
  803SOL    HW2 3309   1.376   0.369   5.932
  804SOL     OW 3310   5.980   6.405   0.695
  804SOL    HW1 3311   6.023   6.324   0.655
  804SOL    HW2 3312   6.030   6.487   0.667
  805SOL     OW 3313   2.506   0.979   4.487
  805SOL    HW1 3314   2.536   1.066   4.449
  805SOL    HW2 3315   2.429   0.995   4.549
  806SOL     OW 3316   5.709   0.999   4.473
  806SOL    HW1 3317   5.699   1.098   4.466
  806SOL    HW2 3318   5.673   0.968   4.561
  807SOL     OW 3319   0.548   0.586   5.352
  807SOL    HW1 3320   0.479   0.550   5.415
  807SOL    HW2 3321   0.634   0.538   5.366
  808SOL     OW 3322   3.962   4.316   6.820
  808SOL    HW1 3323   3.897   4.303   6.744
  808SOL    HW2 3324   3.949   4.242   6.886
  809SOL     OW 3325   0.497   5.007   1.014
  809SOL    HW1 3326   0.484   4.963   1.103
  809SOL    HW2 3327   0.585   5.054   1.012
  810SOL     OW 3328   3.514   4.195   0.569
  810SOL    HW1 3329   3.475   4.236   0.486
  810SOL    HW2 3330   3.538   4.100   0.551
  811SOL     OW 3331   5.707   5.828   5.053
  811SOL    HW1 3332   5.637   5.820   4.981
  811SOL    HW2 3333   5.725   5.738   5.091
  812SOL     OW 3334   0.158   0.637   3.006
  812SOL    HW1 3335   0.192   0.707   3.070
  812SOL    HW2 3336   0.087   0.583   3.051
  813SOL     OW 3337   3.655   6.769   3.952
  813SOL    HW1 3338   3.748   6.746   3.979
  813SOL    HW2 3339   3.656   6.826   3.870
  814SOL     OW 3340   6.447   6.080   2.622
  814SOL    HW1 3341   6.429   6.144   2.548
  814SOL    HW2 3342   6.360   6.056   2.667
  815SOL     OW 3343   6.764   3.123   3.609
  815SOL    HW1 3344   6.768   3.045   3.547
  815SOL    HW2 3345   6.680   3.117   3.664
  816SOL     OW 3346   5.723   5.637   0.787
  816SOL    HW1 3347   5.660   5.571   0.827
  816SOL    HW2 3348   5.745   5.609   0.694
  817SOL     OW 3349   1.381   5.433   1.399
  817SOL    HW1 3350   1.471   5.390   1.401
  817SOL    HW2 3351   1.311   5.364   1.411
  818SOL     OW 3352   6.143   2.740   3.786
  818SOL    HW1 3353   6.101   2.653   3.811
  818SOL    HW2 3354   6.173   2.737   3.691
  819SOL     OW 3355   6.228   3.094   1.701
  819SOL    HW1 3356   6.256   3.189   1.686
  819SOL    HW2 3357   6.166   3.089   1.779
  820SOL     OW 3358   3.014   2.053   4.820
  820SOL    HW1 3359   3.084   1.989   4.788
  820SOL    HW2 3360   3.048   2.103   4.900
  821SOL     OW 3361   6.547   4.119   6.722
  821SOL    HW1 3362   6.582   4.184   6.789
  821SOL    HW2 3363   6.447   4.127   6.716
  822SOL     OW 3364   0.239   3.156   3.318
  822SOL    HW1 3365   0.168   3.221   3.289
  822SOL    HW2 3366   0.207   3.106   3.399
  823SOL     OW 3367   6.181   4.162   5.815
  823SOL    HW1 3368   6.144   4.223   5.885
  823SOL    HW2 3369   6.107   4.109   5.775
  824SOL     OW 3370   3.759   0.653   5.946
  824SOL    HW1 3371   3.814   0.690   6.020
  824SOL    HW2 3372   3.818   0.633   5.868
  825SOL     OW 3373   6.808   5.669   1.498
  825SOL    HW1 3374   6.867   5.593   1.526
  825SOL    HW2 3375   6.715   5.653   1.531
  826SOL     OW 3376   4.137   2.081   5.903
  826SOL    HW1 3377   4.085   2.029   5.970
  826SOL    HW2 3378   4.123   2.179   5.919
  827SOL     OW 3379   2.460   4.446   5.049
  827SOL    HW1 3380   2.440   4.498   4.966
  827SOL    HW2 3381   2.409   4.360   5.048
  828SOL     OW 3382   5.380   6.319   6.361
  828SOL    HW1 3383   5.445   6.387   6.327
  828SOL    HW2 3384   5.287   6.357   6.355
  829SOL     OW 3385   4.126   3.484   2.284
  829SOL    HW1 3386   4.113   3.482   2.383
  829SOL    HW2 3387   4.204   3.542   2.261
  830SOL     OW 3388   5.578   4.969   6.722
  830SOL    HW1 3389   5.622   5.020   6.649
  830SOL    HW2 3390   5.544   4.882   6.685
  831SOL     OW 3391   6.054   6.855   0.317
  831SOL    HW1 3392   6.027   6.763   0.344
  831SOL    HW2 3393   6.152   6.856   0.296
  832SOL     OW 3394   4.152   1.570   2.940
  832SOL    HW1 3395   4.097   1.615   3.010
  832SOL    HW2 3396   4.161   1.473   2.961
  833SOL     OW 3397   1.530   3.605   6.533
  833SOL    HW1 3398   1.498   3.632   6.442
  833SOL    HW2 3399   1.469   3.643   6.603
  834SOL     OW 3400   5.006   3.711   1.152
  834SOL    HW1 3401   4.921   3.658   1.159
  834SOL    HW2 3402   5.071   3.663   1.094
  835SOL     OW 3403   3.359   0.301   5.735
  835SOL    HW1 3404   3.339   0.399   5.731
  835SOL    HW2 3405   3.458   0.287   5.740
  836SOL     OW 3406   3.779   0.080   4.727
  836SOL    HW1 3407   3.698   0.098   4.671
  836SOL    HW2 3408   3.792   0.156   4.791
  837SOL     OW 3409   6.812   0.700   1.092
  837SOL    HW1 3410   6.859   0.755   1.023
  837SOL    HW2 3411   6.881   0.654   1.149
  838SOL     OW 3412   2.353   0.032   4.572
  838SOL    HW1 3413   2.336   6.958   4.532
  838SOL    HW2 3414   2.316   0.102   4.512
  839SOL     OW 3415   2.031   1.364   1.827
  839SOL    HW1 3416   1.998   1.341   1.735
  839SOL    HW2 3417   2.082   1.287   1.864
  840SOL     OW 3418   6.450   5.851   0.115
  840SOL    HW1 3419   6.386   5.916   0.073
  840SOL    HW2 3420   6.414   5.759   0.106
  841SOL     OW 3421   3.235   5.424   6.056
  841SOL    HW1 3422   3.243   5.329   6.086
  841SOL    HW2 3423   3.309   5.478   6.098
  842SOL     OW 3424   3.594   0.193   5.234
  842SOL    HW1 3425   3.539   0.206   5.152
  842SOL    HW2 3426   3.558   0.250   5.308
  843SOL     OW 3427   1.068   1.497   1.504
  843SOL    HW1 3428   1.101   1.582   1.463
  843SOL    HW2 3429   1.060   1.427   1.433
  844SOL     OW 3430   6.303   0.221   0.212
  844SOL    HW1 3431   6.279   0.316   0.231
  844SOL    HW2 3432   6.387   0.197   0.260
  845SOL     OW 3433   4.963   3.800   4.081
  845SOL    HW1 3434   4.931   3.713   4.042
  845SOL    HW2 3435   5.031   3.841   4.019
  846SOL     OW 3436   2.066   1.097   6.082
  846SOL    HW1 3437   2.135   1.131   6.018
  846SOL    HW2 3438   2.015   1.022   6.040
  847SOL     OW 3439   1.183   3.607   1.151
  847SOL    HW1 3440   1.150   3.594   1.057
  847SOL    HW2 3441   1.106   3.624   1.212
  848SOL     OW 3442   6.990   6.999   6.106
  848SOL    HW1 3443   6.979   6.900   6.117
  848SOL    HW2 3444   6.912   0.019   6.055
  849SOL     OW 3445   6.187   3.938   6.494
  849SOL    HW1 3446   6.233   4.019   6.457
  849SOL    HW2 3447   6.191   3.864   6.427
  850SOL     OW 3448   5.468   1.525   4.530
  850SOL    HW1 3449   5.550   1.467   4.523
  850SOL    HW2 3450   5.496   1.620   4.540
  851SOL     OW 3451   0.049   2.701   0.880
  851SOL    HW1 3452   0.093   2.649   0.807
  851SOL    HW2 3453   6.994   2.759   0.840
  852SOL     OW 3454   0.564   4.054   0.887
  852SOL    HW1 3455   0.535   4.050   0.983
  852SOL    HW2 3456   0.490   4.021   0.829
  853SOL     OW 3457   0.855   4.784   0.931
  853SOL    HW1 3458   0.796   4.792   1.012
  853SOL    HW2 3459   0.855   4.871   0.882
  854SOL     OW 3460   5.080   5.623   0.530
  854SOL    HW1 3461   5.119   5.655   0.616
  854SOL    HW2 3462   5.046   5.529   0.541
  855SOL     OW 3463   6.706   0.349   1.653
  855SOL    HW1 3464   6.701   0.430   1.594
  855SOL    HW2 3465   6.670   0.371   1.743
  856SOL     OW 3466   1.245   2.060   6.861
  856SOL    HW1 3467   1.329   2.020   6.898
  856SOL    HW2 3468   1.260   2.157   6.843
  857SOL     OW 3469   6.226   4.774   1.968
  857SOL    HW1 3470   6.278   4.693   1.941
  857SOL    HW2 3471   6.211   4.774   2.066
  858SOL     OW 3472   2.870   3.935   1.245
  858SOL    HW1 3473   2.964   3.915   1.275
  858SOL    HW2 3474   2.806   3.882   1.300
  859SOL     OW 3475   5.809   0.072   5.128
  859SOL    HW1 3476   5.857   0.113   5.206
  859SOL    HW2 3477   5.814   0.134   5.050
  860SOL     OW 3478   6.239   2.899   0.596
  860SOL    HW1 3479   6.330   2.895   0.556
  860SOL    HW2 3480   6.184   2.822   0.563
  861SOL     OW 3481   2.739   5.028   4.049
  861SOL    HW1 3482   2.796   5.093   3.999
  861SOL    HW2 3483   2.796   4.970   4.107
  862SOL     OW 3484   1.457   4.222   3.523
  862SOL    HW1 3485   1.542   4.176   3.548
  862SOL    HW2 3486   1.379   4.170   3.559
  863SOL     OW 3487   5.996   0.777   6.675
  863SOL    HW1 3488   5.935   0.802   6.600
  863SOL    HW2 3489   5.952   0.708   6.733
  864SOL     OW 3490   3.813   5.717   4.254
  864SOL    HW1 3491   3.910   5.711   4.234
  864SOL    HW2 3492   3.760   5.707   4.170
  865SOL     OW 3493   1.567   6.802   6.033
  865SOL    HW1 3494   1.540   6.837   6.122
  865SOL    HW2 3495   1.638   6.733   6.043
  866SOL     OW 3496   2.129   1.215   0.841
  866SOL    HW1 3497   2.132   1.236   0.743
  866SOL    HW2 3498   2.124   1.116   0.853
  867SOL     OW 3499   5.052   3.942   0.374
  867SOL    HW1 3500   5.122   3.873   0.396
  867SOL    HW2 3501   5.076   3.987   0.288
  868SOL     OW 3502   6.282   1.399   1.218
  868SOL    HW1 3503   6.330   1.318   1.186
  868SOL    HW2 3504   6.196   1.372   1.261
  869SOL     OW 3505   0.312   4.753   2.896
  869SOL    HW1 3506   0.274   4.662   2.876
  869SOL    HW2 3507   0.326   4.802   2.810
  870SOL     OW 3508   3.625   3.847   0.294
  870SOL    HW1 3509   3.664   3.902   0.368
  870SOL    HW2 3510   3.663   3.877   0.207
  871SOL     OW 3511   5.275   2.636   2.547
  871SOL    HW1 3512   5.316   2.683   2.625
  871SOL    HW2 3513   5.226   2.555   2.579
  872SOL     OW 3514   5.791   3.369   4.074
  872SOL    HW1 3515   5.766   3.411   3.987
  872SOL    HW2 3516   5.860   3.299   4.058
  873SOL     OW 3517   5.447   6.195   5.434
  873SOL    HW1 3518   5.378   6.178   5.504
  873SOL    HW2 3519   5.446   6.292   5.408
  874SOL     OW 3520   0.160   3.878   6.316
  874SOL    HW1 3521   0.243   3.901   6.368
  874SOL    HW2 3522   0.103   3.817   6.371
  875SOL     OW 3523   5.480   4.726   0.652
  875SOL    HW1 3524   5.402   4.778   0.617
  875SOL    HW2 3525   5.448   4.649   0.707
  876SOL     OW 3526   1.141   4.972   2.716
  876SOL    HW1 3527   1.191   4.958   2.801
  876SOL    HW2 3528   1.204   4.964   2.639
  877SOL     OW 3529   3.692   5.065   5.587
  877SOL    HW1 3530   3.621   5.068   5.658
  877SOL    HW2 3531   3.732   4.973   5.584
  878SOL     OW 3532   4.222   6.419   4.707
  878SOL    HW1 3533   4.270   6.339   4.672
  878SOL    HW2 3534   4.152   6.390   4.772
  879SOL     OW 3535   4.385   1.427   1.244
  879SOL    HW1 3536   4.429   1.464   1.325
  879SOL    HW2 3537   4.303   1.377   1.270
  880SOL     OW 3538   2.945   3.635   4.544
  880SOL    HW1 3539   3.043   3.642   4.563
  880SOL    HW2 3540   2.898   3.600   4.624
  881SOL     OW 3541   5.600   3.345   5.546
  881SOL    HW1 3542   5.688   3.337   5.592
  881SOL    HW2 3543   5.579   3.441   5.530
  882SOL     OW 3544   1.058   2.636   4.086
  882SOL    HW1 3545   1.010   2.585   4.157
  882SOL    HW2 3546   1.079   2.576   4.009
  883SOL     OW 3547   3.761   0.535   0.494
  883SOL    HW1 3548   3.729   0.440   0.485
  883SOL    HW2 3549   3.740   0.585   0.409
  884SOL     OW 3550   0.005   4.763   0.327
  884SOL    HW1 3551   6.989   4.790   0.418
  884SOL    HW2 3552   6.984   4.827   0.259
  885SOL     OW 3553   4.630   6.918   5.350
  885SOL    HW1 3554   4.652   6.882   5.260
  885SOL    HW2 3555   4.597   7.012   5.342
  886SOL     OW 3556   4.125   0.759   0.581
  886SOL    HW1 3557   4.125   0.775   0.680
  886SOL    HW2 3558   4.218   0.737   0.552
  887SOL     OW 3559   4.053   5.907   4.037
  887SOL    HW1 3560   4.074   5.848   4.115
  887SOL    HW2 3561   4.031   5.850   3.957
  888SOL     OW 3562   6.894   6.202   3.555
  888SOL    HW1 3563   6.984   6.174   3.589
  888SOL    HW2 3564   6.843   6.245   3.629
  889SOL     OW 3565   6.485   1.176   6.511
  889SOL    HW1 3566   6.481   1.091   6.563
  889SOL    HW2 3567   6.559   1.171   6.444
  890SOL     OW 3568   2.975   5.224   3.028
  890SOL    HW1 3569   2.885   5.265   3.016
  890SOL    HW2 3570   2.967   5.124   3.026
  891SOL     OW 3571   6.694   3.405   0.713
  891SOL    HW1 3572   6.687   3.382   0.810
  891SOL    HW2 3573   6.720   3.501   0.703
  892SOL     OW 3574   3.549   3.585   4.815
  892SOL    HW1 3575   3.641   3.550   4.800
  892SOL    HW2 3576   3.526   3.580   4.912
  893SOL     OW 3577   2.069   6.455   2.968
  893SOL    HW1 3578   2.007   6.499   3.034
  893SOL    HW2 3579   2.117   6.526   2.916
  894SOL     OW 3580   1.222   2.687   2.975
  894SOL    HW1 3581   1.194   2.781   2.995
  894SOL    HW2 3582   1.146   2.625   2.993
  895SOL     OW 3583   1.275   5.281   4.138
  895SOL    HW1 3584   1.285   5.209   4.070
  895SOL    HW2 3585   1.179   5.308   4.145
  896SOL     OW 3586   5.971   5.164   1.415
  896SOL    HW1 3587   5.897   5.213   1.369
  896SOL    HW2 3588   6.046   5.149   1.351
  897SOL     OW 3589   4.168   0.570   6.577
  897SOL    HW1 3590   4.237   0.601   6.511
  897SOL    HW2 3591   4.180   0.621   6.662
  898SOL     OW 3592   4.023   6.166   2.428
  898SOL    HW1 3593   3.990   6.152   2.334
  898SOL    HW2 3594   3.972   6.106   2.490
  899SOL     OW 3595   0.487   5.734   0.362
  899SOL    HW1 3596   0.501   5.810   0.425
  899SOL    HW2 3597   0.543   5.747   0.280
  900SOL     OW 3598   4.979   6.323   6.524
  900SOL    HW1 3599   4.949   6.229   6.506
  900SOL    HW2 3600   5.054   6.347   6.462
  901SOL     OW 3601   1.253   0.909   4.031
  901SOL    HW1 3602   1.270   0.848   4.109
  901SOL    HW2 3603   1.250   0.855   3.947
  902SOL     OW 3604   1.027   2.994   1.231
  902SOL    HW1 3605   1.041   3.093   1.224
  902SOL    HW2 3606   1.114   2.949   1.252
  903SOL     OW 3607   0.386   3.590   0.207
  903SOL    HW1 3608   0.467   3.556   0.159
  903SOL    HW2 3609   0.313   3.523   0.202
  904SOL     OW 3610   2.215   2.936   2.704
  904SOL    HW1 3611   2.265   2.867   2.756
  904SOL    HW2 3612   2.185   2.897   2.617
  905SOL     OW 3613   4.854   4.089   6.373
  905SOL    HW1 3614   4.759   4.115   6.385
  905SOL    HW2 3615   4.860   4.017   6.303
  906SOL     OW 3616   0.764   2.138   6.522
  906SOL    HW1 3617   0.845   2.158   6.577
  906SOL    HW2 3618   0.782   2.058   6.465
  907SOL     OW 3619   4.886   2.387   1.129
  907SOL    HW1 3620   4.964   2.395   1.066
  907SOL    HW2 3621   4.817   2.328   1.088
  908SOL     OW 3622   2.307   4.615   3.124
  908SOL    HW1 3623   2.267   4.655   3.207
  908SOL    HW2 3624   2.398   4.653   3.110
  909SOL     OW 3625   4.229   6.044   1.989
  909SOL    HW1 3626   4.291   6.112   1.949
  909SOL    HW2 3627   4.279   5.959   2.004
  910SOL     OW 3628   3.117   1.494   1.282
  910SOL    HW1 3629   3.080   1.564   1.220
  910SOL    HW2 3630   3.041   1.451   1.332
  911SOL     OW 3631   1.131   6.004   6.811
  911SOL    HW1 3632   1.178   5.953   6.883
  911SOL    HW2 3633   1.196   6.066   6.767
  912SOL     OW 3634   4.950   1.031   3.384
  912SOL    HW1 3635   5.010   1.087   3.327
  912SOL    HW2 3636   4.910   1.088   3.455
  913SOL     OW 3637   2.715   0.627   4.027
  913SOL    HW1 3638   2.624   0.605   3.992
  913SOL    HW2 3639   2.740   0.563   4.100
  914SOL     OW 3640   2.579   6.677   5.088
  914SOL    HW1 3641   2.551   6.700   5.181
  914SOL    HW2 3642   2.608   6.760   5.040
  915SOL     OW 3643   6.661   2.825   0.751
  915SOL    HW1 3644   6.730   2.894   0.776
  915SOL    HW2 3645   6.587   2.827   0.818
  916SOL     OW 3646   2.172   3.210   2.610
  916SOL    HW1 3647   2.197   3.122   2.651
  916SOL    HW2 3648   2.126   3.194   2.523
  917SOL     OW 3649   0.141   6.512   2.090
  917SOL    HW1 3650   0.214   6.559   2.039
  917SOL    HW2 3651   0.152   6.413   2.081
  918SOL     OW 3652   3.480   0.823   1.422
  918SOL    HW1 3653   3.448   0.733   1.453
  918SOL    HW2 3654   3.401   0.879   1.396
  919SOL     OW 3655   6.732   6.877   3.119
  919SOL    HW1 3656   6.700   6.831   3.202
  919SOL    HW2 3657   6.809   6.936   3.141
  920SOL     OW 3658   2.572   4.596   2.598
  920SOL    HW1 3659   2.489   4.652   2.604
  920SOL    HW2 3660   2.640   4.643   2.542
  921SOL     OW 3661   3.836   5.246   3.551
  921SOL    HW1 3662   3.822   5.154   3.514
  921SOL    HW2 3663   3.870   5.306   3.478
  922SOL     OW 3664   2.854   3.467   4.729
  922SOL    HW1 3665   2.816   3.456   4.821
  922SOL    HW2 3666   2.865   3.377   4.686
  923SOL     OW 3667   2.713   3.927   6.049
  923SOL    HW1 3668   2.701   3.836   6.089
  923SOL    HW2 3669   2.790   3.924   5.985
  924SOL     OW 3670   6.508   3.331   2.611
  924SOL    HW1 3671   6.472   3.411   2.659
  924SOL    HW2 3672   6.452   3.251   2.632
  925SOL     OW 3673   6.975   2.289   6.995
  925SOL    HW1 3674   7.015   2.208   6.952
  925SOL    HW2 3675   6.899   2.261   0.037
  926SOL     OW 3676   6.134   1.007   0.870
  926SOL    HW1 3677   6.157   1.000   0.967
  926SOL    HW2 3678   6.149   0.919   0.825
  927SOL     OW 3679   5.441   4.347   3.265
  927SOL    HW1 3680   5.406   4.256   3.242
  927SOL    HW2 3681   5.522   4.366   3.209
  928SOL     OW 3682   1.414   6.098   0.271
  928SOL    HW1 3683   1.341   6.042   0.310
  928SOL    HW2 3684   1.503   6.061   0.299
  929SOL     OW 3685   1.278   0.249   6.750
  929SOL    HW1 3686   1.231   0.289   6.671
  929SOL    HW2 3687   1.226   0.170   6.783
  930SOL     OW 3688   5.121   6.031   4.878
  930SOL    HW1 3689   5.164   6.121   4.885
  930SOL    HW2 3690   5.188   5.961   4.902
  931SOL     OW 3691   6.157   1.757   4.928
  931SOL    HW1 3692   6.222   1.767   5.003
  931SOL    HW2 3693   6.189   1.687   4.864
  932SOL     OW 3694   3.214   0.359   3.658
  932SOL    HW1 3695   3.282   0.388   3.591
  932SOL    HW2 3696   3.171   0.274   3.628
  933SOL     OW 3697   1.979   6.038   3.708
  933SOL    HW1 3698   1.910   6.072   3.644
  933SOL    HW2 3699   2.070   6.049   3.668
  934SOL     OW 3700   1.951   6.630   6.743
  934SOL    HW1 3701   1.956   6.621   6.644
  934SOL    HW2 3702   1.981   6.721   6.771
  935SOL     OW 3703   5.099   4.423   4.136
  935SOL    HW1 3704   5.072   4.338   4.180
  935SOL    HW2 3705   5.034   4.495   4.161
  936SOL     OW 3706   0.049   0.497   6.458
  936SOL    HW1 3707   7.015   0.578   6.425
  936SOL    HW2 3708   0.109   0.523   6.534
  937SOL     OW 3709   5.094   1.617   5.644
  937SOL    HW1 3710   5.116   1.639   5.739
  937SOL    HW2 3711   4.998   1.589   5.637
  938SOL     OW 3712   6.106   5.102   5.744
  938SOL    HW1 3713   6.058   5.062   5.822
  938SOL    HW2 3714   6.157   5.182   5.773
  939SOL     OW 3715   0.101   6.933   4.684
  939SOL    HW1 3716   0.008   6.952   4.716
  939SOL    HW2 3717   0.101   6.930   4.584
  940SOL     OW 3718   1.309   3.773   1.677
  940SOL    HW1 3719   1.339   3.692   1.627
  940SOL    HW2 3720   1.388   3.818   1.718
  941SOL     OW 3721   5.733   1.317   6.555
  941SOL    HW1 3722   5.777   1.237   6.596
  941SOL    HW2 3723   5.790   1.353   6.481
  942SOL     OW 3724   5.839   0.087   3.092
  942SOL    HW1 3725   5.762   0.030   3.122
  942SOL    HW2 3726   5.851   0.078   2.993
  943SOL     OW 3727   1.790   3.507   3.352
  943SOL    HW1 3728   1.735   3.542   3.427
  943SOL    HW2 3729   1.824   3.416   3.375
  944SOL     OW 3730   0.024   5.011   6.107
  944SOL    HW1 3731   0.036   5.102   6.144
  944SOL    HW2 3732   0.081   4.946   6.157
  945SOL     OW 3733   6.717   3.484   5.939
  945SOL    HW1 3734   6.800   3.431   5.956
  945SOL    HW2 3735   6.637   3.429   5.962
  946SOL     OW 3736   5.118   3.875   5.676
  946SOL    HW1 3737   5.179   3.947   5.643
  946SOL    HW2 3738   5.066   3.838   5.599
  947SOL     OW 3739   3.887   2.970   3.278
  947SOL    HW1 3740   3.913   2.945   3.371
  947SOL    HW2 3741   3.957   3.027   3.238
  948SOL     OW 3742   4.788   0.620   3.084
  948SOL    HW1 3743   4.690   0.613   3.101
  948SOL    HW2 3744   4.814   0.558   3.010
  949SOL     OW 3745   1.658   5.978   0.341
  949SOL    HW1 3746   1.641   5.915   0.416
  949SOL    HW2 3747   1.751   6.016   0.349
  950SOL     OW 3748   5.145   5.658   2.020
  950SOL    HW1 3749   5.241   5.682   2.003
  950SOL    HW2 3750   5.085   5.727   1.978
  951SOL     OW 3751   1.500   0.443   4.347
  951SOL    HW1 3752   1.579   0.504   4.358
  951SOL    HW2 3753   1.499   0.407   4.253
  952SOL     OW 3754   4.550   2.219   3.176
  952SOL    HW1 3755   4.635   2.265   3.202
  952SOL    HW2 3756   4.491   2.283   3.126
  953SOL     OW 3757   5.355   5.254   4.430
  953SOL    HW1 3758   5.372   5.235   4.526
  953SOL    HW2 3759   5.281   5.196   4.397
  954SOL     OW 3760   4.143   5.686   1.282
  954SOL    HW1 3761   4.126   5.671   1.380
  954SOL    HW2 3762   4.067   5.650   1.229
  955SOL     OW 3763   0.344   3.695   2.059
  955SOL    HW1 3764   0.402   3.756   2.004
  955SOL    HW2 3765   0.382   3.603   2.057
  956SOL     OW 3766   6.132   0.204   2.117
  956SOL    HW1 3767   6.096   0.259   2.042
  956SOL    HW2 3768   6.074   0.215   2.197
  957SOL     OW 3769   5.711   3.112   3.673
  957SOL    HW1 3770   5.653   3.039   3.710
  957SOL    HW2 3771   5.679   3.137   3.582
  958SOL     OW 3772   4.062   1.390   1.606
  958SOL    HW1 3773   4.127   1.456   1.645
  958SOL    HW2 3774   4.083   1.299   1.641
  959SOL     OW 3775   3.882   6.109   4.033
  959SOL    HW1 3776   3.956   6.044   4.050
  959SOL    HW2 3777   3.875   6.127   3.935
  960SOL     OW 3778   0.610   0.619   2.250
  960SOL    HW1 3779   0.692   0.598   2.197
  960SOL    HW2 3780   0.617   0.576   2.340
  961SOL     OW 3781   4.221   6.387   3.633
  961SOL    HW1 3782   4.230   6.292   3.602
  961SOL    HW2 3783   4.261   6.448   3.566
  962SOL     OW 3784   0.857   1.523   5.527
  962SOL    HW1 3785   0.777   1.469   5.501
  962SOL    HW2 3786   0.830   1.590   5.597
  963SOL     OW 3787   5.261   1.267   6.469
  963SOL    HW1 3788   5.184   1.255   6.531
  963SOL    HW2 3789   5.251   1.353   6.419
  964SOL     OW 3790   5.857   5.211   0.126
  964SOL    HW1 3791   5.936   5.165   0.165
  964SOL    HW2 3792   5.856   5.307   0.156
  965SOL     OW 3793   5.401   2.207   1.607
  965SOL    HW1 3794   5.501   2.212   1.599
  965SOL    HW2 3795   5.371   2.267   1.681
  966SOL     OW 3796   5.756   3.434   1.899
  966SOL    HW1 3797   5.781   3.444   1.802
  966SOL    HW2 3798   5.713   3.518   1.931
  967SOL     OW 3799   2.503   4.061   1.185
  967SOL    HW1 3800   2.539   3.983   1.133
  967SOL    HW2 3801   2.506   4.143   1.128
  968SOL     OW 3802   3.507   0.757   2.453
  968SOL    HW1 3803   3.479   0.793   2.542
  968SOL    HW2 3804   3.484   0.823   2.382
  969SOL     OW 3805   2.381   5.093   5.608
  969SOL    HW1 3806   2.418   5.184   5.629
  969SOL    HW2 3807   2.371   5.082   5.509
  970SOL     OW 3808   5.753   0.840   6.498
  970SOL    HW1 3809   5.717   0.794   6.579
  970SOL    HW2 3810   5.737   0.784   6.417
  971SOL     OW 3811   0.045   2.619   2.239
  971SOL    HW1 3812   0.051   2.541   2.176
  971SOL    HW2 3813   6.993   2.600   2.310
  972SOL     OW 3814   5.670   2.342   1.197
  972SOL    HW1 3815   5.593   2.297   1.242
  972SOL    HW2 3816   5.734   2.273   1.165
  973SOL     OW 3817   0.519   5.089   6.593
  973SOL    HW1 3818   0.515   5.024   6.517
  973SOL    HW2 3819   0.595   5.153   6.578
  974SOL     OW 3820   5.598   6.726   2.573
  974SOL    HW1 3821   5.663   6.655   2.599
  974SOL    HW2 3822   5.506   6.701   2.604
  975SOL     OW 3823   1.808   0.821   6.877
  975SOL    HW1 3824   1.886   0.783   6.927
  975SOL    HW2 3825   1.802   0.778   6.787
  976SOL     OW 3826   6.911   3.727   2.176
  976SOL    HW1 3827   6.999   3.764   2.206
  976SOL    HW2 3828   6.837   3.787   2.208
  977SOL     OW 3829   0.611   0.066   1.926
  977SOL    HW1 3830   0.670   7.016   1.973
  977SOL    HW2 3831   0.549   0.017   1.864
  978SOL     OW 3832   5.712   2.778   5.619
  978SOL    HW1 3833   5.638   2.710   5.618
  978SOL    HW2 3834   5.712   2.829   5.533
  979SOL     OW 3835   0.158   2.730   6.982
  979SOL    HW1 3836   0.145   2.631   6.978
  979SOL    HW2 3837   0.252   2.750   7.008
  980SOL     OW 3838   5.154   1.893   3.723
  980SOL    HW1 3839   5.240   1.943   3.711
  980SOL    HW2 3840   5.172   1.803   3.761
  981SOL     OW 3841   0.385   1.864   4.802
  981SOL    HW1 3842   0.303   1.816   4.769
  981SOL    HW2 3843   0.452   1.869   4.728
  982SOL     OW 3844   1.347   1.853   5.193
  982SOL    HW1 3845   1.268   1.886   5.141
  982SOL    HW2 3846   1.315   1.806   5.276
  983SOL     OW 3847   5.900   2.818   3.211
  983SOL    HW1 3848   5.929   2.849   3.302
  983SOL    HW2 3849   5.920   2.721   3.202
  984SOL     OW 3850   2.792   2.293   4.392
  984SOL    HW1 3851   2.728   2.366   4.415
  984SOL    HW2 3852   2.775   2.262   4.299
  985SOL     OW 3853   6.474   2.975   5.271
  985SOL    HW1 3854   6.407   3.041   5.236
  985SOL    HW2 3855   6.427   2.890   5.295
  986SOL     OW 3856   4.616   4.727   1.379
  986SOL    HW1 3857   4.600   4.693   1.287
  986SOL    HW2 3858   4.651   4.821   1.375
  987SOL     OW 3859   4.901   6.653   2.689
  987SOL    HW1 3860   4.857   6.677   2.603
  987SOL    HW2 3861   4.857   6.570   2.726
  988SOL     OW 3862   3.568   3.677   2.121
  988SOL    HW1 3863   3.474   3.673   2.156
  988SOL    HW2 3864   3.632   3.656   2.195
  989SOL     OW 3865   6.581   2.054   6.501
  989SOL    HW1 3866   6.610   2.149   6.511
  989SOL    HW2 3867   6.639   1.996   6.558
  990SOL     OW 3868   3.993   1.451   2.123
  990SOL    HW1 3869   4.060   1.377   2.113
  990SOL    HW2 3870   4.034   1.525   2.177
  991SOL     OW 3871   0.852   3.742   4.429
  991SOL    HW1 3872   0.915   3.723   4.504
  991SOL    HW2 3873   0.903   3.761   4.345
  992SOL     OW 3874   0.423   3.358   1.262
  992SOL    HW1 3875   0.384   3.302   1.335
  992SOL    HW2 3876   0.362   3.436   1.245
  993SOL     OW 3877   6.822   4.562   0.513
  993SOL    HW1 3878   6.805   4.583   0.416
  993SOL    HW2 3879   6.876   4.635   0.554
  994SOL     OW 3880   3.575   5.249   1.729
  994SOL    HW1 3881   3.667   5.234   1.694
  994SOL    HW2 3882   3.557   5.347   1.735
  995SOL     OW 3883   4.093   2.736   5.643
  995SOL    HW1 3884   4.159   2.778   5.581
  995SOL    HW2 3885   4.142   2.688   5.716
  996SOL     OW 3886   3.061   5.457   4.746
  996SOL    HW1 3887   3.093   5.372   4.704
  996SOL    HW2 3888   2.961   5.457   4.748
  997SOL     OW 3889   0.989   0.162   3.515
  997SOL    HW1 3890   1.056   0.088   3.522
  997SOL    HW2 3891   0.901   0.125   3.486
  998SOL     OW 3892   5.608   0.815   5.208
  998SOL    HW1 3893   5.623   0.724   5.247
  998SOL    HW2 3894   5.525   0.855   5.248
  999SOL     OW 3895   5.362   4.324   2.552
  999SOL    HW1 3896   5.450   4.320   2.505
  999SOL    HW2 3897   5.335   4.419   2.565
 1000SOL     OW 3898   3.557   1.389   1.751
 1000SOL    HW1 3899   3.599   1.462   1.806
 1000SOL    HW2 3900   3.465   1.371   1.786
 1001SOL     OW 3901   4.895   5.950   1.341
 1001SOL    HW1 3902   4.898   6.001   1.255
 1001SOL    HW2 3903   4.939   6.004   1.413
 1002SOL     OW 3904   5.678   1.922   1.314
 1002SOL    HW1 3905   5.605   1.921   1.382
 1002SOL    HW2 3906   5.765   1.943   1.359
 1003SOL     OW 3907   2.238   6.519   2.697
 1003SOL    HW1 3908   2.283   6.592   2.645
 1003SOL    HW2 3909   2.142   6.515   2.672
 1004SOL     OW 3910   0.538   1.048   1.946
 1004SOL    HW1 3911   0.439   1.042   1.953
 1004SOL    HW2 3912   0.569   0.990   1.870
 1005SOL     OW 3913   2.282   2.087   3.904
 1005SOL    HW1 3914   2.360   2.149   3.897
 1005SOL    HW2 3915   2.200   2.132   3.871
 1006SOL     OW 3916   1.351   4.545   0.276
 1006SOL    HW1 3917   1.449   4.551   0.259
 1006SOL    HW2 3918   1.330   4.460   0.323
 1007SOL     OW 3919   4.810   0.762   5.179
 1007SOL    HW1 3920   4.830   0.667   5.204
 1007SOL    HW2 3921   4.772   0.810   5.258
 1008SOL     OW 3922   0.641   2.756   6.097
 1008SOL    HW1 3923   0.727   2.728   6.140
 1008SOL    HW2 3924   0.650   2.851   6.066
 1009SOL     OW 3925   0.471   5.037   4.844
 1009SOL    HW1 3926   0.567   5.012   4.840
 1009SOL    HW2 3927   0.459   5.117   4.903
 1010SOL     OW 3928   2.958   1.743   6.882
 1010SOL    HW1 3929   2.960   1.828   6.829
 1010SOL    HW2 3930   2.989   1.761   6.975
 1011SOL     OW 3931   1.409   5.554   3.106
 1011SOL    HW1 3932   1.465   5.618   3.054
 1011SOL    HW2 3933   1.430   5.562   3.204
 1012SOL     OW 3934   6.988   6.755   2.784
 1012SOL    HW1 3935   6.960   6.826   2.719
 1012SOL    HW2 3936   6.931   6.674   2.772
 1013SOL     OW 3937   1.129   1.835   6.461
 1013SOL    HW1 3938   1.112   1.933   6.464
 1013SOL    HW2 3939   1.110   1.794   6.550
 1014SOL     OW 3940   6.916   4.672   5.467
 1014SOL    HW1 3941   6.931   4.770   5.461
 1014SOL    HW2 3942   7.003   4.624   5.455
 1015SOL     OW 3943   2.995   6.948   6.131
 1015SOL    HW1 3944   2.953   6.857   6.129
 1015SOL    HW2 3945   3.091   6.942   6.103
 1016SOL     OW 3946   4.512   3.609   0.196
 1016SOL    HW1 3947   4.466   3.695   0.175
 1016SOL    HW2 3948   4.531   3.559   0.111
 1017SOL     OW 3949   4.624   2.801   1.353
 1017SOL    HW1 3950   4.532   2.761   1.344
 1017SOL    HW2 3951   4.692   2.729   1.336
 1018SOL     OW 3952   1.030   4.479   4.425
 1018SOL    HW1 3953   1.121   4.476   4.383
 1018SOL    HW2 3954   0.979   4.557   4.389
 1019SOL     OW 3955   6.832   6.930   1.286
 1019SOL    HW1 3956   6.830   6.858   1.355
 1019SOL    HW2 3957   6.780   7.009   1.318
 1020SOL     OW 3958   6.372   1.148   1.158
 1020SOL    HW1 3959   6.285   1.105   1.180
 1020SOL    HW2 3960   6.420   1.095   1.089
 1021SOL     OW 3961   5.768   6.518   1.271
 1021SOL    HW1 3962   5.745   6.596   1.214
 1021SOL    HW2 3963   5.741   6.433   1.225
 1022SOL     OW 3964   2.747   4.681   5.326
 1022SOL    HW1 3965   2.652   4.669   5.296
 1022SOL    HW2 3966   2.808   4.632   5.264
 1023SOL     OW 3967   0.288   1.187   2.601
 1023SOL    HW1 3968   0.212   1.249   2.584
 1023SOL    HW2 3969   0.374   1.237   2.595
 1024SOL     OW 3970   0.535   2.823   4.243
 1024SOL    HW1 3971   0.545   2.838   4.341
 1024SOL    HW2 3972   0.459   2.879   4.209
 1025SOL     OW 3973   3.695   3.501   1.543
 1025SOL    HW1 3974   3.608   3.535   1.578
 1025SOL    HW2 3975   3.688   3.403   1.526
 1026SOL     OW 3976   2.484   2.603   1.695
 1026SOL    HW1 3977   2.560   2.538   1.702
 1026SOL    HW2 3978   2.503   2.668   1.621
 1027SOL     OW 3979   3.546   6.768   1.979
 1027SOL    HW1 3980   3.618   6.701   1.998
 1027SOL    HW2 3981   3.583   6.860   1.987
 1028SOL     OW 3982   1.557   0.066   2.525
 1028SOL    HW1 3983   1.571   0.107   2.435
 1028SOL    HW2 3984   1.642   0.024   2.557
 1029SOL     OW 3985   1.401   1.149   6.291
 1029SOL    HW1 3986   1.478   1.205   6.321
 1029SOL    HW2 3987   1.352   1.196   6.218
 1030SOL     OW 3988   3.187   3.381   2.005
 1030SOL    HW1 3989   3.161   3.427   1.920
 1030SOL    HW2 3990   3.105   3.355   2.056
 1031SOL     OW 3991   4.805   3.898   1.332
 1031SOL    HW1 3992   4.883   3.885   1.393
 1031SOL    HW2 3993   4.795   3.818   1.273
 1032SOL     OW 3994   1.281   1.736   5.883
 1032SOL    HW1 3995   1.321   1.825   5.859
 1032SOL    HW2 3996   1.227   1.702   5.806
 1033SOL     OW 3997   0.951   5.554   1.224
 1033SOL    HW1 3998   1.049   5.545   1.209
 1033SOL    HW2 3999   0.908   5.464   1.222
 1034SOL     OW 4000   1.096   5.071   4.450
 1034SOL    HW1 4001   1.064   5.163   4.472
 1034SOL    HW2 4002   1.192   5.074   4.421
 1035SOL     OW 4003   0.328   0.748   5.237
 1035SOL    HW1 4004   0.392   0.684   5.279
 1035SOL    HW2 4005   0.360   0.842   5.253
 1036SOL     OW 4006   3.560   0.508   2.129
 1036SOL    HW1 4007   3.560   0.541   2.223
 1036SOL    HW2 4008   3.539   0.410   2.128
 1037SOL     OW 4009   1.350   1.232   2.811
 1037SOL    HW1 4010   1.424   1.298   2.826
 1037SOL    HW2 4011   1.262   1.277   2.826
 1038SOL     OW 4012   2.029   0.977   5.577
 1038SOL    HW1 4013   1.948   1.035   5.590
 1038SOL    HW2 4014   2.091   0.989   5.655
 1039SOL     OW 4015   3.649   3.922   4.641
 1039SOL    HW1 4016   3.551   3.935   4.657
 1039SOL    HW2 4017   3.678   3.837   4.685
 1040SOL     OW 4018   4.972   1.425   2.305
 1040SOL    HW1 4019   4.924   1.420   2.392
 1040SOL    HW2 4020   4.953   1.343   2.251
 1041SOL     OW 4021   0.233   6.692   3.553
 1041SOL    HW1 4022   0.203   6.734   3.468
 1041SOL    HW2 4023   0.291   6.757   3.604
 1042SOL     OW 4024   4.124   5.643   2.553
 1042SOL    HW1 4025   4.204   5.703   2.564
 1042SOL    HW2 4026   4.144   5.554   2.594
 1043SOL     OW 4027   3.639   2.098   3.479
 1043SOL    HW1 4028   3.713   2.136   3.424
 1043SOL    HW2 4029   3.553   2.107   3.430
 1044SOL     OW 4030   5.634   5.137   2.312
 1044SOL    HW1 4031   5.662   5.046   2.341
 1044SOL    HW2 4032   5.671   5.205   2.375
 1045SOL     OW 4033   3.608   0.497   2.430
 1045SOL    HW1 4034   3.706   0.497   2.409
 1045SOL    HW2 4035   3.574   0.590   2.435
 1046SOL     OW 4036   1.573   1.427   0.311
 1046SOL    HW1 4037   1.517   1.499   0.353
 1046SOL    HW2 4038   1.590   1.450   0.215
 1047SOL     OW 4039   2.107   0.179   3.982
 1047SOL    HW1 4040   2.103   0.229   3.895
 1047SOL    HW2 4041   2.139   0.241   4.054
 1048SOL     OW 4042   4.252   6.385   3.305
 1048SOL    HW1 4043   4.336   6.341   3.338
 1048SOL    HW2 4044   4.255   6.391   3.205
 1049SOL     OW 4045   6.701   6.591   3.719
 1049SOL    HW1 4046   6.653   6.504   3.707
 1049SOL    HW2 4047   6.641   6.666   3.692
 1050SOL     OW 4048   3.209   5.292   1.840
 1050SOL    HW1 4049   3.256   5.236   1.908
 1050SOL    HW2 4050   3.149   5.357   1.886
 1051SOL     OW 4051   0.411   5.299   0.985
 1051SOL    HW1 4052   0.410   5.243   0.902
 1051SOL    HW2 4053   0.454   5.387   0.966
 1052SOL     OW 4054   4.356   0.538   5.366
 1052SOL    HW1 4055   4.271   0.518   5.414
 1052SOL    HW2 4056   4.369   0.637   5.359
 1053SOL     OW 4057   5.792   4.335   3.394
 1053SOL    HW1 4058   5.838   4.271   3.333
 1053SOL    HW2 4059   5.751   4.286   3.471
 1054SOL     OW 4060   3.024   3.617   0.716
 1054SOL    HW1 4061   2.968   3.539   0.745
 1054SOL    HW2 4062   3.120   3.599   0.738
 1055SOL     OW 4063   4.277   6.645   5.152
 1055SOL    HW1 4064   4.242   6.645   5.245
 1055SOL    HW2 4065   4.212   6.599   5.092
 1056SOL     OW 4066   2.215   3.868   0.314
 1056SOL    HW1 4067   2.216   3.947   0.375
 1056SOL    HW2 4068   2.120   3.840   0.296
 1057SOL     OW 4069   3.483   3.394   1.791
 1057SOL    HW1 4070   3.401   3.451   1.796
 1057SOL    HW2 4071   3.531   3.398   1.879
 1058SOL     OW 4072   5.631   2.513   3.483
 1058SOL    HW1 4073   5.612   2.429   3.534
 1058SOL    HW2 4074   5.588   2.509   3.393
 1059SOL     OW 4075   2.686   0.711   1.814
 1059SOL    HW1 4076   2.740   0.792   1.835
 1059SOL    HW2 4077   2.649   0.672   1.898
 1060SOL     OW 4078   0.263   5.017   3.921
 1060SOL    HW1 4079   0.202   5.016   4.000
 1060SOL    HW2 4080   0.312   4.930   3.915
 1061SOL     OW 4081   6.279   3.244   6.979
 1061SOL    HW1 4082   6.254   3.147   6.976
 1061SOL    HW2 4083   6.211   3.297   6.927
 1062SOL     OW 4084   5.503   5.489   5.326
 1062SOL    HW1 4085   5.415   5.499   5.281
 1062SOL    HW2 4086   5.489   5.474   5.424
 1063SOL     OW 4087   0.829   5.692   1.006
 1063SOL    HW1 4088   0.827   5.618   1.074
 1063SOL    HW2 4089   0.786   5.774   1.045
 1064SOL     OW 4090   1.845   4.672   3.028
 1064SOL    HW1 4091   1.817   4.663   2.932
 1064SOL    HW2 4092   1.856   4.582   3.068
 1065SOL     OW 4093   4.759   0.519   3.602
 1065SOL    HW1 4094   4.691   0.578   3.558
 1065SOL    HW2 4095   4.849   0.537   3.563
 1066SOL     OW 4096   5.051   6.692   2.906
 1066SOL    HW1 4097   4.995   6.765   2.945
 1066SOL    HW2 4098   5.017   6.669   2.815
 1067SOL     OW 4099   0.594   2.874   0.617
 1067SOL    HW1 4100   0.570   2.825   0.533
 1067SOL    HW2 4101   0.679   2.924   0.602
 1068SOL     OW 4102   6.308   5.057   2.237
 1068SOL    HW1 4103   6.278   4.986   2.301
 1068SOL    HW2 4104   6.229   5.094   2.188
 1069SOL     OW 4105   4.337   5.715   0.712
 1069SOL    HW1 4106   4.240   5.688   0.705
 1069SOL    HW2 4107   4.343   5.813   0.726
 1070SOL     OW 4108   0.601   0.234   1.673
 1070SOL    HW1 4109   0.626   0.186   1.757
 1070SOL    HW2 4110   0.525   0.296   1.692
 1071SOL     OW 4111   1.190   1.187   4.026
 1071SOL    HW1 4112   1.209   1.093   3.996
 1071SOL    HW2 4113   1.165   1.186   4.123
 1072SOL     OW 4114   1.774   0.671   1.087
 1072SOL    HW1 4115   1.743   0.577   1.075
 1072SOL    HW2 4116   1.733   0.710   1.170
 1073SOL     OW 4117   5.257   0.253   3.446
 1073SOL    HW1 4118   5.324   0.186   3.477
 1073SOL    HW2 4119   5.194   0.274   3.520
 1074SOL     OW 4120   2.419   5.683   1.693
 1074SOL    HW1 4121   2.456   5.751   1.755
 1074SOL    HW2 4122   2.387   5.603   1.745
 1075SOL     OW 4123   5.554   6.863   3.765
 1075SOL    HW1 4124   5.634   6.810   3.794
 1075SOL    HW2 4125   5.473   6.828   3.812
 1076SOL     OW 4126   0.460   2.775   5.400
 1076SOL    HW1 4127   0.394   2.850   5.389
 1076SOL    HW2 4128   0.553   2.812   5.399
 1077SOL     OW 4129   5.955   0.542   0.638
 1077SOL    HW1 4130   5.906   0.460   0.668
 1077SOL    HW2 4131   5.983   0.531   0.543
 1078SOL     OW 4132   0.374   0.747   2.480
 1078SOL    HW1 4133   0.423   0.832   2.460
 1078SOL    HW2 4134   0.434   0.669   2.460
 1079SOL     OW 4135   1.484   6.164   2.032
 1079SOL    HW1 4136   1.557   6.207   2.086
 1079SOL    HW2 4137   1.434   6.234   1.982
 1080SOL     OW 4138   2.307   5.516   3.400
 1080SOL    HW1 4139   2.214   5.542   3.375
 1080SOL    HW2 4140   2.318   5.522   3.500
 1081SOL     OW 4141   6.668   5.141   5.304
 1081SOL    HW1 4142   6.676   5.241   5.299
 1081SOL    HW2 4143   6.615   5.117   5.385
 1082SOL     OW 4144   5.472   2.475   5.220
 1082SOL    HW1 4145   5.506   2.520   5.303
 1082SOL    HW2 4146   5.534   2.400   5.196
 1083SOL     OW 4147   4.515   4.221   0.358
 1083SOL    HW1 4148   4.480   4.237   0.265
 1083SOL    HW2 4149   4.477   4.290   0.420
 1084SOL     OW 4150   6.183   5.802   6.487
 1084SOL    HW1 4151   6.216   5.843   6.403
 1084SOL    HW2 4152   6.260   5.778   6.546
 1085SOL     OW 4153   1.736   3.573   4.578
 1085SOL    HW1 4154   1.768   3.641   4.644
 1085SOL    HW2 4155   1.721   3.486   4.625
 1086SOL     OW 4156   0.154   4.950   0.626
 1086SOL    HW1 4157   0.207   4.865   0.621
 1086SOL    HW2 4158   0.207   5.024   0.586
 1087SOL     OW 4159   6.689   2.414   5.280
 1087SOL    HW1 4160   6.693   2.468   5.195
 1087SOL    HW2 4161   6.596   2.418   5.317
 1088SOL     OW 4162   0.240   3.493   2.597
 1088SOL    HW1 4163   0.240   3.587   2.562
 1088SOL    HW2 4164   0.153   3.474   2.642
 1089SOL     OW 4165   0.401   5.761   4.547
 1089SOL    HW1 4166   0.335   5.825   4.507
 1089SOL    HW2 4167   0.361   5.717   4.627
 1090SOL     OW 4168   3.099   1.861   3.302
 1090SOL    HW1 4169   3.084   1.806   3.384
 1090SOL    HW2 4170   3.093   1.958   3.326
 1091SOL     OW 4171   2.961   1.933   4.428
 1091SOL    HW1 4172   2.865   1.905   4.436
 1091SOL    HW2 4173   2.972   2.026   4.464
 1092SOL     OW 4174   0.724   4.541   0.668
 1092SOL    HW1 4175   0.683   4.470   0.725
 1092SOL    HW2 4176   0.657   4.613   0.652
 1093SOL     OW 4177   2.369   0.486   1.493
 1093SOL    HW1 4178   2.290   0.469   1.552
 1093SOL    HW2 4179   2.417   0.568   1.525
 1094SOL     OW 4180   0.971   6.817   2.521
 1094SOL    HW1 4181   1.041   6.855   2.582
 1094SOL    HW2 4182   0.994   6.837   2.426
 1095SOL     OW 4183   0.974   2.944   6.158
 1095SOL    HW1 4184   1.060   2.965   6.204
 1095SOL    HW2 4185   0.944   2.852   6.184
 1096SOL     OW 4186   3.404   4.186   1.674
 1096SOL    HW1 4187   3.331   4.253   1.665
 1096SOL    HW2 4188   3.478   4.224   1.730
 1097SOL     OW 4189   2.678   4.749   3.333
 1097SOL    HW1 4190   2.643   4.842   3.342
 1097SOL    HW2 4191   2.633   4.689   3.399
 1098SOL     OW 4192   4.481   3.584   6.689
 1098SOL    HW1 4193   4.396   3.587   6.741
 1098SOL    HW2 4194   4.557   3.615   6.747
 1099SOL     OW 4195   3.410   1.025   5.948
 1099SOL    HW1 4196   3.415   1.074   5.861
 1099SOL    HW2 4197   3.405   1.090   6.024
 1100SOL     OW 4198   4.397   1.504   4.463
 1100SOL    HW1 4199   4.414   1.413   4.502
 1100SOL    HW2 4200   4.474   1.529   4.405
 1101SOL     OW 4201   5.205   2.907   5.945
 1101SOL    HW1 4202   5.295   2.918   5.903
 1101SOL    HW2 4203   5.187   2.984   6.007
 1102SOL     OW 4204   0.888   0.149   4.824
 1102SOL    HW1 4205   0.952   0.074   4.840
 1102SOL    HW2 4206   0.821   0.122   4.755
 1103SOL     OW 4207   4.018   1.324   0.124
 1103SOL    HW1 4208   4.079   1.317   0.202
 1103SOL    HW2 4209   3.929   1.357   0.153
 1104SOL     OW 4210   2.045   3.220   5.664
 1104SOL    HW1 4211   2.100   3.238   5.745
 1104SOL    HW2 4212   2.087   3.265   5.585
 1105SOL     OW 4213   5.689   3.348   4.701
 1105SOL    HW1 4214   5.787   3.363   4.714
 1105SOL    HW2 4215   5.647   3.326   4.789
 1106SOL     OW 4216   0.026   2.386   0.894
 1106SOL    HW1 4217   0.067   2.476   0.879
 1106SOL    HW2 4218   6.977   2.391   0.970
 1107SOL     OW 4219   0.837   0.604   6.687
 1107SOL    HW1 4220   0.932   0.579   6.666
 1107SOL    HW2 4221   0.823   0.605   6.786
 1108SOL     OW 4222   3.339   7.014   5.331
 1108SOL    HW1 4223   3.429   0.002   5.287
 1108SOL    HW2 4224   3.331   6.930   5.384
 1109SOL     OW 4225   5.555   0.575   3.373
 1109SOL    HW1 4226   5.581   0.534   3.461
 1109SOL    HW2 4227   5.456   0.561   3.359
 1110SOL     OW 4228   4.186   1.937   2.989
 1110SOL    HW1 4229   4.132   1.872   2.935
 1110SOL    HW2 4230   4.223   1.891   3.070
 1111SOL     OW 4231   4.293   5.552   6.998
 1111SOL    HW1 4232   4.264   5.510   6.912
 1111SOL    HW2 4233   4.351   5.631   6.978
 1112SOL     OW 4234   5.577   0.701   2.419
 1112SOL    HW1 4235   5.553   0.615   2.465
 1112SOL    HW2 4236   5.673   0.723   2.439
 1113SOL     OW 4237   5.859   4.327   1.710
 1113SOL    HW1 4238   5.774   4.371   1.739
 1113SOL    HW2 4239   5.850   4.297   1.615
 1114SOL     OW 4240   3.305   1.390   5.781
 1114SOL    HW1 4241   3.215   1.347   5.786
 1114SOL    HW2 4242   3.316   1.456   5.855
 1115SOL     OW 4243   3.804   3.452   5.961
 1115SOL    HW1 4244   3.791   3.356   5.985
 1115SOL    HW2 4245   3.878   3.490   6.015
 1116SOL     OW 4246   4.709   6.393   5.768
 1116SOL    HW1 4247   4.793   6.339   5.759
 1116SOL    HW2 4248   4.643   6.342   5.825
 1117SOL     OW 4249   1.974   2.630   2.251
 1117SOL    HW1 4250   1.893   2.685   2.232
 1117SOL    HW2 4251   2.054   2.673   2.208
 1118SOL     OW 4252   3.155   4.771   1.008
 1118SOL    HW1 4253   3.226   4.842   0.998
 1118SOL    HW2 4254   3.073   4.812   1.048
 1119SOL     OW 4255   4.140   4.666   1.703
 1119SOL    HW1 4256   4.129   4.576   1.744
 1119SOL    HW2 4257   4.058   4.689   1.650
 1120SOL     OW 4258   5.692   6.394   0.687
 1120SOL    HW1 4259   5.790   6.379   0.680
 1120SOL    HW2 4260   5.669   6.483   0.649
 1121SOL     OW 4261   6.615   4.740   4.846
 1121SOL    HW1 4262   6.530   4.791   4.860
 1121SOL    HW2 4263   6.634   4.684   4.926
 1122SOL     OW 4264   4.920   2.477   1.497
 1122SOL    HW1 4265   4.998   2.424   1.462
 1122SOL    HW2 4266   4.948   2.528   1.577
 1123SOL     OW 4267   4.928   2.085   2.673
 1123SOL    HW1 4268   4.932   2.104   2.771
 1123SOL    HW2 4269   4.891   2.164   2.625
 1124SOL     OW 4270   6.828   3.600   5.304
 1124SOL    HW1 4271   6.906   3.541   5.282
 1124SOL    HW2 4272   6.825   3.616   5.402
 1125SOL     OW 4273   2.776   1.779   3.691
 1125SOL    HW1 4274   2.791   1.848   3.762
 1125SOL    HW2 4275   2.722   1.820   3.616
 1126SOL     OW 4276   5.561   5.577   6.895
 1126SOL    HW1 4277   5.555   5.601   6.798
 1126SOL    HW2 4278   5.500   5.634   6.949
 1127SOL     OW 4279   5.338   6.112   4.387
 1127SOL    HW1 4280   5.287   6.052   4.326
 1127SOL    HW2 4281   5.418   6.149   4.339
 1128SOL     OW 4282   6.204   1.549   4.730
 1128SOL    HW1 4283   6.282   1.579   4.675
 1128SOL    HW2 4284   6.209   1.450   4.743
 1129SOL     OW 4285   1.496   0.105   0.598
 1129SOL    HW1 4286   1.559   0.096   0.675
 1129SOL    HW2 4287   1.481   0.015   0.557
 1130SOL     OW 4288   2.231   5.028   0.530
 1130SOL    HW1 4289   2.295   5.102   0.507
 1130SOL    HW2 4290   2.271   4.940   0.503
 1131SOL     OW 4291   1.235   6.113   5.960
 1131SOL    HW1 4292   1.319   6.163   5.977
 1131SOL    HW2 4293   1.160   6.155   6.012
 1132SOL     OW 4294   5.324   0.375   2.708
 1132SOL    HW1 4295   5.306   0.277   2.710
 1132SOL    HW2 4296   5.343   0.407   2.801
 1133SOL     OW 4297   0.839   1.074   0.370
 1133SOL    HW1 4298   0.848   1.020   0.286
 1133SOL    HW2 4299   0.817   1.012   0.446
 1134SOL     OW 4300   5.689   6.885   2.816
 1134SOL    HW1 4301   5.693   6.985   2.811
 1134SOL    HW2 4302   5.642   6.849   2.736
 1135SOL     OW 4303   2.774   6.574   3.918
 1135SOL    HW1 4304   2.849   6.559   3.982
 1135SOL    HW2 4305   2.770   6.671   3.893
 1136SOL     OW 4306   4.288   4.601   3.451
 1136SOL    HW1 4307   4.370   4.548   3.432
 1136SOL    HW2 4308   4.299   4.650   3.538
 1137SOL     OW 4309   1.517   6.234   6.904
 1137SOL    HW1 4310   1.493   6.186   6.820
 1137SOL    HW2 4311   1.602   6.196   6.941
 1138SOL     OW 4312   0.517   0.964   5.729
 1138SOL    HW1 4313   0.558   1.049   5.698
 1138SOL    HW2 4314   0.433   0.983   5.779
 1139SOL     OW 4315   3.463   4.907   2.727
 1139SOL    HW1 4316   3.426   4.850   2.654
 1139SOL    HW2 4317   3.561   4.919   2.714
 1140SOL     OW 4318   2.947   1.147   2.326
 1140SOL    HW1 4319   2.919   1.052   2.314
 1140SOL    HW2 4320   2.909   1.203   2.253
 1141SOL     OW 4321   1.015   6.232   6.896
 1141SOL    HW1 4322   1.062   6.145   6.880
 1141SOL    HW2 4323   0.975   6.232   6.988
 1142SOL     OW 4324   3.412   0.056   3.976
 1142SOL    HW1 4325   3.388   0.037   4.071
 1142SOL    HW2 4326   3.350   0.125   3.939
 1143SOL     OW 4327   2.502   2.531   3.499
 1143SOL    HW1 4328   2.509   2.555   3.596
 1143SOL    HW2 4329   2.421   2.573   3.460
 1144SOL     OW 4330   6.274   4.602   3.712
 1144SOL    HW1 4331   6.252   4.677   3.650
 1144SOL    HW2 4332   6.358   4.623   3.761
 1145SOL     OW 4333   6.320   3.747   1.361
 1145SOL    HW1 4334   6.332   3.650   1.384
 1145SOL    HW2 4335   6.410   3.790   1.349
 1146SOL     OW 4336   6.824   0.899   2.359
 1146SOL    HW1 4337   6.822   0.822   2.295
 1146SOL    HW2 4338   6.916   0.939   2.360
 1147SOL     OW 4339   2.831   5.777   1.757
 1147SOL    HW1 4340   2.902   5.847   1.750
 1147SOL    HW2 4341   2.866   5.689   1.725
 1148SOL     OW 4342   4.426   6.150   0.243
 1148SOL    HW1 4343   4.393   6.232   0.196
 1148SOL    HW2 4344   4.454   6.082   0.175
 1149SOL     OW 4345   6.486   3.085   2.723
 1149SOL    HW1 4346   6.584   3.079   2.704
 1149SOL    HW2 4347   6.445   2.995   2.715
 1150SOL     OW 4348   0.553   4.027   0.268
 1150SOL    HW1 4349   0.579   4.021   0.172
 1150SOL    HW2 4350   0.478   4.093   0.278
 1151SOL     OW 4351   5.775   4.089   5.856
 1151SOL    HW1 4352   5.832   4.014   5.889
 1151SOL    HW2 4353   5.688   4.052   5.822
 1152SOL     OW 4354   4.937   5.192   0.126
 1152SOL    HW1 4355   4.990   5.133   0.188
 1152SOL    HW2 4356   4.947   5.159   0.032
 1153SOL     OW 4357   0.134   0.098   1.878
 1153SOL    HW1 4358   0.117   0.168   1.948
 1153SOL    HW2 4359   0.120   0.138   1.788
 1154SOL     OW 4360   6.966   4.224   1.380
 1154SOL    HW1 4361   0.024   4.217   1.447
 1154SOL    HW2 4362   6.880   4.193   1.422
 1155SOL     OW 4363   2.473   4.954   6.155
 1155SOL    HW1 4364   2.427   4.941   6.242
 1155SOL    HW2 4365   2.463   4.871   6.099
 1156SOL     OW 4366   4.407   2.035   4.970
 1156SOL    HW1 4367   4.380   2.048   4.874
 1156SOL    HW2 4368   4.473   1.960   4.976
 1157SOL     OW 4369   5.083   1.028   6.270
 1157SOL    HW1 4370   4.998   0.986   6.236
 1157SOL    HW2 4371   5.150   0.956   6.288
 1158SOL     OW 4372   6.927   5.119   5.018
 1158SOL    HW1 4373   6.829   5.133   5.007
 1158SOL    HW2 4374   6.946   5.021   5.024
 1159SOL     OW 4375   6.441   0.106   3.732
 1159SOL    HW1 4376   6.377   0.061   3.669
 1159SOL    HW2 4377   6.448   0.054   3.817
 1160SOL     OW 4378   5.244   4.546   0.941
 1160SOL    HW1 4379   5.307   4.536   0.864
 1160SOL    HW2 4380   5.220   4.456   0.976
 1161SOL     OW 4381   6.362   5.370   5.682
 1161SOL    HW1 4382   6.439   5.357   5.745
 1161SOL    HW2 4383   6.305   5.446   5.714
 1162SOL     OW 4384   2.215   2.242   6.913
 1162SOL    HW1 4385   2.284   2.213   6.979
 1162SOL    HW2 4386   2.257   2.249   6.822
 1163SOL     OW 4387   6.773   3.910   1.650
 1163SOL    HW1 4388   6.737   3.819   1.673
 1163SOL    HW2 4389   6.802   3.956   1.733
 1164SOL     OW 4390   5.244   2.730   3.662
 1164SOL    HW1 4391   5.235   2.736   3.762
 1164SOL    HW2 4392   5.243   2.634   3.635
 1165SOL     OW 4393   4.201   5.262   3.714
 1165SOL    HW1 4394   4.210   5.329   3.641
 1165SOL    HW2 4395   4.253   5.179   3.690
 1166SOL     OW 4396   3.401   6.880   0.521
 1166SOL    HW1 4397   3.486   6.850   0.565
 1166SOL    HW2 4398   3.404   6.859   0.423
 1167SOL     OW 4399   4.037   6.622   0.600
 1167SOL    HW1 4400   4.133   6.606   0.625
 1167SOL    HW2 4401   3.992   6.534   0.586
 1168SOL     OW 4402   5.157   2.751   1.936
 1168SOL    HW1 4403   5.120   2.842   1.922
 1168SOL    HW2 4404   5.221   2.752   2.013
 1169SOL     OW 4405   4.667   2.474   5.962
 1169SOL    HW1 4406   4.726   2.547   5.997
 1169SOL    HW2 4407   4.722   2.412   5.906
 1170SOL     OW 4408   5.215   6.949   2.853
 1170SOL    HW1 4409   5.121   6.976   2.834
 1170SOL    HW2 4410   5.237   6.865   2.803
 1171SOL     OW 4411   2.906   6.486   0.118
 1171SOL    HW1 4412   2.928   6.415   0.184
 1171SOL    HW2 4413   2.845   6.450   0.048
 1172SOL     OW 4414   3.381   3.786   1.229
 1172SOL    HW1 4415   3.340   3.773   1.139
 1172SOL    HW2 4416   3.340   3.865   1.274
 1173SOL     OW 4417   3.307   1.376   1.044
 1173SOL    HW1 4418   3.356   1.447   0.993
 1173SOL    HW2 4419   3.208   1.389   1.033
 1174SOL     OW 4420   2.300   4.926   2.114
 1174SOL    HW1 4421   2.219   4.926   2.055
 1174SOL    HW2 4422   2.308   4.837   2.158
 1175SOL     OW 4423   4.355   4.827   6.822
 1175SOL    HW1 4424   4.334   4.917   6.783
 1175SOL    HW2 4425   4.395   4.769   6.752
 1176SOL     OW 4426   5.731   3.661   6.458
 1176SOL    HW1 4427   5.818   3.683   6.412
 1176SOL    HW2 4428   5.748   3.596   6.532
 1177SOL     OW 4429   6.889   3.621   4.602
 1177SOL    HW1 4430   6.945   3.668   4.534
 1177SOL    HW2 4431   6.948   3.568   4.663
 1178SOL     OW 4432   3.751   4.290   1.005
 1178SOL    HW1 4433   3.693   4.248   1.075
 1178SOL    HW2 4434   3.693   4.327   0.932
 1179SOL     OW 4435   2.012   5.853   1.052
 1179SOL    HW1 4436   1.943   5.810   1.110
 1179SOL    HW2 4437   2.015   5.951   1.069
 1180SOL     OW 4438   2.922   5.850   3.998
 1180SOL    HW1 4439   2.870   5.775   3.958
 1180SOL    HW2 4440   2.859   5.917   4.036
 1181SOL     OW 4441   0.312   4.970   5.313
 1181SOL    HW1 4442   0.273   4.942   5.225
 1181SOL    HW2 4443   0.358   4.892   5.356
 1182SOL     OW 4444   4.447   5.267   3.886
 1182SOL    HW1 4445   4.355   5.303   3.870
 1182SOL    HW2 4446   4.501   5.273   3.803
 1183SOL     OW 4447   2.605   4.156   1.422
 1183SOL    HW1 4448   2.595   4.121   1.329
 1183SOL    HW2 4449   2.668   4.098   1.472
 1184SOL     OW 4450   0.239   1.291   5.285
 1184SOL    HW1 4451   0.184   1.212   5.257
 1184SOL    HW2 4452   0.194   1.375   5.253
 1185SOL     OW 4453   1.159   1.053   0.498
 1185SOL    HW1 4454   1.086   1.089   0.555
 1185SOL    HW2 4455   1.122   0.983   0.437
 1186SOL     OW 4456   4.806   6.137   5.412
 1186SOL    HW1 4457   4.747   6.113   5.335
 1186SOL    HW2 4458   4.895   6.168   5.379
 1187SOL     OW 4459   5.134   0.534   4.871
 1187SOL    HW1 4460   5.193   0.482   4.810
 1187SOL    HW2 4461   5.112   0.622   4.828
 1188SOL     OW 4462   3.231   5.748   6.057
 1188SOL    HW1 4463   3.176   5.718   5.979
 1188SOL    HW2 4464   3.299   5.679   6.080
 1189SOL     OW 4465   6.091   2.020   1.634
 1189SOL    HW1 4466   6.176   1.969   1.646
 1189SOL    HW2 4467   6.083   2.048   1.538
 1190SOL     OW 4468   3.644   5.956   3.144
 1190SOL    HW1 4469   3.667   5.878   3.086
 1190SOL    HW2 4470   3.721   5.975   3.206
 1191SOL     OW 4471   4.590   4.987   4.465
 1191SOL    HW1 4472   4.617   5.071   4.513
 1191SOL    HW2 4473   4.498   4.961   4.493
 1192SOL     OW 4474   5.239   4.658   2.952
 1192SOL    HW1 4475   5.306   4.733   2.954
 1192SOL    HW2 4476   5.149   4.695   2.930
 1193SOL     OW 4477   0.375   2.282   5.531
 1193SOL    HW1 4478   0.298   2.220   5.548
 1193SOL    HW2 4479   0.456   2.228   5.504
 1194SOL     OW 4480   6.017   0.667   1.203
 1194SOL    HW1 4481   6.085   0.679   1.276
 1194SOL    HW2 4482   5.930   0.704   1.234
 1195SOL     OW 4483   6.989   3.836   0.703
 1195SOL    HW1 4484   6.961   3.897   0.777
 1195SOL    HW2 4485   0.057   3.789   0.729
 1196SOL     OW 4486   6.436   5.030   3.593
 1196SOL    HW1 4487   6.442   4.951   3.532
 1196SOL    HW2 4488   6.528   5.067   3.609
 1197SOL     OW 4489   4.769   0.080   4.556
 1197SOL    HW1 4490   4.711   0.061   4.478
 1197SOL    HW2 4491   4.712   0.088   4.638
 1198SOL     OW 4492   1.789   3.541   2.692
 1198SOL    HW1 4493   1.876   3.494   2.684
 1198SOL    HW2 4494   1.721   3.496   2.633
 1199SOL     OW 4495   3.660   3.538   2.410
 1199SOL    HW1 4496   3.702   3.447   2.419
 1199SOL    HW2 4497   3.561   3.529   2.415
 1200SOL     OW 4498   3.068   3.890   4.505
 1200SOL    HW1 4499   3.003   3.817   4.527
 1200SOL    HW2 4500   3.085   3.946   4.586
 1201SOL     OW 4501   1.122   1.708   4.297
 1201SOL    HW1 4502   1.104   1.757   4.212
 1201SOL    HW2 4503   1.055   1.635   4.308
 1202SOL     OW 4504   0.249   5.389   5.064
 1202SOL    HW1 4505   0.254   5.366   5.162
 1202SOL    HW2 4506   0.261   5.488   5.052
 1203SOL     OW 4507   0.474   5.453   0.358
 1203SOL    HW1 4508   0.409   5.425   0.429
 1203SOL    HW2 4509   0.486   5.552   0.360
 1204SOL     OW 4510   4.652   1.163   1.632
 1204SOL    HW1 4511   4.568   1.154   1.578
 1204SOL    HW2 4512   4.715   1.225   1.584
 1205SOL     OW 4513   3.980   3.626   0.802
 1205SOL    HW1 4514   3.974   3.529   0.824
 1205SOL    HW2 4515   4.067   3.663   0.835
 1206SOL     OW 4516   2.555   2.714   5.466
 1206SOL    HW1 4517   2.498   2.636   5.494
 1206SOL    HW2 4518   2.522   2.750   5.379
 1207SOL     OW 4519   1.601   6.917   0.994
 1207SOL    HW1 4520   1.632   6.850   0.927
 1207SOL    HW2 4521   1.559   6.869   1.072
 1208SOL     OW 4522   3.501   3.268   1.248
 1208SOL    HW1 4523   3.485   3.351   1.302
 1208SOL    HW2 4524   3.497   3.289   1.151
 1209SOL     OW 4525   5.454   0.282   3.737
 1209SOL    HW1 4526   5.425   0.201   3.788
 1209SOL    HW2 4527   5.509   0.254   3.658
 1210SOL     OW 4528   4.421   6.895   3.499
 1210SOL    HW1 4529   4.415   6.808   3.451
 1210SOL    HW2 4530   4.441   6.878   3.595
 1211SOL     OW 4531   1.031   2.897   2.680
 1211SOL    HW1 4532   1.106   2.887   2.614
 1211SOL    HW2 4533   0.955   2.945   2.637
 1212SOL     OW 4534   6.438   0.373   6.467
 1212SOL    HW1 4535   6.427   0.382   6.566
 1212SOL    HW2 4536   6.535   0.379   6.444
 1213SOL     OW 4537   5.923   2.866   0.740
 1213SOL    HW1 4538   5.947   2.855   0.643
 1213SOL    HW2 4539   5.847   2.930   0.748
 1214SOL     OW 4540   0.523   3.987   6.926
 1214SOL    HW1 4541   0.512   4.018   6.832
 1214SOL    HW2 4542   0.433   3.964   6.964
 1215SOL     OW 4543   1.095   4.478   3.383
 1215SOL    HW1 4544   1.020   4.529   3.424
 1215SOL    HW2 4545   1.182   4.524   3.402
 1216SOL     OW 4546   5.010   0.409   0.540
 1216SOL    HW1 4547   4.959   0.355   0.607
 1216SOL    HW2 4548   5.060   0.482   0.585
 1217SOL     OW 4549   2.681   4.440   0.824
 1217SOL    HW1 4550   2.618   4.477   0.756
 1217SOL    HW2 4551   2.664   4.342   0.835
 1218SOL     OW 4552   0.897   3.202   4.588
 1218SOL    HW1 4553   0.928   3.237   4.500
 1218SOL    HW2 4554   0.904   3.102   4.588
 1219SOL     OW 4555   5.539   6.263   1.939
 1219SOL    HW1 4556   5.496   6.192   1.884
 1219SOL    HW2 4557   5.593   6.220   2.012
 1220SOL     OW 4558   1.188   4.707   3.102
 1220SOL    HW1 4559   1.135   4.622   3.109
 1220SOL    HW2 4560   1.127   4.783   3.080
 1221SOL     OW 4561   4.311   4.638   6.220
 1221SOL    HW1 4562   4.381   4.687   6.168
 1221SOL    HW2 4563   4.229   4.694   6.227
 1222SOL     OW 4564   6.662   1.227   6.946
 1222SOL    HW1 4565   6.758   1.253   6.938
 1222SOL    HW2 4566   6.612   1.262   6.867
 1223SOL     OW 4567   3.906   2.136   0.218
 1223SOL    HW1 4568   3.864   2.227   0.216
 1223SOL    HW2 4569   3.853   2.074   0.160
 1224SOL     OW 4570   3.691   5.572   0.496
 1224SOL    HW1 4571   3.664   5.666   0.516
 1224SOL    HW2 4572   3.781   5.553   0.536
 1225SOL     OW 4573   3.210   3.013   6.728
 1225SOL    HW1 4574   3.112   2.998   6.712
 1225SOL    HW2 4575   3.241   2.951   6.801
 1226SOL     OW 4576   2.134   6.287   1.613
 1226SOL    HW1 4577   2.146   6.200   1.661
 1226SOL    HW2 4578   2.144   6.272   1.514
 1227SOL     OW 4579   5.822   4.368   5.878
 1227SOL    HW1 4580   5.829   4.269   5.867
 1227SOL    HW2 4581   5.849   4.414   5.793
 1228SOL     OW 4582   3.061   1.960   6.075
 1228SOL    HW1 4583   3.076   2.049   6.118
 1228SOL    HW2 4584   3.144   1.931   6.028
 1229SOL     OW 4585   3.891   5.226   6.251
 1229SOL    HW1 4586   3.938   5.150   6.206
 1229SOL    HW2 4587   3.871   5.297   6.183
 1230SOL     OW 4588   4.829   6.772   2.451
 1230SOL    HW1 4589   4.786   6.713   2.382
 1230SOL    HW2 4590   4.758   6.829   2.494
 1231SOL     OW 4591   1.974   2.362   4.859
 1231SOL    HW1 4592   2.001   2.393   4.768
 1231SOL    HW2 4593   1.971   2.262   4.860
 1232SOL     OW 4594   0.089   2.228   5.346
 1232SOL    HW1 4595   0.166   2.210   5.284
 1232SOL    HW2 4596   0.111   2.193   5.437
 1233SOL     OW 4597   0.976   5.136   4.891
 1233SOL    HW1 4598   0.964   5.082   4.975
 1233SOL    HW2 4599   1.069   5.123   4.856
 1234SOL     OW 4600   6.287   2.813   6.177
 1234SOL    HW1 4601   6.291   2.719   6.210
 1234SOL    HW2 4602   6.376   2.839   6.139
 1235SOL     OW 4603   6.813   5.558   2.777
 1235SOL    HW1 4604   6.896   5.594   2.734
 1235SOL    HW2 4605   6.756   5.514   2.709
 1236SOL     OW 4606   5.120   1.264   6.940
 1236SOL    HW1 4607   5.143   1.190   7.002
 1236SOL    HW2 4608   5.188   1.337   6.947
 1237SOL     OW 4609   2.139   4.752   6.679
 1237SOL    HW1 4610   2.217   4.692   6.664
 1237SOL    HW2 4611   2.153   4.839   6.631
 1238SOL     OW 4612   1.406   1.601   0.740
 1238SOL    HW1 4613   1.307   1.611   0.754
 1238SOL    HW2 4614   1.426   1.508   0.709
 1239SOL     OW 4615   6.894   6.730   6.104
 1239SOL    HW1 4616   6.971   6.670   6.082
 1239SOL    HW2 4617   6.847   6.696   6.186
 1240SOL     OW 4618   5.327   6.187   1.413
 1240SOL    HW1 4619   5.403   6.210   1.352
 1240SOL    HW2 4620   5.302   6.268   1.467
 1241SOL     OW 4621   5.172   2.915   4.202
 1241SOL    HW1 4622   5.242   2.855   4.241
 1241SOL    HW2 4623   5.216   2.992   4.156
 1242SOL     OW 4624   0.686   3.331   1.596
 1242SOL    HW1 4625   0.657   3.385   1.675
 1242SOL    HW2 4626   0.689   3.390   1.515
 1243SOL     OW 4627   0.172   6.334   4.710
 1243SOL    HW1 4628   0.247   6.291   4.659
 1243SOL    HW2 4629   0.196   6.338   4.807
 1244SOL     OW 4630   5.841   6.814   4.776
 1244SOL    HW1 4631   5.906   6.770   4.838
 1244SOL    HW2 4632   5.872   6.803   4.682
 1245SOL     OW 4633   5.782   5.148   0.427
 1245SOL    HW1 4634   5.752   5.061   0.388
 1245SOL    HW2 4635   5.705   5.211   0.431
 1246SOL     OW 4636   2.912   0.034   1.126
 1246SOL    HW1 4637   2.841   0.038   1.196
 1246SOL    HW2 4638   2.870   0.018   1.036
 1247SOL     OW 4639   1.322   6.607   6.673
 1247SOL    HW1 4640   1.384   6.538   6.633
 1247SOL    HW2 4641   1.263   6.563   6.740
 1248SOL     OW 4642   2.133   6.838   5.090
 1248SOL    HW1 4643   2.157   6.928   5.055
 1248SOL    HW2 4644   2.184   6.768   5.039
 1249SOL     OW 4645   6.377   1.702   2.684
 1249SOL    HW1 4646   6.363   1.745   2.595
 1249SOL    HW2 4647   6.298   1.719   2.743
 1250SOL     OW 4648   5.445   5.577   4.177
 1250SOL    HW1 4649   5.355   5.533   4.185
 1250SOL    HW2 4650   5.473   5.578   4.081
 1251SOL     OW 4651   3.005   0.730   3.665
 1251SOL    HW1 4652   3.016   0.663   3.592
 1251SOL    HW2 4653   2.997   0.683   3.753
 1252SOL     OW 4654   4.492   3.629   6.419
 1252SOL    HW1 4655   4.483   3.614   6.518
 1252SOL    HW2 4656   4.437   3.561   6.371
 1253SOL     OW 4657   2.906   5.762   2.781
 1253SOL    HW1 4658   2.845   5.798   2.852
 1253SOL    HW2 4659   2.975   5.830   2.759
 1254SOL     OW 4660   1.090   2.672   2.509
 1254SOL    HW1 4661   1.021   2.733   2.471
 1254SOL    HW2 4662   1.074   2.579   2.475
 1255SOL     OW 4663   6.263   2.035   5.398
 1255SOL    HW1 4664   6.354   2.009   5.430
 1255SOL    HW2 4665   6.220   1.956   5.354
 1256SOL     OW 4666   6.949   6.491   3.571
 1256SOL    HW1 4667   6.980   6.542   3.491
 1256SOL    HW2 4668   6.874   6.541   3.615
 1257SOL     OW 4669   0.097   6.150   5.328
 1257SOL    HW1 4670   0.158   6.162   5.249
 1257SOL    HW2 4671   0.029   6.223   5.329
 1258SOL     OW 4672   1.935   5.190   2.739
 1258SOL    HW1 4673   1.868   5.144   2.797
 1258SOL    HW2 4674   1.898   5.277   2.708
 1259SOL     OW 4675   4.463   0.685   4.211
 1259SOL    HW1 4676   4.441   0.713   4.305
 1259SOL    HW2 4677   4.405   0.607   4.186
 1260SOL     OW 4678   1.848   1.334   0.103
 1260SOL    HW1 4679   1.812   1.362   0.192
 1260SOL    HW2 4680   1.870   1.415   0.049
 1261SOL     OW 4681   0.286   5.863   6.488
 1261SOL    HW1 4682   0.230   5.946   6.498
 1261SOL    HW2 4683   0.382   5.890   6.474
 1262SOL     OW 4684   5.274   4.829   0.977
 1262SOL    HW1 4685   5.298   4.738   0.942
 1262SOL    HW2 4686   5.240   4.820   1.071
 1263SOL     OW 4687   0.389   2.177   1.612
 1263SOL    HW1 4688   0.451   2.237   1.563
 1263SOL    HW2 4689   0.424   2.083   1.610
 1264SOL     OW 4690   6.390   4.579   0.599
 1264SOL    HW1 4691   6.369   4.633   0.517
 1264SOL    HW2 4692   6.346   4.621   0.678
 1265SOL     OW 4693   5.742   5.544   4.555
 1265SOL    HW1 4694   5.698   5.530   4.644
 1265SOL    HW2 4695   5.684   5.505   4.483
 1266SOL     OW 4696   0.347   1.395   4.136
 1266SOL    HW1 4697   0.419   1.461   4.157
 1266SOL    HW2 4698   0.389   1.307   4.113
 1267SOL     OW 4699   5.056   1.096   1.046
 1267SOL    HW1 4700   4.981   1.142   1.093
 1267SOL    HW2 4701   5.061   1.127   0.952
 1268SOL     OW 4702   2.866   2.601   0.029
 1268SOL    HW1 4703   2.866   2.618   0.128
 1268SOL    HW2 4704   2.954   2.628   7.007
 1269SOL     OW 4705   6.076   3.790   4.102
 1269SOL    HW1 4706   6.070   3.870   4.043
 1269SOL    HW2 4707   5.985   3.750   4.113
 1270SOL     OW 4708   1.444   3.971   3.253
 1270SOL    HW1 4709   1.435   3.947   3.350
 1270SOL    HW2 4710   1.522   3.923   3.214
 1271SOL     OW 4711   2.983   1.846   2.732
 1271SOL    HW1 4712   2.917   1.899   2.678
 1271SOL    HW2 4713   3.049   1.803   2.671
 1272SOL     OW 4714   5.755   4.542   0.027
 1272SOL    HW1 4715   5.782   4.612   6.976
 1272SOL    HW2 4716   5.728   4.587   0.112
 1273SOL     OW 4717   0.316   3.362   6.914
 1273SOL    HW1 4718   0.394   3.384   6.973
 1273SOL    HW2 4719   0.249   3.310   6.967
 1274SOL     OW 4720   6.838   4.510   1.416
 1274SOL    HW1 4721   6.884   4.593   1.447
 1274SOL    HW2 4722   6.894   4.430   1.441
 1275SOL     OW 4723   4.319   1.315   4.183
 1275SOL    HW1 4724   4.360   1.345   4.269
 1275SOL    HW2 4725   4.297   1.395   4.127
 1276SOL     OW 4726   6.611   5.123   5.029
 1276SOL    HW1 4727   6.512   5.113   5.018
 1276SOL    HW2 4728   6.636   5.112   5.125
 1277SOL     OW 4729   1.718   5.560   5.710
 1277SOL    HW1 4730   1.817   5.546   5.714
 1277SOL    HW2 4731   1.693   5.602   5.623
 1278SOL     OW 4732   0.936   0.194   5.103
 1278SOL    HW1 4733   1.032   0.220   5.092
 1278SOL    HW2 4734   0.886   0.215   5.019
 1279SOL     OW 4735   1.717   4.638   0.461
 1279SOL    HW1 4736   1.625   4.677   0.464
 1279SOL    HW2 4737   1.766   4.673   0.381
 1280SOL     OW 4738   4.596   6.915   4.019
 1280SOL    HW1 4739   4.616   7.011   4.000
 1280SOL    HW2 4740   4.676   6.872   4.060
 1281SOL     OW 4741   3.011   6.168   3.141
 1281SOL    HW1 4742   3.091   6.116   3.172
 1281SOL    HW2 4743   2.955   6.194   3.220
 1282SOL     OW 4744   6.424   2.617   6.939
 1282SOL    HW1 4745   6.469   2.696   6.898
 1282SOL    HW2 4746   6.399   2.638   0.018
 1283SOL     OW 4747   6.598   3.697   5.178
 1283SOL    HW1 4748   6.586   3.639   5.097
 1283SOL    HW2 4749   6.675   3.662   5.233
 1284SOL     OW 4750   4.765   1.889   1.831
 1284SOL    HW1 4751   4.775   1.978   1.876
 1284SOL    HW2 4752   4.852   1.842   1.830
 1285SOL     OW 4753   4.475   1.610   6.170
 1285SOL    HW1 4754   4.501   1.704   6.145
 1285SOL    HW2 4755   4.391   1.613   6.224
 1286SOL     OW 4756   4.349   3.807   1.371
 1286SOL    HW1 4757   4.412   3.730   1.384
 1286SOL    HW2 4758   4.256   3.779   1.396
 1287SOL     OW 4759   5.362   4.714   5.007
 1287SOL    HW1 4760   5.449   4.669   5.027
 1287SOL    HW2 4761   5.289   4.645   5.001
 1288SOL     OW 4762   3.770   3.356   6.450
 1288SOL    HW1 4763   3.679   3.345   6.490
 1288SOL    HW2 4764   3.838   3.316   6.511
 1289SOL     OW 4765   7.000   6.965   0.770
 1289SOL    HW1 4766   0.064   0.006   0.750
 1289SOL    HW2 4767   6.939   6.963   0.691
 1290SOL     OW 4768   1.304   6.245   0.078
 1290SOL    HW1 4769   1.351   6.252   7.006
 1290SOL    HW2 4770   1.367   6.210   0.147
 1291SOL     OW 4771   0.884   4.141   3.712
 1291SOL    HW1 4772   0.918   4.133   3.806
 1291SOL    HW2 4773   0.838   4.056   3.687
 1292SOL     OW 4774   0.638   5.724   2.430
 1292SOL    HW1 4775   0.712   5.683   2.483
 1292SOL    HW2 4776   0.658   5.717   2.332
 1293SOL     OW 4777   2.038   2.433   0.295
 1293SOL    HW1 4778   1.965   2.365   0.286
 1293SOL    HW2 4779   2.060   2.470   0.204
 1294SOL     OW 4780   7.011   3.612   5.748
 1294SOL    HW1 4781   0.094   3.602   5.747
 1294SOL    HW2 4782   6.985   3.686   5.811
 1295SOL     OW 4783   6.844   3.462   1.510
 1295SOL    HW1 4784   6.746   3.453   1.491
 1295SOL    HW2 4785   6.867   3.559   1.517
 1296SOL     OW 4786   3.816   6.439   5.136
 1296SOL    HW1 4787   3.741   6.489   5.179
 1296SOL    HW2 4788   3.901   6.457   5.186
 1297SOL     OW 4789   0.539   0.239   1.208
 1297SOL    HW1 4790   0.586   0.266   1.292
 1297SOL    HW2 4791   0.532   0.139   1.205
 1298SOL     OW 4792   4.958   5.357   3.519
 1298SOL    HW1 4793   4.931   5.270   3.476
 1298SOL    HW2 4794   4.876   5.406   3.548
 1299SOL     OW 4795   2.521   2.554   3.797
 1299SOL    HW1 4796   2.494   2.649   3.782
 1299SOL    HW2 4797   2.517   2.533   3.895
 1300SOL     OW 4798   1.471   3.275   0.508
 1300SOL    HW1 4799   1.504   3.223   0.587
 1300SOL    HW2 4800   1.479   3.219   0.426
 1301SOL     OW 4801   0.379   6.160   1.501
 1301SOL    HW1 4802   0.302   6.100   1.519
 1301SOL    HW2 4803   0.428   6.129   1.419
 1302SOL     OW 4804   4.759   6.665   5.174
 1302SOL    HW1 4805   4.739   6.618   5.088
 1302SOL    HW2 4806   4.740   6.604   5.251
 1303SOL     OW 4807   4.027   1.904   2.026
 1303SOL    HW1 4808   4.007   1.911   2.124
 1303SOL    HW2 4809   3.947   1.934   1.974
 1304SOL     OW 4810   1.479   0.606   0.439
 1304SOL    HW1 4811   1.474   0.645   0.531
 1304SOL    HW2 4812   1.571   0.619   0.402
 1305SOL     OW 4813   5.538   3.794   0.346
 1305SOL    HW1 4814   5.548   3.723   0.277
 1305SOL    HW2 4815   5.610   3.785   0.414
 1306SOL     OW 4816   1.179   5.587   4.029
 1306SOL    HW1 4817   1.251   5.530   4.069
 1306SOL    HW2 4818   1.189   5.589   3.930
 1307SOL     OW 4819   1.674   4.027   3.560
 1307SOL    HW1 4820   1.764   4.060   3.530
 1307SOL    HW2 4821   1.678   3.928   3.575
 1308SOL     OW 4822   6.307   0.051   5.581
 1308SOL    HW1 4823   6.393   0.052   5.530
 1308SOL    HW2 4824   6.258   0.137   5.564
 1309SOL     OW 4825   5.688   5.120   4.952
 1309SOL    HW1 4826   5.748   5.111   5.031
 1309SOL    HW2 4827   5.594   5.134   4.983
 1310SOL     OW 4828   6.610   3.551   3.679
 1310SOL    HW1 4829   6.561   3.500   3.609
 1310SOL    HW2 4830   6.552   3.624   3.714
 1311SOL     OW 4831   6.545   5.628   5.582
 1311SOL    HW1 4832   6.624   5.567   5.577
 1311SOL    HW2 4833   6.472   5.593   5.524
 1312SOL     OW 4834   1.585   6.662   6.934
 1312SOL    HW1 4835   1.564   6.736   6.870
 1312SOL    HW2 4836   1.500   6.620   6.965
 1313SOL     OW 4837   0.323   4.914   2.682
 1313SOL    HW1 4838   0.308   4.873   2.592
 1313SOL    HW2 4839   0.287   5.007   2.683
 1314SOL     OW 4840   4.155   1.512   4.865
 1314SOL    HW1 4841   4.161   1.447   4.790
 1314SOL    HW2 4842   4.059   1.536   4.880
 1315SOL     OW 4843   0.511   1.806   2.378
 1315SOL    HW1 4844   0.596   1.775   2.336
 1315SOL    HW2 4845   0.523   1.898   2.415
 1316SOL     OW 4846   3.358   6.694   5.858
 1316SOL    HW1 4847   3.366   6.704   5.957
 1316SOL    HW2 4848   3.437   6.739   5.814
 1317SOL     OW 4849   2.122   4.167   6.144
 1317SOL    HW1 4850   2.085   4.113   6.220
 1317SOL    HW2 4851   2.135   4.107   6.065
 1318SOL     OW 4852   0.655   2.719   1.022
 1318SOL    HW1 4853   0.705   2.737   1.107
 1318SOL    HW2 4854   0.717   2.678   0.956
 1319SOL     OW 4855   6.699   6.145   0.893
 1319SOL    HW1 4856   6.732   6.179   0.981
 1319SOL    HW2 4857   6.600   6.154   0.888
 1320SOL     OW 4858   3.907   4.805   6.691
 1320SOL    HW1 4859   3.871   4.871   6.757
 1320SOL    HW2 4860   3.963   4.737   6.738
 1321SOL     OW 4861   4.982   2.812   6.696
 1321SOL    HW1 4862   5.079   2.806   6.672
 1321SOL    HW2 4863   4.942   2.893   6.654
 1322SOL     OW 4864   4.154   1.697   4.187
 1322SOL    HW1 4865   4.065   1.701   4.141
 1322SOL    HW2 4866   4.213   1.632   4.138
 1323SOL     OW 4867   4.079   6.796   6.207
 1323SOL    HW1 4868   4.107   6.837   6.120
 1323SOL    HW2 4869   4.043   6.705   6.190
 1324SOL     OW 4870   0.322   3.834   0.068
 1324SOL    HW1 4871   0.360   3.768   0.132
 1324SOL    HW2 4872   0.250   3.886   0.113
 1325SOL     OW 4873   2.485   6.474   4.602
 1325SOL    HW1 4874   2.506   6.559   4.651
 1325SOL    HW2 4875   2.542   6.469   4.520
 1326SOL     OW 4876   5.399   3.206   5.677
 1326SOL    HW1 4877   5.470   3.264   5.637
 1326SOL    HW2 4878   5.357   3.253   5.754
 1327SOL     OW 4879   1.165   6.479   1.115
 1327SOL    HW1 4880   1.148   6.381   1.126
 1327SOL    HW2 4881   1.263   6.496   1.119
 1328SOL     OW 4882   2.783   3.101   1.172
 1328SOL    HW1 4883   2.756   3.159   1.249
 1328SOL    HW2 4884   2.771   3.005   1.197
 1329SOL     OW 4885   0.803   2.210   2.013
 1329SOL    HW1 4886   0.863   2.135   1.983
 1329SOL    HW2 4887   0.726   2.218   1.950
 1330SOL     OW 4888   1.305   1.516   1.983
 1330SOL    HW1 4889   1.386   1.549   1.934
 1330SOL    HW2 4890   1.242   1.591   2.000
 1331SOL     OW 4891   4.829   3.144   2.915
 1331SOL    HW1 4892   4.870   3.139   2.824
 1331SOL    HW2 4893   4.820   3.240   2.942
 1332SOL     OW 4894   2.781   6.992   6.767
 1332SOL    HW1 4895   2.775   6.902   6.811
 1332SOL    HW2 4896   2.828   0.039   6.828
 1333SOL     OW 4897   3.115   3.472   3.627
 1333SOL    HW1 4898   3.154   3.414   3.555
 1333SOL    HW2 4899   3.074   3.414   3.697
 1334SOL     OW 4900   6.234   1.344   3.810
 1334SOL    HW1 4901   6.325   1.384   3.802
 1334SOL    HW2 4902   6.237   1.267   3.874
 1335SOL     OW 4903   2.352   2.151   1.797
 1335SOL    HW1 4904   2.423   2.088   1.766
 1335SOL    HW2 4905   2.302   2.186   1.718
 1336SOL     OW 4906   2.326   1.931   5.078
 1336SOL    HW1 4907   2.414   1.894   5.048
 1336SOL    HW2 4908   2.335   1.968   5.170
 1337SOL     OW 4909   1.271   1.068   3.341
 1337SOL    HW1 4910   1.319   1.024   3.417
 1337SOL    HW2 4911   1.270   1.006   3.262
 1338SOL     OW 4912   6.795   2.657   4.769
 1338SOL    HW1 4913   6.830   2.666   4.676
 1338SOL    HW2 4914   6.707   2.610   4.767
 1339SOL     OW 4915   6.165   1.954   6.811
 1339SOL    HW1 4916   6.230   2.009   6.758
 1339SOL    HW2 4917   6.078   1.949   6.762
 1340SOL     OW 4918   5.824   2.247   2.456
 1340SOL    HW1 4919   5.898   2.303   2.418
 1340SOL    HW2 4920   5.807   2.276   2.550
 1341SOL     OW 4921   4.157   6.550   6.765
 1341SOL    HW1 4922   4.126   6.606   6.688
 1341SOL    HW2 4923   4.079   6.531   6.826
 1342SOL     OW 4924   3.030   5.921   6.180
 1342SOL    HW1 4925   2.966   5.953   6.110
 1342SOL    HW2 4926   3.086   5.847   6.142
 1343SOL     OW 4927   5.230   5.381   2.613
 1343SOL    HW1 4928   5.219   5.413   2.707
 1343SOL    HW2 4929   5.144   5.340   2.582
 1344SOL     OW 4930   0.641   5.951   4.707
 1344SOL    HW1 4931   0.657   5.986   4.614
 1344SOL    HW2 4932   0.544   5.930   4.718
 1345SOL     OW 4933   0.823   6.015   2.938
 1345SOL    HW1 4934   0.871   6.015   3.025
 1345SOL    HW2 4935   0.791   5.923   2.917
 1346SOL     OW 4936   1.161   5.523   4.431
 1346SOL    HW1 4937   1.132   5.438   4.387
 1346SOL    HW2 4938   1.255   5.513   4.466
 1347SOL     OW 4939   0.306   6.774   5.932
 1347SOL    HW1 4940   0.300   6.867   5.969
 1347SOL    HW2 4941   0.239   6.762   5.859
 1348SOL     OW 4942   5.859   6.540   4.220
 1348SOL    HW1 4943   5.946   6.563   4.264
 1348SOL    HW2 4944   5.837   6.444   4.239
 1349SOL     OW 4945   4.817   2.822   5.707
 1349SOL    HW1 4946   4.795   2.745   5.647
 1349SOL    HW2 4947   4.786   2.907   5.666
 1350SOL     OW 4948   5.394   5.361   5.623
 1350SOL    HW1 4949   5.427   5.451   5.653
 1350SOL    HW2 4950   5.436   5.290   5.679
 1351SOL     OW 4951   5.777   1.913   2.795
 1351SOL    HW1 4952   5.683   1.927   2.829
 1351SOL    HW2 4953   5.827   1.854   2.858
 1352SOL     OW 4954   6.509   5.917   3.986
 1352SOL    HW1 4955   6.573   5.931   4.062
 1352SOL    HW2 4956   6.425   5.876   4.020
 1353SOL     OW 4957   0.499   2.709   0.391
 1353SOL    HW1 4958   0.544   2.633   0.343
 1353SOL    HW2 4959   0.511   2.793   0.338
 1354SOL     OW 4960   0.709   3.672   1.787
 1354SOL    HW1 4961   0.729   3.760   1.744
 1354SOL    HW2 4962   0.746   3.671   1.880
 1355SOL     OW 4963   5.629   2.797   4.438
 1355SOL    HW1 4964   5.715   2.796   4.489
 1355SOL    HW2 4965   5.639   2.858   4.359
 1356SOL     OW 4966   3.380   3.430   2.202
 1356SOL    HW1 4967   3.425   3.346   2.233
 1356SOL    HW2 4968   3.305   3.406   2.140
 1357SOL     OW 4969   0.233   4.042   6.553
 1357SOL    HW1 4970   0.143   4.064   6.517
 1357SOL    HW2 4971   0.225   4.009   6.646
 1358SOL     OW 4972   4.570   6.564   5.937
 1358SOL    HW1 4973   4.648   6.509   5.906
 1358SOL    HW2 4974   4.556   6.640   5.873
 1359SOL     OW 4975   5.634   4.898   2.584
 1359SOL    HW1 4976   5.709   4.945   2.630
 1359SOL    HW2 4977   5.666   4.809   2.552
 1360SOL     OW 4978   2.520   3.575   0.178
 1360SOL    HW1 4979   2.429   3.534   0.174
 1360SOL    HW2 4980   2.559   3.561   0.269
 1361SOL     OW 4981   6.082   4.390   5.224
 1361SOL    HW1 4982   6.029   4.360   5.303
 1361SOL    HW2 4983   6.054   4.338   5.144
 1362SOL     OW 4984   3.529   3.692   3.672
 1362SOL    HW1 4985   3.431   3.675   3.662
 1362SOL    HW2 4986   3.544   3.754   3.749
 1363SOL     OW 4987   6.370   5.345   3.387
 1363SOL    HW1 4988   6.375   5.254   3.345
 1363SOL    HW2 4989   6.331   5.337   3.478
 1364SOL     OW 4990   5.480   4.433   1.181
 1364SOL    HW1 4991   5.453   4.522   1.144
 1364SOL    HW2 4992   5.578   4.432   1.197
 1365SOL     OW 4993   0.362   4.320   6.114
 1365SOL    HW1 4994   0.360   4.261   6.195
 1365SOL    HW2 4995   0.435   4.388   6.125
 1366SOL     OW 4996   1.448   5.746   0.312
 1366SOL    HW1 4997   1.486   5.808   0.243
 1366SOL    HW2 4998   1.503   5.751   0.395
 1367SOL     OW 4999   2.123   0.287   3.357
 1367SOL    HW1 5000   2.187   0.316   3.286
 1367SOL    HW2 5001   2.155   0.202   3.399
 1368SOL     OW 5002   5.932   0.253   4.132
 1368SOL    HW1 5003   5.912   0.221   4.040
 1368SOL    HW2 5004   5.854   0.307   4.165
 1369SOL     OW 5005   2.365   6.355   1.813
 1369SOL    HW1 5006   2.342   6.272   1.864
 1369SOL    HW2 5007   2.332   6.346   1.719
 1370SOL     OW 5008   3.750   0.871   1.012
 1370SOL    HW1 5009   3.721   0.844   1.104
 1370SOL    HW2 5010   3.718   0.803   0.946
 1371SOL     OW 5011   5.852   1.696   4.057
 1371SOL    HW1 5012   5.874   1.603   4.028
 1371SOL    HW2 5013   5.759   1.718   4.030
 1372SOL     OW 5014   1.161   3.092   0.287
 1372SOL    HW1 5015   1.257   3.110   0.268
 1372SOL    HW2 5016   1.149   2.996   0.311
 1373SOL     OW 5017   5.562   3.655   6.977
 1373SOL    HW1 5018   5.561   3.742   6.927
 1373SOL    HW2 5019   5.471   3.635   7.012
 1374SOL     OW 5020   4.694   2.398   0.404
 1374SOL    HW1 5021   4.601   2.408   0.370
 1374SOL    HW2 5022   4.746   2.482   0.384
 1375SOL     OW 5023   6.992   4.023   6.184
 1375SOL    HW1 5024   6.935   3.943   6.164
 1375SOL    HW2 5025   0.049   3.997   6.247
 1376SOL     OW 5026   4.900   3.554   4.043
 1376SOL    HW1 5027   4.911   3.504   4.129
 1376SOL    HW2 5028   4.965   3.519   3.975
 1377SOL     OW 5029   6.626   4.080   5.410
 1377SOL    HW1 5030   6.587   4.120   5.493
 1377SOL    HW2 5031   6.589   3.987   5.398
 1378SOL     OW 5032   6.437   1.090   4.950
 1378SOL    HW1 5033   6.462   1.100   4.854
 1378SOL    HW2 5034   6.477   1.005   4.986
 1379SOL     OW 5035   3.443   7.005   2.325
 1379SOL    HW1 5036   3.486   0.063   2.378
 1379SOL    HW2 5037   3.363   0.025   2.277
 1380SOL     OW 5038   0.066   0.206   2.199
 1380SOL    HW1 5039   7.008   0.140   2.187
 1380SOL    HW2 5040   0.136   0.167   2.259
 1381SOL     OW 5041   5.374   2.699   6.454
 1381SOL    HW1 5042   5.442   2.772   6.448
 1381SOL    HW2 5043   5.286   2.733   6.420
 1382SOL     OW 5044   4.731   4.600   0.881
 1382SOL    HW1 5045   4.814   4.564   0.924
 1382SOL    HW2 5046   4.752   4.629   0.788
 1383SOL     OW 5047   0.589   0.206   0.642
 1383SOL    HW1 5048   0.558   0.111   0.654
 1383SOL    HW2 5049   0.637   0.236   0.725
 1384SOL     OW 5050   4.053   1.040   2.493
 1384SOL    HW1 5051   4.136   1.069   2.446
 1384SOL    HW2 5052   4.074   1.016   2.588
 1385SOL     OW 5053   0.842   3.078   2.556
 1385SOL    HW1 5054   0.753   3.101   2.516
 1385SOL    HW2 5055   0.906   3.055   2.483
 1386SOL     OW 5056   2.156   1.152   4.356
 1386SOL    HW1 5057   2.127   1.160   4.261
 1386SOL    HW2 5058   2.204   1.065   4.370
 1387SOL     OW 5059   3.986   6.707   3.273
 1387SOL    HW1 5060   3.946   6.616   3.284
 1387SOL    HW2 5061   3.979   6.734   3.177
 1388SOL     OW 5062   0.587   6.234   3.780
 1388SOL    HW1 5063   0.504   6.201   3.735
 1388SOL    HW2 5064   0.564   6.270   3.870
 1389SOL     OW 5065   0.215   1.194   3.954
 1389SOL    HW1 5066   0.192   1.226   3.862
 1389SOL    HW2 5067   0.314   1.201   3.968
 1390SOL     OW 5068   4.383   2.155   6.220
 1390SOL    HW1 5069   4.476   2.124   6.202
 1390SOL    HW2 5070   4.368   2.243   6.175
 1391SOL     OW 5071   6.377   0.754   5.783
 1391SOL    HW1 5072   6.472   0.727   5.797
 1391SOL    HW2 5073   6.374   0.843   5.738
 1392SOL     OW 5074   5.243   5.055   5.916
 1392SOL    HW1 5075   5.341   5.073   5.929
 1392SOL    HW2 5076   5.231   4.962   5.880
 1393SOL     OW 5077   5.948   3.325   6.860
 1393SOL    HW1 5078   5.860   3.279   6.868
 1393SOL    HW2 5079   6.001   3.285   6.785
 1394SOL     OW 5080   3.887   0.328   3.712
 1394SOL    HW1 5081   3.876   0.256   3.644
 1394SOL    HW2 5082   3.960   0.391   3.683
 1395SOL     OW 5083   1.064   3.866   2.927
 1395SOL    HW1 5084   1.135   3.872   2.998
 1395SOL    HW2 5085   1.072   3.777   2.881
 1396SOL     OW 5086   1.906   6.842   3.480
 1396SOL    HW1 5087   1.830   6.833   3.416
 1396SOL    HW2 5088   1.875   6.893   3.561
 1397SOL     OW 5089   0.736   6.552   4.775
 1397SOL    HW1 5090   0.708   6.460   4.805
 1397SOL    HW2 5091   0.658   6.614   4.780
 1398SOL     OW 5092   0.794   1.824   0.093
 1398SOL    HW1 5093   0.817   1.728   0.079
 1398SOL    HW2 5094   0.876   1.875   0.118
 1399SOL     OW 5095   4.609   0.511   0.477
 1399SOL    HW1 5096   4.586   0.534   0.382
 1399SOL    HW2 5097   4.549   0.562   0.539
 1400SOL     OW 5098   6.219   1.089   4.375
 1400SOL    HW1 5099   6.146   1.152   4.399
 1400SOL    HW2 5100   6.305   1.121   4.415
 1401SOL     OW 5101   6.018   6.499   4.663
 1401SOL    HW1 5102   5.958   6.513   4.742
 1401SOL    HW2 5103   6.101   6.451   4.694
 1402SOL     OW 5104   5.709   4.301   6.914
 1402SOL    HW1 5105   5.669   4.329   6.827
 1402SOL    HW2 5106   5.715   4.381   6.975
 1403SOL     OW 5107   2.087   3.022   0.371
 1403SOL    HW1 5108   2.095   3.117   0.341
 1403SOL    HW2 5109   2.007   2.980   0.329
 1404SOL     OW 5110   4.607   6.994   0.722
 1404SOL    HW1 5111   4.559   6.994   0.634
 1404SOL    HW2 5112   4.595   6.906   0.766
 1405SOL     OW 5113   2.151   3.759   0.593
 1405SOL    HW1 5114   2.233   3.707   0.570
 1405SOL    HW2 5115   2.176   3.835   0.653
 1406SOL     OW 5116   2.213   4.608   0.970
 1406SOL    HW1 5117   2.202   4.563   1.059
 1406SOL    HW2 5118   2.158   4.691   0.968
 1407SOL     OW 5119   1.306   3.823   3.069
 1407SOL    HW1 5120   1.323   3.873   3.154
 1407SOL    HW2 5121   1.384   3.762   3.050
 1408SOL     OW 5122   5.601   6.355   6.612
 1408SOL    HW1 5123   5.588   6.447   6.576
 1408SOL    HW2 5124   5.547   6.290   6.558
 1409SOL     OW 5125   0.036   0.677   5.374
 1409SOL    HW1 5126   0.004   0.737   5.300
 1409SOL    HW2 5127   6.974   0.634   5.418
 1410SOL     OW 5128   2.981   3.771   6.833
 1410SOL    HW1 5129   2.901   3.752   6.890
 1410SOL    HW2 5130   3.019   3.860   6.857
 1411SOL     OW 5131   3.620   6.088   6.167
 1411SOL    HW1 5132   3.584   6.182   6.170
 1411SOL    HW2 5133   3.720   6.090   6.167
 1412SOL     OW 5134   0.601   4.106   1.751
 1412SOL    HW1 5135   0.666   4.097   1.827
 1412SOL    HW2 5136   0.518   4.151   1.783
 1413SOL     OW 5137   1.784   2.003   4.275
 1413SOL    HW1 5138   1.749   2.060   4.350
 1413SOL    HW2 5139   1.802   1.911   4.310
 1414SOL     OW 5140   1.550   2.825   1.590
 1414SOL    HW1 5141   1.621   2.800   1.525
 1414SOL    HW2 5142   1.505   2.743   1.624
 1415SOL     OW 5143   3.013   2.174   4.525
 1415SOL    HW1 5144   2.992   2.168   4.622
 1415SOL    HW2 5145   2.946   2.232   4.479
 1416SOL     OW 5146   4.292   0.663   4.675
 1416SOL    HW1 5147   4.382   0.624   4.696
 1416SOL    HW2 5148   4.222   0.592   4.686
 1417SOL     OW 5149   3.540   2.850   5.879
 1417SOL    HW1 5150   3.585   2.921   5.825
 1417SOL    HW2 5151   3.503   2.889   5.962
 1418SOL     OW 5152   3.020   3.635   0.457
 1418SOL    HW1 5153   2.952   3.573   0.421
 1418SOL    HW2 5154   3.031   3.620   0.555
 1419SOL     OW 5155   1.766   5.415   3.913
 1419SOL    HW1 5156   1.719   5.333   3.883
 1419SOL    HW2 5157   1.802   5.464   3.834
 1420SOL     OW 5158   4.366   5.744   3.071
 1420SOL    HW1 5159   4.288   5.724   3.011
 1420SOL    HW2 5160   4.356   5.693   3.156
 1421SOL     OW 5161   1.278   4.575   4.098
 1421SOL    HW1 5162   1.238   4.665   4.114
 1421SOL    HW2 5163   1.328   4.575   4.011
 1422SOL     OW 5164   2.390   4.617   5.760
 1422SOL    HW1 5165   2.442   4.531   5.766
 1422SOL    HW2 5166   2.393   4.652   5.666
 1423SOL     OW 5167   4.312   1.758   4.760
 1423SOL    HW1 5168   4.240   1.794   4.700
 1423SOL    HW2 5169   4.282   1.671   4.800
 1424SOL     OW 5170   5.887   3.568   6.697
 1424SOL    HW1 5171   5.949   3.645   6.686
 1424SOL    HW2 5172   5.940   3.484   6.708
 1425SOL     OW 5173   2.466   6.219   4.504
 1425SOL    HW1 5174   2.441   6.307   4.545
 1425SOL    HW2 5175   2.538   6.176   4.559
 1426SOL     OW 5176   1.769   2.181   6.357
 1426SOL    HW1 5177   1.799   2.146   6.268
 1426SOL    HW2 5178   1.801   2.275   6.368
 1427SOL     OW 5179   0.487   0.813   3.597
 1427SOL    HW1 5180   0.540   0.728   3.599
 1427SOL    HW2 5181   0.507   0.862   3.512
 1428SOL     OW 5182   0.036   2.064   1.332
 1428SOL    HW1 5183   0.046   2.052   1.431
 1428SOL    HW2 5184   0.066   2.156   1.307
 1429SOL     OW 5185   5.806   1.768   0.050
 1429SOL    HW1 5186   5.779   1.820   6.986
 1429SOL    HW2 5187   5.800   1.670   0.030
 1430SOL     OW 5188   2.173   3.874   4.583
 1430SOL    HW1 5189   2.199   3.783   4.551
 1430SOL    HW2 5190   2.169   3.937   4.506
 1431SOL     OW 5191   2.612   2.621   6.127
 1431SOL    HW1 5192   2.526   2.571   6.123
 1431SOL    HW2 5193   2.678   2.569   6.181
 1432SOL     OW 5194   2.201   1.201   1.421
 1432SOL    HW1 5195   2.123   1.208   1.359
 1432SOL    HW2 5196   2.175   1.147   1.501
 1433SOL     OW 5197   3.211   6.958   3.592
 1433SOL    HW1 5198   3.158   6.926   3.671
 1433SOL    HW2 5199   3.309   6.950   3.613
 1434SOL     OW 5200   6.236   1.791   6.325
 1434SOL    HW1 5201   6.187   1.875   6.303
 1434SOL    HW2 5202   6.297   1.768   6.249
 1435SOL     OW 5203   0.025   0.785   3.800
 1435SOL    HW1 5204   6.950   0.781   3.840
 1435SOL    HW2 5205   0.092   0.808   3.871
 1436SOL     OW 5206   5.853   3.274   0.350
 1436SOL    HW1 5207   5.870   3.222   0.434
 1436SOL    HW2 5208   5.800   3.355   0.372
 1437SOL     OW 5209   3.479   1.180   4.973
 1437SOL    HW1 5210   3.389   1.205   4.937
 1437SOL    HW2 5211   3.540   1.258   4.967
 1438SOL     OW 5212   3.002   1.211   1.511
 1438SOL    HW1 5213   2.976   1.305   1.488
 1438SOL    HW2 5214   3.101   1.206   1.521
 1439SOL     OW 5215   0.746   5.384   0.830
 1439SOL    HW1 5216   0.820   5.351   0.772
 1439SOL    HW2 5217   0.760   5.481   0.850
 1440SOL     OW 5218   3.681   3.299   4.506
 1440SOL    HW1 5219   3.616   3.234   4.545
 1440SOL    HW2 5220   3.712   3.266   4.417
 1441SOL     OW 5221   6.221   3.064   3.641
 1441SOL    HW1 5222   6.126   3.045   3.666
 1441SOL    HW2 5223   6.244   3.158   3.666
 1442SOL     OW 5224   6.033   4.597   0.465
 1442SOL    HW1 5225   6.093   4.565   0.392
 1442SOL    HW2 5226   6.042   4.696   0.475
 1443SOL     OW 5227   0.778   1.364   3.910
 1443SOL    HW1 5228   0.807   1.442   3.965
 1443SOL    HW2 5229   0.854   1.332   3.854
 1444SOL     OW 5230   4.798   5.981   1.744
 1444SOL    HW1 5231   4.834   6.004   1.653
 1444SOL    HW2 5232   4.699   5.994   1.744
 1445SOL     OW 5233   0.326   2.667   2.027
 1445SOL    HW1 5234   0.272   2.674   2.111
 1445SOL    HW2 5235   0.405   2.727   2.034
 1446SOL     OW 5236   5.310   2.931   0.055
 1446SOL    HW1 5237   5.238   2.872   0.092
 1446SOL    HW2 5238   5.393   2.878   0.040
 1447SOL     OW 5239   6.545   0.206   5.087
 1447SOL    HW1 5240   6.526   0.303   5.074
 1447SOL    HW2 5241   6.490   0.153   5.022
 1448SOL     OW 5242   5.801   1.339   0.514
 1448SOL    HW1 5243   5.737   1.266   0.489
 1448SOL    HW2 5244   5.751   1.415   0.555
 1449SOL     OW 5245   5.952   6.590   0.071
 1449SOL    HW1 5246   6.035   6.644   0.055
 1449SOL    HW2 5247   5.976   6.493   0.078
 1450SOL     OW 5248   0.568   1.916   2.113
 1450SOL    HW1 5249   0.631   1.840   2.100
 1450SOL    HW2 5250   0.530   1.913   2.206
 1451SOL     OW 5251   3.160   0.778   2.633
 1451SOL    HW1 5252   3.220   0.732   2.568
 1451SOL    HW2 5253   3.072   0.732   2.637
 1452SOL     OW 5254   5.105   1.937   4.626
 1452SOL    HW1 5255   5.180   1.972   4.684
 1452SOL    HW2 5256   5.038   1.891   4.684
 1453SOL     OW 5257   6.171   3.717   4.955
 1453SOL    HW1 5258   6.103   3.784   4.926
 1453SOL    HW2 5259   6.131   3.656   5.024
 1454SOL     OW 5260   6.234   3.351   2.352
 1454SOL    HW1 5261   6.237   3.449   2.330
 1454SOL    HW2 5262   6.157   3.309   2.305
 1455SOL     OW 5263   1.397   0.292   1.960
 1455SOL    HW1 5264   1.485   0.254   1.988
 1455SOL    HW2 5265   1.412   0.380   1.916
 1456SOL     OW 5266   6.680   6.433   5.155
 1456SOL    HW1 5267   6.703   6.477   5.069
 1456SOL    HW2 5268   6.630   6.349   5.138
 1457SOL     OW 5269   1.952   0.419   1.835
 1457SOL    HW1 5270   1.971   0.370   1.920
 1457SOL    HW2 5271   1.925   0.354   1.764
 1458SOL     OW 5272   5.393   6.474   4.457
 1458SOL    HW1 5273   5.421   6.461   4.552
 1458SOL    HW2 5274   5.465   6.521   4.406
 1459SOL     OW 5275   2.801   4.257   6.696
 1459SOL    HW1 5276   2.753   4.269   6.609
 1459SOL    HW2 5277   2.743   4.205   6.760
 1460SOL     OW 5278   6.786   5.514   5.538
 1460SOL    HW1 5279   6.836   5.589   5.497
 1460SOL    HW2 5280   6.850   5.449   5.579
 1461SOL     OW 5281   6.939   4.577   3.347
 1461SOL    HW1 5282   0.004   4.611   3.299
 1461SOL    HW2 5283   6.967   4.516   3.421
 1462SOL     OW 5284   6.046   1.733   6.519
 1462SOL    HW1 5285   6.129   1.759   6.471
 1462SOL    HW2 5286   5.966   1.749   6.460
 1463SOL     OW 5287   6.855   6.340   6.208
 1463SOL    HW1 5288   6.767   6.387   6.204
 1463SOL    HW2 5289   6.844   6.245   6.177
 1464SOL     OW 5290   6.793   0.290   1.038
 1464SOL    HW1 5291   6.862   0.262   1.105
 1464SOL    HW2 5292   6.822   0.376   0.996
 1465SOL     OW 5293   1.689   0.993   2.963
 1465SOL    HW1 5294   1.659   0.936   2.887
 1465SOL    HW2 5295   1.614   1.052   2.993
 1466SOL     OW 5296   0.927   0.064   3.003
 1466SOL    HW1 5297   0.994   0.113   2.947
 1466SOL    HW2 5298   0.962   6.989   3.026
 1467SOL     OW 5299   2.013   6.991   2.028
 1467SOL    HW1 5300   2.043   6.953   1.941
 1467SOL    HW2 5301   2.061   6.944   2.103
 1468SOL     OW 5302   5.789   6.009   2.979
 1468SOL    HW1 5303   5.858   5.955   2.931
 1468SOL    HW2 5304   5.834   6.067   3.048
 1469SOL     OW 5305   0.624   0.516   3.268
 1469SOL    HW1 5306   0.552   0.474   3.214
 1469SOL    HW2 5307   0.694   0.448   3.289
 1470SOL     OW 5308   0.943   0.594   2.631
 1470SOL    HW1 5309   0.930   0.531   2.554
 1470SOL    HW2 5310   1.022   0.652   2.614
 1471SOL     OW 5311   0.814   0.956   0.128
 1471SOL    HW1 5312   0.882   0.953   0.055
 1471SOL    HW2 5313   0.724   0.972   0.089
 1472SOL     OW 5314   4.106   5.427   4.858
 1472SOL    HW1 5315   4.077   5.502   4.918
 1472SOL    HW2 5316   4.201   5.442   4.829
 1473SOL     OW 5317   5.721   6.280   3.909
 1473SOL    HW1 5318   5.814   6.279   3.874
 1473SOL    HW2 5319   5.680   6.189   3.897
 1474SOL     OW 5320   6.727   6.046   3.417
 1474SOL    HW1 5321   6.793   6.091   3.477
 1474SOL    HW2 5322   6.662   6.114   3.383
 1475SOL     OW 5323   0.233   0.469   1.490
 1475SOL    HW1 5324   0.165   0.538   1.514
 1475SOL    HW2 5325   0.316   0.515   1.458
 1476SOL     OW 5326   1.416   1.194   1.531
 1476SOL    HW1 5327   1.409   1.248   1.615
 1476SOL    HW2 5328   1.406   1.254   1.452
 1477SOL     OW 5329   2.424   0.397   6.494
 1477SOL    HW1 5330   2.458   0.421   6.584
 1477SOL    HW2 5331   2.492   0.340   6.447
 1478SOL     OW 5332   5.359   4.173   0.605
 1478SOL    HW1 5333   5.428   4.152   0.536
 1478SOL    HW2 5334   5.275   4.203   0.559
 1479SOL     OW 5335   1.225   3.872   6.895
 1479SOL    HW1 5336   1.152   3.913   6.840
 1479SOL    HW2 5337   1.186   3.830   6.977
 1480SOL     OW 5338   2.469   0.376   0.133
 1480SOL    HW1 5339   2.384   0.382   0.186
 1480SOL    HW2 5340   2.540   0.430   0.178
 1481SOL     OW 5341   6.531   1.792   4.588
 1481SOL    HW1 5342   6.440   1.761   4.561
 1481SOL    HW2 5343   6.583   1.715   4.623
 1482SOL     OW 5344   5.247   1.796   1.124
 1482SOL    HW1 5345   5.221   1.759   1.035
 1482SOL    HW2 5346   5.347   1.796   1.132
 1483SOL     OW 5347   0.340   2.806   6.118
 1483SOL    HW1 5348   0.440   2.808   6.114
 1483SOL    HW2 5349   0.305   2.762   6.035
 1484SOL     OW 5350   6.316   4.201   4.071
 1484SOL    HW1 5351   6.395   4.145   4.046
 1484SOL    HW2 5352   6.322   4.289   4.023
 1485SOL     OW 5353   4.612   2.089   2.959
 1485SOL    HW1 5354   4.586   1.993   2.949
 1485SOL    HW2 5355   4.576   2.125   3.045
 1486SOL     OW 5356   4.690   2.538   3.165
 1486SOL    HW1 5357   4.698   2.630   3.205
 1486SOL    HW2 5358   4.747   2.475   3.217
 1487SOL     OW 5359   5.717   2.433   6.715
 1487SOL    HW1 5360   5.652   2.408   6.643
 1487SOL    HW2 5361   5.685   2.398   6.803
 1488SOL     OW 5362   6.069   2.138   2.649
 1488SOL    HW1 5363   5.996   2.076   2.621
 1488SOL    HW2 5364   6.042   2.233   2.630
 1489SOL     OW 5365   3.796   5.034   4.773
 1489SOL    HW1 5366   3.756   4.987   4.694
 1489SOL    HW2 5367   3.723   5.077   4.826
 1490SOL     OW 5368   1.236   2.629   1.094
 1490SOL    HW1 5369   1.269   2.591   1.008
 1490SOL    HW2 5370   1.240   2.729   1.090
 1491SOL     OW 5371   6.799   3.640   3.198
 1491SOL    HW1 5372   6.824   3.737   3.195
 1491SOL    HW2 5373   6.843   3.592   3.122
 1492SOL     OW 5374   5.995   1.792   1.740
 1492SOL    HW1 5375   5.966   1.747   1.655
 1492SOL    HW2 5376   6.013   1.888   1.723
 1493SOL     OW 5377   5.024   0.902   4.577
 1493SOL    HW1 5378   5.122   0.925   4.581
 1493SOL    HW2 5379   4.995   0.867   4.665
 1494SOL     OW 5380   4.386   2.362   6.029
 1494SOL    HW1 5381   4.347   2.454   6.035
 1494SOL    HW2 5382   4.477   2.368   5.986
 1495SOL     OW 5383   1.036   3.034   3.413
 1495SOL    HW1 5384   1.024   3.132   3.396
 1495SOL    HW2 5385   1.115   3.001   3.362
 1496SOL     OW 5386   0.830   0.788   2.068
 1496SOL    HW1 5387   0.866   0.858   2.006
 1496SOL    HW2 5388   0.810   0.830   2.157
 1497SOL     OW 5389   0.221   4.313   3.138
 1497SOL    HW1 5390   0.125   4.294   3.162
 1497SOL    HW2 5391   0.224   4.386   3.070
 1498SOL     OW 5392   1.359   4.794   6.504
 1498SOL    HW1 5393   1.381   4.798   6.601
 1498SOL    HW2 5394   1.353   4.699   6.475
 1499SOL     OW 5395   1.125   3.565   5.187
 1499SOL    HW1 5396   1.108   3.468   5.203
 1499SOL    HW2 5397   1.224   3.582   5.183
 1500SOL     OW 5398   5.697   6.584   0.020
 1500SOL    HW1 5399   5.685   6.495   6.992
 1500SOL    HW2 5400   5.791   6.594   0.051
 1501SOL     OW 5401   3.960   0.807   6.398
 1501SOL    HW1 5402   3.905   0.867   6.457
 1501SOL    HW2 5403   3.991   0.728   6.450
 1502SOL     OW 5404   6.339   6.735   0.777
 1502SOL    HW1 5405   6.355   6.832   0.757
 1502SOL    HW2 5406   6.360   6.716   0.873
 1503SOL     OW 5407   2.820   2.224   1.177
 1503SOL    HW1 5408   2.751   2.171   1.227
 1503SOL    HW2 5409   2.788   2.318   1.166
 1504SOL     OW 5410   2.008   0.309   4.940
 1504SOL    HW1 5411   1.971   0.399   4.916
 1504SOL    HW2 5412   2.084   0.321   5.004
 1505SOL     OW 5413   5.564   0.423   6.657
 1505SOL    HW1 5414   5.482   0.477   6.675
 1505SOL    HW2 5415   5.570   0.350   6.725
 1506SOL     OW 5416   1.620   5.398   2.511
 1506SOL    HW1 5417   1.601   5.340   2.591
 1506SOL    HW2 5418   1.624   5.340   2.430
 1507SOL     OW 5419   1.774   2.079   5.082
 1507SOL    HW1 5420   1.706   2.009   5.104
 1507SOL    HW2 5421   1.862   2.036   5.065
 1508SOL     OW 5422   5.403   0.454   0.790
 1508SOL    HW1 5423   5.417   0.440   0.888
 1508SOL    HW2 5424   5.437   0.374   0.740
 1509SOL     OW 5425   3.947   2.550   6.183
 1509SOL    HW1 5426   3.875   2.602   6.137
 1509SOL    HW2 5427   3.907   2.496   6.257
 1510SOL     OW 5428   6.139   1.874   3.547
 1510SOL    HW1 5429   6.082   1.830   3.616
 1510SOL    HW2 5430   6.111   1.843   3.456
 1511SOL     OW 5431   2.140   2.816   0.539
 1511SOL    HW1 5432   2.050   2.774   0.543
 1511SOL    HW2 5433   2.136   2.901   0.487
 1512SOL     OW 5434   0.245   6.710   1.909
 1512SOL    HW1 5435   0.147   6.721   1.890
 1512SOL    HW2 5436   0.296   6.779   1.859
 1513SOL     OW 5437   4.607   0.391   3.786
 1513SOL    HW1 5438   4.671   0.327   3.828
 1513SOL    HW2 5439   4.657   0.465   3.743
 1514SOL     OW 5440   5.299   2.020   4.804
 1514SOL    HW1 5441   5.322   2.008   4.901
 1514SOL    HW2 5442   5.289   2.117   4.784
 1515SOL     OW 5443   6.832   3.386   6.225
 1515SOL    HW1 5444   6.841   3.302   6.172
 1515SOL    HW2 5445   6.895   3.455   6.188
 1516SOL     OW 5446   0.477   0.454   0.558
 1516SOL    HW1 5447   0.505   0.360   0.582
 1516SOL    HW2 5448   0.381   0.467   0.582
 1517SOL     OW 5449   4.825   5.746   3.530
 1517SOL    HW1 5450   4.777   5.832   3.541
 1517SOL    HW2 5451   4.924   5.763   3.524
 1518SOL     OW 5452   6.850   2.830   0.285
 1518SOL    HW1 5453   6.757   2.797   0.271
 1518SOL    HW2 5454   6.915   2.755   0.269
 1519SOL     OW 5455   0.075   4.693   1.919
 1519SOL    HW1 5456   0.123   4.778   1.940
 1519SOL    HW2 5457   6.997   4.712   1.892
 1520SOL     OW 5458   1.562   3.452   2.345
 1520SOL    HW1 5459   1.495   3.514   2.387
 1520SOL    HW2 5460   1.548   3.359   2.380
 1521SOL     OW 5461   2.020   3.421   6.785
 1521SOL    HW1 5462   1.921   3.428   6.793
 1521SOL    HW2 5463   2.049   3.326   6.798
 1522SOL     OW 5464   6.947   1.906   5.477
 1522SOL    HW1 5465   6.996   1.897   5.391
 1522SOL    HW2 5466   7.003   1.958   5.542
 1523SOL     OW 5467   4.963   4.187   6.948
 1523SOL    HW1 5468   4.891   4.243   6.907
 1523SOL    HW2 5469   5.041   4.182   6.886
 1524SOL     OW 5470   0.987   1.826   1.587
 1524SOL    HW1 5471   0.979   1.748   1.649
 1524SOL    HW2 5472   1.080   1.829   1.550
 1525SOL     OW 5473   5.246   2.962   6.628
 1525SOL    HW1 5474   5.281   3.017   6.552
 1525SOL    HW2 5475   5.261   3.010   6.714
 1526SOL     OW 5476   1.130   1.644   0.734
 1526SOL    HW1 5477   1.066   1.646   0.810
 1526SOL    HW2 5478   1.102   1.574   0.668
 1527SOL     OW 5479   3.652   0.890   4.818
 1527SOL    HW1 5480   3.616   0.852   4.732
 1527SOL    HW2 5481   3.576   0.917   4.877
 1528SOL     OW 5482   5.354   5.898   2.738
 1528SOL    HW1 5483   5.430   5.951   2.777
 1528SOL    HW2 5484   5.354   5.806   2.778
 1529SOL     OW 5485   3.792   1.356   6.726
 1529SOL    HW1 5486   3.864   1.292   6.698
 1529SOL    HW2 5487   3.704   1.322   6.693
 1530SOL     OW 5488   3.361   0.649   1.004
 1530SOL    HW1 5489   3.347   0.609   1.095
 1530SOL    HW2 5490   3.428   0.723   1.011
 1531SOL     OW 5491   6.009   1.314   4.907
 1531SOL    HW1 5492   6.032   1.357   4.995
 1531SOL    HW2 5493   6.093   1.294   4.857
 1532SOL     OW 5494   2.605   2.142   4.923
 1532SOL    HW1 5495   2.521   2.193   4.900
 1532SOL    HW2 5496   2.628   2.159   5.018
 1533SOL     OW 5497   0.096   3.436   6.537
 1533SOL    HW1 5498   0.004   3.477   6.542
 1533SOL    HW2 5499   0.130   3.441   6.444
 1534SOL     OW 5500   1.627   4.999   0.145
 1534SOL    HW1 5501   1.697   4.998   0.073
 1534SOL    HW2 5502   1.665   5.043   0.227
 1535SOL     OW 5503   5.578   5.889   4.500
 1535SOL    HW1 5504   5.523   5.960   4.543
 1535SOL    HW2 5505   5.531   5.854   4.419
 1536SOL     OW 5506   3.588   4.828   5.285
 1536SOL    HW1 5507   3.632   4.740   5.265
 1536SOL    HW2 5508   3.493   4.826   5.252
 1537SOL     OW 5509   4.102   6.063   3.290
 1537SOL    HW1 5510   4.185   6.024   3.251
 1537SOL    HW2 5511   4.058   6.122   3.222
 1538SOL     OW 5512   3.040   5.667   5.485
 1538SOL    HW1 5513   3.101   5.588   5.477
 1538SOL    HW2 5514   2.945   5.636   5.487
 1539SOL     OW 5515   3.990   4.262   1.450
 1539SOL    HW1 5516   3.981   4.358   1.424
 1539SOL    HW2 5517   3.941   4.204   1.384
 1540SOL     OW 5518   0.673   6.966   5.441
 1540SOL    HW1 5519   0.711   6.896   5.501
 1540SOL    HW2 5520   0.574   6.971   5.454
 1541SOL     OW 5521   3.255   2.674   1.485
 1541SOL    HW1 5522   3.286   2.665   1.579
 1541SOL    HW2 5523   3.174   2.616   1.471
 1542SOL     OW 5524   6.498   5.668   1.343
 1542SOL    HW1 5525   6.473   5.754   1.299
 1542SOL    HW2 5526   6.537   5.687   1.433
 1543SOL     OW 5527   3.065   3.135   4.154
 1543SOL    HW1 5528   3.090   3.230   4.173
 1543SOL    HW2 5529   3.057   3.085   4.241
 1544SOL     OW 5530   3.159   4.066   2.542
 1544SOL    HW1 5531   3.229   4.137   2.539
 1544SOL    HW2 5532   3.146   4.028   2.451
 1545SOL     OW 5533   5.889   1.280   5.384
 1545SOL    HW1 5534   5.821   1.224   5.336
 1545SOL    HW2 5535   5.927   1.227   5.460
 1546SOL     OW 5536   4.920   0.016   5.989
 1546SOL    HW1 5537   5.012   0.043   6.016
 1546SOL    HW2 5538   4.917   0.007   5.889
 1547SOL     OW 5539   2.174   3.919   2.327
 1547SOL    HW1 5540   2.136   3.846   2.384
 1547SOL    HW2 5541   2.271   3.931   2.348
 1548SOL     OW 5542   4.629   3.809   5.328
 1548SOL    HW1 5543   4.721   3.841   5.306
 1548SOL    HW2 5544   4.610   3.724   5.278
 1549SOL     OW 5545   5.835   0.905   2.067
 1549SOL    HW1 5546   5.867   0.876   1.977
 1549SOL    HW2 5547   5.823   1.004   2.067
 1550SOL     OW 5548   3.077   6.689   5.836
 1550SOL    HW1 5549   3.176   6.696   5.834
 1550SOL    HW2 5550   3.042   6.680   5.742
 1551SOL     OW 5551   1.828   3.420   0.675
 1551SOL    HW1 5552   1.884   3.498   0.703
 1551SOL    HW2 5553   1.764   3.450   0.603
 1552SOL     OW 5554   0.767   0.029   1.390
 1552SOL    HW1 5555   0.714   7.000   1.319
 1552SOL    HW2 5556   0.852   6.994   1.406
 1553SOL     OW 5557   6.597   2.219   6.963
 1553SOL    HW1 5558   6.648   2.217   0.033
 1553SOL    HW2 5559   6.512   2.269   6.977
 1554SOL     OW 5560   3.617   2.039   2.630
 1554SOL    HW1 5561   3.691   2.103   2.611
 1554SOL    HW2 5562   3.537   2.063   2.576
 1555SOL     OW 5563   4.395   2.909   6.016
 1555SOL    HW1 5564   4.434   2.850   5.945
 1555SOL    HW2 5565   4.396   3.004   5.985
 1556SOL     OW 5566   4.470   1.138   0.308
 1556SOL    HW1 5567   4.512   1.206   0.248
 1556SOL    HW2 5568   4.526   1.056   0.311
 1557SOL     OW 5569   2.776   1.800   0.224
 1557SOL    HW1 5570   2.784   1.861   0.303
 1557SOL    HW2 5571   2.856   1.810   0.165
 1558SOL     OW 5572   5.864   1.917   4.596
 1558SOL    HW1 5573   5.899   1.841   4.542
 1558SOL    HW2 5574   5.893   2.004   4.555
 1559SOL     OW 5575   0.382   2.685   1.207
 1559SOL    HW1 5576   0.425   2.753   1.267
 1559SOL    HW2 5577   0.453   2.634   1.159
 1560SOL     OW 5578   3.090   1.253   6.835
 1560SOL    HW1 5579   3.057   1.299   6.918
 1560SOL    HW2 5580   3.127   1.163   6.860
 1561SOL     OW 5581   4.727   5.080   3.607
 1561SOL    HW1 5582   4.650   5.140   3.626
 1561SOL    HW2 5583   4.782   5.118   3.532
 1562SOL     OW 5584   3.976   6.540   2.209
 1562SOL    HW1 5585   4.021   6.460   2.170
 1562SOL    HW2 5586   4.018   6.564   2.297
 1563SOL     OW 5587   2.228   2.049   5.933
 1563SOL    HW1 5588   2.204   2.071   5.839
 1563SOL    HW2 5589   2.322   2.015   5.937
 1564SOL     OW 5590   1.608   2.297   2.479
 1564SOL    HW1 5591   1.682   2.328   2.539
 1564SOL    HW2 5592   1.631   2.206   2.443
 1565SOL     OW 5593   4.464   5.208   4.680
 1565SOL    HW1 5594   4.364   5.202   4.686
 1565SOL    HW2 5595   4.489   5.261   4.599
 1566SOL     OW 5596   6.299   5.139   4.286
 1566SOL    HW1 5597   6.284   5.158   4.189
 1566SOL    HW2 5598   6.397   5.132   4.303
 1567SOL     OW 5599   6.380   5.045   6.708
 1567SOL    HW1 5600   6.471   5.019   6.676
 1567SOL    HW2 5601   6.359   4.994   6.792
 1568SOL     OW 5602   2.800   6.257   2.971
 1568SOL    HW1 5603   2.805   6.356   2.958
 1568SOL    HW2 5604   2.867   6.229   3.040
 1569SOL     OW 5605   3.640   6.800   3.338
 1569SOL    HW1 5606   3.706   6.746   3.391
 1569SOL    HW2 5607   3.633   6.892   3.376
 1570SOL     OW 5608   1.820   6.823   6.547
 1570SOL    HW1 5609   1.875   6.906   6.536
 1570SOL    HW2 5610   1.728   6.848   6.574
 1571SOL     OW 5611   0.781   2.436   2.933
 1571SOL    HW1 5612   0.858   2.494   2.906
 1571SOL    HW2 5613   0.815   2.348   2.965
 1572SOL     OW 5614   2.139   5.440   2.706
 1572SOL    HW1 5615   2.044   5.421   2.681
 1572SOL    HW2 5616   2.166   5.378   2.780
 1573SOL     OW 5617   5.450   5.227   2.559
 1573SOL    HW1 5618   5.536   5.250   2.604
 1573SOL    HW2 5619   5.374   5.272   2.607
 1574SOL     OW 5620   6.665   2.928   2.471
 1574SOL    HW1 5621   6.595   2.863   2.442
 1574SOL    HW2 5622   6.652   3.015   2.422
 1575SOL     OW 5623   2.517   0.715   1.547
 1575SOL    HW1 5624   2.565   0.660   1.616
 1575SOL    HW2 5625   2.560   0.701   1.458
 1576SOL     OW 5626   1.077   6.737   2.988
 1576SOL    HW1 5627   1.145   6.701   3.052
 1576SOL    HW2 5628   0.990   6.690   3.003
 1577SOL     OW 5629   2.232   0.748   6.275
 1577SOL    HW1 5630   2.230   0.845   6.250
 1577SOL    HW2 5631   2.203   0.693   6.197
 1578SOL     OW 5632   4.482   1.288   6.023
 1578SOL    HW1 5633   4.527   1.307   6.110
 1578SOL    HW2 5634   4.447   1.373   5.983
 1579SOL     OW 5635   6.652   2.093   1.223
 1579SOL    HW1 5636   6.674   2.039   1.304
 1579SOL    HW2 5637   6.641   2.189   1.249
 1580SOL     OW 5638   3.334   4.142   3.324
 1580SOL    HW1 5639   3.376   4.181   3.405
 1580SOL    HW2 5640   3.343   4.042   3.325
 1581SOL     OW 5641   7.007   4.169   5.483
 1581SOL    HW1 5642   6.935   4.192   5.418
 1581SOL    HW2 5643   0.001   4.070   5.488
 1582SOL     OW 5644   3.456   6.646   4.740
 1582SOL    HW1 5645   3.378   6.582   4.744
 1582SOL    HW2 5646   3.497   6.642   4.649
 1583SOL     OW 5647   0.862   5.943   4.127
 1583SOL    HW1 5648   0.855   5.867   4.063
 1583SOL    HW2 5649   0.865   5.909   4.221
 1584SOL     OW 5650   1.025   5.001   6.403
 1584SOL    HW1 5651   0.952   4.943   6.440
 1584SOL    HW2 5652   0.991   5.048   6.321
 1585SOL     OW 5653   4.519   1.846   2.831
 1585SOL    HW1 5654   4.458   1.770   2.810
 1585SOL    HW2 5655   4.579   1.863   2.753
 1586SOL     OW 5656   3.567   4.944   3.215
 1586SOL    HW1 5657   3.496   4.934   3.146
 1586SOL    HW2 5658   3.654   4.912   3.179
 1587SOL     OW 5659   2.068   4.953   5.197
 1587SOL    HW1 5660   2.040   4.857   5.189
 1587SOL    HW2 5661   1.991   5.013   5.176
 1588SOL     OW 5662   4.645   0.930   2.228
 1588SOL    HW1 5663   4.559   0.910   2.274
 1588SOL    HW2 5664   4.721   0.892   2.282
 1589SOL     OW 5665   0.256   3.356   2.322
 1589SOL    HW1 5666   0.236   3.260   2.338
 1589SOL    HW2 5667   0.257   3.405   2.409
 1590SOL     OW 5668   5.417   0.870   3.730
 1590SOL    HW1 5669   5.349   0.816   3.780
 1590SOL    HW2 5670   5.508   0.849   3.766
 1591SOL     OW 5671   6.908   6.234   1.097
 1591SOL    HW1 5672   6.961   6.243   1.012
 1591SOL    HW2 5673   6.952   6.286   1.170
 1592SOL     OW 5674   1.892   3.577   0.091
 1592SOL    HW1 5675   1.889   3.528   0.178
 1592SOL    HW2 5676   1.987   3.579   0.058
 1593SOL     OW 5677   0.806   6.946   5.990
 1593SOL    HW1 5678   0.819   6.994   5.904
 1593SOL    HW2 5679   0.862   6.863   5.991
 1594SOL     OW 5680   0.331   5.925   2.183
 1594SOL    HW1 5681   0.369   5.952   2.094
 1594SOL    HW2 5682   0.240   5.887   2.169
 1595SOL     OW 5683   1.165   4.647   0.530
 1595SOL    HW1 5684   1.125   4.710   0.596
 1595SOL    HW2 5685   1.159   4.553   0.565
 1596SOL     OW 5686   6.683   3.182   2.361
 1596SOL    HW1 5687   6.777   3.194   2.329
 1596SOL    HW2 5688   6.636   3.270   2.360
 1597SOL     OW 5689   1.637   6.484   1.012
 1597SOL    HW1 5690   1.686   6.571   1.016
 1597SOL    HW2 5691   1.700   6.409   1.036
 1598SOL     OW 5692   1.289   5.041   6.373
 1598SOL    HW1 5693   1.307   4.951   6.412
 1598SOL    HW2 5694   1.191   5.060   6.376
 1599SOL     OW 5695   5.241   4.886   5.209
 1599SOL    HW1 5696   5.306   4.921   5.277
 1599SOL    HW2 5697   5.290   4.835   5.139
 1600SOL     OW 5698   3.109   1.486   2.520
 1600SOL    HW1 5699   3.190   1.510   2.573
 1600SOL    HW2 5700   3.054   1.567   2.504
 1601SOL     OW 5701   0.419   6.901   4.570
 1601SOL    HW1 5702   0.367   6.825   4.530
 1601SOL    HW2 5703   0.474   6.945   4.498
 1602SOL     OW 5704   4.413   5.454   4.446
 1602SOL    HW1 5705   4.331   5.500   4.481
 1602SOL    HW2 5706   4.459   5.515   4.381
 1603SOL     OW 5707   3.354   5.145   3.602
 1603SOL    HW1 5708   3.352   5.058   3.651
 1603SOL    HW2 5709   3.405   5.134   3.517
 1604SOL     OW 5710   4.222   4.780   1.201
 1604SOL    HW1 5711   4.205   4.860   1.258
 1604SOL    HW2 5712   4.150   4.773   1.131
 1605SOL     OW 5713   6.560   5.445   1.869
 1605SOL    HW1 5714   6.482   5.394   1.833
 1605SOL    HW2 5715   6.529   5.506   1.942
 1606SOL     OW 5716   3.807   5.487   5.454
 1606SOL    HW1 5717   3.861   5.506   5.372
 1606SOL    HW2 5718   3.709   5.494   5.431
 1607SOL     OW 5719   4.521   0.514   0.819
 1607SOL    HW1 5720   4.588   0.570   0.868
 1607SOL    HW2 5721   4.472   0.571   0.753
 1608SOL     OW 5722   6.909   0.703   2.805
 1608SOL    HW1 5723   6.988   0.672   2.751
 1608SOL    HW2 5724   6.882   0.630   2.868
 1609SOL     OW 5725   3.185   0.052   0.593
 1609SOL    HW1 5726   3.258   6.999   0.590
 1609SOL    HW2 5727   3.123   0.037   0.515
 1610SOL     OW 5728   4.710   5.917   0.513
 1610SOL    HW1 5729   4.759   5.882   0.592
 1610SOL    HW2 5730   4.756   5.889   0.429
 1611SOL     OW 5731   1.952   3.870   0.974
 1611SOL    HW1 5732   1.961   3.952   0.917
 1611SOL    HW2 5733   1.914   3.795   0.920
 1612SOL     OW 5734   3.875   6.936   1.517
 1612SOL    HW1 5735   3.842   6.964   1.427
 1612SOL    HW2 5736   3.974   6.947   1.521
 1613SOL     OW 5737   1.358   5.894   1.645
 1613SOL    HW1 5738   1.394   5.809   1.684
 1613SOL    HW2 5739   1.370   5.893   1.546
 1614SOL     OW 5740   5.857   1.800   6.342
 1614SOL    HW1 5741   5.769   1.775   6.382
 1614SOL    HW2 5742   5.848   1.806   6.243
 1615SOL     OW 5743   6.712   5.938   0.022
 1615SOL    HW1 5744   6.782   5.942   0.093
 1615SOL    HW2 5745   6.621   5.932   0.063
 1616SOL     OW 5746   4.410   0.134   3.740
 1616SOL    HW1 5747   4.510   0.141   3.747
 1616SOL    HW2 5748   4.381   0.166   3.650
 1617SOL     OW 5749   5.445   6.216   3.013
 1617SOL    HW1 5750   5.520   6.278   2.989
 1617SOL    HW2 5751   5.418   6.232   3.108
 1618SOL     OW 5752   1.777   6.501   3.258
 1618SOL    HW1 5753   1.855   6.519   3.198
 1618SOL    HW2 5754   1.746   6.587   3.300
 1619SOL     OW 5755   0.075   4.869   6.908
 1619SOL    HW1 5756   0.166   4.908   6.925
 1619SOL    HW2 5757   0.016   4.940   6.870
 1620SOL     OW 5758   3.680   4.464   1.650
 1620SOL    HW1 5759   3.683   4.543   1.711
 1620SOL    HW2 5760   3.602   4.474   1.588
 1621SOL     OW 5761   5.524   0.073   1.305
 1621SOL    HW1 5762   5.520   6.991   1.321
 1621SOL    HW2 5763   5.460   0.120   1.366
 1622SOL     OW 5764   0.994   3.603   5.704
 1622SOL    HW1 5765   0.973   3.690   5.749
 1622SOL    HW2 5766   1.083   3.609   5.659
 1623SOL     OW 5767   0.347   2.826   4.818
 1623SOL    HW1 5768   0.323   2.751   4.757
 1623SOL    HW2 5769   0.373   2.906   4.764
 1624SOL     OW 5770   4.321   1.212   5.664
 1624SOL    HW1 5771   4.410   1.246   5.632
 1624SOL    HW2 5772   4.255   1.217   5.590
 1625SOL     OW 5773   1.771   5.042   6.918
 1625SOL    HW1 5774   1.838   4.967   6.914
 1625SOL    HW2 5775   1.701   5.027   6.848
 1626SOL     OW 5776   3.185   1.066   1.076
 1626SOL    HW1 5777   3.183   1.028   1.168
 1626SOL    HW2 5778   3.206   1.164   1.081
 1627SOL     OW 5779   5.610   2.763   3.528
 1627SOL    HW1 5780   5.621   2.668   3.501
 1627SOL    HW2 5781   5.513   2.789   3.520
 1628SOL     OW 5782   4.460   5.351   0.013
 1628SOL    HW1 5783   4.422   5.272   0.061
 1628SOL    HW2 5784   4.392   5.425   0.010
 1629SOL     OW 5785   2.739   1.061   3.856
 1629SOL    HW1 5786   2.681   0.985   3.885
 1629SOL    HW2 5787   2.818   1.025   3.806
 1630SOL     OW 5788   0.263   3.932   5.544
 1630SOL    HW1 5789   0.346   3.902   5.497
 1630SOL    HW2 5790   0.184   3.917   5.486
 1631SOL     OW 5791   0.424   3.255   0.589
 1631SOL    HW1 5792   0.483   3.268   0.668
 1631SOL    HW2 5793   0.388   3.162   0.589
 1632SOL     OW 5794   4.908   3.246   2.646
 1632SOL    HW1 5795   4.926   3.333   2.691
 1632SOL    HW2 5796   4.922   3.255   2.548
 1633SOL     OW 5797   4.866   3.975   4.640
 1633SOL    HW1 5798   4.860   3.994   4.542
 1633SOL    HW2 5799   4.841   3.879   4.656
 1634SOL     OW 5800   4.947   0.173   4.153
 1634SOL    HW1 5801   4.961   0.112   4.231
 1634SOL    HW2 5802   5.027   0.233   4.143
 1635SOL     OW 5803   0.832   4.922   6.581
 1635SOL    HW1 5804   0.799   4.850   6.519
 1635SOL    HW2 5805   0.755   4.976   6.614
 1636SOL     OW 5806   3.231   5.098   1.567
 1636SOL    HW1 5807   3.268   5.129   1.654
 1636SOL    HW2 5808   3.221   4.998   1.568
 1637SOL     OW 5809   0.161   6.704   4.122
 1637SOL    HW1 5810   0.210   6.791   4.132
 1637SOL    HW2 5811   0.154   6.659   4.211
 1638SOL     OW 5812   0.643   3.220   2.338
 1638SOL    HW1 5813   0.615   3.225   2.433
 1638SOL    HW2 5814   0.655   3.312   2.302
 1639SOL     OW 5815   5.473   5.313   1.771
 1639SOL    HW1 5816   5.440   5.243   1.708
 1639SOL    HW2 5817   5.555   5.281   1.817
 1640SOL     OW 5818   6.129   0.578   0.392
 1640SOL    HW1 5819   6.058   0.517   0.357
 1640SOL    HW2 5820   6.100   0.673   0.383
 1641SOL     OW 5821   6.358   1.939   2.994
 1641SOL    HW1 5822   6.356   1.956   3.093
 1641SOL    HW2 5823   6.451   1.948   2.960
 1642SOL     OW 5824   6.412   3.015   6.669
 1642SOL    HW1 5825   6.428   3.113   6.671
 1642SOL    HW2 5826   6.320   2.994   6.703
 1643SOL     OW 5827   2.852   4.999   3.350
 1643SOL    HW1 5828   2.883   5.027   3.441
 1643SOL    HW2 5829   2.855   4.900   3.343
 1644SOL     OW 5830   5.339   3.794   6.809
 1644SOL    HW1 5831   5.331   3.726   6.881
 1644SOL    HW2 5832   5.263   3.783   6.745
 1645SOL     OW 5833   2.902   6.066   5.992
 1645SOL    HW1 5834   2.855   6.040   5.908
 1645SOL    HW2 5835   2.956   6.149   5.976
 1646SOL     OW 5836   2.544   6.879   0.326
 1646SOL    HW1 5837   2.513   6.904   0.234
 1646SOL    HW2 5838   2.558   6.780   0.330
 1647SOL     OW 5839   6.462   2.238   4.262
 1647SOL    HW1 5840   6.399   2.291   4.320
 1647SOL    HW2 5841   6.482   2.150   4.307
 1648SOL     OW 5842   5.481   6.103   0.000
 1648SOL    HW1 5843   5.406   6.039   0.012
 1648SOL    HW2 5844   5.566   6.061   0.034
 1649SOL     OW 5845   3.483   1.729   4.402
 1649SOL    HW1 5846   3.421   1.722   4.324
 1649SOL    HW2 5847   3.441   1.784   4.474
 1650SOL     OW 5848   0.527   5.264   4.558
 1650SOL    HW1 5849   0.532   5.345   4.615
 1650SOL    HW2 5850   0.534   5.182   4.616
 1651SOL     OW 5851   0.488   2.304   1.975
 1651SOL    HW1 5852   0.440   2.302   2.063
 1651SOL    HW2 5853   0.516   2.211   1.951
 1652SOL     OW 5854   1.360   3.364   2.605
 1652SOL    HW1 5855   1.371   3.458   2.571
 1652SOL    HW2 5856   1.263   3.346   2.622
 1653SOL     OW 5857   0.280   6.418   0.559
 1653SOL    HW1 5858   0.322   6.358   0.491
 1653SOL    HW2 5859   0.248   6.362   0.636
 1654SOL     OW 5860   6.623   3.183   1.289
 1654SOL    HW1 5861   6.620   3.171   1.389
 1654SOL    HW2 5862   6.542   3.233   1.259
 1655SOL     OW 5863   0.336   2.054   4.295
 1655SOL    HW1 5864   0.363   1.959   4.312
 1655SOL    HW2 5865   0.285   2.059   4.209
 1656SOL     OW 5866   1.986   5.468   3.232
 1656SOL    HW1 5867   1.959   5.558   3.264
 1656SOL    HW2 5868   2.011   5.473   3.135
 1657SOL     OW 5869   5.796   0.577   4.583
 1657SOL    HW1 5870   5.811   0.480   4.599
 1657SOL    HW2 5871   5.828   0.630   4.661
 1658SOL     OW 5872   5.884   1.098   1.153
 1658SOL    HW1 5873   5.844   1.011   1.181
 1658SOL    HW2 5874   5.947   1.130   1.224
 1659SOL     OW 5875   3.562   0.244   0.091
 1659SOL    HW1 5876   3.623   0.167   0.074
 1659SOL    HW2 5877   3.509   0.227   0.174
 1660SOL     OW 5878   1.715   6.267   2.185
 1660SOL    HW1 5879   1.754   6.232   2.270
 1660SOL    HW2 5880   1.778   6.246   2.109
 1661SOL     OW 5881   1.921   6.085   1.392
 1661SOL    HW1 5882   1.900   6.183   1.394
 1661SOL    HW2 5883   1.856   6.035   1.449
 1662SOL     OW 5884   0.356   0.775   4.166
 1662SOL    HW1 5885   0.343   0.852   4.104
 1662SOL    HW2 5886   0.301   0.789   4.249
 1663SOL     OW 5887   4.561   5.322   3.637
 1663SOL    HW1 5888   4.487   5.337   3.571
 1663SOL    HW2 5889   4.630   5.393   3.627
 1664SOL     OW 5890   2.418   5.890   5.206
 1664SOL    HW1 5891   2.462   5.851   5.125
 1664SOL    HW2 5892   2.319   5.880   5.199
 1665SOL     OW 5893   6.654   3.646   1.649
 1665SOL    HW1 5894   6.595   3.592   1.588
 1665SOL    HW2 5895   6.679   3.590   1.728
 1666SOL     OW 5896   5.979   0.653   0.003
 1666SOL    HW1 5897   5.978   0.584   6.947
 1666SOL    HW2 5898   5.892   0.702   0.004
 1667SOL     OW 5899   6.840   5.785   1.263
 1667SOL    HW1 5900   6.823   5.734   1.347
 1667SOL    HW2 5901   6.794   5.874   1.268
 1668SOL     OW 5902   4.583   4.844   3.510
 1668SOL    HW1 5903   4.574   4.807   3.418
 1668SOL    HW2 5904   4.664   4.903   3.515
 1669SOL     OW 5905   6.574   4.553   5.734
 1669SOL    HW1 5906   6.615   4.643   5.720
 1669SOL    HW2 5907   6.646   4.485   5.750
 1670SOL     OW 5908   0.478   4.749   5.381
 1670SOL    HW1 5909   0.576   4.766   5.381
 1670SOL    HW2 5910   0.460   4.654   5.354
 1671SOL     OW 5911   5.841   1.543   3.466
 1671SOL    HW1 5912   5.742   1.547   3.477
 1671SOL    HW2 5913   5.867   1.452   3.431
 1672SOL     OW 5914   2.502   3.553   0.858
 1672SOL    HW1 5915   2.506   3.474   0.797
 1672SOL    HW2 5916   2.487   3.522   0.952
 1673SOL     OW 5917   1.293   2.263   4.585
 1673SOL    HW1 5918   1.358   2.207   4.637
 1673SOL    HW2 5919   1.291   2.233   4.490
 1674SOL     OW 5920   0.299   2.977   1.921
 1674SOL    HW1 5921   0.355   2.955   2.001
 1674SOL    HW2 5922   0.211   3.013   1.951
 1675SOL     OW 5923   4.500   0.523   0.188
 1675SOL    HW1 5924   4.433   0.456   0.154
 1675SOL    HW2 5925   4.589   0.506   0.146
 1676SOL     OW 5926   2.218   2.704   2.135
 1676SOL    HW1 5927   2.298   2.687   2.193
 1676SOL    HW2 5928   2.196   2.802   2.138
 1677SOL     OW 5929   4.096   3.743   3.831
 1677SOL    HW1 5930   4.115   3.738   3.929
 1677SOL    HW2 5931   4.181   3.758   3.781
 1678SOL     OW 5932   0.115   5.306   2.099
 1678SOL    HW1 5933   0.069   5.235   2.153
 1678SOL    HW2 5934   0.070   5.394   2.114
 1679SOL     OW 5935   1.961   1.522   4.588
 1679SOL    HW1 5936   2.055   1.505   4.558
 1679SOL    HW2 5937   1.898   1.506   4.512
 1680SOL     OW 5938   5.988   3.721   5.673
 1680SOL    HW1 5939   5.984   3.703   5.574
 1680SOL    HW2 5940   6.079   3.700   5.707
 1681SOL     OW 5941   1.119   5.832   6.285
 1681SOL    HW1 5942   1.143   5.927   6.265
 1681SOL    HW2 5943   1.096   5.785   6.200
 1682SOL     OW 5944   1.307   0.512   5.498
 1682SOL    HW1 5945   1.285   0.464   5.413
 1682SOL    HW2 5946   1.394   0.560   5.486
 1683SOL     OW 5947   5.693   5.445   2.975
 1683SOL    HW1 5948   5.729   5.481   2.889
 1683SOL    HW2 5949   5.767   5.404   3.028
 1684SOL     OW 5950   0.055   5.966   1.936
 1684SOL    HW1 5951   6.980   5.999   1.907
 1684SOL    HW2 5952   0.045   5.884   1.992
 1685SOL     OW 5953   1.823   1.446   5.985
 1685SOL    HW1 5954   1.831   1.546   5.983
 1685SOL    HW2 5955   1.846   1.412   6.076
 1686SOL     OW 5956   2.210   6.235   4.175
 1686SOL    HW1 5957   2.128   6.177   4.183
 1686SOL    HW2 5958   2.292   6.177   4.176
 1687SOL     OW 5959   1.466   2.661   2.038
 1687SOL    HW1 5960   1.417   2.631   2.120
 1687SOL    HW2 5961   1.548   2.606   2.026
 1688SOL     OW 5962   1.809   1.576   3.440
 1688SOL    HW1 5963   1.710   1.562   3.429
 1688SOL    HW2 5964   1.826   1.667   3.477
 1689SOL     OW 5965   6.876   0.967   2.813
 1689SOL    HW1 5966   6.893   1.014   2.726
 1689SOL    HW2 5967   6.892   0.869   2.802
 1690SOL     OW 5968   1.351   2.608   4.847
 1690SOL    HW1 5969   1.446   2.616   4.818
 1690SOL    HW2 5970   1.294   2.591   4.766
 1691SOL     OW 5971   5.956   3.172   4.010
 1691SOL    HW1 5972   6.033   3.231   3.983
 1691SOL    HW2 5973   5.987   3.077   4.014
 1692SOL     OW 5974   4.060   6.205   1.362
 1692SOL    HW1 5975   4.028   6.210   1.267
 1692SOL    HW2 5976   4.062   6.110   1.392
 1693SOL     OW 5977   6.585   1.965   3.249
 1693SOL    HW1 5978   6.559   2.035   3.182
 1693SOL    HW2 5979   6.683   1.945   3.240
 1694SOL     OW 5980   6.845   1.708   3.811
 1694SOL    HW1 5981   6.787   1.693   3.891
 1694SOL    HW2 5982   6.861   1.620   3.765
 1695SOL     OW 5983   3.531   0.725   6.164
 1695SOL    HW1 5984   3.498   0.669   6.088
 1695SOL    HW2 5985   3.557   0.666   6.240
 1696SOL     OW 5986   3.295   6.212   1.258
 1696SOL    HW1 5987   3.372   6.269   1.289
 1696SOL    HW2 5988   3.277   6.140   1.325
 1697SOL     OW 5989   6.566   1.567   0.792
 1697SOL    HW1 5990   6.650   1.620   0.807
 1697SOL    HW2 5991   6.577   1.476   0.832
 1698SOL     OW 5992   3.849   0.139   1.268
 1698SOL    HW1 5993   3.923   0.180   1.215
 1698SOL    HW2 5994   3.790   0.086   1.207
 1699SOL     OW 5995   1.767   1.705   6.009
 1699SOL    HW1 5996   1.718   1.774   6.061
 1699SOL    HW2 5997   1.748   1.715   5.912
 1700SOL     OW 5998   6.552   4.441   2.941
 1700SOL    HW1 5999   6.586   4.494   2.863
 1700SOL    HW2 6000   6.466   4.396   2.916
 1701SOL     OW 6001   5.669   5.829   5.669
 1701SOL    HW1 6002   5.634   5.866   5.755
 1701SOL    HW2 6003   5.649   5.892   5.595
 1702SOL     OW 6004   6.504   1.701   1.157
 1702SOL    HW1 6005   6.445   1.685   1.078
 1702SOL    HW2 6006   6.595   1.727   1.127
 1703SOL     OW 6007   3.625   1.148   6.645
 1703SOL    HW1 6008   3.588   1.103   6.726
 1703SOL    HW2 6009   3.550   1.173   6.583
 1704SOL     OW 6010   1.018   2.516   0.254
 1704SOL    HW1 6011   1.040   2.511   0.352
 1704SOL    HW2 6012   0.925   2.551   0.243
 1705SOL     OW 6013   3.374   2.253   1.626
 1705SOL    HW1 6014   3.321   2.184   1.675
 1705SOL    HW2 6015   3.462   2.266   1.672
 1706SOL     OW 6016   4.276   1.838   2.115
 1706SOL    HW1 6017   4.237   1.929   2.102
 1706SOL    HW2 6018   4.234   1.775   2.050
 1707SOL     OW 6019   4.777   2.740   2.814
 1707SOL    HW1 6020   4.781   2.804   2.737
 1707SOL    HW2 6021   4.783   2.791   2.900
 1708SOL     OW 6022   4.411   5.679   1.795
 1708SOL    HW1 6023   4.490   5.641   1.842
 1708SOL    HW2 6024   4.439   5.761   1.744
 1709SOL     OW 6025   3.663   6.395   2.942
 1709SOL    HW1 6026   3.568   6.388   2.910
 1709SOL    HW2 6027   3.663   6.425   3.037
 1710SOL     OW 6028   4.106   4.771   3.335
 1710SOL    HW1 6029   4.087   4.830   3.413
 1710SOL    HW2 6030   4.152   4.688   3.366
 1711SOL     OW 6031   1.913   5.392   4.601
 1711SOL    HW1 6032   1.835   5.357   4.549
 1711SOL    HW2 6033   1.983   5.426   4.538
 1712SOL     OW 6034   6.724   2.259   4.992
 1712SOL    HW1 6035   6.712   2.358   4.999
 1712SOL    HW2 6036   6.817   2.235   5.022
 1713SOL     OW 6037   4.248   1.637   2.502
 1713SOL    HW1 6038   4.191   1.606   2.578
 1713SOL    HW2 6039   4.305   1.562   2.469
 1714SOL     OW 6040   3.917   1.926   5.802
 1714SOL    HW1 6041   3.963   1.843   5.834
 1714SOL    HW2 6042   3.973   2.006   5.823
 1715SOL     OW 6043   2.341   6.354   3.417
 1715SOL    HW1 6044   2.271   6.368   3.487
 1715SOL    HW2 6045   2.300   6.366   3.326
 1716SOL     OW 6046   3.998   0.126   3.913
 1716SOL    HW1 6047   3.908   0.096   3.943
 1716SOL    HW2 6048   4.003   0.226   3.913
 1717SOL     OW 6049   3.285   5.897   4.761
 1717SOL    HW1 6050   3.286   5.968   4.831
 1717SOL    HW2 6051   3.258   5.810   4.802
 1718SOL     OW 6052   2.610   1.456   2.279
 1718SOL    HW1 6053   2.510   1.458   2.269
 1718SOL    HW2 6054   2.648   1.545   2.255
 1719SOL     OW 6055   2.196   3.324   0.899
 1719SOL    HW1 6056   2.212   3.295   0.805
 1719SOL    HW2 6057   2.200   3.245   0.960
 1720SOL     OW 6058   6.851   3.043   6.272
 1720SOL    HW1 6059   6.781   2.971   6.274
 1720SOL    HW2 6060   6.878   3.066   6.365
 1721SOL     OW 6061   1.811   6.436   1.665
 1721SOL    HW1 6062   1.739   6.469   1.726
 1721SOL    HW2 6063   1.900   6.459   1.703
 1722SOL     OW 6064   4.280   1.347   3.851
 1722SOL    HW1 6065   4.261   1.277   3.921
 1722SOL    HW2 6066   4.288   1.302   3.762
 1723SOL     OW 6067   5.055   2.384   6.905
 1723SOL    HW1 6068   5.123   2.453   6.879
 1723SOL    HW2 6069   5.100   2.315   6.962
 1724SOL     OW 6070   0.077   2.903   2.177
 1724SOL    HW1 6071   0.046   2.917   2.083
 1724SOL    HW2 6072   0.098   2.806   2.191
 1725SOL     OW 6073   1.815   4.711   6.641
 1725SOL    HW1 6074   1.746   4.682   6.575
 1725SOL    HW2 6075   1.892   4.752   6.592
 1726SOL     OW 6076   5.196   3.720   4.442
 1726SOL    HW1 6077   5.226   3.638   4.490
 1726SOL    HW2 6078   5.099   3.712   4.420
 1727SOL     OW 6079   4.034   3.363   3.595
 1727SOL    HW1 6080   4.036   3.401   3.502
 1727SOL    HW2 6081   3.993   3.430   3.657
 1728SOL     OW 6082   5.553   4.797   6.003
 1728SOL    HW1 6083   5.520   4.768   6.093
 1728SOL    HW2 6084   5.565   4.717   5.944
 1729SOL     OW 6085   2.115   3.556   2.940
 1729SOL    HW1 6086   2.081   3.481   2.883
 1729SOL    HW2 6087   2.074   3.549   3.031
 1730SOL     OW 6088   2.470   0.065   4.806
 1730SOL    HW1 6089   2.395   0.065   4.740
 1730SOL    HW2 6090   2.557   0.057   4.757
 1731SOL     OW 6091   0.358   4.224   3.626
 1731SOL    HW1 6092   0.271   4.176   3.616
 1731SOL    HW2 6093   0.408   4.221   3.539
 1732SOL     OW 6094   2.309   4.540   6.564
 1732SOL    HW1 6095   2.270   4.561   6.475
 1732SOL    HW2 6096   2.318   4.441   6.574
 1733SOL     OW 6097   1.804   4.139   1.593
 1733SOL    HW1 6098   1.754   4.149   1.507
 1733SOL    HW2 6099   1.804   4.227   1.641
 1734SOL     OW 6100   5.480   2.992   1.808
 1734SOL    HW1 6101   5.550   3.041   1.757
 1734SOL    HW2 6102   5.460   3.040   1.894
 1735SOL     OW 6103   4.962   5.495   6.458
 1735SOL    HW1 6104   4.947   5.521   6.362
 1735SOL    HW2 6105   5.059   5.483   6.474
 1736SOL     OW 6106   4.229   3.795   0.847
 1736SOL    HW1 6107   4.308   3.853   0.865
 1736SOL    HW2 6108   4.149   3.833   0.894
 1737SOL     OW 6109   5.229   6.629   4.871
 1737SOL    HW1 6110   5.297   6.561   4.843
 1737SOL    HW2 6111   5.243   6.652   4.968
 1738SOL     OW 6112   2.197   2.554   4.327
 1738SOL    HW1 6113   2.261   2.502   4.384
 1738SOL    HW2 6114   2.247   2.627   4.280
 1739SOL     OW 6115   0.024   1.512   4.691
 1739SOL    HW1 6116   6.992   1.498   4.777
 1739SOL    HW2 6117   0.050   1.423   4.653
 1740SOL     OW 6118   0.140   1.895   5.265
 1740SOL    HW1 6119   0.162   1.866   5.172
 1740SOL    HW2 6120   0.224   1.906   5.317
 1741SOL     OW 6121   2.443   0.844   4.874
 1741SOL    HW1 6122   2.508   0.774   4.843
 1741SOL    HW2 6123   2.484   0.934   4.866
 1742SOL     OW 6124   5.451   0.563   5.580
 1742SOL    HW1 6125   5.377   0.629   5.580
 1742SOL    HW2 6126   5.539   0.611   5.587
 1743SOL     OW 6127   0.773   1.231   2.705
 1743SOL    HW1 6128   0.790   1.158   2.771
 1743SOL    HW2 6129   0.858   1.252   2.656
 1744SOL     OW 6130   5.660   3.692   3.316
 1744SOL    HW1 6131   5.576   3.638   3.312
 1744SOL    HW2 6132   5.738   3.635   3.290
 1745SOL     OW 6133   5.479   6.362   2.638
 1745SOL    HW1 6134   5.546   6.290   2.653
 1745SOL    HW2 6135   5.465   6.413   2.723
 1746SOL     OW 6136   1.602   4.572   4.356
 1746SOL    HW1 6137   1.657   4.655   4.367
 1746SOL    HW2 6138   1.505   4.595   4.361
 1747SOL     OW 6139   3.695   1.311   2.467
 1747SOL    HW1 6140   3.647   1.382   2.416
 1747SOL    HW2 6141   3.789   1.339   2.484
 1748SOL     OW 6142   6.835   2.138   4.368
 1748SOL    HW1 6143   6.862   2.044   4.348
 1748SOL    HW2 6144   6.916   2.197   4.367
 1749SOL     OW 6145   1.887   0.046   6.127
 1749SOL    HW1 6146   1.935   6.974   6.132
 1749SOL    HW2 6147   1.942   0.116   6.172
 1750SOL     OW 6148   5.615   0.277   3.970
 1750SOL    HW1 6149   5.701   0.269   3.920
 1750SOL    HW2 6150   5.543   0.305   3.907
 1751SOL     OW 6151   5.308   1.694   4.767
 1751SOL    HW1 6152   5.369   1.751   4.712
 1751SOL    HW2 6153   5.359   1.616   4.802
 1752SOL     OW 6154   5.746   0.623   1.559
 1752SOL    HW1 6155   5.699   0.708   1.535
 1752SOL    HW2 6156   5.757   0.567   1.476
 1753SOL     OW 6157   6.748   0.653   1.458
 1753SOL    HW1 6158   6.797   0.672   1.543
 1753SOL    HW2 6159   6.812   0.615   1.391
 1754SOL     OW 6160   2.033   5.270   6.465
 1754SOL    HW1 6161   2.033   5.191   6.526
 1754SOL    HW2 6162   2.052   5.240   6.371
 1755SOL     OW 6163   0.230   5.762   6.732
 1755SOL    HW1 6164   0.265   5.810   6.652
 1755SOL    HW2 6165   0.306   5.732   6.789
 1756SOL     OW 6166   4.057   5.577   6.418
 1756SOL    HW1 6167   4.086   5.491   6.375
 1756SOL    HW2 6168   4.129   5.609   6.480
 1757SOL     OW 6169   3.550   5.882   5.192
 1757SOL    HW1 6170   3.553   5.871   5.093
 1757SOL    HW2 6171   3.541   5.980   5.214
 1758SOL     OW 6172   1.582   1.260   4.424
 1758SOL    HW1 6173   1.506   1.278   4.487
 1758SOL    HW2 6174   1.628   1.176   4.450
 1759SOL     OW 6175   2.765   6.567   5.384
 1759SOL    HW1 6176   2.761   6.665   5.366
 1759SOL    HW2 6177   2.762   6.551   5.482
 1760SOL     OW 6178   6.308   1.092   3.941
 1760SOL    HW1 6179   6.329   1.024   3.870
 1760SOL    HW2 6180   6.393   1.123   3.983
 1761SOL     OW 6181   0.247   1.094   1.943
 1761SOL    HW1 6182   0.156   1.122   1.975
 1761SOL    HW2 6183   0.264   1.134   1.853
 1762SOL     OW 6184   0.199   1.724   4.659
 1762SOL    HW1 6185   0.250   1.700   4.576
 1762SOL    HW2 6186   0.133   1.652   4.680
 1763SOL     OW 6187   1.203   4.899   4.179
 1763SOL    HW1 6188   1.289   4.941   4.206
 1763SOL    HW2 6189   1.130   4.968   4.183
 1764SOL     OW 6190   1.400   3.305   1.894
 1764SOL    HW1 6191   1.425   3.222   1.845
 1764SOL    HW2 6192   1.471   3.326   1.962
 1765SOL     OW 6193   3.395   1.432   1.320
 1765SOL    HW1 6194   3.307   1.472   1.297
 1765SOL    HW2 6195   3.468   1.493   1.289
 1766SOL     OW 6196   5.538   4.411   3.954
 1766SOL    HW1 6197   5.493   4.322   3.940
 1766SOL    HW2 6198   5.617   4.398   4.015
 1767SOL     OW 6199   1.047   4.710   3.568
 1767SOL    HW1 6200   0.964   4.668   3.605
 1767SOL    HW2 6201   1.122   4.700   3.634
 1768SOL     OW 6202   3.541   1.006   6.850
 1768SOL    HW1 6203   3.640   0.997   6.860
 1768SOL    HW2 6204   3.500   0.915   6.840
 1769SOL     OW 6205   6.118   0.949   6.884
 1769SOL    HW1 6206   6.072   0.873   6.838
 1769SOL    HW2 6207   6.074   0.966   6.972
 1770SOL     OW 6208   0.753   4.995   4.869
 1770SOL    HW1 6209   0.750   4.930   4.944
 1770SOL    HW2 6210   0.837   5.049   4.875
 1771SOL     OW 6211   1.546   5.509   0.628
 1771SOL    HW1 6212   1.539   5.477   0.534
 1771SOL    HW2 6213   1.548   5.430   0.690
 1772SOL     OW 6214   3.580   5.667   4.043
 1772SOL    HW1 6215   3.556   5.702   3.952
 1772SOL    HW2 6216   3.589   5.568   4.040
 1773SOL     OW 6217   2.217   2.338   5.995
 1773SOL    HW1 6218   2.207   2.384   5.907
 1773SOL    HW2 6219   2.247   2.244   5.980
 1774SOL     OW 6220   5.369   6.389   1.614
 1774SOL    HW1 6221   5.464   6.364   1.635
 1774SOL    HW2 6222   5.350   6.480   1.650
 1775SOL     OW 6223   1.991   5.481   5.985
 1775SOL    HW1 6224   1.975   5.438   5.896
 1775SOL    HW2 6225   1.929   5.441   6.053
 1776SOL     OW 6226   4.877   0.672   6.111
 1776SOL    HW1 6227   4.843   0.584   6.144
 1776SOL    HW2 6228   4.856   0.682   6.013
 1777SOL     OW 6229   3.434   6.858   6.625
 1777SOL    HW1 6230   3.524   6.815   6.617
 1777SOL    HW2 6231   3.443   6.946   6.672
 1778SOL     OW 6232   4.896   1.902   4.288
 1778SOL    HW1 6233   4.861   1.980   4.236
 1778SOL    HW2 6234   4.905   1.823   4.228
 1779SOL     OW 6235   4.838   0.544   5.850
 1779SOL    HW1 6236   4.929   0.513   5.823
 1779SOL    HW2 6237   4.792   0.473   5.903
 1780SOL     OW 6238   1.874   3.589   5.483
 1780SOL    HW1 6239   1.891   3.550   5.573
 1780SOL    HW2 6240   1.942   3.661   5.465
 1781SOL     OW 6241   5.456   6.738   5.396
 1781SOL    HW1 6242   5.434   6.810   5.330
 1781SOL    HW2 6243   5.388   6.739   5.470
 1782SOL     OW 6244   2.664   1.185   2.781
 1782SOL    HW1 6245   2.693   1.201   2.687
 1782SOL    HW2 6246   2.665   1.087   2.800
 1783SOL     OW 6247   2.878   3.946   6.475
 1783SOL    HW1 6248   2.811   3.877   6.502
 1783SOL    HW2 6249   2.833   4.015   6.418
 1784SOL     OW 6250   2.311   1.403   1.569
 1784SOL    HW1 6251   2.276   1.322   1.521
 1784SOL    HW2 6252   2.328   1.380   1.665
 1785SOL     OW 6253   6.822   6.760   4.532
 1785SOL    HW1 6254   6.759   6.833   4.505
 1785SOL    HW2 6255   6.910   6.774   4.487
 1786SOL     OW 6256   2.124   5.288   0.306
 1786SOL    HW1 6257   2.155   5.332   0.222
 1786SOL    HW2 6258   2.204   5.265   0.362
 1787SOL     OW 6259   1.878   2.119   5.673
 1787SOL    HW1 6260   1.878   2.132   5.573
 1787SOL    HW2 6261   1.832   2.033   5.695
 1788SOL     OW 6262   4.587   4.157   6.486
 1788SOL    HW1 6263   4.625   4.113   6.568
 1788SOL    HW2 6264   4.516   4.098   6.447
 1789SOL     OW 6265   5.827   3.076   1.816
 1789SOL    HW1 6266   5.788   3.150   1.762
 1789SOL    HW2 6267   5.818   3.097   1.913
 1790SOL     OW 6268   2.781   1.307   4.265
 1790SOL    HW1 6269   2.686   1.298   4.232
 1790SOL    HW2 6270   2.792   1.253   4.348
 1791SOL     OW 6271   0.156   1.311   3.685
 1791SOL    HW1 6272   0.244   1.358   3.682
 1791SOL    HW2 6273   0.085   1.375   3.711
 1792SOL     OW 6274   0.064   1.955   4.589
 1792SOL    HW1 6275   0.034   2.007   4.669
 1792SOL    HW2 6276   0.091   1.863   4.618
 1793SOL     OW 6277   6.730   1.683   4.062
 1793SOL    HW1 6278   6.750   1.676   4.160
 1793SOL    HW2 6279   6.678   1.766   4.045
 1794SOL     OW 6280   5.732   6.700   5.313
 1794SOL    HW1 6281   5.718   6.603   5.335
 1794SOL    HW2 6282   5.655   6.753   5.348
 1795SOL     OW 6283   6.367   4.923   1.270
 1795SOL    HW1 6284   6.431   4.861   1.225
 1795SOL    HW2 6285   6.396   5.017   1.254
 1796SOL     OW 6286   2.144   1.428   5.892
 1796SOL    HW1 6287   2.168   1.502   5.955
 1796SOL    HW2 6288   2.044   1.415   5.893
 1797SOL     OW 6289   1.199   6.856   5.720
 1797SOL    HW1 6290   1.106   6.872   5.684
 1797SOL    HW2 6291   1.265   6.870   5.647
 1798SOL     OW 6292   3.273   2.913   4.970
 1798SOL    HW1 6293   3.286   2.876   5.062
 1798SOL    HW2 6294   3.319   3.001   4.963
 1799SOL     OW 6295   3.713   2.869   6.390
 1799SOL    HW1 6296   3.811   2.880   6.370
 1799SOL    HW2 6297   3.697   2.781   6.434
 1800SOL     OW 6298   4.883   4.752   3.738
 1800SOL    HW1 6299   4.799   4.794   3.772
 1800SOL    HW2 6300   4.911   4.798   3.653
 1801SOL     OW 6301   0.863   2.010   1.835
 1801SOL    HW1 6302   0.764   2.016   1.839
 1801SOL    HW2 6303   0.891   1.915   1.825
 1802SOL     OW 6304   6.381   5.990   3.265
 1802SOL    HW1 6305   6.429   5.953   3.345
 1802SOL    HW2 6306   6.396   6.089   3.261
 1803SOL     OW 6307   0.027   6.537   2.612
 1803SOL    HW1 6308   0.092   6.584   2.552
 1803SOL    HW2 6309   0.012   6.444   2.580
 1804SOL     OW 6310   3.906   3.490   5.067
 1804SOL    HW1 6311   3.936   3.584   5.057
 1804SOL    HW2 6312   3.985   3.430   5.071
 1805SOL     OW 6313   0.956   5.534   6.063
 1805SOL    HW1 6314   0.942   5.475   5.984
 1805SOL    HW2 6315   0.980   5.626   6.031
 1806SOL     OW 6316   0.434   2.496   1.779
 1806SOL    HW1 6317   0.398   2.553   1.854
 1806SOL    HW2 6318   0.480   2.416   1.818
 1807SOL     OW 6319   5.688   3.247   6.872
 1807SOL    HW1 6320   5.624   3.265   6.947
 1807SOL    HW2 6321   5.645   3.271   6.785
 1808SOL     OW 6322   5.842   3.724   4.244
 1808SOL    HW1 6323   5.904   3.775   4.304
 1808SOL    HW2 6324   5.809   3.643   4.293
 1809SOL     OW 6325   3.091   1.340   5.286
 1809SOL    HW1 6326   3.157   1.408   5.318
 1809SOL    HW2 6327   3.125   1.296   5.204
 1810SOL     OW 6328   0.611   0.899   5.367
 1810SOL    HW1 6329   0.520   0.938   5.381
 1810SOL    HW2 6330   0.617   0.810   5.412
 1811SOL     OW 6331   5.355   4.469   1.792
 1811SOL    HW1 6332   5.363   4.431   1.885
 1811SOL    HW2 6333   5.277   4.427   1.746
 1812SOL     OW 6334   4.084   6.810   6.653
 1812SOL    HW1 6335   4.084   6.853   6.744
 1812SOL    HW2 6336   4.171   6.830   6.607
 1813SOL     OW 6337   4.849   4.008   2.238
 1813SOL    HW1 6338   4.932   3.956   2.259
 1813SOL    HW2 6339   4.797   3.961   2.167
 1814SOL     OW 6340   6.374   7.008   0.704
 1814SOL    HW1 6341   6.296   0.054   0.712
 1814SOL    HW2 6342   6.455   0.035   0.743
 1815SOL     OW 6343   6.140   6.852   2.769
 1815SOL    HW1 6344   6.208   6.819   2.834
 1815SOL    HW2 6345   6.175   6.841   2.676
 1816SOL     OW 6346   3.593   5.388   6.208
 1816SOL    HW1 6347   3.674   5.386   6.148
 1816SOL    HW2 6348   3.547   5.299   6.206
 1817SOL     OW 6349   3.498   1.397   3.024
 1817SOL    HW1 6350   3.550   1.462   2.969
 1817SOL    HW2 6351   3.429   1.352   2.967
 1818SOL     OW 6352   1.774   6.458   0.366
 1818SOL    HW1 6353   1.842   6.393   0.333
 1818SOL    HW2 6354   1.687   6.442   0.318
 1819SOL     OW 6355   1.388   5.013   2.340
 1819SOL    HW1 6356   1.370   5.076   2.415
 1819SOL    HW2 6357   1.360   5.055   2.254
 1820SOL     OW 6358   3.619   0.496   2.738
 1820SOL    HW1 6359   3.676   0.579   2.744
 1820SOL    HW2 6360   3.595   0.479   2.643
 1821SOL     OW 6361   3.357   1.240   2.149
 1821SOL    HW1 6362   3.399   1.320   2.192
 1821SOL    HW2 6363   3.419   1.204   2.079
 1822SOL     OW 6364   1.095   3.466   1.613
 1822SOL    HW1 6365   1.171   3.480   1.549
 1822SOL    HW2 6366   1.010   3.456   1.562
 1823SOL     OW 6367   3.463   5.956   3.340
 1823SOL    HW1 6368   3.533   5.968   3.270
 1823SOL    HW2 6369   3.489   6.007   3.423
 1824SOL     OW 6370   4.037   3.821   0.565
 1824SOL    HW1 6371   4.130   3.787   0.577
 1824SOL    HW2 6372   3.992   3.829   0.655
 1825SOL     OW 6373   0.265   3.224   4.961
 1825SOL    HW1 6374   0.346   3.272   4.993
 1825SOL    HW2 6375   0.261   3.227   4.861
 1826SOL     OW 6376   3.492   1.449   0.598
 1826SOL    HW1 6377   3.465   1.459   0.502
 1826SOL    HW2 6378   3.504   1.352   0.619
 1827SOL     OW 6379   4.987   5.698   1.102
 1827SOL    HW1 6380   5.035   5.784   1.120
 1827SOL    HW2 6381   4.911   5.688   1.166
 1828SOL     OW 6382   1.805   3.610   6.555
 1828SOL    HW1 6383   1.709   3.581   6.557
 1828SOL    HW2 6384   1.822   3.675   6.628
 1829SOL     OW 6385   3.578   0.051   3.485
 1829SOL    HW1 6386   3.519   0.048   3.566
 1829SOL    HW2 6387   3.537   0.110   3.416
 1830SOL     OW 6388   5.663   6.922   4.942
 1830SOL    HW1 6389   5.732   6.903   4.872
 1830SOL    HW2 6390   5.706   6.970   5.019
 1831SOL     OW 6391   5.093   5.959   2.666
 1831SOL    HW1 6392   5.083   6.050   2.626
 1831SOL    HW2 6393   5.186   5.948   2.701
 1832SOL     OW 6394   2.961   3.228   6.958
 1832SOL    HW1 6395   3.039   3.165   6.956
 1832SOL    HW2 6396   2.970   3.290   0.020
 1833SOL     OW 6397   5.305   0.329   1.220
 1833SOL    HW1 6398   5.343   0.417   1.190
 1833SOL    HW2 6399   5.359   0.294   1.296
 1834SOL     OW 6400   2.506   2.711   1.449
 1834SOL    HW1 6401   2.534   2.703   1.354
 1834SOL    HW2 6402   2.545   2.794   1.488
 1835SOL     OW 6403   0.829   4.757   1.771
 1835SOL    HW1 6404   0.890   4.831   1.743
 1835SOL    HW2 6405   0.844   4.737   1.868
 1836SOL     OW 6406   5.937   2.714   2.050
 1836SOL    HW1 6407   5.876   2.654   2.101
 1836SOL    HW2 6408   5.990   2.661   1.984
 1837SOL     OW 6409   1.833   0.390   5.481
 1837SOL    HW1 6410   1.865   0.369   5.574
 1837SOL    HW2 6411   1.905   0.366   5.416
 1838SOL     OW 6412   6.437   0.583   6.668
 1838SOL    HW1 6413   6.386   0.652   6.617
 1838SOL    HW2 6414   6.515   0.625   6.713
 1839SOL     OW 6415   6.275   1.510   6.734
 1839SOL    HW1 6416   6.200   1.485   6.795
 1839SOL    HW2 6417   6.297   1.607   6.746
 1840SOL     OW 6418   3.917   0.776   2.463
 1840SOL    HW1 6419   3.990   0.833   2.424
 1840SOL    HW2 6420   3.873   0.825   2.538
 1841SOL     OW 6421   2.316   0.622   3.191
 1841SOL    HW1 6422   2.316   0.596   3.094
 1841SOL    HW2 6423   2.410   0.629   3.224
 1842SOL     OW 6424   1.204   5.270   0.505
 1842SOL    HW1 6425   1.163   5.198   0.449
 1842SOL    HW2 6426   1.277   5.316   0.454
 1843SOL     OW 6427   5.076   0.446   4.089
 1843SOL    HW1 6428   5.120   0.515   4.146
 1843SOL    HW2 6429   5.021   0.491   4.018
 1844SOL     OW 6430   4.769   1.643   5.325
 1844SOL    HW1 6431   4.796   1.551   5.297
 1844SOL    HW2 6432   4.673   1.643   5.354
 1845SOL     OW 6433   3.041   6.868   3.788
 1845SOL    HW1 6434   3.082   6.870   3.879
 1845SOL    HW2 6435   2.959   6.925   3.787
 1846SOL     OW 6436   5.374   1.486   3.235
 1846SOL    HW1 6437   5.370   1.446   3.326
 1846SOL    HW2 6438   5.406   1.418   3.169
 1847SOL     OW 6439   1.545   0.117   4.962
 1847SOL    HW1 6440   1.507   0.025   4.978
 1847SOL    HW2 6441   1.494   0.161   4.887
 1848SOL     OW 6442   1.567   6.513   3.932
 1848SOL    HW1 6443   1.656   6.525   3.977
 1848SOL    HW2 6444   1.552   6.416   3.913
 1849SOL     OW 6445   4.934   2.838   1.675
 1849SOL    HW1 6446   4.835   2.828   1.662
 1849SOL    HW2 6447   4.951   2.910   1.743
 1850SOL     OW 6448   5.453   1.628   2.356
 1850SOL    HW1 6449   5.361   1.598   2.331
 1850SOL    HW2 6450   5.492   1.681   2.281
 1851SOL     OW 6451   0.589   3.461   0.029
 1851SOL    HW1 6452   0.604   3.367   7.015
 1851SOL    HW2 6453   0.665   3.518   7.014
 1852SOL     OW 6454   0.163   4.882   1.467
 1852SOL    HW1 6455   0.134   4.972   1.432
 1852SOL    HW2 6456   0.210   4.832   1.394
 1853SOL     OW 6457   0.007   2.184   3.401
 1853SOL    HW1 6458   0.005   2.271   3.451
 1853SOL    HW2 6459   6.931   2.161   3.370
 1854SOL     OW 6460   1.340   5.264   3.136
 1854SOL    HW1 6461   1.358   5.361   3.121
 1854SOL    HW2 6462   1.242   5.248   3.141
 1855SOL     OW 6463   5.115   3.025   5.196
 1855SOL    HW1 6464   5.117   2.957   5.123
 1855SOL    HW2 6465   5.189   3.007   5.261
 1856SOL     OW 6466   4.071   3.666   6.643
 1856SOL    HW1 6467   3.982   3.699   6.674
 1856SOL    HW2 6468   4.058   3.591   6.577
 1857SOL     OW 6469   5.019   0.916   0.432
 1857SOL    HW1 6470   5.065   0.828   0.443
 1857SOL    HW2 6471   5.074   0.988   0.475
 1858SOL     OW 6472   5.347   2.822   3.335
 1858SOL    HW1 6473   5.323   2.768   3.254
 1858SOL    HW2 6474   5.329   2.918   3.317
 1859SOL     OW 6475   4.952   2.080   3.653
 1859SOL    HW1 6476   4.883   2.032   3.708
 1859SOL    HW2 6477   5.042   2.045   3.676
 1860SOL     OW 6478   1.002   2.110   5.191
 1860SOL    HW1 6479   0.906   2.084   5.185
 1860SOL    HW2 6480   1.036   2.134   5.100
 1861SOL     OW 6481   5.308   0.478   2.978
 1861SOL    HW1 6482   5.253   0.537   3.037
 1861SOL    HW2 6483   5.394   0.456   3.024
 1862SOL     OW 6484   1.359   6.952   0.027
 1862SOL    HW1 6485   1.451   6.917   0.008
 1862SOL    HW2 6486   1.365   0.018   0.083
 1863SOL     OW 6487   6.785   2.960   1.772
 1863SOL    HW1 6488   6.772   2.861   1.769
 1863SOL    HW2 6489   6.873   2.984   1.731
 1864SOL     OW 6490   3.450   5.827   4.228
 1864SOL    HW1 6491   3.505   5.891   4.283
 1864SOL    HW2 6492   3.504   5.793   4.152
 1865SOL     OW 6493   3.533   1.172   1.228
 1865SOL    HW1 6494   3.452   1.114   1.239
 1865SOL    HW2 6495   3.511   1.266   1.251
 1866SOL     OW 6496   6.493   4.748   3.859
 1866SOL    HW1 6497   6.590   4.772   3.864
 1866SOL    HW2 6498   6.460   4.724   3.950
 1867SOL     OW 6499   2.175   3.180   1.272
 1867SOL    HW1 6500   2.215   3.257   1.323
 1867SOL    HW2 6501   2.237   3.152   1.200
 1868SOL     OW 6502   4.825   3.426   5.671
 1868SOL    HW1 6503   4.878   3.365   5.730
 1868SOL    HW2 6504   4.780   3.496   5.726
 1869SOL     OW 6505   5.429   2.745   3.945
 1869SOL    HW1 6506   5.488   2.682   3.994
 1869SOL    HW2 6507   5.334   2.728   3.969
 1870SOL     OW 6508   0.312   3.411   4.601
 1870SOL    HW1 6509   0.401   3.376   4.630
 1870SOL    HW2 6510   0.244   3.337   4.604
 1871SOL     OW 6511   6.984   6.802   0.406
 1871SOL    HW1 6512   7.015   6.871   0.340
 1871SOL    HW2 6513   0.042   6.737   0.423
 1872SOL     OW 6514   3.468   2.365   0.460
 1872SOL    HW1 6515   3.491   2.285   0.515
 1872SOL    HW2 6516   3.382   2.405   0.493
 1873SOL     OW 6517   6.337   1.013   5.692
 1873SOL    HW1 6518   6.334   0.998   5.593
 1873SOL    HW2 6519   6.283   1.094   5.714
 1874SOL     OW 6520   0.917   1.182   7.000
 1874SOL    HW1 6521   0.919   1.215   0.078
 1874SOL    HW2 6522   0.848   1.234   6.948
 1875SOL     OW 6523   6.718   6.196   0.612
 1875SOL    HW1 6524   6.730   6.166   0.706
 1875SOL    HW2 6525   6.808   6.214   0.571
 1876SOL     OW 6526   5.186   6.897   6.141
 1876SOL    HW1 6527   5.277   6.905   6.101
 1876SOL    HW2 6528   5.142   6.987   6.144
 1877SOL     OW 6529   0.134   1.718   3.150
 1877SOL    HW1 6530   0.035   1.723   3.139
 1877SOL    HW2 6531   0.156   1.662   3.230
 1878SOL     OW 6532   0.076   4.128   3.452
 1878SOL    HW1 6533   0.054   4.046   3.505
 1878SOL    HW2 6534   0.104   4.101   3.360
 1879SOL     OW 6535   2.637   5.234   4.205
 1879SOL    HW1 6536   2.678   5.151   4.168
 1879SOL    HW2 6537   2.699   5.274   4.273
 1880SOL     OW 6538   0.842   2.408   3.213
 1880SOL    HW1 6539   0.789   2.487   3.181
 1880SOL    HW2 6540   0.898   2.435   3.291
 1881SOL     OW 6541   1.036   2.311   3.584
 1881SOL    HW1 6542   1.067   2.257   3.505
 1881SOL    HW2 6543   0.937   2.304   3.592
 1882SOL     OW 6544   0.926   5.901   6.672
 1882SOL    HW1 6545   1.000   5.935   6.730
 1882SOL    HW2 6546   0.956   5.816   6.627
 1883SOL     OW 6547   1.479   3.436   3.857
 1883SOL    HW1 6548   1.386   3.412   3.830
 1883SOL    HW2 6549   1.544   3.374   3.813
 1884SOL     OW 6550   5.069   1.118   1.817
 1884SOL    HW1 6551   5.155   1.075   1.791
 1884SOL    HW2 6552   4.993   1.056   1.798
 1885SOL     OW 6553   6.587   2.119   0.573
 1885SOL    HW1 6554   6.666   2.161   0.528
 1885SOL    HW2 6555   6.521   2.191   0.596
 1886SOL     OW 6556   2.042   2.032   6.894
 1886SOL    HW1 6557   2.100   2.112   6.907
 1886SOL    HW2 6558   2.068   1.986   6.809
 1887SOL     OW 6559   0.019   4.131   5.754
 1887SOL    HW1 6560   6.996   4.133   5.662
 1887SOL    HW2 6561   0.117   4.109   5.748
 1888SOL     OW 6562   2.222   1.541   6.129
 1888SOL    HW1 6563   2.142   1.587   6.169
 1888SOL    HW2 6564   2.286   1.515   6.202
 1889SOL     OW 6565   4.341   4.044   6.447
 1889SOL    HW1 6566   4.265   4.001   6.496
 1889SOL    HW2 6567   4.306   4.091   6.366
 1890SOL     OW 6568   1.816   5.385   6.163
 1890SOL    HW1 6569   1.746   5.375   6.233
 1890SOL    HW2 6570   1.802   5.317   6.092
 1891SOL     OW 6571   5.086   2.434   4.531
 1891SOL    HW1 6572   5.147   2.360   4.503
 1891SOL    HW2 6573   5.118   2.474   4.617
 1892SOL     OW 6574   3.556   6.350   1.338
 1892SOL    HW1 6575   3.626   6.386   1.400
 1892SOL    HW2 6576   3.601   6.307   1.259
 1893SOL     OW 6577   3.528   2.099   4.596
 1893SOL    HW1 6578   3.606   2.155   4.625
 1893SOL    HW2 6579   3.444   2.153   4.602
 1894SOL     OW 6580   4.231   3.487   1.574
 1894SOL    HW1 6581   4.150   3.432   1.598
 1894SOL    HW2 6582   4.201   3.573   1.532
 1895SOL     OW 6583   6.381   0.238   2.631
 1895SOL    HW1 6584   6.282   0.238   2.615
 1895SOL    HW2 6585   6.401   0.183   2.713
 1896SOL     OW 6586   6.938   0.920   3.101
 1896SOL    HW1 6587   6.907   0.917   3.006
 1896SOL    HW2 6588   6.960   1.015   3.125
 1897SOL     OW 6589   6.461   5.453   3.076
 1897SOL    HW1 6590   6.435   5.396   3.153
 1897SOL    HW2 6591   6.438   5.549   3.096
 1898SOL     OW 6592   3.703   6.480   1.507
 1898SOL    HW1 6593   3.676   6.572   1.535
 1898SOL    HW2 6594   3.800   6.480   1.484
 1899SOL     OW 6595   1.230   3.008   2.835
 1899SOL    HW1 6596   1.152   2.962   2.793
 1899SOL    HW2 6597   1.286   3.050   2.765
 1900SOL     OW 6598   1.183   0.199   5.794
 1900SOL    HW1 6599   1.149   0.268   5.730
 1900SOL    HW2 6600   1.161   0.108   5.759
 1901SOL     OW 6601   1.868   1.353   0.890
 1901SOL    HW1 6602   1.806   1.354   0.811
 1901SOL    HW2 6603   1.963   1.358   0.858
 1902SOL     OW 6604   1.721   2.738   5.140
 1902SOL    HW1 6605   1.750   2.798   5.215
 1902SOL    HW2 6606   1.791   2.668   5.124
 1903SOL     OW 6607   6.866   3.636   3.562
 1903SOL    HW1 6608   6.800   3.598   3.627
 1903SOL    HW2 6609   6.875   3.574   3.484
 1904SOL     OW 6610   6.881   0.259   4.277
 1904SOL    HW1 6611   6.909   0.354   4.264
 1904SOL    HW2 6612   6.865   0.217   4.187
 1905SOL     OW 6613   0.510   2.382   3.821
 1905SOL    HW1 6614   0.477   2.338   3.904
 1905SOL    HW2 6615   0.440   2.446   3.788
 1906SOL     OW 6616   2.686   0.138   5.538
 1906SOL    HW1 6617   2.767   0.196   5.539
 1906SOL    HW2 6618   2.694   0.068   5.608
 1907SOL     OW 6619   3.459   6.953   3.696
 1907SOL    HW1 6620   3.540   6.895   3.690
 1907SOL    HW2 6621   3.449   6.986   3.790
 1908SOL     OW 6622   4.443   0.956   4.851
 1908SOL    HW1 6623   4.471   0.864   4.880
 1908SOL    HW2 6624   4.523   1.013   4.835
 1909SOL     OW 6625   2.077   4.062   3.664
 1909SOL    HW1 6626   2.052   4.097   3.754
 1909SOL    HW2 6627   2.004   4.082   3.599
 1910SOL     OW 6628   5.700   2.591   6.250
 1910SOL    HW1 6629   5.727   2.632   6.338
 1910SOL    HW2 6630   5.624   2.528   6.265
 1911SOL     OW 6631   6.398   1.708   5.588
 1911SOL    HW1 6632   6.452   1.665   5.660
 1911SOL    HW2 6633   6.345   1.783   5.626
 1912SOL     OW 6634   3.812   6.805   2.518
 1912SOL    HW1 6635   3.787   6.863   2.440
 1912SOL    HW2 6636   3.903   6.767   2.504
 1913SOL     OW 6637   1.846   6.224   5.262
 1913SOL    HW1 6638   1.820   6.306   5.314
 1913SOL    HW2 6639   1.945   6.223   5.251
 1914SOL     OW 6640   2.574   2.629   6.924
 1914SOL    HW1 6641   2.532   2.584   6.844
 1914SOL    HW2 6642   2.671   2.644   6.905
 1915SOL     OW 6643   3.429   1.386   5.253
 1915SOL    HW1 6644   3.407   1.343   5.341
 1915SOL    HW2 6645   3.510   1.444   5.263
 1916SOL     OW 6646   3.561   5.467   0.960
 1916SOL    HW1 6647   3.498   5.389   0.957
 1916SOL    HW2 6648   3.526   5.540   0.901
 1917SOL     OW 6649   4.050   3.911   4.827
 1917SOL    HW1 6650   3.985   3.942   4.758
 1917SOL    HW2 6651   4.107   3.988   4.856
 1918SOL     OW 6652   6.508   6.314   6.353
 1918SOL    HW1 6653   6.538   6.218   6.357
 1918SOL    HW2 6654   6.539   6.355   6.266
 1919SOL     OW 6655   1.130   6.592   2.070
 1919SOL    HW1 6656   1.059   6.608   2.001
 1919SOL    HW2 6657   1.148   6.494   2.078
 1920SOL     OW 6658   0.426   4.762   3.152
 1920SOL    HW1 6659   0.391   4.764   3.058
 1920SOL    HW2 6660   0.367   4.817   3.211
 1921SOL     OW 6661   0.644   4.954   0.323
 1921SOL    HW1 6662   0.636   4.861   0.289
 1921SOL    HW2 6663   0.653   5.017   0.246
 1922SOL     OW 6664   3.735   3.645   1.318
 1922SOL    HW1 6665   3.664   3.594   1.268
 1922SOL    HW2 6666   3.746   3.607   1.409
 1923SOL     OW 6667   2.470   0.835   0.133
 1923SOL    HW1 6668   2.452   0.904   0.204
 1923SOL    HW2 6669   2.536   0.768   0.169
 1924SOL     OW 6670   5.638   5.797   2.860
 1924SOL    HW1 6671   5.727   5.792   2.906
 1924SOL    HW2 6672   5.579   5.723   2.892
 1925SOL     OW 6673   2.936   3.693   1.828
 1925SOL    HW1 6674   2.855   3.748   1.807
 1925SOL    HW2 6675   3.009   3.754   1.860
 1926SOL     OW 6676   1.143   0.074   3.946
 1926SOL    HW1 6677   1.188   7.005   3.920
 1926SOL    HW2 6678   1.117   0.125   3.864
 1927SOL     OW 6679   3.493   4.940   6.567
 1927SOL    HW1 6680   3.499   4.842   6.584
 1927SOL    HW2 6681   3.558   4.966   6.496
 1928SOL     OW 6682   6.570   3.625   6.326
 1928SOL    HW1 6683   6.609   3.596   6.413
 1928SOL    HW2 6684   6.510   3.553   6.290
 1929SOL     OW 6685   0.515   5.510   1.339
 1929SOL    HW1 6686   0.533   5.417   1.307
 1929SOL    HW2 6687   0.422   5.516   1.375
 1930SOL     OW 6688   5.012   4.563   6.756
 1930SOL    HW1 6689   5.041   4.490   6.818
 1930SOL    HW2 6690   5.091   4.596   6.704
 1931SOL     OW 6691   0.111   3.031   3.523
 1931SOL    HW1 6692   0.057   3.109   3.555
 1931SOL    HW2 6693   0.051   2.961   3.486
 1932SOL     OW 6694   4.816   3.918   2.752
 1932SOL    HW1 6695   4.761   4.002   2.744
 1932SOL    HW2 6696   4.794   3.857   2.675
 1933SOL     OW 6697   2.956   4.454   0.728
 1933SOL    HW1 6698   2.862   4.455   0.762
 1933SOL    HW2 6699   3.012   4.397   0.788
 1934SOL     OW 6700   0.463   0.484   5.638
 1934SOL    HW1 6701   0.432   0.502   5.731
 1934SOL    HW2 6702   0.384   0.469   5.579
 1935SOL     OW 6703   3.174   0.330   5.210
 1935SOL    HW1 6704   3.116   0.368   5.138
 1935SOL    HW2 6705   3.261   0.379   5.212
 1936SOL     OW 6706   5.777   4.330   4.082
 1936SOL    HW1 6707   5.819   4.361   4.168
 1936SOL    HW2 6708   5.844   4.339   4.008
 1937SOL     OW 6709   4.306   6.558   1.619
 1937SOL    HW1 6710   4.232   6.495   1.597
 1937SOL    HW2 6711   4.304   6.580   1.716
 1938SOL     OW 6712   4.352   1.240   3.121
 1938SOL    HW1 6713   4.417   1.313   3.099
 1938SOL    HW2 6714   4.308   1.259   3.209
 1939SOL     OW 6715   0.258   6.697   4.471
 1939SOL    HW1 6716   0.212   6.638   4.405
 1939SOL    HW2 6717   0.292   6.641   4.547
 1940SOL     OW 6718   4.904   5.180   5.657
 1940SOL    HW1 6719   4.824   5.120   5.666
 1940SOL    HW2 6720   4.948   5.164   5.569
 1941SOL     OW 6721   0.131   4.011   3.186
 1941SOL    HW1 6722   0.171   3.920   3.191
 1941SOL    HW2 6723   0.187   4.069   3.127
 1942SOL     OW 6724   6.549   0.584   3.217
 1942SOL    HW1 6725   6.495   0.593   3.300
 1942SOL    HW2 6726   6.625   0.650   3.219
 1943SOL     OW 6727   3.151   6.102   2.337
 1943SOL    HW1 6728   3.051   6.101   2.345
 1943SOL    HW2 6729   3.188   6.019   2.379
 1944SOL     OW 6730   4.737   2.326   6.270
 1944SOL    HW1 6731   4.709   2.349   6.363
 1944SOL    HW2 6732   4.706   2.397   6.207
 1945SOL     OW 6733   4.135   5.840   2.340
 1945SOL    HW1 6734   4.093   5.845   2.249
 1945SOL    HW2 6735   4.082   5.780   2.399
 1946SOL     OW 6736   6.894   0.863   0.642
 1946SOL    HW1 6737   6.844   0.816   0.568
 1946SOL    HW2 6738   6.968   0.917   0.603
 1947SOL     OW 6739   5.261   6.688   3.629
 1947SOL    HW1 6740   5.285   6.725   3.540
 1947SOL    HW2 6741   5.206   6.754   3.680
 1948SOL     OW 6742   6.153   5.837   3.371
 1948SOL    HW1 6743   6.245   5.877   3.367
 1948SOL    HW2 6744   6.155   5.757   3.431
 1949SOL     OW 6745   4.353   5.017   6.107
 1949SOL    HW1 6746   4.296   4.935   6.113
 1949SOL    HW2 6747   4.349   5.066   6.194
 1950SOL     OW 6748   3.731   3.884   1.024
 1950SOL    HW1 6749   3.670   3.805   1.021
 1950SOL    HW2 6750   3.820   3.858   0.986
 1951SOL     OW 6751   6.501   3.981   0.470
 1951SOL    HW1 6752   6.504   3.882   0.473
 1951SOL    HW2 6753   6.590   4.017   0.441
 1952SOL     OW 6754   3.528   2.517   6.730
 1952SOL    HW1 6755   3.444   2.478   6.693
 1952SOL    HW2 6756   3.583   2.556   6.656
 1953SOL     OW 6757   6.163   2.608   0.265
 1953SOL    HW1 6758   6.186   2.512   0.249
 1953SOL    HW2 6759   6.121   2.647   0.183
 1954SOL     OW 6760   5.788   1.146   4.017
 1954SOL    HW1 6761   5.705   1.119   4.064
 1954SOL    HW2 6762   5.868   1.110   4.067
 1955SOL     OW 6763   1.381   0.394   2.374
 1955SOL    HW1 6764   1.298   0.400   2.319
 1955SOL    HW2 6765   1.459   0.425   2.319
 1956SOL     OW 6766   6.306   0.441   2.325
 1956SOL    HW1 6767   6.332   0.448   2.421
 1956SOL    HW2 6768   6.263   0.526   2.296
 1957SOL     OW 6769   6.676   5.156   4.685
 1957SOL    HW1 6770   6.586   5.115   4.700
 1957SOL    HW2 6771   6.744   5.108   4.739
 1958SOL     OW 6772   5.803   2.708   3.879
 1958SOL    HW1 6773   5.863   2.639   3.839
 1958SOL    HW2 6774   5.756   2.758   3.806
 1959SOL     OW 6775   0.156   1.794   6.126
 1959SOL    HW1 6776   0.103   1.711   6.111
 1959SOL    HW2 6777   0.102   1.874   6.101
 1960SOL     OW 6778   6.648   4.359   0.375
 1960SOL    HW1 6779   6.648   4.369   0.475
 1960SOL    HW2 6780   6.613   4.442   0.333
 1961SOL     OW 6781   5.912   4.457   4.312
 1961SOL    HW1 6782   6.012   4.462   4.322
 1961SOL    HW2 6783   5.873   4.549   4.321
 1962SOL     OW 6784   3.171   6.323   2.997
 1962SOL    HW1 6785   3.122   6.246   3.039
 1962SOL    HW2 6786   3.152   6.407   3.048
 1963SOL     OW 6787   0.932   0.506   1.100
 1963SOL    HW1 6788   0.950   0.429   1.162
 1963SOL    HW2 6789   1.007   0.572   1.107
 1964SOL     OW 6790   4.359   2.741   1.296
 1964SOL    HW1 6791   4.290   2.669   1.311
 1964SOL    HW2 6792   4.359   2.804   1.373
 1965SOL     OW 6793   1.264   3.398   3.496
 1965SOL    HW1 6794   1.351   3.358   3.527
 1965SOL    HW2 6795   1.188   3.350   3.539
 1966SOL     OW 6796   0.219   5.654   5.009
 1966SOL    HW1 6797   0.240   5.700   5.095
 1966SOL    HW2 6798   0.119   5.645   5.000
 1967SOL     OW 6799   5.023   2.297   4.850
 1967SOL    HW1 6800   5.071   2.238   4.785
 1967SOL    HW2 6801   4.925   2.279   4.847
 1968SOL     OW 6802   3.005   5.636   0.863
 1968SOL    HW1 6803   3.080   5.653   0.926
 1968SOL    HW2 6804   2.983   5.538   0.863
 1969SOL     OW 6805   0.628   1.431   1.413
 1969SOL    HW1 6806   0.538   1.474   1.402
 1969SOL    HW2 6807   0.620   1.332   1.401
 1970SOL     OW 6808   2.207   0.154   6.605
 1970SOL    HW1 6809   2.148   0.231   6.581
 1970SOL    HW2 6810   2.243   0.113   6.521
 1971SOL     OW 6811   6.276   6.861   6.165
 1971SOL    HW1 6812   6.263   6.857   6.265
 1971SOL    HW2 6813   6.373   6.866   6.145
 1972SOL     OW 6814   6.226   2.793   2.875
 1972SOL    HW1 6815   6.264   2.830   2.791
 1972SOL    HW2 6816   6.130   2.821   2.884
 1973SOL     OW 6817   2.079   3.561   0.846
 1973SOL    HW1 6818   2.116   3.477   0.884
 1973SOL    HW2 6819   2.154   3.619   0.814
 1974SOL     OW 6820   6.294   6.168   3.667
 1974SOL    HW1 6821   6.229   6.147   3.594
 1974SOL    HW2 6822   6.249   6.157   3.756
 1975SOL     OW 6823   2.488   1.186   3.015
 1975SOL    HW1 6824   2.437   1.271   3.009
 1975SOL    HW2 6825   2.542   1.174   2.931
 1976SOL     OW 6826   0.698   5.580   6.960
 1976SOL    HW1 6827   0.662   5.594   6.867
 1976SOL    HW2 6828   0.731   5.486   6.968
 1977SOL     OW 6829   1.262   2.920   3.270
 1977SOL    HW1 6830   1.335   2.967   3.221
 1977SOL    HW2 6831   1.209   2.864   3.206
 1978SOL     OW 6832   0.921   0.972   3.706
 1978SOL    HW1 6833   0.891   1.060   3.669
 1978SOL    HW2 6834   0.910   0.901   3.636
 1979SOL     OW 6835   6.812   4.314   4.924
 1979SOL    HW1 6836   6.762   4.361   4.997
 1979SOL    HW2 6837   6.784   4.218   4.922
 1980SOL     OW 6838   2.661   0.764   6.519
 1980SOL    HW1 6839   2.740   0.802   6.471
 1980SOL    HW2 6840   2.592   0.736   6.452
 1981SOL     OW 6841   6.313   1.818   2.447
 1981SOL    HW1 6842   6.310   1.740   2.384
 1981SOL    HW2 6843   6.241   1.883   2.423
 1982SOL     OW 6844   0.526   4.267   5.155
 1982SOL    HW1 6845   0.475   4.316   5.225
 1982SOL    HW2 6846   0.604   4.322   5.125
 1983SOL     OW 6847   0.796   1.844   3.024
 1983SOL    HW1 6848   0.875   1.810   2.974
 1983SOL    HW2 6849   0.802   1.816   3.120
 1984SOL     OW 6850   5.939   1.710   4.420
 1984SOL    HW1 6851   6.013   1.645   4.401
 1984SOL    HW2 6852   5.932   1.775   4.344
 1985SOL     OW 6853   0.812   0.132   2.716
 1985SOL    HW1 6854   0.895   0.109   2.767
 1985SOL    HW2 6855   0.757   0.197   2.769
 1986SOL     OW 6856   1.258   0.636   0.242
 1986SOL    HW1 6857   1.338   0.619   0.185
 1986SOL    HW2 6858   1.282   0.624   0.338
 1987SOL     OW 6859   1.421   2.990   1.023
 1987SOL    HW1 6860   1.415   3.052   1.102
 1987SOL    HW2 6861   1.483   2.915   1.045
 1988SOL     OW 6862   4.953   4.548   1.226
 1988SOL    HW1 6863   5.043   4.584   1.203
 1988SOL    HW2 6864   4.961   4.453   1.255
 1989SOL     OW 6865   2.413   6.469   5.137
 1989SOL    HW1 6866   2.430   6.564   5.110
 1989SOL    HW2 6867   2.470   6.447   5.217
 1990SOL     OW 6868   3.051   6.722   0.988
 1990SOL    HW1 6869   3.007   6.647   1.036
 1990SOL    HW2 6870   2.991   6.756   0.915
 1991SOL     OW 6871   4.587   4.804   6.313
 1991SOL    HW1 6872   4.626   4.721   6.273
 1991SOL    HW2 6873   4.487   4.800   6.307
 1992SOL     OW 6874   0.867   0.003   6.845
 1992SOL    HW1 6875   0.852   6.951   6.773
 1992SOL    HW2 6876   0.965   0.019   6.856
 1993SOL     OW 6877   4.230   3.549   5.071
 1993SOL    HW1 6878   4.168   3.628   5.063
 1993SOL    HW2 6879   4.280   3.538   4.985
 1994SOL     OW 6880   1.078   2.056   0.515
 1994SOL    HW1 6881   0.984   2.087   0.533
 1994SOL    HW2 6882   1.078   1.997   0.435
 1995SOL     OW 6883   6.198   2.569   1.354
 1995SOL    HW1 6884   6.159   2.608   1.438
 1995SOL    HW2 6885   6.129   2.568   1.282
 1996SOL     OW 6886   2.834   3.718   0.981
 1996SOL    HW1 6887   2.840   3.634   0.928
 1996SOL    HW2 6888   2.874   3.703   1.072
 1997SOL     OW 6889   4.920   0.185   5.206
 1997SOL    HW1 6890   4.909   0.279   5.240
 1997SOL    HW2 6891   4.858   0.170   5.129
 1998SOL     OW 6892   3.170   3.661   6.370
 1998SOL    HW1 6893   3.147   3.648   6.467
 1998SOL    HW2 6894   3.208   3.752   6.356
 1999SOL     OW 6895   3.132   6.414   1.468
 1999SOL    HW1 6896   3.228   6.436   1.482
 1999SOL    HW2 6897   3.085   6.494   1.428
 2000SOL     OW 6898   3.846   2.231   5.226
 2000SOL    HW1 6899   3.911   2.290   5.275
 2000SOL    HW2 6900   3.896   2.175   5.160
 2001SOL     OW 6901   3.191   2.095   1.736
 2001SOL    HW1 6902   3.173   2.071   1.831
 2001SOL    HW2 6903   3.162   2.020   1.676
 2002SOL     OW 6904   1.336   5.353   5.854
 2002SOL    HW1 6905   1.339   5.429   5.790
 2002SOL    HW2 6906   1.240   5.325   5.866
 2003SOL     OW 6907   6.272   6.843   3.797
 2003SOL    HW1 6908   6.339   6.858   3.869
 2003SOL    HW2 6909   6.209   6.770   3.824
 2004SOL     OW 6910   5.334   1.315   5.302
 2004SOL    HW1 6911   5.254   1.371   5.324
 2004SOL    HW2 6912   5.407   1.373   5.267
 2005SOL     OW 6913   1.057   5.000   6.809
 2005SOL    HW1 6914   1.026   4.945   6.732
 2005SOL    HW2 6915   1.006   4.974   6.891
 2006SOL     OW 6916   5.456   4.888   4.444
 2006SOL    HW1 6917   5.474   4.797   4.481
 2006SOL    HW2 6918   5.496   4.895   4.353
 2007SOL     OW 6919   3.839   5.073   1.176
 2007SOL    HW1 6920   3.787   5.118   1.249
 2007SOL    HW2 6921   3.933   5.107   1.176
 2008SOL     OW 6922   1.159   5.914   3.000
 2008SOL    HW1 6923   1.079   5.949   3.050
 2008SOL    HW2 6924   1.242   5.940   3.048
 2009SOL     OW 6925   6.152   0.010   1.628
 2009SOL    HW1 6926   6.093   6.970   1.571
 2009SOL    HW2 6927   6.213   0.064   1.571
 2010SOL     OW 6928   1.338   1.380   1.734
 2010SOL    HW1 6929   1.289   1.409   1.816
 2010SOL    HW2 6930   1.313   1.441   1.658
 2011SOL     OW 6931   6.680   1.931   5.274
 2011SOL    HW1 6932   6.676   1.947   5.175
 2011SOL    HW2 6933   6.765   1.968   5.310
 2012SOL     OW 6934   1.153   2.826   1.678
 2012SOL    HW1 6935   1.189   2.780   1.597
 2012SOL    HW2 6936   1.199   2.791   1.759
 2013SOL     OW 6937   5.868   0.781   3.406
 2013SOL    HW1 6938   5.893   0.845   3.479
 2013SOL    HW2 6939   5.931   0.790   3.330
 2014SOL     OW 6940   1.933   5.539   2.942
 2014SOL    HW1 6941   2.009   5.507   2.885
 2014SOL    HW2 6942   1.925   5.638   2.935
 2015SOL     OW 6943   2.348   1.952   6.944
 2015SOL    HW1 6944   2.384   2.025   7.002
 2015SOL    HW2 6945   2.272   1.906   6.990
 2016SOL     OW 6946   1.466   5.244   4.971
 2016SOL    HW1 6947   1.382   5.280   4.930
 2016SOL    HW2 6948   1.531   5.220   4.899
 2017SOL     OW 6949   2.313   6.765   4.505
 2017SOL    HW1 6950   2.265   6.690   4.550
 2017SOL    HW2 6951   2.380   6.728   4.440
 2018SOL     OW 6952   5.852   0.031   6.116
 2018SOL    HW1 6953   5.823   6.952   6.115
 2018SOL    HW2 6954   5.942   0.039   6.071
 2019SOL     OW 6955   4.780   2.338   2.284
 2019SOL    HW1 6956   4.834   2.255   2.298
 2019SOL    HW2 6957   4.841   2.415   2.269
 2020SOL     OW 6958   1.184   5.531   5.374
 2020SOL    HW1 6959   1.255   5.480   5.422
 2020SOL    HW2 6960   1.185   5.627   5.402
 2021SOL     OW 6961   2.510   5.307   3.824
 2021SOL    HW1 6962   2.600   5.345   3.848
 2021SOL    HW2 6963   2.461   5.282   3.908
 2022SOL     OW 6964   1.519   3.300   2.816
 2022SOL    HW1 6965   1.461   3.342   2.746
 2022SOL    HW2 6966   1.516   3.201   2.807
 2023SOL     OW 6967   5.876   1.230   6.838
 2023SOL    HW1 6968   5.813   1.164   6.797
 2023SOL    HW2 6969   5.961   1.231   6.786
 2024SOL     OW 6970   6.984   0.269   2.704
 2024SOL    HW1 6971   6.945   0.217   2.780
 2024SOL    HW2 6972   6.912   0.323   2.660
 2025SOL     OW 6973   2.172   2.976   2.169
 2025SOL    HW1 6974   2.216   3.017   2.249
 2025SOL    HW2 6975   2.182   3.037   2.091
 2026SOL     OW 6976   1.193   2.689   6.232
 2026SOL    HW1 6977   1.183   2.668   6.135
 2026SOL    HW2 6978   1.282   2.732   6.248
 2027SOL     OW 6979   1.081   1.424   1.013
 2027SOL    HW1 6980   1.030   1.350   0.968
 2027SOL    HW2 6981   1.020   1.501   1.030
 2028SOL     OW 6982   2.935   1.117   6.051
 2028SOL    HW1 6983   2.978   1.154   5.968
 2028SOL    HW2 6984   2.874   1.187   6.090
 2029SOL     OW 6985   6.946   0.859   0.919
 2029SOL    HW1 6986   0.010   0.916   0.933
 2029SOL    HW2 6987   6.900   0.885   0.833
 2030SOL     OW 6988   2.714   0.641   3.560
 2030SOL    HW1 6989   2.814   0.645   3.568
 2030SOL    HW2 6990   2.682   0.712   3.498
 2031SOL     OW 6991   5.514   6.338   2.334
 2031SOL    HW1 6992   5.521   6.336   2.434
 2031SOL    HW2 6993   5.423   6.305   2.307
 2032SOL     OW 6994   3.714   6.992   2.315
 2032SOL    HW1 6995   3.751   6.953   2.231
 2032SOL    HW2 6996   3.615   6.999   2.308
 2033SOL     OW 6997   3.675   3.910   6.996
 2033SOL    HW1 6998   3.745   3.913   6.925
 2033SOL    HW2 6999   3.609   3.838   6.974
 2034SOL     OW 7000   3.372   0.160   4.478
 2034SOL    HW1 7001   3.300   0.209   4.528
 2034SOL    HW2 7002   3.414   0.092   4.537
 2035SOL     OW 7003   6.801   0.757   1.948
 2035SOL    HW1 7004   6.901   0.759   1.951
 2035SOL    HW2 7005   6.768   0.840   1.903
 2036SOL     OW 7006   0.949   5.530   3.126
 2036SOL    HW1 7007   0.920   5.447   3.078
 2036SOL    HW2 7008   1.032   5.566   3.082
 2037SOL     OW 7009   0.730   3.011   6.046
 2037SOL    HW1 7010   0.821   3.018   6.086
 2037SOL    HW2 7011   0.736   3.023   5.947
 2038SOL     OW 7012   1.544   2.158   6.531
 2038SOL    HW1 7013   1.565   2.100   6.609
 2038SOL    HW2 7014   1.628   2.180   6.482
 2039SOL     OW 7015   0.100   5.393   2.835
 2039SOL    HW1 7016   0.063   5.403   2.742
 2039SOL    HW2 7017   0.143   5.479   2.863
 2040SOL     OW 7018   3.557   3.729   5.213
 2040SOL    HW1 7019   3.608   3.787   5.150
 2040SOL    HW2 7020   3.542   3.639   5.170
 2041SOL     OW 7021   6.915   5.986   5.423
 2041SOL    HW1 7022   6.932   6.001   5.521
 2041SOL    HW2 7023   6.979   6.041   5.369
 2042SOL     OW 7024   5.633   5.046   7.005
 2042SOL    HW1 7025   5.719   5.096   0.001
 2042SOL    HW2 7026   5.605   5.052   6.909
 2043SOL     OW 7027   6.397   4.454   2.485
 2043SOL    HW1 7028   6.349   4.504   2.558
 2043SOL    HW2 7029   6.495   4.469   2.495
 2044SOL     OW 7030   5.059   0.109   2.263
 2044SOL    HW1 7031   5.122   0.169   2.214
 2044SOL    HW2 7032   4.995   0.165   2.316
 2045SOL     OW 7033   2.803   4.722   4.626
 2045SOL    HW1 7034   2.739   4.662   4.579
 2045SOL    HW2 7035   2.839   4.676   4.707
 2046SOL     OW 7036   0.321   1.088   4.456
 2046SOL    HW1 7037   0.318   1.098   4.556
 2046SOL    HW2 7038   0.352   1.173   4.415
 2047SOL     OW 7039   4.751   2.006   0.361
 2047SOL    HW1 7040   4.768   2.086   0.305
 2047SOL    HW2 7041   4.736   2.034   0.456
 2048SOL     OW 7042   2.332   5.816   0.699
 2048SOL    HW1 7043   2.371   5.738   0.747
 2048SOL    HW2 7044   2.246   5.790   0.655
 2049SOL     OW 7045   4.889   1.597   6.455
 2049SOL    HW1 7046   4.887   1.554   6.546
 2049SOL    HW2 7047   4.797   1.625   6.429
 2050SOL     OW 7048   0.482   2.966   2.657
 2050SOL    HW1 7049   0.529   3.054   2.647
 2050SOL    HW2 7050   0.435   2.963   2.745
 2051SOL     OW 7051   0.459   6.216   1.210
 2051SOL    HW1 7052   0.364   6.187   1.196
 2051SOL    HW2 7053   0.500   6.238   1.121
 2052SOL     OW 7054   0.180   4.351   0.545
 2052SOL    HW1 7055   0.266   4.360   0.494
 2052SOL    HW2 7056   0.197   4.299   0.629
 2053SOL     OW 7057   5.642   0.575   5.362
 2053SOL    HW1 7058   5.675   0.648   5.421
 2053SOL    HW2 7059   5.719   0.527   5.320
 2054SOL     OW 7060   3.950   2.807   1.691
 2054SOL    HW1 7061   4.019   2.739   1.666
 2054SOL    HW2 7062   3.882   2.765   1.751
 2055SOL     OW 7063   6.125   3.254   3.397
 2055SOL    HW1 7064   6.213   3.300   3.380
 2055SOL    HW2 7065   6.141   3.170   3.447
 2056SOL     OW 7066   2.392   0.311   2.971
 2056SOL    HW1 7067   2.435   0.399   2.953
 2056SOL    HW2 7068   2.425   0.274   3.058
 2057SOL     OW 7069   5.312   2.997   3.622
 2057SOL    HW1 7070   5.299   2.899   3.638
 2057SOL    HW2 7071   5.268   3.049   3.695
 2058SOL     OW 7072   1.266   1.782   3.086
 2058SOL    HW1 7073   1.238   1.686   3.096
 2058SOL    HW2 7074   1.315   1.793   2.999
 2059SOL     OW 7075   2.504   6.224   5.871
 2059SOL    HW1 7076   2.408   6.236   5.894
 2059SOL    HW2 7077   2.559   6.224   5.955
 2060SOL     OW 7078   5.589   4.446   0.496
 2060SOL    HW1 7079   5.540   4.485   0.574
 2060SOL    HW2 7080   5.682   4.423   0.524
 2061SOL     OW 7081   0.523   1.798   3.075
 2061SOL    HW1 7082   0.617   1.802   3.042
 2061SOL    HW2 7083   0.469   1.738   3.015
 2062SOL     OW 7084   5.898   6.943   3.960
 2062SOL    HW1 7085   5.909   6.847   3.985
 2062SOL    HW2 7086   5.984   6.992   3.974
 2063SOL     OW 7087   1.724   0.505   6.231
 2063SOL    HW1 7088   1.781   0.435   6.276
 2063SOL    HW2 7089   1.634   0.466   6.211
 2064SOL     OW 7090   1.046   2.334   6.059
 2064SOL    HW1 7091   0.988   2.372   5.987
 2064SOL    HW2 7092   1.130   2.297   6.018
 2065SOL     OW 7093   6.912   2.889   4.036
 2065SOL    HW1 7094   6.838   2.850   4.092
 2065SOL    HW2 7095   6.986   2.918   4.096
 2066SOL     OW 7096   0.295   5.501   3.424
 2066SOL    HW1 7097   0.335   5.418   3.384
 2066SOL    HW2 7098   0.355   5.537   3.495
 2067SOL     OW 7099   6.934   5.551   1.055
 2067SOL    HW1 7100   6.857   5.497   1.021
 2067SOL    HW2 7101   6.899   5.627   1.110
 2068SOL     OW 7102   1.435   1.992   5.793
 2068SOL    HW1 7103   1.515   2.043   5.824
 2068SOL    HW2 7104   1.442   1.975   5.695
 2069SOL     OW 7105   0.968   2.663   3.224
 2069SOL    HW1 7106   1.024   2.589   3.188
 2069SOL    HW2 7107   0.959   2.735   3.155
 2070SOL     OW 7108   1.262   0.655   2.462
 2070SOL    HW1 7109   1.328   0.727   2.440
 2070SOL    HW2 7110   1.295   0.567   2.429
 2071SOL     OW 7111   6.059   5.994   5.232
 2071SOL    HW1 7112   6.083   5.919   5.171
 2071SOL    HW2 7113   6.014   5.958   5.314
 2072SOL     OW 7114   4.195   6.861   2.268
 2072SOL    HW1 7115   4.195   6.908   2.180
 2072SOL    HW2 7116   4.289   6.853   2.301
 2073SOL     OW 7117   4.170   6.869   4.360
 2073SOL    HW1 7118   4.258   6.825   4.379
 2073SOL    HW2 7119   4.166   6.896   4.264
 2074SOL     OW 7120   1.645   3.230   0.183
 2074SOL    HW1 7121   1.608   3.315   0.146
 2074SOL    HW2 7122   1.571   3.165   0.197
 2075SOL     OW 7123   5.349   2.991   1.244
 2075SOL    HW1 7124   5.263   3.029   1.210
 2075SOL    HW2 7125   5.331   2.903   1.288
 2076SOL     OW 7126   5.829   6.780   6.235
 2076SOL    HW1 7127   5.742   6.794   6.284
 2076SOL    HW2 7128   5.892   6.730   6.294
 2077SOL     OW 7129   5.718   2.784   2.430
 2077SOL    HW1 7130   5.679   2.733   2.353
 2077SOL    HW2 7131   5.813   2.808   2.408
 2078SOL     OW 7132   1.559   5.618   6.201
 2078SOL    HW1 7133   1.639   5.611   6.261
 2078SOL    HW2 7134   1.589   5.641   6.108
 2079SOL     OW 7135   5.551   1.623   3.574
 2079SOL    HW1 7136   5.507   1.671   3.498
 2079SOL    HW2 7137   5.536   1.524   3.563
 2080SOL     OW 7138   1.867   0.718   4.711
 2080SOL    HW1 7139   1.793   0.748   4.771
 2080SOL    HW2 7140   1.955   0.734   4.757
 2081SOL     OW 7141   1.770   5.345   4.349
 2081SOL    HW1 7142   1.804   5.427   4.305
 2081SOL    HW2 7143   1.717   5.291   4.283
 2082SOL     OW 7144   7.004   7.014   3.123
 2082SOL    HW1 7145   7.015   0.038   3.214
 2082SOL    HW2 7146   0.063   6.950   3.106
 2083SOL     OW 7147   5.537   5.192   6.333
 2083SOL    HW1 7148   5.457   5.141   6.365
 2083SOL    HW2 7149   5.507   5.265   6.271
 2084SOL     OW 7150   0.817   3.541   3.995
 2084SOL    HW1 7151   0.746   3.608   4.021
 2084SOL    HW2 7152   0.773   3.463   3.950
 2085SOL     OW 7153   4.478   0.593   6.746
 2085SOL    HW1 7154   4.465   0.641   6.660
 2085SOL    HW2 7155   4.458   0.654   6.822
 2086SOL     OW 7156   4.653   6.823   5.785
 2086SOL    HW1 7157   4.702   6.794   5.867
 2086SOL    HW2 7158   4.716   6.868   5.722
 2087SOL     OW 7159   5.068   0.091   1.548
 2087SOL    HW1 7160   5.103   0.053   1.634
 2087SOL    HW2 7161   4.972   0.066   1.537
 2088SOL     OW 7162   2.933   6.328   0.685
 2088SOL    HW1 7163   2.935   6.427   0.669
 2088SOL    HW2 7164   2.842   6.302   0.717
 2089SOL     OW 7165   5.048   2.039   6.310
 2089SOL    HW1 7166   5.118   1.967   6.306
 2089SOL    HW2 7167   5.081   2.121   6.263
 2090SOL     OW 7168   3.331   2.919   5.628
 2090SOL    HW1 7169   3.340   2.942   5.725
 2090SOL    HW2 7170   3.286   2.830   5.619
 2091SOL     OW 7171   0.012   5.679   0.670
 2091SOL    HW1 7172   0.076   5.641   0.736
 2091SOL    HW2 7173   0.013   5.779   0.676
 2092SOL     OW 7174   5.303   4.363   6.734
 2092SOL    HW1 7175   5.330   4.422   6.658
 2092SOL    HW2 7176   5.277   4.419   6.812
 2093SOL     OW 7177   2.251   2.414   1.243
 2093SOL    HW1 7178   2.167   2.408   1.297
 2093SOL    HW2 7179   2.315   2.342   1.271
 2094SOL     OW 7180   5.733   1.679   1.175
 2094SOL    HW1 7181   5.701   1.766   1.214
 2094SOL    HW2 7182   5.829   1.665   1.200
 2095SOL     OW 7183   5.796   0.560   5.008
 2095SOL    HW1 7184   5.833   0.616   4.934
 2095SOL    HW2 7185   5.702   0.535   4.987
 2096SOL     OW 7186   5.241   4.089   3.531
 2096SOL    HW1 7187   5.193   4.007   3.562
 2096SOL    HW2 7188   5.294   4.067   3.449
 2097SOL     OW 7189   2.378   2.973   6.723
 2097SOL    HW1 7190   2.420   3.058   6.692
 2097SOL    HW2 7191   2.355   2.981   6.820
 2098SOL     OW 7192   4.611   6.002   2.923
 2098SOL    HW1 7193   4.543   5.947   2.875
 2098SOL    HW2 7194   4.567   6.085   2.959
 2099SOL     OW 7195   2.884   3.538   5.608
 2099SOL    HW1 7196   2.952   3.471   5.580
 2099SOL    HW2 7197   2.923   3.630   5.605
 2100SOL     OW 7198   4.406   3.164   5.914
 2100SOL    HW1 7199   4.354   3.136   5.833
 2100SOL    HW2 7200   4.456   3.249   5.894
 2101SOL     OW 7201   1.493   6.449   2.169
 2101SOL    HW1 7202   1.582   6.403   2.167
 2101SOL    HW2 7203   1.473   6.480   2.262
 2102SOL     OW 7204   6.112   4.948   1.782
 2102SOL    HW1 7205   6.194   4.982   1.736
 2102SOL    HW2 7206   6.138   4.907   1.869
 2103SOL     OW 7207   3.804   4.421   5.832
 2103SOL    HW1 7208   3.728   4.356   5.825
 2103SOL    HW2 7209   3.869   4.389   5.901
 2104SOL     OW 7210   1.370   3.594   0.905
 2104SOL    HW1 7211   1.381   3.644   0.990
 2104SOL    HW2 7212   1.326   3.506   0.923
 2105SOL     OW 7213   5.452   6.122   5.142
 2105SOL    HW1 7214   5.534   6.155   5.189
 2105SOL    HW2 7215   5.420   6.038   5.185
 2106SOL     OW 7216   4.719   4.148   1.293
 2106SOL    HW1 7217   4.758   4.059   1.319
 2106SOL    HW2 7218   4.623   4.150   1.318
 2107SOL     OW 7219   5.181   2.471   5.345
 2107SOL    HW1 7220   5.229   2.515   5.270
 2107SOL    HW2 7221   5.208   2.374   5.350
 2108SOL     OW 7222   6.503   6.231   5.077
 2108SOL    HW1 7223   6.420   6.222   5.133
 2108SOL    HW2 7224   6.560   6.150   5.089
 2109SOL     OW 7225   4.365   6.282   2.293
 2109SOL    HW1 7226   4.284   6.234   2.258
 2109SOL    HW2 7227   4.432   6.214   2.324
 2110SOL     OW 7228   2.808   1.516   6.916
 2110SOL    HW1 7229   2.876   1.577   6.877
 2110SOL    HW2 7230   2.854   1.448   6.974
 2111SOL     OW 7231   1.115   2.819   6.999
 2111SOL    HW1 7232   1.030   2.823   0.037
 2111SOL    HW2 7233   1.093   2.827   6.902
 2112SOL     OW 7234   4.987   3.187   7.004
 2112SOL    HW1 7235   5.013   3.189   0.085
 2112SOL    HW2 7236   4.943   3.101   6.983
 2113SOL     OW 7237   1.618   1.848   5.157
 2113SOL    HW1 7238   1.526   1.829   5.191
 2113SOL    HW2 7239   1.627   1.814   5.064
 2114SOL     OW 7240   1.366   2.853   0.124
 2114SOL    HW1 7241   1.268   2.861   0.104
 2114SOL    HW2 7242   1.414   2.827   0.040
 2115SOL     OW 7243   2.136   3.472   2.501
 2115SOL    HW1 7244   2.187   3.386   2.511
 2115SOL    HW2 7245   2.045   3.453   2.465
 2116SOL     OW 7246   6.610   4.928   2.938
 2116SOL    HW1 7247   6.546   4.962   2.870
 2116SOL    HW2 7248   6.703   4.955   2.914
 2117SOL     OW 7249   6.466   5.099   2.026
 2117SOL    HW1 7250   6.405   5.040   2.078
 2117SOL    HW2 7251   6.543   5.127   2.084
 2118SOL     OW 7252   5.849   3.853   1.886
 2118SOL    HW1 7253   5.847   3.888   1.792
 2118SOL    HW2 7254   5.865   3.929   1.949
 2119SOL     OW 7255   1.878   6.356   1.056
 2119SOL    HW1 7256   1.933   6.273   1.062
 2119SOL    HW2 7257   1.934   6.431   1.020
 2120SOL     OW 7258   0.139   5.238   3.569
 2120SOL    HW1 7259   0.199   5.285   3.635
 2120SOL    HW2 7260   0.084   5.170   3.617
 2121SOL     OW 7261   1.181   3.805   5.849
 2121SOL    HW1 7262   1.254   3.819   5.915
 2121SOL    HW2 7263   1.212   3.831   5.758
 2122SOL     OW 7264   5.622   4.182   6.074
 2122SOL    HW1 7265   5.685   4.206   6.000
 2122SOL    HW2 7266   5.665   4.113   6.133
 2123SOL     OW 7267   6.489   6.139   2.008
 2123SOL    HW1 7268   6.568   6.082   2.031
 2123SOL    HW2 7269   6.515   6.235   2.008
 2124SOL     OW 7270   2.543   1.958   1.727
 2124SOL    HW1 7271   2.624   2.001   1.768
 2124SOL    HW2 7272   2.511   1.884   1.787
 2125SOL     OW 7273   2.039   0.997   1.989
 2125SOL    HW1 7274   2.128   1.027   1.954
 2125SOL    HW2 7275   2.039   0.897   1.995
 2126SOL     OW 7276   3.564   1.386   6.255
 2126SOL    HW1 7277   3.632   1.313   6.264
 2126SOL    HW2 7278   3.516   1.398   6.342
 2127SOL     OW 7279   0.152   3.461   4.255
 2127SOL    HW1 7280   0.087   3.414   4.196
 2127SOL    HW2 7281   0.167   3.554   4.220
 2128SOL     OW 7282   6.814   2.767   3.583
 2128SOL    HW1 7283   6.870   2.802   3.658
 2128SOL    HW2 7284   6.795   2.841   3.518
 2129SOL     OW 7285   4.174   3.795   5.504
 2129SOL    HW1 7286   4.221   3.778   5.591
 2129SOL    HW2 7287   4.076   3.781   5.516
 2130SOL     OW 7288   3.459   0.723   1.708
 2130SOL    HW1 7289   3.384   0.754   1.766
 2130SOL    HW2 7290   3.543   0.769   1.735
 2131SOL     OW 7291   6.340   0.584   0.808
 2131SOL    HW1 7292   6.356   0.486   0.805
 2131SOL    HW2 7293   6.424   0.631   0.834
 2132SOL     OW 7294   3.285   1.244   1.483
 2132SOL    HW1 7295   3.326   1.235   1.574
 2132SOL    HW2 7296   3.332   1.317   1.433
 2133SOL     OW 7297   3.167   3.258   0.366
 2133SOL    HW1 7298   3.205   3.252   0.273
 2133SOL    HW2 7299   3.093   3.192   0.376
 2134SOL     OW 7300   0.047   2.047   6.733
 2134SOL    HW1 7301   7.003   2.033   6.812
 2134SOL    HW2 7302   0.000   2.107   6.667
 2135SOL     OW 7303   0.754   3.352   4.378
 2135SOL    HW1 7304   0.689   3.428   4.368
 2135SOL    HW2 7305   0.706   3.272   4.413
 2136SOL     OW 7306   1.487   3.617   2.879
 2136SOL    HW1 7307   1.571   3.668   2.857
 2136SOL    HW2 7308   1.511   3.525   2.911
 2137SOL     OW 7309   2.161   5.490   4.899
 2137SOL    HW1 7310   2.175   5.566   4.837
 2137SOL    HW2 7311   2.189   5.405   4.855
 2138SOL     OW 7312   6.552   6.902   3.364
 2138SOL    HW1 7313   6.618   6.827   3.373
 2138SOL    HW2 7314   6.600   6.989   3.359
 2139SOL     OW 7315   4.384   0.792   3.564
 2139SOL    HW1 7316   4.312   0.740   3.609
 2139SOL    HW2 7317   4.351   0.825   3.476
 2140SOL     OW 7318   3.449   6.535   3.984
 2140SOL    HW1 7319   3.509   6.603   3.942
 2140SOL    HW2 7320   3.484   6.511   4.075
 2141SOL     OW 7321   6.581   3.358   1.799
 2141SOL    HW1 7322   6.678   3.383   1.794
 2141SOL    HW2 7323   6.554   3.347   1.895
 2142SOL     OW 7324   1.619   1.300   3.011
 2142SOL    HW1 7325   1.552   1.369   2.983
 2142SOL    HW2 7326   1.651   1.321   3.103
 2143SOL     OW 7327   3.409   4.421   1.501
 2143SOL    HW1 7328   3.409   4.507   1.552
 2143SOL    HW2 7329   3.325   4.414   1.447
 2144SOL     OW 7330   0.898   5.697   4.044
 2144SOL    HW1 7331   0.849   5.638   4.108
 2144SOL    HW2 7332   0.981   5.650   4.013
 2145SOL     OW 7333   4.242   6.409   4.151
 2145SOL    HW1 7334   4.284   6.464   4.224
 2145SOL    HW2 7335   4.267   6.446   4.062
 2146SOL     OW 7336   2.174   3.689   1.402
 2146SOL    HW1 7337   2.225   3.688   1.488
 2146SOL    HW2 7338   2.229   3.733   1.331
 2147SOL     OW 7339   6.733   1.323   5.749
 2147SOL    HW1 7340   6.652   1.369   5.713
 2147SOL    HW2 7341   6.705   1.253   5.815
 2148SOL     OW 7342   6.256   3.412   5.673
 2148SOL    HW1 7343   6.216   3.388   5.584
 2148SOL    HW2 7344   6.317   3.338   5.702
 2149SOL     OW 7345   3.008   1.647   1.101
 2149SOL    HW1 7346   2.921   1.651   1.151
 2149SOL    HW2 7347   3.005   1.572   1.035
 2150SOL     OW 7348   2.322   2.551   2.370
 2150SOL    HW1 7349   2.393   2.504   2.422
 2150SOL    HW2 7350   2.257   2.483   2.335
 2151SOL     OW 7351   1.343   6.930   5.496
 2151SOL    HW1 7352   1.421   6.903   5.553
 2151SOL    HW2 7353   1.376   6.958   5.405
 2152SOL     OW 7354   3.101   5.484   1.997
 2152SOL    HW1 7355   3.185   5.537   2.012
 2152SOL    HW2 7356   3.022   5.540   2.020
 2153SOL     OW 7357   4.591   1.749   3.065
 2153SOL    HW1 7358   4.687   1.768   3.085
 2153SOL    HW2 7359   4.565   1.795   2.980
 2154SOL     OW 7360   5.445   1.466   4.845
 2154SOL    HW1 7361   5.379   1.391   4.850
 2154SOL    HW2 7362   5.500   1.457   4.762
 2155SOL     OW 7363   3.428   6.255   0.568
 2155SOL    HW1 7364   3.369   6.276   0.490
 2155SOL    HW2 7365   3.399   6.308   0.647
 2156SOL     OW 7366   1.306   2.098   4.893
 2156SOL    HW1 7367   1.324   2.061   4.802
 2156SOL    HW2 7368   1.208   2.115   4.904
 2157SOL     OW 7369   6.031   0.254   3.235
 2157SOL    HW1 7370   5.976   0.185   3.186
 2157SOL    HW2 7371   6.103   0.288   3.175
 2158SOL     OW 7372   3.603   5.826   0.595
 2158SOL    HW1 7373   3.662   5.881   0.535
 2158SOL    HW2 7374   3.633   5.838   0.690
 2159SOL     OW 7375   1.454   6.898   5.059
 2159SOL    HW1 7376   1.496   6.886   5.149
 2159SOL    HW2 7377   1.357   6.916   5.069
 2160SOL     OW 7378   4.431   4.227   6.813
 2160SOL    HW1 7379   4.481   4.180   6.740
 2160SOL    HW2 7380   4.375   4.299   6.773
 2161SOL     OW 7381   5.330   4.993   2.388
 2161SOL    HW1 7382   5.232   5.006   2.373
 2161SOL    HW2 7383   5.363   5.062   2.453
 2162SOL     OW 7384   3.232   0.148   2.438
 2162SOL    HW1 7385   3.174   0.113   2.364
 2162SOL    HW2 7386   3.214   0.097   2.522
 2163SOL     OW 7387   1.648   4.512   6.483
 2163SOL    HW1 7388   1.706   4.459   6.421
 2163SOL    HW2 7389   1.633   4.603   6.445
 2164SOL     OW 7390   1.686   2.523   6.173
 2164SOL    HW1 7391   1.601   2.477   6.200
 2164SOL    HW2 7392   1.757   2.505   6.241
 2165SOL     OW 7393   6.915   2.458   2.927
 2165SOL    HW1 7394   6.840   2.404   2.888
 2165SOL    HW2 7395   6.927   2.433   3.023
 2166SOL     OW 7396   1.158   2.426   5.003
 2166SOL    HW1 7397   1.232   2.471   4.952
 2166SOL    HW2 7398   1.197   2.376   5.080
 2167SOL     OW 7399   1.125   2.232   3.184
 2167SOL    HW1 7400   1.180   2.175   3.122
 2167SOL    HW2 7401   1.187   2.285   3.243
 2168SOL     OW 7402   0.778   2.336   3.778
 2168SOL    HW1 7403   0.681   2.352   3.801
 2168SOL    HW2 7404   0.814   2.416   3.730
 2169SOL     OW 7405   5.531   1.813   0.157
 2169SOL    HW1 7406   5.529   1.861   0.245
 2169SOL    HW2 7407   5.620   1.827   0.113
 2170SOL     OW 7408   6.746   4.046   5.011
 2170SOL    HW1 7409   6.651   4.054   4.981
 2170SOL    HW2 7410   6.749   4.006   5.102
 2171SOL     OW 7411   7.004   5.117   1.391
 2171SOL    HW1 7412   6.933   5.049   1.409
 2171SOL    HW2 7413   7.016   5.127   1.292
 2172SOL     OW 7414   1.880   2.416   6.388
 2172SOL    HW1 7415   1.943   2.395   6.314
 2172SOL    HW2 7416   1.917   2.491   6.443
 2173SOL     OW 7417   3.838   0.817   4.996
 2173SOL    HW1 7418   3.769   0.824   4.923
 2173SOL    HW2 7419   3.921   0.775   4.959
 2174SOL     OW 7420   5.798   6.017   4.844
 2174SOL    HW1 7421   5.822   5.928   4.804
 2174SOL    HW2 7422   5.775   6.004   4.940
 2175SOL     OW 7423   2.053   2.711   4.867
 2175SOL    HW1 7424   2.066   2.746   4.960
 2175SOL    HW2 7425   2.136   2.728   4.814
 2176SOL     OW 7426   5.946   1.811   0.518
 2176SOL    HW1 7427   5.878   1.755   0.471
 2176SOL    HW2 7428   6.031   1.811   0.465
 2177SOL     OW 7429   6.922   1.930   3.709
 2177SOL    HW1 7430   6.982   1.892   3.639
 2177SOL    HW2 7431   6.881   1.856   3.761
 2178SOL     OW 7432   1.991   2.048   1.796
 2178SOL    HW1 7433   1.993   1.956   1.834
 2178SOL    HW2 7434   2.072   2.099   1.827
 2179SOL     OW 7435   1.946   5.175   5.094
 2179SOL    HW1 7436   1.886   5.230   5.036
 2179SOL    HW2 7437   2.038   5.212   5.092
 2180SOL     OW 7438   1.882   1.878   2.254
 2180SOL    HW1 7439   1.804   1.909   2.200
 2180SOL    HW2 7440   1.955   1.946   2.250
 2181SOL     OW 7441   5.240   4.633   4.653
 2181SOL    HW1 7442   5.283   4.724   4.654
 2181SOL    HW2 7443   5.141   4.643   4.655
 2182SOL     OW 7444   1.854   4.080   4.275
 2182SOL    HW1 7445   1.773   4.026   4.253
 2182SOL    HW2 7446   1.827   4.174   4.294
 2183SOL     OW 7447   2.447   4.724   6.017
 2183SOL    HW1 7448   2.424   4.634   6.055
 2183SOL    HW2 7449   2.446   4.719   5.917
 2184SOL     OW 7450   3.785   1.153   6.016
 2184SOL    HW1 7451   3.746   1.185   5.930
 2184SOL    HW2 7452   3.885   1.152   6.010
 2185SOL     OW 7453   0.514   0.497   1.410
 2185SOL    HW1 7454   0.546   0.537   1.324
 2185SOL    HW2 7455   0.552   0.405   1.420
 2186SOL     OW 7456   6.891   5.942   1.547
 2186SOL    HW1 7457   6.860   5.995   1.468
 2186SOL    HW2 7458   6.867   5.846   1.534
 2187SOL     OW 7459   6.511   6.243   2.947
 2187SOL    HW1 7460   6.544   6.151   2.926
 2187SOL    HW2 7461   6.474   6.285   2.865
 2188SOL     OW 7462   6.913   5.746   4.144
 2188SOL    HW1 7463   7.005   5.786   4.146
 2188SOL    HW2 7464   6.914   5.662   4.091
 2189SOL     OW 7465   2.147   6.652   0.720
 2189SOL    HW1 7466   2.219   6.622   0.656
 2189SOL    HW2 7467   2.057   6.635   0.679
 2190SOL     OW 7468   0.545   3.213   2.036
 2190SOL    HW1 7469   0.533   3.123   1.995
 2190SOL    HW2 7470   0.627   3.257   1.999
 2191SOL     OW 7471   2.828   1.610   6.611
 2191SOL    HW1 7472   2.830   1.665   6.695
 2191SOL    HW2 7473   2.765   1.534   6.623
 2192SOL     OW 7474   4.836   0.857   2.390
 2192SOL    HW1 7475   4.913   0.876   2.451
 2192SOL    HW2 7476   4.800   0.765   2.409
 2193SOL     OW 7477   5.397   5.724   0.076
 2193SOL    HW1 7478   5.374   5.806   0.129
 2193SOL    HW2 7479   5.331   5.652   0.096
 2194SOL     OW 7480   2.370   4.798   5.567
 2194SOL    HW1 7481   2.370   4.893   5.598
 2194SOL    HW2 7482   2.309   4.789   5.489
 2195SOL     OW 7483   0.187   0.077   4.894
 2195SOL    HW1 7484   0.169   0.032   4.806
 2195SOL    HW2 7485   0.268   0.136   4.886
 2196SOL     OW 7486   3.746   0.277   4.928
 2196SOL    HW1 7487   3.748   0.371   4.896
 2196SOL    HW2 7488   3.804   0.268   5.009
 2197SOL     OW 7489   2.677   3.574   0.418
 2197SOL    HW1 7490   2.701   3.664   0.454
 2197SOL    HW2 7491   2.760   3.526   0.390
 2198SOL     OW 7492   5.303   0.458   0.276
 2198SOL    HW1 7493   5.311   0.414   0.366
 2198SOL    HW2 7494   5.395   0.478   0.241
 2199SOL     OW 7495   5.085   0.290   2.966
 2199SOL    HW1 7496   5.167   0.344   2.952
 2199SOL    HW2 7497   5.072   0.273   3.064
 2200SOL     OW 7498   2.608   2.012   4.398
 2200SOL    HW1 7499   2.638   2.097   4.443
 2200SOL    HW2 7500   2.663   1.936   4.432
 2201SOL     OW 7501   6.781   2.717   2.893
 2201SOL    HW1 7502   6.775   2.716   2.793
 2201SOL    HW2 7503   6.832   2.637   2.924
 2202SOL     OW 7504   2.907   5.589   2.333
 2202SOL    HW1 7505   2.858   5.629   2.256
 2202SOL    HW2 7506   2.914   5.490   2.320
 2203SOL     OW 7507   1.737   2.841   0.570
 2203SOL    HW1 7508   1.823   2.824   0.522
 2203SOL    HW2 7509   1.746   2.922   0.628
 2204SOL     OW 7510   4.397   1.743   1.289
 2204SOL    HW1 7511   4.457   1.686   1.344
 2204SOL    HW2 7512   4.302   1.719   1.308
 2205SOL     OW 7513   0.848   0.076   6.233
 2205SOL    HW1 7514   0.837   0.047   6.138
 2205SOL    HW2 7515   0.768   0.128   6.262
 2206SOL     OW 7516   3.331   4.947   6.243
 2206SOL    HW1 7517   3.280   4.953   6.329
 2206SOL    HW2 7518   3.326   4.853   6.209
 2207SOL     OW 7519   2.934   4.706   6.298
 2207SOL    HW1 7520   2.869   4.721   6.373
 2207SOL    HW2 7521   2.942   4.608   6.280
 2208SOL     OW 7522   1.553   5.705   2.885
 2208SOL    HW1 7523   1.613   5.744   2.955
 2208SOL    HW2 7524   1.606   5.649   2.823
 2209SOL     OW 7525   1.742   6.429   5.428
 2209SOL    HW1 7526   1.736   6.468   5.520
 2209SOL    HW2 7527   1.650   6.423   5.388
 2210SOL     OW 7528   7.011   5.026   4.498
 2210SOL    HW1 7529   0.050   4.998   4.577
 2210SOL    HW2 7530   0.056   5.044   4.421
 2211SOL     OW 7531   6.355   0.307   0.830
 2211SOL    HW1 7532   6.336   0.334   0.924
 2211SOL    HW2 7533   6.444   0.262   0.826
 2212SOL     OW 7534   2.457   5.548   6.779
 2212SOL    HW1 7535   2.518   5.621   6.810
 2212SOL    HW2 7536   2.418   5.572   6.690
 2213SOL     OW 7537   2.815   1.749   5.399
 2213SOL    HW1 7538   2.887   1.774   5.464
 2213SOL    HW2 7539   2.828   1.655   5.369
 2214SOL     OW 7540   3.818   3.283   5.306
 2214SOL    HW1 7541   3.789   3.355   5.244
 2214SOL    HW2 7542   3.759   3.282   5.387
 2215SOL     OW 7543   6.540   0.986   0.114
 2215SOL    HW1 7544   6.503   1.077   0.135
 2215SOL    HW2 7545   6.620   0.996   0.055
 2216SOL     OW 7546   1.912   1.059   6.308
 2216SOL    HW1 7547   1.976   1.069   6.231
 2216SOL    HW2 7548   1.950   1.101   6.390
 2217SOL     OW 7549   3.794   6.962   2.053
 2217SOL    HW1 7550   3.887   6.977   2.019
 2217SOL    HW2 7551   3.730   0.006   2.003
 2218SOL     OW 7552   6.639   5.681   6.822
 2218SOL    HW1 7553   6.729   5.724   6.834
 2218SOL    HW2 7554   6.580   5.706   6.898
 2219SOL     OW 7555   4.922   1.863   1.494
 2219SOL    HW1 7556   4.994   1.899   1.555
 2219SOL    HW2 7557   4.833   1.891   1.528
 2220SOL     OW 7558   1.878   0.080   4.875
 2220SOL    HW1 7559   1.942   0.156   4.888
 2220SOL    HW2 7560   1.786   0.116   4.864
 2221SOL     OW 7561   6.483   1.330   5.618
 2221SOL    HW1 7562   6.419   1.334   5.695
 2221SOL    HW2 7563   6.432   1.327   5.532
 2222SOL     OW 7564   4.970   0.874   0.176
 2222SOL    HW1 7565   4.967   0.911   0.269
 2222SOL    HW2 7566   4.946   0.777   0.177
 2223SOL     OW 7567   5.742   1.260   4.975
 2223SOL    HW1 7568   5.832   1.237   4.938
 2223SOL    HW2 7569   5.676   1.268   4.900
 2224SOL     OW 7570   0.417   3.307   0.999
 2224SOL    HW1 7571   0.407   3.277   1.094
 2224SOL    HW2 7572   0.501   3.269   0.960
 2225SOL     OW 7573   6.497   6.764   3.649
 2225SOL    HW1 7574   6.501   6.819   3.565
 2225SOL    HW2 7575   6.430   6.804   3.712
 2226SOL     OW 7576   3.293   4.992   1.168
 2226SOL    HW1 7577   3.280   4.901   1.205
 2226SOL    HW2 7578   3.327   5.053   1.239
 2227SOL     OW 7579   4.954   3.672   6.981
 2227SOL    HW1 7580   5.027   3.735   6.956
 2227SOL    HW2 7581   4.960   3.650   0.062
 2228SOL     OW 7582   3.616   4.867   1.474
 2228SOL    HW1 7583   3.635   4.823   1.387
 2228SOL    HW2 7584   3.548   4.815   1.524
 2229SOL     OW 7585   4.214   2.934   5.504
 2229SOL    HW1 7586   4.280   2.997   5.545
 2229SOL    HW2 7587   4.163   2.983   5.433
 2230SOL     OW 7588   5.297   6.728   0.064
 2230SOL    HW1 7589   5.356   6.674   0.003
 2230SOL    HW2 7590   5.349   6.755   0.145
 2231SOL     OW 7591   0.463   0.767   1.539
 2231SOL    HW1 7592   0.455   0.675   1.576
 2231SOL    HW2 7593   0.518   0.765   1.455
 2232SOL     OW 7594   0.806   2.798   5.129
 2232SOL    HW1 7595   0.854   2.856   5.063
 2232SOL    HW2 7596   0.834   2.703   5.115
 2233SOL     OW 7597   1.895   4.047   0.030
 2233SOL    HW1 7598   1.869   4.126   6.990
 2233SOL    HW2 7599   1.814   3.994   0.053
 2234SOL     OW 7600   4.107   1.924   1.524
 2234SOL    HW1 7601   4.136   1.980   1.602
 2234SOL    HW2 7602   4.170   1.847   1.513
 2235SOL     OW 7603   2.432   0.025   1.596
 2235SOL    HW1 7604   2.406   0.011   1.501
 2235SOL    HW2 7605   2.433   0.123   1.615
 2236SOL     OW 7606   1.539   4.123   6.380
 2236SOL    HW1 7607   1.458   4.179   6.364
 2236SOL    HW2 7608   1.518   4.054   6.450
 2237SOL     OW 7609   5.785   4.694   4.337
 2237SOL    HW1 7610   5.687   4.712   4.341
 2237SOL    HW2 7611   5.831   4.745   4.410
 2238SOL     OW 7612   4.573   4.449   1.715
 2238SOL    HW1 7613   4.507   4.520   1.693
 2238SOL    HW2 7614   4.533   4.383   1.779
 2239SOL     OW 7615   3.764   5.253   4.213
 2239SOL    HW1 7616   3.671   5.218   4.221
 2239SOL    HW2 7617   3.807   5.214   4.131
 2240SOL     OW 7618   4.436   5.937   3.417
 2240SOL    HW1 7619   4.367   5.975   3.478
 2240SOL    HW2 7620   4.406   5.946   3.322
 2241SOL     OW 7621   0.383   5.281   3.318
 2241SOL    HW1 7622   0.293   5.250   3.288
 2241SOL    HW2 7623   0.412   5.227   3.396
 2242SOL     OW 7624   5.580   3.177   2.683
 2242SOL    HW1 7625   5.625   3.215   2.763
 2242SOL    HW2 7626   5.481   3.186   2.693
 2243SOL     OW 7627   2.003   6.814   6.179
 2243SOL    HW1 7628   2.058   6.792   6.260
 2243SOL    HW2 7629   1.924   6.753   6.175
 2244SOL     OW 7630   1.441   6.472   1.673
 2244SOL    HW1 7631   1.516   6.488   1.738
 2244SOL    HW2 7632   1.475   6.481   1.580
 2245SOL     OW 7633   0.752   2.514   0.841
 2245SOL    HW1 7634   0.665   2.466   0.832
 2245SOL    HW2 7635   0.817   2.456   0.890
 2246SOL     OW 7636   1.131   1.514   4.761
 2246SOL    HW1 7637   1.085   1.426   4.750
 2246SOL    HW2 7638   1.063   1.588   4.761
 2247SOL     OW 7639   3.400   2.988   4.271
 2247SOL    HW1 7640   3.434   2.965   4.362
 2247SOL    HW2 7641   3.454   2.939   4.203
 2248SOL     OW 7642   5.617   3.652   5.403
 2248SOL    HW1 7643   5.542   3.633   5.340
 2248SOL    HW2 7644   5.669   3.731   5.369
 2249SOL     OW 7645   5.680   6.346   2.963
 2249SOL    HW1 7646   5.719   6.284   3.031
 2249SOL    HW2 7647   5.700   6.440   2.987
 2250SOL     OW 7648   3.917   4.037   6.461
 2250SOL    HW1 7649   4.005   4.005   6.494
 2250SOL    HW2 7650   3.899   3.997   6.371
 2251SOL     OW 7651   5.302   0.348   6.479
 2251SOL    HW1 7652   5.316   0.338   6.380
 2251SOL    HW2 7653   5.359   0.423   6.513
 2252SOL     OW 7654   4.819   2.738   2.095
 2252SOL    HW1 7655   4.788   2.680   2.021
 2252SOL    HW2 7656   4.783   2.831   2.083
 2253SOL     OW 7657   0.300   3.845   6.763
 2253SOL    HW1 7658   0.396   3.825   6.743
 2253SOL    HW2 7659   0.284   3.835   6.861
 2254SOL     OW 7660   3.632   2.570   5.546
 2254SOL    HW1 7661   3.591   2.487   5.584
 2254SOL    HW2 7662   3.701   2.605   5.609
 2255SOL     OW 7663   4.693   3.213   6.349
 2255SOL    HW1 7664   4.713   3.273   6.426
 2255SOL    HW2 7665   4.756   3.232   6.274
 2256SOL     OW 7666   5.189   6.010   2.350
 2256SOL    HW1 7667   5.250   6.089   2.334
 2256SOL    HW2 7668   5.104   6.024   2.300
 2257SOL     OW 7669   0.045   2.123   4.803
 2257SOL    HW1 7670   7.003   2.158   4.876
 2257SOL    HW2 7671   0.093   2.200   4.759
 2258SOL     OW 7672   1.206   5.462   5.079
 2258SOL    HW1 7673   1.122   5.485   5.030
 2258SOL    HW2 7674   1.197   5.488   5.175
 2259SOL     OW 7675   5.561   4.100   6.640
 2259SOL    HW1 7676   5.496   4.086   6.566
 2259SOL    HW2 7677   5.626   4.024   6.642
 2260SOL     OW 7678   6.296   4.323   1.818
 2260SOL    HW1 7679   6.241   4.311   1.735
 2260SOL    HW2 7680   6.334   4.235   1.846
 2261SOL     OW 7681   6.478   5.461   0.063
 2261SOL    HW1 7682   6.548   5.524   0.095
 2261SOL    HW2 7683   6.520   5.392   0.004
 2262SOL     OW 7684   6.225   1.059   3.062
 2262SOL    HW1 7685   6.269   0.993   3.001
 2262SOL    HW2 7686   6.247   1.152   3.032
 2263SOL     OW 7687   3.129   6.051   6.652
 2263SOL    HW1 7688   3.163   5.961   6.676
 2263SOL    HW2 7689   3.138   6.066   6.553
 2264SOL     OW 7690   2.320   4.427   0.565
 2264SOL    HW1 7691   2.368   4.343   0.588
 2264SOL    HW2 7692   2.233   4.430   0.615
 2265SOL     OW 7693   0.598   0.869   4.261
 2265SOL    HW1 7694   0.504   0.844   4.238
 2265SOL    HW2 7695   0.662   0.807   4.215
 2266SOL     OW 7696   5.202   1.683   0.092
 2266SOL    HW1 7697   5.274   1.740   0.131
 2266SOL    HW2 7698   5.122   1.739   0.072
 2267SOL     OW 7699   5.005   2.101   4.425
 2267SOL    HW1 7700   4.983   2.031   4.357
 2267SOL    HW2 7701   5.058   2.060   4.499
 2268SOL     OW 7702   6.301   3.495   0.191
 2268SOL    HW1 7703   6.247   3.441   0.126
 2268SOL    HW2 7704   6.398   3.477   0.177
 2269SOL     OW 7705   6.112   5.019   5.173
 2269SOL    HW1 7706   6.049   5.095   5.190
 2269SOL    HW2 7707   6.198   5.055   5.136
 2270SOL     OW 7708   3.039   2.342   6.340
 2270SOL    HW1 7709   3.075   2.274   6.276
 2270SOL    HW2 7710   3.054   2.311   6.434
 2271SOL     OW 7711   5.633   3.828   0.846
 2271SOL    HW1 7712   5.533   3.829   0.850
 2271SOL    HW2 7713   5.666   3.734   0.848
 2272SOL     OW 7714   5.933   2.979   6.638
 2272SOL    HW1 7715   5.853   3.031   6.608
 2272SOL    HW2 7716   5.942   2.896   6.583
 2273SOL     OW 7717   1.656   0.774   2.400
 2273SOL    HW1 7718   1.567   0.818   2.408
 2273SOL    HW2 7719   1.711   0.823   2.331
 2274SOL     OW 7720   6.956   2.228   6.580
 2274SOL    HW1 7721   0.018   2.284   6.553
 2274SOL    HW2 7722   6.902   2.277   6.649
 2275SOL     OW 7723   6.299   6.902   4.425
 2275SOL    HW1 7724   6.231   6.841   4.464
 2275SOL    HW2 7725   6.358   6.852   4.362
 2276SOL     OW 7726   2.421   5.326   0.986
 2276SOL    HW1 7727   2.498   5.376   1.027
 2276SOL    HW2 7728   2.456   5.259   0.921
 2277SOL     OW 7729   3.708   3.913   4.334
 2277SOL    HW1 7730   3.696   3.938   4.430
 2277SOL    HW2 7731   3.649   3.969   4.277
 2278SOL     OW 7732   6.497   4.783   4.522
 2278SOL    HW1 7733   6.489   4.720   4.599
 2278SOL    HW2 7734   6.588   4.826   4.523
 2279SOL     OW 7735   5.475   0.050   5.541
 2279SOL    HW1 7736   5.540   0.017   5.609
 2279SOL    HW2 7737   5.520   0.055   5.452
 2280SOL     OW 7738   6.403   6.730   4.783
 2280SOL    HW1 7739   6.447   6.819   4.795
 2280SOL    HW2 7740   6.466   6.667   4.738
 2281SOL     OW 7741   3.518   1.445   2.219
 2281SOL    HW1 7742   3.564   1.499   2.289
 2281SOL    HW2 7743   3.584   1.420   2.148
 2282SOL     OW 7744   5.220   0.984   4.324
 2282SOL    HW1 7745   5.298   1.016   4.378
 2282SOL    HW2 7746   5.135   1.019   4.363
 2283SOL     OW 7747   0.363   4.749   1.351
 2283SOL    HW1 7748   0.450   4.744   1.399
 2283SOL    HW2 7749   0.378   4.739   1.253
 2284SOL     OW 7750   0.720   2.549   6.786
 2284SOL    HW1 7751   0.791   2.525   6.852
 2284SOL    HW2 7752   0.631   2.517   6.819
 2285SOL     OW 7753   2.289   2.391   0.968
 2285SOL    HW1 7754   2.291   2.419   1.064
 2285SOL    HW2 7755   2.227   2.450   0.917
 2286SOL     OW 7756   0.036   6.960   4.166
 2286SOL    HW1 7757   0.088   0.027   4.187
 2286SOL    HW2 7758   0.038   6.944   4.067
 2287SOL     OW 7759   1.455   0.649   3.279
 2287SOL    HW1 7760   1.452   0.667   3.181
 2287SOL    HW2 7761   1.469   0.551   3.295
 2288SOL     OW 7762   6.086   5.178   4.623
 2288SOL    HW1 7763   6.021   5.139   4.688
 2288SOL    HW2 7764   6.133   5.105   4.574
 2289SOL     OW 7765   0.796   4.731   2.039
 2289SOL    HW1 7766   0.748   4.658   2.087
 2289SOL    HW2 7767   0.776   4.819   2.083
 2290SOL     OW 7768   0.969   4.349   1.053
 2290SOL    HW1 7769   1.020   4.308   0.977
 2290SOL    HW2 7770   1.028   4.354   1.134
 2291SOL     OW 7771   2.976   2.370   5.985
 2291SOL    HW1 7772   2.914   2.299   6.020
 2291SOL    HW2 7773   2.927   2.426   5.917
 2292SOL     OW 7774   6.482   2.161   5.119
 2292SOL    HW1 7775   6.483   2.067   5.084
 2292SOL    HW2 7776   6.566   2.207   5.090
 2293SOL     OW 7777   4.889   6.519   1.264
 2293SOL    HW1 7778   4.890   6.527   1.165
 2293SOL    HW2 7779   4.795   6.504   1.295
 2294SOL     OW 7780   2.895   0.945   6.388
 2294SOL    HW1 7781   2.977   0.929   6.332
 2294SOL    HW2 7782   2.922   0.987   6.474
 2295SOL     OW 7783   0.256   2.379   2.986
 2295SOL    HW1 7784   0.169   2.343   3.021
 2295SOL    HW2 7785   0.332   2.329   3.028
 2296SOL     OW 7786   4.017   5.414   1.053
 2296SOL    HW1 7787   4.103   5.456   1.026
 2296SOL    HW2 7788   3.952   5.419   0.976
 2297SOL     OW 7789   4.292   4.793   5.815
 2297SOL    HW1 7790   4.200   4.832   5.820
 2297SOL    HW2 7791   4.342   4.833   5.738
 2298SOL     OW 7792   3.987   3.000   1.874
 2298SOL    HW1 7793   3.975   3.087   1.826
 2298SOL    HW2 7794   3.980   2.925   1.808
 2299SOL     OW 7795   4.156   5.309   5.375
 2299SOL    HW1 7796   4.069   5.279   5.413
 2299SOL    HW2 7797   4.164   5.408   5.384
 2300SOL     OW 7798   2.321   5.850   1.985
 2300SOL    HW1 7799   2.400   5.860   1.924
 2300SOL    HW2 7800   2.336   5.772   2.046
 2301SOL     OW 7801   3.389   2.860   2.742
 2301SOL    HW1 7802   3.304   2.912   2.727
 2301SOL    HW2 7803   3.384   2.773   2.693
 2302SOL     OW 7804   4.329   0.419   1.036
 2302SOL    HW1 7805   4.330   0.514   1.067
 2302SOL    HW2 7806   4.391   0.409   0.959
 2303SOL     OW 7807   2.755   3.208   6.251
 2303SOL    HW1 7808   2.831   3.214   6.185
 2303SOL    HW2 7809   2.680   3.266   6.220
 2304SOL     OW 7810   4.500   6.555   3.645
 2304SOL    HW1 7811   4.448   6.506   3.715
 2304SOL    HW2 7812   4.501   6.653   3.666
 2305SOL     OW 7813   2.503   6.405   2.516
 2305SOL    HW1 7814   2.434   6.473   2.543
 2305SOL    HW2 7815   2.458   6.317   2.499
 2306SOL     OW 7816   3.026   4.898   2.370
 2306SOL    HW1 7817   2.960   4.871   2.300
 2306SOL    HW2 7818   3.115   4.915   2.327
 2307SOL     OW 7819   6.618   4.239   2.612
 2307SOL    HW1 7820   6.612   4.321   2.555
 2307SOL    HW2 7821   6.667   4.261   2.696
 2308SOL     OW 7822   0.946   5.301   1.521
 2308SOL    HW1 7823   0.932   5.399   1.531
 2308SOL    HW2 7824   0.879   5.264   1.456
 2309SOL     OW 7825   1.787   1.112   6.808
 2309SOL    HW1 7826   1.770   1.015   6.798
 2309SOL    HW2 7827   1.885   1.128   6.819
 2310SOL     OW 7828   4.946   6.300   0.830
 2310SOL    HW1 7829   5.043   6.325   0.838
 2310SOL    HW2 7830   4.934   6.239   0.752
 2311SOL     OW 7831   1.857   6.347   1.424
 2311SOL    HW1 7832   1.935   6.397   1.387
 2311SOL    HW2 7833   1.832   6.385   1.513
 2312SOL     OW 7834   3.988   6.419   3.386
 2312SOL    HW1 7835   4.085   6.412   3.364
 2312SOL    HW2 7836   3.975   6.402   3.484
 2313SOL     OW 7837   5.961   5.834   1.404
 2313SOL    HW1 7838   5.997   5.781   1.480
 2313SOL    HW2 7839   6.027   5.904   1.378
 2314SOL     OW 7840   5.594   0.039   4.531
 2314SOL    HW1 7841   5.527   0.008   4.598
 2314SOL    HW2 7842   5.683   0.051   4.575
 2315SOL     OW 7843   4.720   3.124   5.924
 2315SOL    HW1 7844   4.653   3.198   5.911
 2315SOL    HW2 7845   4.677   3.050   5.976
 2316SOL     OW 7846   3.778   0.873   4.204
 2316SOL    HW1 7847   3.729   0.801   4.253
 2316SOL    HW2 7848   3.717   0.915   4.137
 2317SOL     OW 7849   0.152   6.004   3.532
 2317SOL    HW1 7850   0.150   5.905   3.540
 2317SOL    HW2 7851   0.100   6.033   3.451
 2318SOL     OW 7852   2.170   3.014   4.633
 2318SOL    HW1 7853   2.209   3.065   4.556
 2318SOL    HW2 7854   2.074   2.993   4.614
 2319SOL     OW 7855   2.181   4.747   3.961
 2319SOL    HW1 7856   2.163   4.793   3.874
 2319SOL    HW2 7857   2.102   4.693   3.988
 2320SOL     OW 7858   0.813   2.572   4.792
 2320SOL    HW1 7859   0.790   2.668   4.778
 2320SOL    HW2 7860   0.807   2.523   4.704
 2321SOL     OW 7861   2.363   6.701   6.881
 2321SOL    HW1 7862   2.293   6.638   6.847
 2321SOL    HW2 7863   2.363   6.785   6.826
 2322SOL     OW 7864   2.222   1.819   3.853
 2322SOL    HW1 7865   2.238   1.913   3.882
 2322SOL    HW2 7866   2.309   1.776   3.829
 2323SOL     OW 7867   2.877   5.121   2.003
 2323SOL    HW1 7868   2.952   5.129   2.069
 2323SOL    HW2 7869   2.892   5.185   1.927
 2324SOL     OW 7870   6.591   6.982   0.993
 2324SOL    HW1 7871   6.642   6.950   1.073
 2324SOL    HW2 7872   6.546   6.904   0.950
 2325SOL     OW 7873   1.108   4.887   1.592
 2325SOL    HW1 7874   1.131   4.890   1.690
 2325SOL    HW2 7875   1.043   4.960   1.571
 2326SOL     OW 7876   3.490   5.406   6.502
 2326SOL    HW1 7877   3.476   5.500   6.534
 2326SOL    HW2 7878   3.550   5.407   6.422
 2327SOL     OW 7879   6.641   2.030   3.775
 2327SOL    HW1 7880   6.630   2.083   3.859
 2327SOL    HW2 7881   6.738   2.024   3.752
 2328SOL     OW 7882   2.795   2.001   2.574
 2328SOL    HW1 7883   2.709   2.043   2.605
 2328SOL    HW2 7884   2.774   1.928   2.508
 2329SOL     OW 7885   2.047   3.784   5.420
 2329SOL    HW1 7886   2.080   3.800   5.326
 2329SOL    HW2 7887   2.015   3.869   5.459
 2330SOL     OW 7888   0.721   3.916   1.246
 2330SOL    HW1 7889   0.679   3.961   1.324
 2330SOL    HW2 7890   0.762   3.984   1.185
 2331SOL     OW 7891   4.965   5.349   0.585
 2331SOL    HW1 7892   4.966   5.335   0.684
 2331SOL    HW2 7893   4.893   5.293   0.544
 2332SOL     OW 7894   4.776   2.026   4.994
 2332SOL    HW1 7895   4.731   2.014   5.082
 2332SOL    HW2 7896   4.747   2.113   4.953
 2333SOL     OW 7897   0.706   5.095   2.911
 2333SOL    HW1 7898   0.607   5.091   2.898
 2333SOL    HW2 7899   0.729   5.053   2.999
 2334SOL     OW 7900   2.290   0.617   0.066
 2334SOL    HW1 7901   2.330   0.577   7.000
 2334SOL    HW2 7902   2.324   0.711   0.078
 2335SOL     OW 7903   6.130   0.749   2.790
 2335SOL    HW1 7904   6.092   0.693   2.863
 2335SOL    HW2 7905   6.056   0.778   2.728
 2336SOL     OW 7906   4.370   2.292   4.895
 2336SOL    HW1 7907   4.387   2.199   4.928
 2336SOL    HW2 7908   4.293   2.332   4.943
 2337SOL     OW 7909   4.805   1.190   2.492
 2337SOL    HW1 7910   4.800   1.248   2.573
 2337SOL    HW2 7911   4.878   1.122   2.503
 2338SOL     OW 7912   1.666   2.353   5.326
 2338SOL    HW1 7913   1.591   2.412   5.298
 2338SOL    HW2 7914   1.630   2.271   5.371
 2339SOL     OW 7915   3.879   4.041   5.119
 2339SOL    HW1 7916   3.968   4.025   5.162
 2339SOL    HW2 7917   3.827   4.106   5.175
 2340SOL     OW 7918   5.741   4.888   0.366
 2340SOL    HW1 7919   5.828   4.854   0.329
 2340SOL    HW2 7920   5.743   4.881   0.466
 2341SOL     OW 7921   4.753   4.700   1.629
 2341SOL    HW1 7922   4.719   4.723   1.538
 2341SOL    HW2 7923   4.730   4.605   1.651
 2342SOL     OW 7924   0.469   0.003   5.038
 2342SOL    HW1 7925   0.494   0.012   4.942
 2342SOL    HW2 7926   0.550   6.999   5.093
 2343SOL     OW 7927   2.565   6.018   2.715
 2343SOL    HW1 7928   2.656   6.056   2.694
 2343SOL    HW2 7929   2.572   5.919   2.725
 2344SOL     OW 7930   1.750   0.134   1.014
 2344SOL    HW1 7931   1.803   0.123   1.098
 2344SOL    HW2 7932   1.698   0.051   0.996
 2345SOL     OW 7933   3.490   5.456   5.143
 2345SOL    HW1 7934   3.420   5.390   5.117
 2345SOL    HW2 7935   3.577   5.430   5.102
 2346SOL     OW 7936   4.843   2.508   4.646
 2346SOL    HW1 7937   4.899   2.427   4.665
 2346SOL    HW2 7938   4.875   2.553   4.563
 2347SOL     OW 7939   2.516   3.165   1.675
 2347SOL    HW1 7940   2.441   3.103   1.700
 2347SOL    HW2 7941   2.507   3.250   1.725
 2348SOL     OW 7942   3.767   6.274   3.337
 2348SOL    HW1 7943   3.854   6.324   3.334
 2348SOL    HW2 7944   3.726   6.274   3.246
 2349SOL     OW 7945   0.550   4.501   6.113
 2349SOL    HW1 7946   0.520   4.563   6.186
 2349SOL    HW2 7947   0.622   4.546   6.059
 2350SOL     OW 7948   4.940   6.915   6.446
 2350SOL    HW1 7949   5.038   6.894   6.439
 2350SOL    HW2 7950   4.896   6.851   6.508
 2351SOL     OW 7951   3.794   5.215   2.869
 2351SOL    HW1 7952   3.836   5.266   2.944
 2351SOL    HW2 7953   3.698   5.240   2.862
 2352SOL     OW 7954   0.802   4.629   2.416
 2352SOL    HW1 7955   0.747   4.612   2.498
 2352SOL    HW2 7956   0.763   4.579   2.338
 2353SOL     OW 7957   3.228   4.469   5.390
 2353SOL    HW1 7958   3.145   4.433   5.431
 2353SOL    HW2 7959   3.211   4.561   5.355
 2354SOL     OW 7960   2.470   1.688   6.039
 2354SOL    HW1 7961   2.381   1.660   6.002
 2354SOL    HW2 7962   2.543   1.653   5.981
 2355SOL     OW 7963   1.501   5.806   0.015
 2355SOL    HW1 7964   1.504   5.708   7.011
 2355SOL    HW2 7965   1.549   5.857   6.960
 2356SOL     OW 7966   1.868   4.046   0.530
 2356SOL    HW1 7967   1.906   3.996   0.453
 2356SOL    HW2 7968   1.768   4.043   0.525
 2357SOL     OW 7969   4.727   5.857   4.286
 2357SOL    HW1 7970   4.628   5.858   4.297
 2357SOL    HW2 7971   4.751   5.873   4.190
 2358SOL     OW 7972   3.172   5.451   5.383
 2358SOL    HW1 7973   3.217   5.479   5.298
 2358SOL    HW2 7974   3.191   5.355   5.401
 2359SOL     OW 7975   0.152   0.974   6.118
 2359SOL    HW1 7976   0.135   0.885   6.160
 2359SOL    HW2 7977   0.226   0.966   6.052
 2360SOL     OW 7978   5.417   6.111   6.515
 2360SOL    HW1 7979   5.398   6.183   6.449
 2360SOL    HW2 7980   5.330   6.074   6.550
 2361SOL     OW 7981   2.552   1.164   5.317
 2361SOL    HW1 7982   2.553   1.236   5.247
 2361SOL    HW2 7983   2.554   1.206   5.408
 2362SOL     OW 7984   2.895   0.898   5.314
 2362SOL    HW1 7985   2.913   0.918   5.410
 2362SOL    HW2 7986   2.928   0.973   5.257
 2363SOL     OW 7987   4.370   2.586   5.393
 2363SOL    HW1 7988   4.286   2.632   5.364
 2363SOL    HW2 7989   4.434   2.654   5.430
 2364SOL     OW 7990   0.833   2.163   2.741
 2364SOL    HW1 7991   0.875   2.089   2.689
 2364SOL    HW2 7992   0.839   2.249   2.689
 2365SOL     OW 7993   5.986   2.359   6.680
 2365SOL    HW1 7994   6.049   2.400   6.615
 2365SOL    HW2 7995   5.900   2.410   6.680
 2366SOL     OW 7996   1.591   4.272   5.997
 2366SOL    HW1 7997   1.646   4.342   6.042
 2366SOL    HW2 7998   1.632   4.248   5.909
 2367SOL     OW 7999   3.497   3.693   6.898
 2367SOL    HW1 8000   3.456   3.677   6.988
 2367SOL    HW2 8001   3.429   3.735   6.838
 2368SOL     OW 8002   4.914   6.909   2.984
 2368SOL    HW1 8003   4.987   6.954   3.035
 2368SOL    HW2 8004   4.843   6.976   2.963
 2369SOL     OW 8005   1.798   2.895   5.355
 2369SOL    HW1 8006   1.707   2.936   5.358
 2369SOL    HW2 8007   1.865   2.962   5.388
 2370SOL     OW 8008   4.880   4.348   6.534
 2370SOL    HW1 8009   4.861   4.298   6.449
 2370SOL    HW2 8010   4.925   4.435   6.512
 2371SOL     OW 8011   0.164   6.016   1.553
 2371SOL    HW1 8012   0.077   5.968   1.543
 2371SOL    HW2 8013   0.155   6.086   1.624
 2372SOL     OW 8014   0.021   1.974   1.076
 2372SOL    HW1 8015   7.002   2.021   1.157
 2372SOL    HW2 8016   0.107   2.016   1.047
 2373SOL     OW 8017   0.405   0.002   6.872
 2373SOL    HW1 8018   0.500   0.033   6.872
 2373SOL    HW2 8019   0.353   0.053   6.941
 2374SOL     OW 8020   6.124   0.551   4.213
 2374SOL    HW1 8021   6.173   0.612   4.275
 2374SOL    HW2 8022   6.134   0.457   4.245
 2375SOL     OW 8023   1.900   6.715   3.807
 2375SOL    HW1 8024   1.929   6.624   3.779
 2375SOL    HW2 8025   1.926   6.731   3.902
 2376SOL     OW 8026   5.786   2.272   4.366
 2376SOL    HW1 8027   5.872   2.222   4.378
 2376SOL    HW2 8028   5.725   2.252   4.442
 2377SOL     OW 8029   3.311   4.115   3.037
 2377SOL    HW1 8030   3.258   4.033   3.016
 2377SOL    HW2 8031   3.294   4.143   3.131
 2378SOL     OW 8032   4.766   2.211   0.188
 2378SOL    HW1 8033   4.697   2.205   0.116
 2378SOL    HW2 8034   4.740   2.281   0.255
 2379SOL     OW 8035   6.040   2.005   6.336
 2379SOL    HW1 8036   5.992   2.083   6.378
 2379SOL    HW2 8037   5.975   1.930   6.323
 2380SOL     OW 8038   0.014   0.005   5.674
 2380SOL    HW1 8039   0.063   6.940   5.706
 2380SOL    HW2 8040   6.941   0.010   5.719
 2381SOL     OW 8041   2.078   3.934   4.263
 2381SOL    HW1 8042   1.996   3.990   4.258
 2381SOL    HW2 8043   2.158   3.993   4.274
 2382SOL     OW 8044   2.661   5.060   3.588
 2382SOL    HW1 8045   2.619   5.134   3.640
 2382SOL    HW2 8046   2.612   5.049   3.501
 2383SOL     OW 8047   5.637   6.606   0.306
 2383SOL    HW1 8048   5.661   6.583   0.212
 2383SOL    HW2 8049   5.598   6.525   0.351
 2384SOL     OW 8050   6.679   6.178   2.260
 2384SOL    HW1 8051   6.767   6.198   2.218
 2384SOL    HW2 8052   6.649   6.257   2.314
 2385SOL     OW 8053   6.402   6.694   1.033
 2385SOL    HW1 8054   6.467   6.619   1.019
 2385SOL    HW2 8055   6.399   6.718   1.130
 2386SOL     OW 8056   5.151   5.365   4.703
 2386SOL    HW1 8057   5.051   5.352   4.703
 2386SOL    HW2 8058   5.175   5.433   4.634
 2387SOL     OW 8059   0.807   2.061   3.742
 2387SOL    HW1 8060   0.785   2.159   3.744
 2387SOL    HW2 8061   0.722   2.008   3.746
 2388SOL     OW 8062   1.355   2.017   3.610
 2388SOL    HW1 8063   1.382   2.087   3.675
 2388SOL    HW2 8064   1.263   2.036   3.576
 2389SOL     OW 8065   5.338   3.365   3.494
 2389SOL    HW1 8066   5.312   3.452   3.535
 2389SOL    HW2 8067   5.387   3.310   3.561
 2390SOL     OW 8068   3.271   3.987   3.642
 2390SOL    HW1 8069   3.285   3.913   3.576
 2390SOL    HW2 8070   3.320   4.068   3.612
 2391SOL     OW 8071   4.624   4.652   5.695
 2391SOL    HW1 8072   4.558   4.720   5.663
 2391SOL    HW2 8073   4.686   4.628   5.620
 2392SOL     OW 8074   4.092   0.173   5.016
 2392SOL    HW1 8075   4.166   0.239   5.002
 2392SOL    HW2 8076   4.026   0.210   5.082
 2393SOL     OW 8077   4.328   5.141   6.355
 2393SOL    HW1 8078   4.277   5.081   6.416
 2393SOL    HW2 8079   4.400   5.188   6.406
 2394SOL     OW 8080   2.080   3.414   4.259
 2394SOL    HW1 8081   1.992   3.396   4.216
 2394SOL    HW2 8082   2.080   3.507   4.297
 2395SOL     OW 8083   6.113   2.682   0.515
 2395SOL    HW1 8084   6.134   2.651   0.422
 2395SOL    HW2 8085   6.086   2.604   0.571
 2396SOL     OW 8086   4.066   5.186   1.222
 2396SOL    HW1 8087   4.048   5.284   1.206
 2396SOL    HW2 8088   4.133   5.154   1.155
 2397SOL     OW 8089   0.144   4.076   6.946
 2397SOL    HW1 8090   0.114   4.053   0.023
 2397SOL    HW2 8091   0.079   4.039   6.880
 2398SOL     OW 8092   2.984   4.058   6.684
 2398SOL    HW1 8093   2.929   4.138   6.708
 2398SOL    HW2 8094   2.946   4.015   6.602
 2399SOL     OW 8095   5.210   1.153   2.639
 2399SOL    HW1 8096   5.274   1.106   2.699
 2399SOL    HW2 8097   5.171   1.232   2.687
 2400SOL     OW 8098   3.674   5.342   0.331
 2400SOL    HW1 8099   3.682   5.422   0.390
 2400SOL    HW2 8100   3.675   5.259   0.387
 2401SOL     OW 8101   4.391   6.745   6.209
 2401SOL    HW1 8102   4.294   6.745   6.236
 2401SOL    HW2 8103   4.404   6.680   6.135
 2402SOL     OW 8104   0.811   1.366   4.463
 2402SOL    HW1 8105   0.865   1.339   4.542
 2402SOL    HW2 8106   0.743   1.295   4.442
 2403SOL     OW 8107   2.517   2.551   0.321
 2403SOL    HW1 8108   2.604   2.548   0.370
 2403SOL    HW2 8109   2.468   2.635   0.345
 2404SOL     OW 8110   5.793   0.850   1.309
 2404SOL    HW1 8111   5.696   0.839   1.331
 2404SOL    HW2 8112   5.846   0.858   1.393
 2405SOL     OW 8113   3.498   3.398   3.349
 2405SOL    HW1 8114   3.560   3.322   3.370
 2405SOL    HW2 8115   3.403   3.369   3.367
 2406SOL     OW 8116   2.484   0.294   3.226
 2406SOL    HW1 8117   2.446   0.352   3.299
 2406SOL    HW2 8118   2.581   0.313   3.215
 2407SOL     OW 8119   5.613   2.750   2.941
 2407SOL    HW1 8120   5.594   2.787   3.032
 2407SOL    HW2 8121   5.684   2.805   2.897
 2408SOL     OW 8122   3.859   5.115   4.027
 2408SOL    HW1 8123   3.777   5.063   4.004
 2408SOL    HW2 8124   3.895   5.158   3.945
 2409SOL     OW 8125   1.631   2.705   1.058
 2409SOL    HW1 8126   1.570   2.646   1.110
 2409SOL    HW2 8127   1.712   2.727   1.113
 2410SOL     OW 8128   4.568   2.159   6.528
 2410SOL    HW1 8129   4.469   2.157   6.518
 2410SOL    HW2 8130   4.602   2.252   6.514
 2411SOL     OW 8131   4.688   5.563   5.686
 2411SOL    HW1 8132   4.606   5.559   5.630
 2411SOL    HW2 8133   4.699   5.655   5.724
 2412SOL     OW 8134   3.838   4.567   0.305
 2412SOL    HW1 8135   3.869   4.652   0.261
 2412SOL    HW2 8136   3.862   4.489   0.246
 2413SOL     OW 8137   6.447   2.144   0.318
 2413SOL    HW1 8138   6.362   2.158   0.268
 2413SOL    HW2 8139   6.429   2.143   0.416
 2414SOL     OW 8140   4.860   3.854   1.973
 2414SOL    HW1 8141   4.809   3.927   1.926
 2414SOL    HW2 8142   4.939   3.827   1.918
 2415SOL     OW 8143   0.841   6.419   1.548
 2415SOL    HW1 8144   0.880   6.504   1.585
 2415SOL    HW2 8145   0.799   6.438   1.460
 2416SOL     OW 8146   3.387   2.129   4.928
 2416SOL    HW1 8147   3.301   2.164   4.966
 2416SOL    HW2 8148   3.397   2.159   4.833
 2417SOL     OW 8149   4.299   2.966   6.289
 2417SOL    HW1 8150   4.257   2.881   6.321
 2417SOL    HW2 8151   4.342   2.950   6.200
 2418SOL     OW 8152   2.979   3.635   3.851
 2418SOL    HW1 8153   2.962   3.697   3.775
 2418SOL    HW2 8154   3.057   3.668   3.905
 2419SOL     OW 8155   0.820   6.250   3.660
 2419SOL    HW1 8156   0.870   6.333   3.635
 2419SOL    HW2 8157   0.728   6.274   3.691
 2420SOL     OW 8158   3.871   1.714   1.478
 2420SOL    HW1 8159   3.817   1.657   1.416
 2420SOL    HW2 8160   3.968   1.703   1.457
 2421SOL     OW 8161   2.879   1.094   5.049
 2421SOL    HW1 8162   2.842   1.185   5.035
 2421SOL    HW2 8163   2.826   1.027   4.997
 2422SOL     OW 8164   6.120   0.361   1.716
 2422SOL    HW1 8165   6.174   0.278   1.731
 2422SOL    HW2 8166   6.039   0.359   1.775
 2423SOL     OW 8167   1.331   6.179   3.698
 2423SOL    HW1 8168   1.351   6.209   3.605
 2423SOL    HW2 8169   1.254   6.115   3.697
 2424SOL     OW 8170   5.869   6.285   6.009
 2424SOL    HW1 8171   5.796   6.327   5.955
 2424SOL    HW2 8172   5.891   6.195   5.971
 2425SOL     OW 8173   6.365   0.179   4.456
 2425SOL    HW1 8174   6.321   0.221   4.376
 2425SOL    HW2 8175   6.343   0.082   4.460
 2426SOL     OW 8176   0.791   5.186   4.391
 2426SOL    HW1 8177   0.778   5.134   4.475
 2426SOL    HW2 8178   0.706   5.186   4.338
 2427SOL     OW 8179   5.785   5.388   6.613
 2427SOL    HW1 8180   5.764   5.398   6.710
 2427SOL    HW2 8181   5.846   5.462   6.584
 2428SOL     OW 8182   0.025   0.071   3.417
 2428SOL    HW1 8183   0.120   0.053   3.394
 2428SOL    HW2 8184   0.020   0.145   3.484
 2429SOL     OW 8185   6.585   5.867   4.797
 2429SOL    HW1 8186   6.631   5.930   4.735
 2429SOL    HW2 8187   6.583   5.776   4.757
 2430SOL     OW 8188   6.230   1.602   1.013
 2430SOL    HW1 8189   6.256   1.534   1.082
 2430SOL    HW2 8190   6.232   1.693   1.054
 2431SOL     OW 8191   3.481   0.268   2.183
 2431SOL    HW1 8192   3.507   0.262   2.279
 2431SOL    HW2 8193   3.381   0.261   2.175
 2432SOL     OW 8194   3.491   6.908   3.029
 2432SOL    HW1 8195   3.547   6.831   2.998
 2432SOL    HW2 8196   3.426   6.876   3.098
 2433SOL     OW 8197   3.327   6.770   1.010
 2433SOL    HW1 8198   3.235   6.752   0.977
 2433SOL    HW2 8199   3.343   6.868   1.015
 2434SOL     OW 8200   4.882   1.133   3.623
 2434SOL    HW1 8201   4.782   1.135   3.627
 2434SOL    HW2 8202   4.920   1.132   3.715
 2435SOL     OW 8203   4.600   5.375   5.923
 2435SOL    HW1 8204   4.532   5.441   5.956
 2435SOL    HW2 8205   4.659   5.420   5.856
 2436SOL     OW 8206   2.257   6.266   1.355
 2436SOL    HW1 8207   2.270   6.335   1.284
 2436SOL    HW2 8208   2.346   6.239   1.393
 2437SOL     OW 8209   3.838   6.301   0.858
 2437SOL    HW1 8210   3.882   6.226   0.809
 2437SOL    HW2 8211   3.767   6.342   0.800
 2438SOL     OW 8212   3.703   1.612   5.528
 2438SOL    HW1 8213   3.709   1.590   5.431
 2438SOL    HW2 8214   3.622   1.669   5.544
 2439SOL     OW 8215   0.933   4.364   6.857
 2439SOL    HW1 8216   0.953   4.318   6.943
 2439SOL    HW2 8217   0.882   4.301   6.797
 2440SOL     OW 8218   4.740   6.518   4.941
 2440SOL    HW1 8219   4.680   6.450   4.897
 2440SOL    HW2 8220   4.824   6.527   4.888
 2441SOL     OW 8221   6.835   0.666   6.669
 2441SOL    HW1 8222   6.829   0.570   6.643
 2441SOL    HW2 8223   6.831   0.675   6.768
 2442SOL     OW 8224   6.354   5.642   4.050
 2442SOL    HW1 8225   6.421   5.659   4.123
 2442SOL    HW2 8226   6.262   5.649   4.088
 2443SOL     OW 8227   3.588   6.638   5.519
 2443SOL    HW1 8228   3.678   6.667   5.552
 2443SOL    HW2 8229   3.549   6.573   5.585
 2444SOL     OW 8230   3.566   4.697   5.892
 2444SOL    HW1 8231   3.475   4.736   5.885
 2444SOL    HW2 8232   3.592   4.655   5.806
 2445SOL     OW 8233   0.225   0.566   1.774
 2445SOL    HW1 8234   0.197   0.510   1.696
 2445SOL    HW2 8235   0.320   0.594   1.763
 2446SOL     OW 8236   0.078   3.606   3.785
 2446SOL    HW1 8237   7.003   3.568   3.772
 2446SOL    HW2 8238   0.137   3.538   3.830
 2447SOL     OW 8239   2.756   1.141   0.741
 2447SOL    HW1 8240   2.709   1.229   0.731
 2447SOL    HW2 8241   2.697   1.067   0.708
 2448SOL     OW 8242   0.730   0.402   5.462
 2448SOL    HW1 8243   0.726   0.406   5.562
 2448SOL    HW2 8244   0.658   0.341   5.429
 2449SOL     OW 8245   0.033   4.496   1.687
 2449SOL    HW1 8246   0.093   4.522   1.611
 2449SOL    HW2 8247   0.089   4.479   1.769
 2450SOL     OW 8248   2.984   4.864   4.474
 2450SOL    HW1 8249   3.037   4.911   4.544
 2450SOL    HW2 8250   2.928   4.794   4.516
 2451SOL     OW 8251   0.589   0.227   3.771
 2451SOL    HW1 8252   0.511   0.281   3.740
 2451SOL    HW2 8253   0.663   0.287   3.799
 2452SOL     OW 8254   2.135   2.371   2.996
 2452SOL    HW1 8255   2.121   2.411   2.906
 2452SOL    HW2 8256   2.223   2.324   2.998
 2453SOL     OW 8257   6.544   3.897   1.331
 2453SOL    HW1 8258   6.616   3.930   1.392
 2453SOL    HW2 8259   6.585   3.860   1.247
 2454SOL     OW 8260   3.413   1.348   0.348
 2454SOL    HW1 8261   3.475   1.399   0.288
 2454SOL    HW2 8262   3.430   1.250   0.339
 2455SOL     OW 8263   5.860   6.785   0.727
 2455SOL    HW1 8264   5.782   6.754   0.673
 2455SOL    HW2 8265   5.862   6.736   0.814
 2456SOL     OW 8266   5.951   0.379   0.356
 2456SOL    HW1 8267   5.968   0.285   0.386
 2456SOL    HW2 8268   5.901   0.377   0.270
 2457SOL     OW 8269   6.548   6.373   0.310
 2457SOL    HW1 8270   6.530   6.466   0.341
 2457SOL    HW2 8271   6.528   6.308   0.384
 2458SOL     OW 8272   2.737   5.509   4.108
 2458SOL    HW1 8273   2.774   5.429   4.156
 2458SOL    HW2 8274   2.792   5.528   4.027
 2459SOL     OW 8275   2.547   6.605   0.365
 2459SOL    HW1 8276   2.484   6.578   0.292
 2459SOL    HW2 8277   2.584   6.523   0.409
 2460SOL     OW 8278   2.344   0.434   1.212
 2460SOL    HW1 8279   2.280   0.501   1.175
 2460SOL    HW2 8280   2.341   0.437   1.312
 2461SOL     OW 8281   4.304   0.360   2.689
 2461SOL    HW1 8282   4.223   0.301   2.684
 2461SOL    HW2 8283   4.304   0.409   2.776
 2462SOL     OW 8284   2.443   5.354   0.216
 2462SOL    HW1 8285   2.526   5.411   0.222
 2462SOL    HW2 8286   2.423   5.334   0.120
 2463SOL     OW 8287   6.085   2.470   3.800
 2463SOL    HW1 8288   6.032   2.464   3.716
 2463SOL    HW2 8289   6.100   2.378   3.837
 2464SOL     OW 8290   1.537   4.343   1.706
 2464SOL    HW1 8291   1.473   4.266   1.700
 2464SOL    HW2 8292   1.510   4.413   1.640
 2465SOL     OW 8293   6.780   6.047   1.289
 2465SOL    HW1 8294   6.833   6.079   1.211
 2465SOL    HW2 8295   6.734   6.125   1.332
 2466SOL     OW 8296   3.303   1.164   1.769
 2466SOL    HW1 8297   3.369   1.090   1.753
 2466SOL    HW2 8298   3.253   1.146   1.853
 2467SOL     OW 8299   5.568   1.707   5.328
 2467SOL    HW1 8300   5.569   1.622   5.381
 2467SOL    HW2 8301   5.510   1.774   5.374
 2468SOL     OW 8302   5.920   6.614   2.395
 2468SOL    HW1 8303   5.838   6.629   2.340
 2468SOL    HW2 8304   5.900   6.551   2.470
 2469SOL     OW 8305   3.781   4.784   5.498
 2469SOL    HW1 8306   3.851   4.741   5.442
 2469SOL    HW2 8307   3.699   4.801   5.443
 2470SOL     OW 8308   3.138   4.235   6.069
 2470SOL    HW1 8309   3.067   4.297   6.036
 2470SOL    HW2 8310   3.225   4.284   6.075
 2471SOL     OW 8311   2.132   6.019   1.585
 2471SOL    HW1 8312   2.069   6.063   1.521
 2471SOL    HW2 8313   2.108   5.923   1.595
 2472SOL     OW 8314   4.887   1.587   4.101
 2472SOL    HW1 8315   4.944   1.611   4.180
 2472SOL    HW2 8316   4.849   1.495   4.114
 2473SOL     OW 8317   1.897   3.981   5.545
 2473SOL    HW1 8318   1.807   3.982   5.589
 2473SOL    HW2 8319   1.966   4.014   5.610
 2474SOL     OW 8320   0.206   5.766   0.319
 2474SOL    HW1 8321   0.303   5.741   0.325
 2474SOL    HW2 8322   0.185   5.835   0.388
 2475SOL     OW 8323   4.213   1.309   0.376
 2475SOL    HW1 8324   4.162   1.363   0.444
 2475SOL    HW2 8325   4.278   1.250   0.424
 2476SOL     OW 8326   0.791   2.606   3.920
 2476SOL    HW1 8327   0.872   2.550   3.935
 2476SOL    HW2 8328   0.776   2.618   3.821
 2477SOL     OW 8329   6.731   0.329   2.612
 2477SOL    HW1 8330   6.706   0.265   2.685
 2477SOL    HW2 8331   6.663   0.402   2.606
 2478SOL     OW 8332   5.558   0.082   2.595
 2478SOL    HW1 8333   5.504   7.014   2.604
 2478SOL    HW2 8334   5.558   0.111   2.499
 2479SOL     OW 8335   0.933   3.487   1.391
 2479SOL    HW1 8336   0.925   3.585   1.410
 2479SOL    HW2 8337   0.848   3.454   1.352
 2480SOL     OW 8338   5.842   4.241   0.990
 2480SOL    HW1 8339   5.838   4.143   1.005
 2480SOL    HW2 8340   5.754   4.273   0.955
 2481SOL     OW 8341   2.870   6.633   0.369
 2481SOL    HW1 8342   2.775   6.663   0.378
 2481SOL    HW2 8343   2.878   6.573   0.290
 2482SOL     OW 8344   5.161   2.845   5.643
 2482SOL    HW1 8345   5.065   2.840   5.614
 2482SOL    HW2 8346   5.165   2.861   5.741
 2483SOL     OW 8347   2.486   0.916   6.896
 2483SOL    HW1 8348   2.479   0.878   6.988
 2483SOL    HW2 8349   2.576   0.958   6.884
 2484SOL     OW 8350   2.074   0.647   0.564
 2484SOL    HW1 8351   2.008   0.721   0.547
 2484SOL    HW2 8352   2.132   0.635   0.484
 2485SOL     OW 8353   4.222   4.731   2.179
 2485SOL    HW1 8354   4.183   4.640   2.165
 2485SOL    HW2 8355   4.188   4.794   2.109
 2486SOL     OW 8356   3.497   5.813   2.753
 2486SOL    HW1 8357   3.399   5.824   2.736
 2486SOL    HW2 8358   3.518   5.715   2.759
 2487SOL     OW 8359   4.063   5.170   6.919
 2487SOL    HW1 8360   4.023   5.242   6.863
 2487SOL    HW2 8361   4.003   5.090   6.920
 2488SOL     OW 8362   2.228   4.062   1.623
 2488SOL    HW1 8363   2.155   4.122   1.656
 2488SOL    HW2 8364   2.223   4.056   1.523
 2489SOL     OW 8365   2.378   5.189   4.048
 2489SOL    HW1 8366   2.360   5.181   4.146
 2489SOL    HW2 8367   2.424   5.106   4.015
 2490SOL     OW 8368   6.683   5.209   0.701
 2490SOL    HW1 8369   6.666   5.281   0.634
 2490SOL    HW2 8370   6.610   5.140   0.696
 2491SOL     OW 8371   2.267   5.886   2.615
 2491SOL    HW1 8372   2.338   5.844   2.672
 2491SOL    HW2 8373   2.236   5.971   2.659
 2492SOL     OW 8374   3.702   2.786   6.840
 2492SOL    HW1 8375   3.625   2.723   6.854
 2492SOL    HW2 8376   3.679   2.875   6.879
 2493SOL     OW 8377   5.984   0.571   2.970
 2493SOL    HW1 8378   5.924   0.494   2.947
 2493SOL    HW2 8379   6.076   0.537   2.991
 2494SOL     OW 8380   5.980   3.558   2.587
 2494SOL    HW1 8381   5.901   3.551   2.525
 2494SOL    HW2 8382   6.014   3.466   2.607
 2495SOL     OW 8383   5.345   0.450   4.671
 2495SOL    HW1 8384   5.341   0.529   4.610
 2495SOL    HW2 8385   5.423   0.392   4.646
 2496SOL     OW 8386   1.317   5.059   6.828
 2496SOL    HW1 8387   1.217   5.061   6.825
 2496SOL    HW2 8388   1.354   5.105   6.747
 2497SOL     OW 8389   6.963   1.422   0.682
 2497SOL    HW1 8390   6.930   1.374   0.601
 2497SOL    HW2 8391   6.954   1.364   0.763
 2498SOL     OW 8392   3.400   2.034   3.381
 2498SOL    HW1 8393   3.384   1.943   3.420
 2498SOL    HW2 8394   3.374   2.033   3.284
 2499SOL     OW 8395   5.699   1.541   4.276
 2499SOL    HW1 8396   5.792   1.576   4.268
 2499SOL    HW2 8397   5.666   1.513   4.186
 2500SOL     OW 8398   4.531   3.383   5.810
 2500SOL    HW1 8399   4.552   3.463   5.866
 2500SOL    HW2 8400   4.520   3.410   5.715
 2501SOL     OW 8401   6.916   5.673   6.917
 2501SOL    HW1 8402   6.962   5.593   6.880
 2501SOL    HW2 8403   6.985   5.741   6.946
 2502SOL     OW 8404   2.769   6.258   3.676
 2502SOL    HW1 8405   2.750   6.170   3.718
 2502SOL    HW2 8406   2.800   6.244   3.582
 2503SOL     OW 8407   3.886   5.883   5.498
 2503SOL    HW1 8408   3.878   5.933   5.584
 2503SOL    HW2 8409   3.799   5.839   5.477
 2504SOL     OW 8410   2.930   5.785   5.073
 2504SOL    HW1 8411   2.985   5.826   5.145
 2504SOL    HW2 8412   2.869   5.853   5.033
 2505SOL     OW 8413   2.074   6.475   4.314
 2505SOL    HW1 8414   2.138   6.461   4.239
 2505SOL    HW2 8415   2.012   6.397   4.320
 2506SOL     OW 8416   6.969   3.030   6.017
 2506SOL    HW1 8417   0.052   3.026   6.011
 2506SOL    HW2 8418   6.942   3.037   6.114
 2507SOL     OW 8419   6.388   4.335   0.031
 2507SOL    HW1 8420   6.308   4.306   6.995
 2507SOL    HW2 8421   6.470   4.290   7.011
 2508SOL     OW 8422   2.456   1.869   2.203
 2508SOL    HW1 8423   2.370   1.863   2.152
 2508SOL    HW2 8424   2.532   1.882   2.139
 2509SOL     OW 8425   5.997   3.006   2.655
 2509SOL    HW1 8426   5.908   2.975   2.688
 2509SOL    HW2 8427   6.043   3.059   2.726
 2510SOL     OW 8428   2.934   4.375   0.457
 2510SOL    HW1 8429   2.973   4.412   0.541
 2510SOL    HW2 8430   3.005   4.323   0.408
 2511SOL     OW 8431   1.669   1.739   4.909
 2511SOL    HW1 8432   1.693   1.651   4.868
 2511SOL    HW2 8433   1.680   1.811   4.841
 2512SOL     OW 8434   5.613   4.551   5.072
 2512SOL    HW1 8435   5.657   4.633   5.037
 2512SOL    HW2 8436   5.615   4.479   5.003
 2513SOL     OW 8437   1.460   2.754   6.295
 2513SOL    HW1 8438   1.528   2.823   6.318
 2513SOL    HW2 8439   1.490   2.704   6.213
 2514SOL     OW 8440   0.366   2.926   3.880
 2514SOL    HW1 8441   0.453   2.877   3.889
 2514SOL    HW2 8442   0.343   2.968   3.968
 2515SOL     OW 8443   1.190   6.649   0.890
 2515SOL    HW1 8444   1.230   6.740   0.883
 2515SOL    HW2 8445   1.191   6.619   0.986
 2516SOL     OW 8446   6.286   5.760   2.238
 2516SOL    HW1 8447   6.301   5.858   2.244
 2516SOL    HW2 8448   6.281   5.721   2.330
 2517SOL     OW 8449   2.095   5.171   5.919
 2517SOL    HW1 8450   2.020   5.226   5.883
 2517SOL    HW2 8451   2.085   5.076   5.888
 2518SOL     OW 8452   1.860   3.392   0.347
 2518SOL    HW1 8453   1.946   3.420   0.389
 2518SOL    HW2 8454   1.787   3.397   0.415
 2519SOL     OW 8455   4.826   5.112   4.198
 2519SOL    HW1 8456   4.730   5.138   4.213
 2519SOL    HW2 8457   4.866   5.080   4.284
 2520SOL     OW 8458   0.852   3.007   1.033
 2520SOL    HW1 8459   0.926   2.991   1.097
 2520SOL    HW2 8460   0.801   3.089   1.061
 2521SOL     OW 8461   1.400   6.559   5.521
 2521SOL    HW1 8462   1.332   6.558   5.447
 2521SOL    HW2 8463   1.389   6.641   5.575
 2522SOL     OW 8464   0.701   2.907   5.375
 2522SOL    HW1 8465   0.734   2.866   5.290
 2522SOL    HW2 8466   0.672   3.001   5.357
 2523SOL     OW 8467   0.028   2.795   1.124
 2523SOL    HW1 8468   0.055   2.722   1.061
 2523SOL    HW2 8469   6.999   2.868   1.073
 2524SOL     OW 8470   0.665   6.156   4.491
 2524SOL    HW1 8471   0.689   6.156   4.394
 2524SOL    HW2 8472   0.748   6.169   4.546
 2525SOL     OW 8473   1.689   2.585   4.270
 2525SOL    HW1 8474   1.652   2.671   4.236
 2525SOL    HW2 8475   1.726   2.599   4.362
 2526SOL     OW 8476   0.545   3.684   5.819
 2526SOL    HW1 8477   0.539   3.587   5.843
 2526SOL    HW2 8478   0.637   3.718   5.840
 2527SOL     OW 8479   5.231   0.258   5.153
 2527SOL    HW1 8480   5.224   0.281   5.249
 2527SOL    HW2 8481   5.142   0.227   5.118
 2528SOL     OW 8482   6.254   4.803   1.507
 2528SOL    HW1 8483   6.292   4.866   1.439
 2528SOL    HW2 8484   6.158   4.826   1.524
 2529SOL     OW 8485   5.742   4.852   6.264
 2529SOL    HW1 8486   5.657   4.807   6.237
 2529SOL    HW2 8487   5.776   4.814   6.350
 2530SOL     OW 8488   1.230   6.473   4.969
 2530SOL    HW1 8489   1.325   6.454   4.993
 2530SOL    HW2 8490   1.187   6.388   4.936
 2531SOL     OW 8491   5.551   5.789   4.842
 2531SOL    HW1 8492   5.519   5.742   4.760
 2531SOL    HW2 8493   5.646   5.818   4.829
 2532SOL     OW 8494   0.516   5.961   0.525
 2532SOL    HW1 8495   0.473   5.932   0.610
 2532SOL    HW2 8496   0.579   6.037   0.543
 2533SOL     OW 8497   5.168   6.322   4.849
 2533SOL    HW1 8498   5.236   6.318   4.776
 2533SOL    HW2 8499   5.211   6.351   4.934
 2534SOL     OW 8500   2.669   0.830   2.980
 2534SOL    HW1 8501   2.624   0.771   3.046
 2534SOL    HW2 8502   2.602   0.862   2.913
 2535SOL     OW 8503   2.131   2.027   6.388
 2535SOL    HW1 8504   2.085   2.051   6.302
 2535SOL    HW2 8505   2.170   2.109   6.429
 2536SOL     OW 8506   0.789   1.897   3.511
 2536SOL    HW1 8507   0.859   1.953   3.555
 2536SOL    HW2 8508   0.704   1.904   3.562
 2537SOL     OW 8509   4.906   6.160   0.600
 2537SOL    HW1 8510   4.920   6.206   0.513
 2537SOL    HW2 8511   4.842   6.084   0.587
 2538SOL     OW 8512   2.046   4.214   5.364
 2538SOL    HW1 8513   2.099   4.248   5.287
 2538SOL    HW2 8514   1.996   4.132   5.337
 2539SOL     OW 8515   4.089   7.002   5.388
 2539SOL    HW1 8516   4.090   6.905   5.412
 2539SOL    HW2 8517   4.165   0.006   5.326
 2540SOL     OW 8518   5.084   0.652   1.759
 2540SOL    HW1 8519   5.033   0.715   1.817
 2540SOL    HW2 8520   5.048   0.657   1.666
 2541SOL     OW 8521   1.333   0.649   6.009
 2541SOL    HW1 8522   1.387   0.731   5.988
 2541SOL    HW2 8523   1.388   0.568   5.992
 2542SOL     OW 8524   3.825   2.161   4.634
 2542SOL    HW1 8525   3.812   2.072   4.590
 2542SOL    HW2 8526   3.919   2.192   4.618
 2543SOL     OW 8527   1.998   0.184   2.825
 2543SOL    HW1 8528   2.089   0.177   2.867
 2543SOL    HW2 8529   2.007   0.203   2.727
 2544SOL     OW 8530   0.464   5.405   2.278
 2544SOL    HW1 8531   0.446   5.471   2.205
 2544SOL    HW2 8532   0.557   5.369   2.268
 2545SOL     OW 8533   1.785   0.925   1.764
 2545SOL    HW1 8534   1.766   0.940   1.667
 2545SOL    HW2 8535   1.794   1.013   1.811
 2546SOL     OW 8536   6.382   3.056   1.419
 2546SOL    HW1 8537   6.405   3.074   1.515
 2546SOL    HW2 8538   6.412   2.964   1.395
 2547SOL     OW 8539   5.283   5.939   0.186
 2547SOL    HW1 8540   5.201   5.952   0.132
 2547SOL    HW2 8541   5.266   5.969   0.280
 2548SOL     OW 8542   2.493   0.326   4.977
 2548SOL    HW1 8543   2.537   0.382   4.908
 2548SOL    HW2 8544   2.461   0.240   4.935
 2549SOL     OW 8545   2.212   2.299   1.978
 2549SOL    HW1 8546   2.271   2.233   1.931
 2549SOL    HW2 8547   2.240   2.392   1.953
 2550SOL     OW 8548   5.653   0.741   6.722
 2550SOL    HW1 8549   5.640   0.810   6.793
 2550SOL    HW2 8550   5.639   0.650   6.762
 2551SOL     OW 8551   3.418   5.342   0.162
 2551SOL    HW1 8552   3.345   5.328   0.229
 2551SOL    HW2 8553   3.507   5.331   0.207
 2552SOL     OW 8554   2.027   5.048   6.625
 2552SOL    HW1 8555   2.010   5.025   6.720
 2552SOL    HW2 8556   1.994   4.975   6.566
 2553SOL     OW 8557   3.267   2.986   5.922
 2553SOL    HW1 8558   3.168   2.979   5.931
 2553SOL    HW2 8559   3.297   3.076   5.952
 2554SOL     OW 8560   1.971   5.886   6.683
 2554SOL    HW1 8561   2.044   5.923   6.626
 2554SOL    HW2 8562   1.996   5.793   6.712
 2555SOL     OW 8563   6.224   6.293   6.695
 2555SOL    HW1 8564   6.148   6.354   6.720
 2555SOL    HW2 8565   6.192   6.228   6.625
 2556SOL     OW 8566   4.231   6.207   0.856
 2556SOL    HW1 8567   4.209   6.279   0.922
 2556SOL    HW2 8568   4.279   6.247   0.778
 2557SOL     OW 8569   2.726   0.942   6.745
 2557SOL    HW1 8570   2.701   0.855   6.703
 2557SOL    HW2 8571   2.744   1.010   6.674
 2558SOL     OW 8572   4.104   4.010   5.294
 2558SOL    HW1 8573   4.104   3.970   5.386
 2558SOL    HW2 8574   4.199   4.026   5.265
 2559SOL     OW 8575   5.957   3.062   3.739
 2559SOL    HW1 8576   5.969   3.019   3.828
 2559SOL    HW2 8577   5.861   3.085   3.725
 2560SOL     OW 8578   4.952   3.547   3.685
 2560SOL    HW1 8579   4.981   3.540   3.590
 2560SOL    HW2 8580   4.982   3.466   3.735
 2561SOL     OW 8581   3.841   1.345   3.543
 2561SOL    HW1 8582   3.785   1.424   3.519
 2561SOL    HW2 8583   3.810   1.308   3.631
 2562SOL     OW 8584   3.053   5.363   3.857
 2562SOL    HW1 8585   3.125   5.297   3.839
 2562SOL    HW2 8586   2.975   5.345   3.796
 2563SOL     OW 8587   3.640   1.558   5.790
 2563SOL    HW1 8588   3.544   1.583   5.780
 2563SOL    HW2 8589   3.691   1.585   5.709
 2564SOL     OW 8590   1.780   6.436   6.881
 2564SOL    HW1 8591   1.687   6.471   6.891
 2564SOL    HW2 8592   1.841   6.511   6.856
 2565SOL     OW 8593   0.343   0.199   0.269
 2565SOL    HW1 8594   0.341   0.188   0.169
 2565SOL    HW2 8595   0.299   0.285   0.294
 2566SOL     OW 8596   1.829   6.720   1.116
 2566SOL    HW1 8597   1.893   6.795   1.128
 2566SOL    HW2 8598   1.798   6.718   1.021
 2567SOL     OW 8599   1.625   1.455   1.889
 2567SOL    HW1 8600   1.585   1.406   1.967
 2567SOL    HW2 8601   1.649   1.389   1.818
 2568SOL     OW 8602   3.083   0.047   0.842
 2568SOL    HW1 8603   3.149   0.074   0.912
 2568SOL    HW2 8604   3.127   0.048   0.753
 2569SOL     OW 8605   2.031   1.511   2.545
 2569SOL    HW1 8606   2.117   1.518   2.494
 2569SOL    HW2 8607   1.954   1.513   2.481
 2570SOL     OW 8608   4.309   6.267   6.437
 2570SOL    HW1 8609   4.359   6.180   6.443
 2570SOL    HW2 8610   4.371   6.342   6.459
 2571SOL     OW 8611   3.558   3.223   4.808
 2571SOL    HW1 8612   3.634   3.258   4.862
 2571SOL    HW2 8613   3.477   3.213   4.866
 2572SOL     OW 8614   1.923   6.546   0.600
 2572SOL    HW1 8615   1.900   6.530   0.504
 2572SOL    HW2 8616   1.865   6.489   0.658
 2573SOL     OW 8617   6.439   0.960   2.498
 2573SOL    HW1 8618   6.445   0.981   2.400
 2573SOL    HW2 8619   6.531   0.959   2.538
 2574SOL     OW 8620   5.892   3.550   0.267
 2574SOL    HW1 8621   5.795   3.571   0.259
 2574SOL    HW2 8622   5.938   3.621   0.321
 2575SOL     OW 8623   5.117   3.388   1.792
 2575SOL    HW1 8624   5.147   3.425   1.880
 2575SOL    HW2 8625   5.144   3.292   1.786
 2576SOL     OW 8626   3.761   6.903   3.700
 2576SOL    HW1 8627   3.792   6.843   3.626
 2576SOL    HW2 8628   3.820   6.983   3.705
 2577SOL     OW 8629   5.285   0.514   3.384
 2577SOL    HW1 8630   5.208   0.559   3.429
 2577SOL    HW2 8631   5.286   0.417   3.410
 2578SOL     OW 8632   4.553   2.765   5.512
 2578SOL    HW1 8633   4.630   2.705   5.495
 2578SOL    HW2 8634   4.586   2.858   5.532
 2579SOL     OW 8635   1.256   1.156   5.103
 2579SOL    HW1 8636   1.237   1.200   5.190
 2579SOL    HW2 8637   1.306   1.219   5.043
 2580SOL     OW 8638   1.672   2.951   6.322
 2580SOL    HW1 8639   1.765   2.917   6.335
 2580SOL    HW2 8640   1.661   2.980   6.227
 2581SOL     OW 8641   5.992   4.657   1.878
 2581SOL    HW1 8642   6.079   4.695   1.909
 2581SOL    HW2 8643   5.980   4.565   1.916
 2582SOL     OW 8644   2.201   4.702   2.839
 2582SOL    HW1 8645   2.164   4.784   2.883
 2582SOL    HW2 8646   2.251   4.648   2.907
 2583SOL     OW 8647   1.488   1.183   1.121
 2583SOL    HW1 8648   1.512   1.086   1.115
 2583SOL    HW2 8649   1.571   1.239   1.116
 2584SOL     OW 8650   4.092   5.524   0.174
 2584SOL    HW1 8651   4.162   5.499   0.108
 2584SOL    HW2 8652   4.012   5.465   0.163
 2585SOL     OW 8653   3.649   0.182   0.554
 2585SOL    HW1 8654   3.552   0.199   0.576
 2585SOL    HW2 8655   3.707   0.233   0.617
 2586SOL     OW 8656   5.023   1.613   4.753
 2586SOL    HW1 8657   4.982   1.693   4.797
 2586SOL    HW2 8658   5.123   1.624   4.751
 2587SOL     OW 8659   0.095   1.277   4.588
 2587SOL    HW1 8660   0.173   1.253   4.646
 2587SOL    HW2 8661   0.045   1.194   4.563
 2588SOL     OW 8662   4.732   0.074   0.204
 2588SOL    HW1 8663   4.696   0.039   0.290
 2588SOL    HW2 8664   4.816   0.127   0.223
 2589SOL     OW 8665   0.849   6.623   5.917
 2589SOL    HW1 8666   0.800   6.625   5.829
 2589SOL    HW2 8667   0.784   6.597   5.989
 2590SOL     OW 8668   3.864   6.536   2.768
 2590SOL    HW1 8669   3.802   6.479   2.823
 2590SOL    HW2 8670   3.870   6.500   2.676
 2591SOL     OW 8671   5.684   6.139   2.727
 2591SOL    HW1 8672   5.710   6.121   2.822
 2591SOL    HW2 8673   5.725   6.070   2.667
 2592SOL     OW 8674   2.356   6.693   1.437
 2592SOL    HW1 8675   2.447   6.734   1.431
 2592SOL    HW2 8676   2.301   6.722   1.358
 2593SOL     OW 8677   3.430   6.431   2.359
 2593SOL    HW1 8678   3.436   6.356   2.293
 2593SOL    HW2 8679   3.448   6.397   2.451
 2594SOL     OW 8680   6.818   6.267   5.814
 2594SOL    HW1 8681   6.824   6.321   5.729
 2594SOL    HW2 8682   6.899   6.283   5.869
 2595SOL     OW 8683   6.637   1.613   6.032
 2595SOL    HW1 8684   6.636   1.673   5.952
 2595SOL    HW2 8685   6.706   1.646   6.097
 2596SOL     OW 8686   3.964   2.179   1.936
 2596SOL    HW1 8687   4.002   2.172   2.028
 2596SOL    HW2 8688   3.866   2.201   1.942
 2597SOL     OW 8689   1.671   4.081   0.310
 2597SOL    HW1 8690   1.733   4.159   0.313
 2597SOL    HW2 8691   1.594   4.097   0.372
 2598SOL     OW 8692   6.316   1.628   4.471
 2598SOL    HW1 8693   6.241   1.601   4.411
 2598SOL    HW2 8694   6.401   1.583   4.441
 2599SOL     OW 8695   3.500   5.821   0.119
 2599SOL    HW1 8696   3.589   5.780   0.137
 2599SOL    HW2 8697   3.433   5.749   0.103
 2600SOL     OW 8698   4.931   3.700   4.739
 2600SOL    HW1 8699   4.890   3.672   4.826
 2600SOL    HW2 8700   5.011   3.756   4.756
 2601SOL     OW 8701   3.452   1.800   6.646
 2601SOL    HW1 8702   3.489   1.862   6.577
 2601SOL    HW2 8703   3.519   1.729   6.668
 2602SOL     OW 8704   6.934   4.732   4.123
 2602SOL    HW1 8705   6.862   4.794   4.153
 2602SOL    HW2 8706   6.972   4.683   4.202
 2603SOL     OW 8707   2.233   2.459   1.583
 2603SOL    HW1 8708   2.317   2.495   1.625
 2603SOL    HW2 8709   2.209   2.516   1.504
 2604SOL     OW 8710   5.124   1.374   2.746
 2604SOL    HW1 8711   5.089   1.443   2.682
 2604SOL    HW2 8712   5.197   1.415   2.801
 2605SOL     OW 8713   3.642   5.161   3.742
 2605SOL    HW1 8714   3.704   5.191   3.669
 2605SOL    HW2 8715   3.566   5.226   3.751
 2606SOL     OW 8716   6.267   4.359   0.459
 2606SOL    HW1 8717   6.291   4.358   0.362
 2606SOL    HW2 8718   6.313   4.435   0.504
 2607SOL     OW 8719   0.604   1.916   6.095
 2607SOL    HW1 8720   0.610   2.015   6.101
 2607SOL    HW2 8721   0.603   1.877   6.187
 2608SOL     OW 8722   3.915   5.998   2.618
 2608SOL    HW1 8723   3.920   5.932   2.694
 2608SOL    HW2 8724   3.827   5.989   2.572
 2609SOL     OW 8725   0.152   2.587   1.339
 2609SOL    HW1 8726   0.222   2.623   1.278
 2609SOL    HW2 8727   0.185   2.590   1.433
 2610SOL     OW 8728   6.640   5.469   3.957
 2610SOL    HW1 8729   6.739   5.478   3.969
 2610SOL    HW2 8730   6.607   5.543   3.899
 2611SOL     OW 8731   5.860   6.568   0.905
 2611SOL    HW1 8732   5.945   6.545   0.951
 2611SOL    HW2 8733   5.854   6.517   0.819
 2612SOL     OW 8734   0.075   6.679   5.753
 2612SOL    HW1 8735   0.051   6.646   5.844
 2612SOL    HW2 8736   0.036   6.618   5.684
 2613SOL     OW 8737   2.844   6.378   1.550
 2613SOL    HW1 8738   2.758   6.380   1.498
 2613SOL    HW2 8739   2.901   6.303   1.518
 2614SOL     OW 8740   6.648   6.489   6.136
 2614SOL    HW1 8741   6.669   6.582   6.166
 2614SOL    HW2 8742   6.688   6.473   6.046
 2615SOL     OW 8743   5.759   4.572   2.907
 2615SOL    HW1 8744   5.773   4.525   2.994
 2615SOL    HW2 8745   5.815   4.655   2.904
 2616SOL     OW 8746   3.874   3.479   4.190
 2616SOL    HW1 8747   3.807   3.544   4.154
 2616SOL    HW2 8748   3.830   3.389   4.200
 2617SOL     OW 8749   3.248   6.448   1.085
 2617SOL    HW1 8750   3.263   6.394   1.168
 2617SOL    HW2 8751   3.157   6.489   1.088
 2618SOL     OW 8752   0.668   6.566   3.824
 2618SOL    HW1 8753   0.620   6.563   3.737
 2618SOL    HW2 8754   0.608   6.533   3.897
 2619SOL     OW 8755   2.898   1.390   3.359
 2619SOL    HW1 8756   2.926   1.304   3.315
 2619SOL    HW2 8757   2.970   1.421   3.421
 2620SOL     OW 8758   0.807   5.777   3.210
 2620SOL    HW1 8759   0.794   5.745   3.304
 2620SOL    HW2 8760   0.843   5.702   3.154
 2621SOL     OW 8761   2.106   6.169   3.294
 2621SOL    HW1 8762   2.185   6.182   3.234
 2621SOL    HW2 8763   2.025   6.152   3.238
 2622SOL     OW 8764   2.477   1.926   6.408
 2622SOL    HW1 8765   2.494   1.913   6.506
 2622SOL    HW2 8766   2.384   1.896   6.386
 2623SOL     OW 8767   3.407   1.692   4.926
 2623SOL    HW1 8768   3.366   1.720   4.839
 2623SOL    HW2 8769   3.502   1.722   4.929
 2624SOL     OW 8770   6.884   3.200   4.161
 2624SOL    HW1 8771   6.785   3.186   4.159
 2624SOL    HW2 8772   6.913   3.242   4.075
 2625SOL     OW 8773   2.355   3.019   5.653
 2625SOL    HW1 8774   2.445   2.981   5.633
 2625SOL    HW2 8775   2.364   3.116   5.676
 2626SOL     OW 8776   0.637   0.363   4.423
 2626SOL    HW1 8777   0.608   0.459   4.425
 2626SOL    HW2 8778   0.628   0.326   4.331
 2627SOL     OW 8779   0.600   0.661   4.773
 2627SOL    HW1 8780   0.644   0.743   4.810
 2627SOL    HW2 8781   0.626   0.582   4.828
 2628SOL     OW 8782   3.222   5.790   6.584
 2628SOL    HW1 8783   3.143   5.775   6.524
 2628SOL    HW2 8784   3.224   5.719   6.655
 2629SOL     OW 8785   3.185   4.065   2.044
 2629SOL    HW1 8786   3.280   4.074   2.012
 2629SOL    HW2 8787   3.165   4.139   2.109
 2630SOL     OW 8788   3.188   1.585   3.202
 2630SOL    HW1 8789   3.273   1.627   3.169
 2630SOL    HW2 8790   3.144   1.646   3.267
 2631SOL     OW 8791   4.861   0.581   4.373
 2631SOL    HW1 8792   4.830   0.509   4.436
 2631SOL    HW2 8793   4.959   0.573   4.360
 2632SOL     OW 8794   2.724   1.903   6.304
 2632SOL    HW1 8795   2.793   1.861   6.364
 2632SOL    HW2 8796   2.635   1.863   6.324
 2633SOL     OW 8797   6.404   2.201   5.964
 2633SOL    HW1 8798   6.326   2.163   6.013
 2633SOL    HW2 8799   6.422   2.294   5.997
 2634SOL     OW 8800   2.066   4.328   2.818
 2634SOL    HW1 8801   2.044   4.412   2.767
 2634SOL    HW2 8802   2.030   4.335   2.911
 2635SOL     OW 8803   5.840   6.129   4.586
 2635SOL    HW1 8804   5.833   6.076   4.670
 2635SOL    HW2 8805   5.932   6.168   4.579
 2636SOL     OW 8806   4.501   0.492   6.051
 2636SOL    HW1 8807   4.588   0.452   6.021
 2636SOL    HW2 8808   4.431   0.421   6.054
 2637SOL     OW 8809   6.517   1.223   4.046
 2637SOL    HW1 8810   6.467   1.310   4.043
 2637SOL    HW2 8811   6.606   1.233   4.002
 2638SOL     OW 8812   0.135   6.838   2.981
 2638SOL    HW1 8813   0.075   6.818   2.904
 2638SOL    HW2 8814   0.230   6.843   2.949
 2639SOL     OW 8815   0.354   0.334   2.104
 2639SOL    HW1 8816   0.344   0.294   2.195
 2639SOL    HW2 8817   0.282   0.402   2.090
 2640SOL     OW 8818   6.842   6.033   5.134
 2640SOL    HW1 8819   6.752   6.010   5.096
 2640SOL    HW2 8820   6.864   5.969   5.208
 2641SOL     OW 8821   5.298   2.975   2.241
 2641SOL    HW1 8822   5.349   2.889   2.235
 2641SOL    HW2 8823   5.200   2.956   2.233
 2642SOL     OW 8824   5.236   6.799   4.536
 2642SOL    HW1 8825   5.240   6.816   4.437
 2642SOL    HW2 8826   5.264   6.704   4.554
 2643SOL     OW 8827   1.699   4.672   3.280
 2643SOL    HW1 8828   1.745   4.686   3.192
 2643SOL    HW2 8829   1.604   4.646   3.264
 2644SOL     OW 8830   6.462   4.644   5.504
 2644SOL    HW1 8831   6.480   4.594   5.588
 2644SOL    HW2 8832   6.405   4.589   5.443
 2645SOL     OW 8833   4.509   6.240   4.144
 2645SOL    HW1 8834   4.509   6.245   4.244
 2645SOL    HW2 8835   4.492   6.146   4.116
 2646SOL     OW 8836   6.054   6.706   6.402
 2646SOL    HW1 8837   6.150   6.696   6.427
 2646SOL    HW2 8838   6.002   6.630   6.441
 2647SOL     OW 8839   5.619   0.275   1.108
 2647SOL    HW1 8840   5.714   0.288   1.138
 2647SOL    HW2 8841   5.572   0.212   1.169
 2648SOL     OW 8842   0.274   0.467   3.911
 2648SOL    HW1 8843   0.307   0.555   3.947
 2648SOL    HW2 8844   0.241   0.410   3.986
 2649SOL     OW 8845   4.839   2.716   5.958
 2649SOL    HW1 8846   4.867   2.627   5.923
 2649SOL    HW2 8847   4.827   2.780   5.882
 2650SOL     OW 8848   0.698   3.353   3.837
 2650SOL    HW1 8849   0.713   3.256   3.817
 2650SOL    HW2 8850   0.712   3.407   3.754
 2651SOL     OW 8851   0.272   1.896   0.079
 2651SOL    HW1 8852   0.359   1.847   0.072
 2651SOL    HW2 8853   0.197   1.831   0.069
 2652SOL     OW 8854   3.012   3.255   3.885
 2652SOL    HW1 8855   2.963   3.339   3.907
 2652SOL    HW2 8856   3.003   3.190   3.960
 2653SOL     OW 8857   5.016   6.757   5.253
 2653SOL    HW1 8858   4.930   6.742   5.205
 2653SOL    HW2 8859   5.019   6.849   5.291
 2654SOL     OW 8860   4.548   3.891   1.208
 2654SOL    HW1 8861   4.600   3.971   1.238
 2654SOL    HW2 8862   4.502   3.849   1.287
 2655SOL     OW 8863   5.517   5.072   4.644
 2655SOL    HW1 8864   5.491   5.027   4.730
 2655SOL    HW2 8865   5.491   5.013   4.567
 2656SOL     OW 8866   4.212   5.162   4.739
 2656SOL    HW1 8867   4.146   5.087   4.741
 2656SOL    HW2 8868   4.164   5.249   4.755
 2657SOL     OW 8869   2.398   4.302   6.402
 2657SOL    HW1 8870   2.386   4.313   6.304
 2657SOL    HW2 8871   2.312   4.273   6.444
 2658SOL     OW 8872   4.799   3.840   0.428
 2658SOL    HW1 8873   4.891   3.876   0.417
 2658SOL    HW2 8874   4.734   3.901   0.383
 2659SOL     OW 8875   6.413   2.516   4.426
 2659SOL    HW1 8876   6.345   2.446   4.450
 2659SOL    HW2 8877   6.398   2.598   4.481
 2660SOL     OW 8878   0.616   1.112   1.384
 2660SOL    HW1 8879   0.643   1.104   1.480
 2660SOL    HW2 8880   0.658   1.038   1.332
 2661SOL     OW 8881   2.295   6.681   1.694
 2661SOL    HW1 8882   2.383   6.665   1.739
 2661SOL    HW2 8883   2.303   6.664   1.596
 2662SOL     OW 8884   4.576   0.457   5.498
 2662SOL    HW1 8885   4.491   0.483   5.452
 2662SOL    HW2 8886   4.554   0.411   5.584
 2663SOL     OW 8887   2.687   3.799   1.385
 2663SOL    HW1 8888   2.625   3.726   1.414
 2663SOL    HW2 8889   2.713   3.854   1.465
 2664SOL     OW 8890   3.909   4.031   4.619
 2664SOL    HW1 8891   3.900   4.098   4.693
 2664SOL    HW2 8892   3.821   3.988   4.602
 2665SOL     OW 8893   2.645   2.140   5.196
 2665SOL    HW1 8894   2.615   2.070   5.261
 2665SOL    HW2 8895   2.610   2.229   5.224
 2666SOL     OW 8896   4.445   3.790   1.663
 2666SOL    HW1 8897   4.489   3.877   1.685
 2666SOL    HW2 8898   4.350   3.791   1.695
 2667SOL     OW 8899   1.705   6.010   4.382
 2667SOL    HW1 8900   1.701   6.017   4.283
 2667SOL    HW2 8901   1.613   6.014   4.420
 2668SOL     OW 8902   6.761   3.232   3.090
 2668SOL    HW1 8903   6.697   3.282   3.033
 2668SOL    HW2 8904   6.756   3.134   3.069
 2669SOL     OW 8905   3.091   4.743   5.194
 2669SOL    HW1 8906   3.085   4.795   5.109
 2669SOL    HW2 8907   3.021   4.671   5.194
 2670SOL     OW 8908   5.583   1.792   6.362
 2670SOL    HW1 8909   5.597   1.891   6.373
 2670SOL    HW2 8910   5.552   1.773   6.269
 2671SOL     OW 8911   3.106   5.085   6.970
 2671SOL    HW1 8912   3.159   5.149   6.914
 2671SOL    HW2 8913   3.146   5.080   0.045
 2672SOL     OW 8914   0.053   5.456   6.850
 2672SOL    HW1 8915   0.050   5.362   6.815
 2672SOL    HW2 8916   0.074   5.454   6.948
 2673SOL     OW 8917   6.013   1.891   3.314
 2673SOL    HW1 8918   5.939   1.949   3.279
 2673SOL    HW2 8919   6.101   1.923   3.278
 2674SOL     OW 8920   2.153   3.674   4.345
 2674SOL    HW1 8921   2.067   3.648   4.389
 2674SOL    HW2 8922   2.141   3.762   4.298
 2675SOL     OW 8923   0.037   5.279   4.445
 2675SOL    HW1 8924   0.072   5.328   4.525
 2675SOL    HW2 8925   0.007   5.188   4.473
 2676SOL     OW 8926   4.372   1.251   1.869
 2676SOL    HW1 8927   4.450   1.201   1.907
 2676SOL    HW2 8928   4.312   1.281   1.942
 2677SOL     OW 8929   3.061   4.653   0.275
 2677SOL    HW1 8930   3.087   4.701   0.192
 2677SOL    HW2 8931   3.064   4.554   0.259
 2678SOL     OW 8932   0.140   4.302   1.141
 2678SOL    HW1 8933   0.083   4.354   1.077
 2678SOL    HW2 8934   0.081   4.261   1.211
 2679SOL     OW 8935   3.699   4.945   0.956
 2679SOL    HW1 8936   3.764   4.906   0.891
 2679SOL    HW2 8937   3.749   4.990   1.030
 2680SOL     OW 8938   1.145   1.690   1.324
 2680SOL    HW1 8939   1.238   1.724   1.327
 2680SOL    HW2 8940   1.119   1.672   1.229
 2681SOL     OW 8941   1.558   2.375   4.397
 2681SOL    HW1 8942   1.602   2.369   4.486
 2681SOL    HW2 8943   1.590   2.458   4.350
 2682SOL     OW 8944   5.139   3.678   2.751
 2682SOL    HW1 8945   5.114   3.770   2.720
 2682SOL    HW2 8946   5.209   3.640   2.690
 2683SOL     OW 8947   1.188   4.101   0.258
 2683SOL    HW1 8948   1.149   4.174   0.315
 2683SOL    HW2 8949   1.275   4.131   0.220
 2684SOL     OW 8950   4.479   5.422   2.378
 2684SOL    HW1 8951   4.443   5.444   2.469
 2684SOL    HW2 8952   4.477   5.503   2.320
 2685SOL     OW 8953   6.572   5.805   6.290
 2685SOL    HW1 8954   6.547   5.843   6.201
 2685SOL    HW2 8955   6.662   5.764   6.285
 2686SOL     OW 8956   1.629   1.740   5.745
 2686SOL    HW1 8957   1.602   1.828   5.706
 2686SOL    HW2 8958   1.554   1.675   5.736
 2687SOL     OW 8959   4.587   4.382   2.979
 2687SOL    HW1 8960   4.598   4.403   2.882
 2687SOL    HW2 8961   4.650   4.308   3.005
 2688SOL     OW 8962   4.853   5.391   6.744
 2688SOL    HW1 8963   4.756   5.372   6.731
 2688SOL    HW2 8964   4.907   5.333   6.683
 2689SOL     OW 8965   2.462   1.953   3.269
 2689SOL    HW1 8966   2.477   1.859   3.238
 2689SOL    HW2 8967   2.486   1.962   3.365
 2690SOL     OW 8968   2.863   3.437   4.004
 2690SOL    HW1 8969   2.893   3.467   4.094
 2690SOL    HW2 8970   2.885   3.508   3.936
 2691SOL     OW 8971   0.934   5.706   2.377
 2691SOL    HW1 8972   1.017   5.724   2.429
 2691SOL    HW2 8973   0.934   5.760   2.293
 2692SOL     OW 8974   4.367   4.800   3.741
 2692SOL    HW1 8975   4.340   4.779   3.835
 2692SOL    HW2 8976   4.448   4.746   3.717
 2693SOL     OW 8977   1.995   4.286   3.080
 2693SOL    HW1 8978   1.896   4.279   3.094
 2693SOL    HW2 8979   2.040   4.204   3.115
 2694SOL     OW 8980   3.693   0.180   2.711
 2694SOL    HW1 8981   3.598   0.195   2.736
 2694SOL    HW2 8982   3.751   0.247   2.756
 2695SOL     OW 8983   5.484   0.969   2.737
 2695SOL    HW1 8984   5.486   0.872   2.761
 2695SOL    HW2 8985   5.466   0.979   2.639
 2696SOL     OW 8986   3.711   3.867   5.002
 2696SOL    HW1 8987   3.742   3.829   4.915
 2696SOL    HW2 8988   3.782   3.925   5.041
 2697SOL     OW 8989   4.230   1.234   3.363
 2697SOL    HW1 8990   4.190   1.158   3.416
 2697SOL    HW2 8991   4.191   1.320   3.394
 2698SOL     OW 8992   2.158   5.720   0.496
 2698SOL    HW1 8993   2.075   5.687   0.452
 2698SOL    HW2 8994   2.238   5.684   0.448
 2699SOL     OW 8995   3.617   6.067   0.141
 2699SOL    HW1 8996   3.591   5.973   0.120
 2699SOL    HW2 8997   3.537   6.118   0.171
 2700SOL     OW 8998   1.979   4.154   1.290
 2700SOL    HW1 8999   2.068   4.153   1.335
 2700SOL    HW2 9000   1.959   4.063   1.253
 2701SOL     OW 9001   2.858   0.354   6.488
 2701SOL    HW1 9002   2.794   0.330   6.561
 2701SOL    HW2 9003   2.808   0.380   6.406
 2702SOL     OW 9004   0.110   2.596   2.753
 2702SOL    HW1 9005   0.207   2.572   2.758
 2702SOL    HW2 9006   0.059   2.539   2.818
 2703SOL     OW 9007   2.336   0.626   2.323
 2703SOL    HW1 9008   2.375   0.665   2.407
 2703SOL    HW2 9009   2.403   0.632   2.249
 2704SOL     OW 9010   0.335   5.807   1.029
 2704SOL    HW1 9011   0.259   5.831   1.090
 2704SOL    HW2 9012   0.415   5.862   1.051
 2705SOL     OW 9013   1.563   5.474   4.768
 2705SOL    HW1 9014   1.593   5.379   4.775
 2705SOL    HW2 9015   1.629   5.533   4.813
 2706SOL     OW 9016   0.472   0.709   0.822
 2706SOL    HW1 9017   0.550   0.646   0.827
 2706SOL    HW2 9018   0.471   0.768   0.903
 2707SOL     OW 9019   1.952   0.779   5.121
 2707SOL    HW1 9020   1.880   0.847   5.104
 2707SOL    HW2 9021   2.014   0.813   5.192
 2708SOL     OW 9022   1.476   1.881   1.228
 2708SOL    HW1 9023   1.486   1.882   1.128
 2708SOL    HW2 9024   1.548   1.936   1.269
 2709SOL     OW 9025   5.656   6.679   0.591
 2709SOL    HW1 9026   5.595   6.747   0.630
 2709SOL    HW2 9027   5.667   6.696   0.493
 2710SOL     OW 9028   0.585   3.206   2.596
 2710SOL    HW1 9029   0.642   3.252   2.664
 2710SOL    HW2 9030   0.489   3.213   2.622
 2711SOL     OW 9031   2.737   1.228   3.181
 2711SOL    HW1 9032   2.719   1.325   3.162
 2711SOL    HW2 9033   2.693   1.171   3.112
 2712SOL     OW 9034   3.269   5.330   1.211
 2712SOL    HW1 9035   3.176   5.293   1.219
 2712SOL    HW2 9036   3.329   5.284   1.277
 2713SOL     OW 9037   1.903   2.562   5.082
 2713SOL    HW1 9038   1.912   2.549   4.983
 2713SOL    HW2 9039   1.923   2.475   5.128
 2714SOL     OW 9040   4.796   2.042   6.627
 2714SOL    HW1 9041   4.715   2.089   6.592
 2714SOL    HW2 9042   4.782   2.017   6.723
 2715SOL     OW 9043   5.564   0.802   0.291
 2715SOL    HW1 9044   5.556   0.703   0.281
 2715SOL    HW2 9045   5.585   0.825   0.386
 2716SOL     OW 9046   5.198   5.036   2.760
 2716SOL    HW1 9047   5.136   5.017   2.684
 2716SOL    HW2 9048   5.268   4.965   2.764
 2717SOL     OW 9049   1.638   5.106   2.021
 2717SOL    HW1 9050   1.563   5.145   2.074
 2717SOL    HW2 9051   1.613   5.105   1.924
 2718SOL     OW 9052   1.917   3.821   5.003
 2718SOL    HW1 9053   2.001   3.834   5.057
 2718SOL    HW2 9054   1.859   3.902   5.012
 2719SOL     OW 9055   5.829   5.475   1.576
 2719SOL    HW1 9056   5.845   5.388   1.623
 2719SOL    HW2 9057   5.916   5.513   1.545
 2720SOL     OW 9058   1.716   5.917   3.010
 2720SOL    HW1 9059   1.797   5.919   3.069
 2720SOL    HW2 9060   1.701   6.008   2.971
 2721SOL     OW 9061   3.507   0.566   3.994
 2721SOL    HW1 9062   3.431   0.597   3.936
 2721SOL    HW2 9063   3.569   0.510   3.940
 2722SOL     OW 9064   6.121   5.417   2.108
 2722SOL    HW1 9065   6.204   5.467   2.081
 2722SOL    HW2 9066   6.116   5.411   2.207
 2723SOL     OW 9067   1.328   6.729   5.930
 2723SOL    HW1 9068   1.323   6.789   5.850
 2723SOL    HW2 9069   1.409   6.751   5.984
 2724SOL     OW 9070   2.615   6.734   6.430
 2724SOL    HW1 9071   2.673   6.665   6.386
 2724SOL    HW2 9072   2.672   6.808   6.465
 2725SOL     OW 9073   6.252   4.893   3.958
 2725SOL    HW1 9074   6.171   4.920   3.906
 2725SOL    HW2 9075   6.323   4.862   3.896
 2726SOL     OW 9076   6.911   3.998   0.912
 2726SOL    HW1 9077   6.866   4.063   0.973
 2726SOL    HW2 9078   6.958   3.928   0.965
 2727SOL     OW 9079   0.613   4.976   3.193
 2727SOL    HW1 9080   0.668   4.893   3.176
 2727SOL    HW2 9081   0.516   4.954   3.182
 2728SOL     OW 9082   3.648   0.091   5.669
 2728SOL    HW1 9083   3.746   0.096   5.651
 2728SOL    HW2 9084   3.600   0.157   5.611
 2729SOL     OW 9085   6.050   5.809   1.070
 2729SOL    HW1 9086   5.966   5.772   1.109
 2729SOL    HW2 9087   6.050   5.795   0.971
 2730SOL     OW 9088   1.111   5.438   1.816
 2730SOL    HW1 9089   1.043   5.477   1.753
 2730SOL    HW2 9090   1.088   5.464   1.910
 2731SOL     OW 9091   3.995   3.312   1.616
 2731SOL    HW1 9092   3.924   3.300   1.547
 2731SOL    HW2 9093   3.955   3.351   1.699
 2732SOL     OW 9094   5.216   3.544   1.986
 2732SOL    HW1 9095   5.308   3.583   1.984
 2732SOL    HW2 9096   5.148   3.618   1.987
 2733SOL     OW 9097   0.029   0.123   5.107
 2733SOL    HW1 9098   6.964   0.156   5.059
 2733SOL    HW2 9099   0.103   0.109   5.041
 2734SOL     OW 9100   2.370   5.616   2.167
 2734SOL    HW1 9101   2.401   5.567   2.249
 2734SOL    HW2 9102   2.303   5.560   2.118
 2735SOL     OW 9103   0.748   3.803   2.872
 2735SOL    HW1 9104   0.657   3.764   2.861
 2735SOL    HW2 9105   0.740   3.893   2.916
 2736SOL     OW 9106   4.794   0.347   4.524
 2736SOL    HW1 9107   4.814   0.376   4.617
 2736SOL    HW2 9108   4.828   0.254   4.510
 2737SOL     OW 9109   3.312   3.458   5.441
 2737SOL    HW1 9110   3.396   3.499   5.477
 2737SOL    HW2 9111   3.329   3.420   5.350
 2738SOL     OW 9112   5.249   5.087   4.203
 2738SOL    HW1 9113   5.326   5.115   4.146
 2738SOL    HW2 9114   5.234   4.988   4.193
 2739SOL     OW 9115   6.583   5.251   6.900
 2739SOL    HW1 9116   6.636   5.310   6.839
 2739SOL    HW2 9117   6.628   5.162   6.907
 2740SOL     OW 9118   6.499   3.997   2.565
 2740SOL    HW1 9119   6.488   3.991   2.466
 2740SOL    HW2 9120   6.556   4.077   2.587
 2741SOL     OW 9121   6.644   0.659   5.688
 2741SOL    HW1 9122   6.650   0.570   5.644
 2741SOL    HW2 9123   6.690   0.655   5.777
 2742SOL     OW 9124   1.679   4.704   6.965
 2742SOL    HW1 9125   1.714   4.787   6.921
 2742SOL    HW2 9126   1.589   4.723   7.005
 2743SOL     OW 9127   6.371   5.266   1.815
 2743SOL    HW1 9128   6.403   5.204   1.887
 2743SOL    HW2 9129   6.272   5.278   1.825
 2744SOL     OW 9130   4.527   1.935   6.863
 2744SOL    HW1 9131   4.477   1.906   6.945
 2744SOL    HW2 9132   4.465   1.936   6.785
 2745SOL     OW 9133   1.188   6.476   6.879
 2745SOL    HW1 9134   1.249   6.491   6.957
 2745SOL    HW2 9135   1.146   6.385   6.887
 2746SOL     OW 9136   2.483   1.563   3.996
 2746SOL    HW1 9137   2.533   1.647   4.018
 2746SOL    HW2 9138   2.547   1.487   3.989
 2747SOL     OW 9139   5.261   3.314   5.394
 2747SOL    HW1 9140   5.176   3.354   5.429
 2747SOL    HW2 9141   5.338   3.373   5.419
 2748SOL     OW 9142   4.069   1.858   1.046
 2748SOL    HW1 9143   4.093   1.909   1.128
 2748SOL    HW2 9144   4.149   1.852   0.986
 2749SOL     OW 9145   5.920   4.689   4.088
 2749SOL    HW1 9146   5.866   4.692   4.172
 2749SOL    HW2 9147   5.915   4.598   4.048
 2750SOL     OW 9148   0.652   5.231   1.595
 2750SOL    HW1 9149   0.637   5.181   1.680
 2750SOL    HW2 9150   0.675   5.326   1.615
 2751SOL     OW 9151   0.994   6.473   0.461
 2751SOL    HW1 9152   1.022   6.405   0.393
 2751SOL    HW2 9153   0.931   6.538   0.418
 2752SOL     OW 9154   4.983   4.946   5.302
 2752SOL    HW1 9155   4.938   5.024   5.258
 2752SOL    HW2 9156   5.075   4.935   5.264
 2753SOL     OW 9157   1.475   0.369   6.189
 2753SOL    HW1 9158   1.424   0.408   6.265
 2753SOL    HW2 9159   1.413   0.322   6.127
 2754SOL     OW 9160   6.429   0.815   4.200
 2754SOL    HW1 9161   6.351   0.837   4.258
 2754SOL    HW2 9162   6.489   0.895   4.195
 2755SOL     OW 9163   3.121   7.009   3.190
 2755SOL    HW1 9164   3.053   6.965   3.248
 2755SOL    HW2 9165   3.212   6.974   3.212
 2756SOL     OW 9166   6.360   3.875   5.065
 2756SOL    HW1 9167   6.451   3.849   5.032
 2756SOL    HW2 9168   6.298   3.797   5.055
 2757SOL     OW 9169   2.380   1.271   6.616
 2757SOL    HW1 9170   2.293   1.276   6.664
 2757SOL    HW2 9171   2.406   1.175   6.605
 2758SOL     OW 9172   5.085   6.089   3.643
 2758SOL    HW1 9173   5.136   6.124   3.721
 2758SOL    HW2 9174   4.998   6.138   3.635
 2759SOL     OW 9175   4.496   5.498   5.512
 2759SOL    HW1 9176   4.422   5.552   5.473
 2759SOL    HW2 9177   4.458   5.421   5.564
 2760SOL     OW 9178   6.900   5.091   2.764
 2760SOL    HW1 9179   6.823   5.117   2.706
 2760SOL    HW2 9180   6.910   5.157   2.838
 2761SOL     OW 9181   1.690   4.350   4.253
 2761SOL    HW1 9182   1.677   4.443   4.289
 2761SOL    HW2 9183   1.610   4.295   4.272
 2762SOL     OW 9184   1.635   1.954   6.713
 2762SOL    HW1 9185   1.681   1.871   6.681
 2762SOL    HW2 9186   1.691   1.999   6.783
 2763SOL     OW 9187   4.831   2.143   5.298
 2763SOL    HW1 9188   4.784   2.058   5.276
 2763SOL    HW2 9189   4.927   2.123   5.321
 2764SOL     OW 9190   0.509   5.960   2.383
 2764SOL    HW1 9191   0.472   5.961   2.290
 2764SOL    HW2 9192   0.544   5.869   2.404
 2765SOL     OW 9193   6.972   0.410   0.435
 2765SOL    HW1 9194   7.012   0.409   0.344
 2765SOL    HW2 9195   6.873   0.395   0.428
 2766SOL     OW 9196   3.843   1.794   6.886
 2766SOL    HW1 9197   3.781   1.758   6.815
 2766SOL    HW2 9198   3.891   1.719   6.930
 2767SOL     OW 9199   6.274   5.137   6.214
 2767SOL    HW1 9200   6.267   5.111   6.118
 2767SOL    HW2 9201   6.185   5.125   6.258
 2768SOL     OW 9202   4.784   1.227   0.358
 2768SOL    HW1 9203   4.881   1.200   0.352
 2768SOL    HW2 9204   4.773   1.317   0.317
 2769SOL     OW 9205   2.413   4.929   6.422
 2769SOL    HW1 9206   2.478   4.999   6.452
 2769SOL    HW2 9207   2.458   4.839   6.422
 2770SOL     OW 9208   4.050   5.402   5.698
 2770SOL    HW1 9209   3.982   5.476   5.705
 2770SOL    HW2 9210   4.004   5.317   5.673
 2771SOL     OW 9211   5.891   0.936   4.975
 2771SOL    HW1 9212   5.867   0.912   5.069
 2771SOL    HW2 9213   5.990   0.951   4.969
 2772SOL     OW 9214   2.898   1.450   1.442
 2772SOL    HW1 9215   2.812   1.440   1.392
 2772SOL    HW2 9216   2.899   1.539   1.488
 2773SOL     OW 9217   6.962   2.573   4.176
 2773SOL    HW1 9218   6.885   2.556   4.114
 2773SOL    HW2 9219   7.004   2.486   4.202
 2774SOL     OW 9220   5.175   3.268   2.868
 2774SOL    HW1 9221   5.075   3.268   2.860
 2774SOL    HW2 9222   5.215   3.224   2.788
 2775SOL     OW 9223   6.291   2.974   4.097
 2775SOL    HW1 9224   6.202   2.929   4.093
 2775SOL    HW2 9225   6.279   3.072   4.111
 2776SOL     OW 9226   5.307   4.337   5.810
 2776SOL    HW1 9227   5.360   4.259   5.846
 2776SOL    HW2 9228   5.366   4.392   5.751
 2777SOL     OW 9229   2.233   1.387   0.318
 2777SOL    HW1 9230   2.200   1.404   0.225
 2777SOL    HW2 9231   2.310   1.448   0.337
 2778SOL     OW 9232   1.464   6.117   6.138
 2778SOL    HW1 9233   1.530   6.051   6.102
 2778SOL    HW2 9234   1.393   6.068   6.189
 2779SOL     OW 9235   5.393   6.825   1.831
 2779SOL    HW1 9236   5.423   6.803   1.924
 2779SOL    HW2 9237   5.470   6.863   1.780
 2780SOL     OW 9238   6.744   6.750   5.753
 2780SOL    HW1 9239   6.645   6.742   5.737
 2780SOL    HW2 9240   6.789   6.778   5.668
 2781SOL     OW 9241   5.816   0.505   3.298
 2781SOL    HW1 9242   5.725   0.546   3.302
 2781SOL    HW2 9243   5.882   0.568   3.340
 2782SOL     OW 9244   4.542   1.299   5.111
 2782SOL    HW1 9245   4.624   1.314   5.056
 2782SOL    HW2 9246   4.482   1.379   5.104
 2783SOL     OW 9247   6.913   3.770   1.444
 2783SOL    HW1 9248   6.864   3.721   1.371
 2783SOL    HW2 9249   6.849   3.829   1.492
 2784SOL     OW 9250   3.335   1.496   1.947
 2784SOL    HW1 9251   3.251   1.452   1.977
 2784SOL    HW2 9252   3.329   1.595   1.959
 2785SOL     OW 9253   5.118   2.101   0.569
 2785SOL    HW1 9254   5.168   2.018   0.546
 2785SOL    HW2 9255   5.182   2.178   0.575
 2786SOL     OW 9256   6.497   6.598   1.481
 2786SOL    HW1 9257   6.469   6.683   1.435
 2786SOL    HW2 9258   6.434   6.525   1.456
 2787SOL     OW 9259   6.155   6.347   5.466
 2787SOL    HW1 9260   6.101   6.346   5.550
 2787SOL    HW2 9261   6.239   6.295   5.479
 2788SOL     OW 9262   2.970   6.675   6.069
 2788SOL    HW1 9263   2.918   6.590   6.082
 2788SOL    HW2 9264   3.022   6.669   5.984
 2789SOL     OW 9265   1.742   1.805   3.541
 2789SOL    HW1 9266   1.749   1.893   3.493
 2789SOL    HW2 9267   1.646   1.781   3.553
 2790SOL     OW 9268   3.201   5.343   0.931
 2790SOL    HW1 9269   3.241   5.340   1.023
 2790SOL    HW2 9270   3.102   5.344   0.938
 2791SOL     OW 9271   0.661   4.200   2.382
 2791SOL    HW1 9272   0.721   4.121   2.369
 2791SOL    HW2 9273   0.646   4.214   2.480
 2792SOL     OW 9274   2.939   0.914   4.528
 2792SOL    HW1 9275   2.864   0.862   4.486
 2792SOL    HW2 9276   2.903   0.996   4.572
 2793SOL     OW 9277   5.169   3.772   2.231
 2793SOL    HW1 9278   5.088   3.732   2.188
 2793SOL    HW2 9279   5.251   3.743   2.181
 2794SOL     OW 9280   6.593   2.220   6.205
 2794SOL    HW1 9281   6.574   2.141   6.147
 2794SOL    HW2 9282   6.653   2.284   6.155
 2795SOL     OW 9283   0.343   4.144   1.255
 2795SOL    HW1 9284   0.297   4.070   1.304
 2795SOL    HW2 9285   0.274   4.207   1.218
 2796SOL     OW 9286   0.635   5.672   3.838
 2796SOL    HW1 9287   0.735   5.664   3.837
 2796SOL    HW2 9288   0.607   5.721   3.920
 2797SOL     OW 9289   5.449   5.162   5.272
 2797SOL    HW1 9290   5.428   5.104   5.350
 2797SOL    HW2 9291   5.542   5.198   5.282
 2798SOL     OW 9292   5.957   5.908   2.745
 2798SOL    HW1 9293   5.958   5.843   2.821
 2798SOL    HW2 9294   5.869   5.902   2.697
 2799SOL     OW 9295   5.317   6.101   5.730
 2799SOL    HW1 9296   5.269   6.153   5.801
 2799SOL    HW2 9297   5.253   6.037   5.688
 2800SOL     OW 9298   5.504   0.425   6.005
 2800SOL    HW1 9299   5.505   0.456   5.910
 2800SOL    HW2 9300   5.513   0.504   6.066
 2801SOL     OW 9301   1.099   5.414   6.266
 2801SOL    HW1 9302   1.189   5.435   6.228
 2801SOL    HW2 9303   1.028   5.450   6.205
 2802SOL     OW 9304   6.660   6.201   5.445
 2802SOL    HW1 9305   6.707   6.117   5.471
 2802SOL    HW2 9306   6.561   6.188   5.454
 2803SOL     OW 9307   3.264   4.482   5.890
 2803SOL    HW1 9308   3.164   4.486   5.895
 2803SOL    HW2 9309   3.293   4.493   5.795
 2804SOL     OW 9310   0.416   4.117   4.247
 2804SOL    HW1 9311   0.390   4.213   4.236
 2804SOL    HW2 9312   0.497   4.111   4.305
 2805SOL     OW 9313   6.021   4.040   2.911
 2805SOL    HW1 9314   6.047   4.071   2.820
 2805SOL    HW2 9315   6.029   4.116   2.976
 2806SOL     OW 9316   1.764   4.419   6.132
 2806SOL    HW1 9317   1.810   4.352   6.191
 2806SOL    HW2 9318   1.829   4.490   6.105
 2807SOL     OW 9319   4.174   0.297   3.111
 2807SOL    HW1 9320   4.250   0.241   3.144
 2807SOL    HW2 9321   4.090   0.241   3.110
 2808SOL     OW 9322   6.546   5.844   0.521
 2808SOL    HW1 9323   6.519   5.915   0.456
 2808SOL    HW2 9324   6.646   5.845   0.530
 2809SOL     OW 9325   5.373   2.523   1.301
 2809SOL    HW1 9326   5.409   2.609   1.338
 2809SOL    HW2 9327   5.370   2.528   1.202
 2810SOL     OW 9328   2.496   5.448   3.003
 2810SOL    HW1 9329   2.463   5.477   2.913
 2810SOL    HW2 9330   2.427   5.388   3.045
 2811SOL     OW 9331   1.112   1.413   2.836
 2811SOL    HW1 9332   1.094   1.320   2.868
 2811SOL    HW2 9333   1.025   1.461   2.823
 2812SOL     OW 9334   6.101   3.549   0.528
 2812SOL    HW1 9335   6.143   3.469   0.486
 2812SOL    HW2 9336   6.017   3.521   0.576
 2813SOL     OW 9337   0.808   1.700   0.412
 2813SOL    HW1 9338   0.821   1.757   0.493
 2813SOL    HW2 9339   0.761   1.753   0.342
 2814SOL     OW 9340   2.856   4.389   5.679
 2814SOL    HW1 9341   2.883   4.389   5.583
 2814SOL    HW2 9342   2.843   4.483   5.709
 2815SOL     OW 9343   0.156   5.208   6.225
 2815SOL    HW1 9344   0.223   5.134   6.220
 2815SOL    HW2 9345   0.151   5.241   6.319
 2816SOL     OW 9346   6.474   5.690   4.284
 2816SOL    HW1 9347   6.568   5.691   4.317
 2816SOL    HW2 9348   6.416   5.741   4.346
 2817SOL     OW 9349   3.749   1.161   2.877
 2817SOL    HW1 9350   3.695   1.147   2.794
 2817SOL    HW2 9351   3.811   1.239   2.863
 2818SOL     OW 9352   6.814   1.271   2.349
 2818SOL    HW1 9353   6.773   1.201   2.291
 2818SOL    HW2 9354   6.891   1.313   2.301
 2819SOL     OW 9355   1.511   0.523   1.826
 2819SOL    HW1 9356   1.594   0.551   1.874
 2819SOL    HW2 9357   1.477   0.599   1.771
 2820SOL     OW 9358   0.927   2.061   2.341
 2820SOL    HW1 9359   1.013   2.080   2.294
 2820SOL    HW2 9360   0.947   2.030   2.434
 2821SOL     OW 9361   2.735   5.017   6.093
 2821SOL    HW1 9362   2.655   4.976   6.137
 2821SOL    HW2 9363   2.732   4.999   5.995
 2822SOL     OW 9364   4.320   2.221   6.778
 2822SOL    HW1 9365   4.382   2.144   6.764
 2822SOL    HW2 9366   4.327   2.253   6.873
 2823SOL     OW 9367   6.368   0.838   6.986
 2823SOL    HW1 9368   6.283   0.881   6.954
 2823SOL    HW2 9369   6.419   0.902   0.026
 2824SOL     OW 9370   1.554   3.109   5.602
 2824SOL    HW1 9371   1.544   3.022   5.651
 2824SOL    HW2 9372   1.586   3.092   5.509
 2825SOL     OW 9373   5.157   0.724   6.124
 2825SOL    HW1 9374   5.231   0.719   6.191
 2825SOL    HW2 9375   5.078   0.673   6.158
 2826SOL     OW 9376   2.888   3.243   6.482
 2826SOL    HW1 9377   2.828   3.254   6.403
 2826SOL    HW2 9378   2.902   3.145   6.498
 2827SOL     OW 9379   0.610   0.864   6.577
 2827SOL    HW1 9380   0.589   0.807   6.656
 2827SOL    HW2 9381   0.612   0.807   6.495
 2828SOL     OW 9382   1.933   3.544   1.338
 2828SOL    HW1 9383   2.010   3.604   1.358
 2828SOL    HW2 9384   1.924   3.533   1.239
 2829SOL     OW 9385   3.033   3.179   3.356
 2829SOL    HW1 9386   2.968   3.250   3.331
 2829SOL    HW2 9387   2.999   3.130   3.436
 2830SOL     OW 9388   3.477   4.339   5.342
 2830SOL    HW1 9389   3.460   4.268   5.274
 2830SOL    HW2 9390   3.393   4.391   5.358
 2831SOL     OW 9391   0.701   2.833   2.829
 2831SOL    HW1 9392   0.640   2.879   2.765
 2831SOL    HW2 9393   0.654   2.754   2.869
 2832SOL     OW 9394   0.948   2.950   1.783
 2832SOL    HW1 9395   1.030   2.914   1.739
 2832SOL    HW2 9396   0.973   2.992   1.871
 2833SOL     OW 9397   2.586   1.566   1.972
 2833SOL    HW1 9398   2.609   1.638   2.038
 2833SOL    HW2 9399   2.658   1.560   1.903
 2834SOL     OW 9400   4.492   6.420   4.561
 2834SOL    HW1 9401   4.592   6.413   4.564
 2834SOL    HW2 9402   4.466   6.506   4.518
 2835SOL     OW 9403   0.879   6.696   0.299
 2835SOL    HW1 9404   0.825   6.655   0.226
 2835SOL    HW2 9405   0.820   6.751   0.358
 2836SOL     OW 9406   1.828   6.193   1.780
 2836SOL    HW1 9407   1.866   6.205   1.872
 2836SOL    HW2 9408   1.834   6.279   1.730
 2837SOL     OW 9409   5.718   4.396   2.713
 2837SOL    HW1 9410   5.625   4.361   2.725
 2837SOL    HW2 9411   5.737   4.465   2.783
 2838SOL     OW 9412   4.976   3.610   0.529
 2838SOL    HW1 9413   5.070   3.600   0.561
 2838SOL    HW2 9414   4.948   3.705   0.538
 2839SOL     OW 9415   0.455   2.896   2.132
 2839SOL    HW1 9416   0.466   2.906   2.231
 2839SOL    HW2 9417   0.533   2.938   2.086
 2840SOL     OW 9418   1.580   5.654   2.567
 2840SOL    HW1 9419   1.600   5.558   2.548
 2840SOL    HW2 9420   1.511   5.661   2.639
 2841SOL     OW 9421   6.222   2.338   0.236
 2841SOL    HW1 9422   6.259   2.337   0.143
 2841SOL    HW2 9423   6.140   2.282   0.240
 2842SOL     OW 9424   1.190   5.769   4.856
 2842SOL    HW1 9425   1.269   5.829   4.847
 2842SOL    HW2 9426   1.206   5.684   4.808
 2843SOL     OW 9427   2.449   1.403   2.610
 2843SOL    HW1 9428   2.408   1.494   2.607
 2843SOL    HW2 9429   2.542   1.409   2.645
 2844SOL     OW 9430   5.632   5.163   1.478
 2844SOL    HW1 9431   5.553   5.130   1.531
 2844SOL    HW2 9432   5.650   5.099   1.403
 2845SOL     OW 9433   5.443   3.399   2.536
 2845SOL    HW1 9434   5.377   3.468   2.506
 2845SOL    HW2 9435   5.439   3.320   2.475
 2846SOL     OW 9436   2.897   0.737   0.587
 2846SOL    HW1 9437   2.808   0.762   0.549
 2846SOL    HW2 9438   2.884   0.677   0.666
 2847SOL     OW 9439   4.941   3.619   2.131
 2847SOL    HW1 9440   4.884   3.699   2.109
 2847SOL    HW2 9441   4.914   3.542   2.073
 2848SOL     OW 9442   2.557   2.283   5.510
 2848SOL    HW1 9443   2.495   2.254   5.583
 2848SOL    HW2 9444   2.512   2.350   5.453
 2849SOL     OW 9445   3.673   1.289   1.523
 2849SOL    HW1 9446   3.650   1.356   1.453
 2849SOL    HW2 9447   3.616   1.305   1.604
 2850SOL     OW 9448   2.645   6.882   3.371
 2850SOL    HW1 9449   2.654   6.963   3.313
 2850SOL    HW2 9450   2.552   6.845   3.362
 2851SOL     OW 9451   3.854   3.176   6.893
 2851SOL    HW1 9452   3.921   3.105   6.875
 2851SOL    HW2 9453   3.769   3.154   6.845
 2852SOL     OW 9454   5.968   4.378   0.090
 2852SOL    HW1 9455   5.887   4.426   0.056
 2852SOL    HW2 9456   5.967   4.283   0.058
 2853SOL     OW 9457   0.895   3.661   0.246
 2853SOL    HW1 9458   0.887   3.598   0.168
 2853SOL    HW2 9459   0.963   3.625   0.310
 2854SOL     OW 9460   3.238   0.758   6.056
 2854SOL    HW1 9461   3.278   0.675   6.018
 2854SOL    HW2 9462   3.308   0.807   6.108
 2855SOL     OW 9463   0.995   2.944   4.672
 2855SOL    HW1 9464   1.094   2.934   4.667
 2855SOL    HW2 9465   0.953   2.901   4.592
 2856SOL     OW 9466   1.362   2.936   3.984
 2856SOL    HW1 9467   1.428   2.958   3.912
 2856SOL    HW2 9468   1.354   3.013   4.047
 2857SOL     OW 9469   0.261   3.001   0.964
 2857SOL    HW1 9470   0.210   2.927   1.009
 2857SOL    HW2 9471   0.347   3.016   1.013
 2858SOL     OW 9472   5.317   6.540   2.539
 2858SOL    HW1 9473   5.392   6.476   2.557
 2858SOL    HW2 9474   5.306   6.552   2.441
 2859SOL     OW 9475   5.818   6.356   0.362
 2859SOL    HW1 9476   5.845   6.279   0.304
 2859SOL    HW2 9477   5.718   6.363   0.364
 2860SOL     OW 9478   1.559   6.906   2.191
 2860SOL    HW1 9479   1.529   6.995   2.227
 2860SOL    HW2 9480   1.483   6.863   2.142
 2861SOL     OW 9481   3.380   6.225   5.145
 2861SOL    HW1 9482   3.474   6.240   5.116
 2861SOL    HW2 9483   3.373   6.237   5.244
 2862SOL     OW 9484   4.315   2.375   1.940
 2862SOL    HW1 9485   4.402   2.400   1.984
 2862SOL    HW2 9486   4.281   2.291   1.982
 2863SOL     OW 9487   5.039   1.261   6.662
 2863SOL    HW1 9488   5.082   1.235   6.749
 2863SOL    HW2 9489   4.979   1.188   6.632
 2864SOL     OW 9490   4.321   2.805   1.030
 2864SOL    HW1 9491   4.349   2.783   1.124
 2864SOL    HW2 9492   4.289   2.899   1.026
 2865SOL     OW 9493   4.079   6.991   4.126
 2865SOL    HW1 9494   4.044   0.029   4.050
 2865SOL    HW2 9495   4.136   6.917   4.092
 2866SOL     OW 9496   5.849   4.177   0.382
 2866SOL    HW1 9497   5.827   4.194   0.286
 2866SOL    HW2 9498   5.929   4.119   0.388
 2867SOL     OW 9499   5.966   6.241   2.829
 2867SOL    HW1 9500   5.867   6.254   2.824
 2867SOL    HW2 9501   5.999   6.206   2.741
 2868SOL     OW 9502   1.220   1.818   5.452
 2868SOL    HW1 9503   1.133   1.775   5.431
 2868SOL    HW2 9504   1.278   1.753   5.502
 2869SOL     OW 9505   6.301   0.318   3.967
 2869SOL    HW1 9506   6.227   0.380   3.940
 2869SOL    HW2 9507   6.389   0.358   3.942
 2870SOL     OW 9508   0.568   1.852   6.361
 2870SOL    HW1 9509   0.520   1.799   6.431
 2870SOL    HW2 9510   0.663   1.866   6.389
 2871SOL     OW 9511   6.244   0.588   0.069
 2871SOL    HW1 9512   6.150   0.624   0.067
 2871SOL    HW2 9513   6.308   0.665   0.066
 2872SOL     OW 9514   2.483   1.402   0.979
 2872SOL    HW1 9515   2.554   1.343   1.019
 2872SOL    HW2 9516   2.496   1.406   0.880
 2873SOL     OW 9517   6.864   6.577   2.183
 2873SOL    HW1 9518   6.878   6.609   2.276
 2873SOL    HW2 9519   6.949   6.537   2.148
 2874SOL     OW 9520   4.514   6.845   3.064
 2874SOL    HW1 9521   4.487   6.931   3.109
 2874SOL    HW2 9522   4.600   6.813   3.102
 2875SOL     OW 9523   4.194   6.965   2.948
 2875SOL    HW1 9524   4.205   6.887   2.886
 2875SOL    HW2 9525   4.106   6.958   2.995
 2876SOL     OW 9526   1.231   6.356   2.141
 2876SOL    HW1 9527   1.226   6.258   2.119
 2876SOL    HW2 9528   1.324   6.378   2.170
 2877SOL     OW 9529   2.156   0.783   6.538
 2877SOL    HW1 9530   2.184   0.773   6.443
 2877SOL    HW2 9531   2.238   0.788   6.596
 2878SOL     OW 9532   3.094   3.633   4.889
 2878SOL    HW1 9533   3.071   3.581   4.806
 2878SOL    HW2 9534   3.057   3.586   4.969
 2879SOL     OW 9535   4.638   5.106   5.606
 2879SOL    HW1 9536   4.641   5.144   5.513
 2879SOL    HW2 9537   4.551   5.129   5.649
 2880SOL     OW 9538   0.072   1.772   3.517
 2880SOL    HW1 9539   0.155   1.827   3.531
 2880SOL    HW2 9540   0.096   1.689   3.466
 2881SOL     OW 9541   3.721   5.956   6.682
 2881SOL    HW1 9542   3.626   5.986   6.684
 2881SOL    HW2 9543   3.753   5.944   6.776
 2882SOL     OW 9544   6.376   5.934   1.138
 2882SOL    HW1 9545   6.294   5.913   1.086
 2882SOL    HW2 9546   6.450   5.872   1.110
 2883SOL     OW 9547   5.935   6.746   3.582
 2883SOL    HW1 9548   6.018   6.794   3.556
 2883SOL    HW2 9549   5.946   6.648   3.565
 2884SOL     OW 9550   6.944   6.016   2.378
 2884SOL    HW1 9551   0.010   5.966   2.404
 2884SOL    HW2 9552   6.948   6.040   2.281
 2885SOL     OW 9553   1.240   2.540   4.585
 2885SOL    HW1 9554   1.272   2.447   4.604
 2885SOL    HW2 9555   1.140   2.541   4.585
 2886SOL     OW 9556   1.952   4.223   6.587
 2886SOL    HW1 9557   1.868   4.173   6.605
 2886SOL    HW2 9558   1.946   4.314   6.629
 2887SOL     OW 9559   0.180   5.780   4.348
 2887SOL    HW1 9560   0.187   5.869   4.393
 2887SOL    HW2 9561   0.198   5.791   4.250
 2888SOL     OW 9562   0.196   5.054   0.106
 2888SOL    HW1 9563   0.124   5.117   0.134
 2888SOL    HW2 9564   0.245   5.021   0.187
 2889SOL     OW 9565   3.356   6.382   2.794
 2889SOL    HW1 9566   3.322   6.459   2.741
 2889SOL    HW2 9567   3.301   6.373   2.878
 2890SOL     OW 9568   2.031   5.653   0.789
 2890SOL    HW1 9569   2.102   5.582   0.795
 2890SOL    HW2 9570   2.056   5.730   0.847
 2891SOL     OW 9571   1.415   3.119   3.394
 2891SOL    HW1 9572   1.376   3.190   3.334
 2891SOL    HW2 9573   1.349   3.046   3.405
 2892SOL     OW 9574   5.715   3.254   1.257
 2892SOL    HW1 9575   5.650   3.207   1.196
 2892SOL    HW2 9576   5.703   3.220   1.351
 2893SOL     OW 9577   1.548   5.185   4.499
 2893SOL    HW1 9578   1.637   5.191   4.454
 2893SOL    HW2 9579   1.553   5.224   4.590
 2894SOL     OW 9580   1.684   3.734   1.595
 2894SOL    HW1 9581   1.639   3.822   1.608
 2894SOL    HW2 9582   1.759   3.745   1.531
 2895SOL     OW 9583   4.112   0.397   6.359
 2895SOL    HW1 9584   4.123   0.450   6.275
 2895SOL    HW2 9585   4.107   0.459   6.437
 2896SOL     OW 9586   4.173   0.468   5.557
 2896SOL    HW1 9587   4.097   0.511   5.606
 2896SOL    HW2 9588   4.235   0.424   5.622
 2897SOL     OW 9589   4.024   5.323   2.647
 2897SOL    HW1 9590   4.060   5.276   2.567
 2897SOL    HW2 9591   3.926   5.338   2.635
 2898SOL     OW 9592   5.069   4.122   4.116
 2898SOL    HW1 9593   4.999   4.082   4.057
 2898SOL    HW2 9594   5.032   4.135   4.208
 2899SOL     OW 9595   6.326   1.989   0.821
 2899SOL    HW1 9596   6.353   1.913   0.762
 2899SOL    HW2 9597   6.297   2.066   0.764
 2900SOL     OW 9598   4.188   5.012   6.578
 2900SOL    HW1 9599   4.228   5.063   6.654
 2900SOL    HW2 9600   4.095   4.984   6.602
 2901SOL     OW 9601   2.315   4.617   3.645
 2901SOL    HW1 9602   2.373   4.602   3.726
 2901SOL    HW2 9603   2.242   4.549   3.644
 2902SOL     OW 9604   6.690   5.139   3.630
 2902SOL    HW1 9605   6.749   5.069   3.589
 2902SOL    HW2 9606   6.725   5.229   3.608
 2903SOL     OW 9607   4.295   6.324   0.615
 2903SOL    HW1 9608   4.282   6.332   0.516
 2903SOL    HW2 9609   4.389   6.349   0.639
 2904SOL     OW 9610   3.328   5.250   5.069
 2904SOL    HW1 9611   3.314   5.179   5.137
 2904SOL    HW2 9612   3.244   5.264   5.017
 2905SOL     OW 9613   1.598   3.985   4.288
 2905SOL    HW1 9614   1.540   4.065   4.271
 2905SOL    HW2 9615   1.540   3.904   4.300
 2906SOL     OW 9616   5.723   5.871   2.617
 2906SOL    HW1 9617   5.692   5.802   2.682
 2906SOL    HW2 9618   5.704   5.840   2.524
 2907SOL     OW 9619   1.027   1.827   4.077
 2907SOL    HW1 9620   1.097   1.888   4.041
 2907SOL    HW2 9621   0.937   1.870   4.066
 2908SOL     OW 9622   5.231   6.434   3.482
 2908SOL    HW1 9623   5.172   6.493   3.537
 2908SOL    HW2 9624   5.274   6.365   3.540
 2909SOL     OW 9625   2.122   6.605   3.420
 2909SOL    HW1 9626   2.115   6.528   3.483
 2909SOL    HW2 9627   2.037   6.658   3.423
 2910SOL     OW 9628   6.544   0.762   3.728
 2910SOL    HW1 9629   6.464   0.795   3.678
 2910SOL    HW2 9630   6.516   0.725   3.817
 2911SOL     OW 9631   1.918   5.129   3.717
 2911SOL    HW1 9632   1.918   5.187   3.635
 2911SOL    HW2 9633   1.930   5.186   3.798
 2912SOL     OW 9634   6.490   5.999   6.643
 2912SOL    HW1 9635   6.476   5.902   6.659
 2912SOL    HW2 9636   6.471   6.051   6.726
 2913SOL     OW 9637   3.228   4.921   2.143
 2913SOL    HW1 9638   3.320   4.906   2.178
 2913SOL    HW2 9639   3.231   4.931   2.044
 2914SOL     OW 9640   5.699   5.897   0.873
 2914SOL    HW1 9641   5.630   5.916   0.804
 2914SOL    HW2 9642   5.730   5.802   0.865
 2915SOL     OW 9643   3.325   1.723   3.805
 2915SOL    HW1 9644   3.411   1.769   3.827
 2915SOL    HW2 9645   3.272   1.780   3.742
 2916SOL     OW 9646   1.421   5.343   0.319
 2916SOL    HW1 9647   1.479   5.273   0.360
 2916SOL    HW2 9648   1.456   5.368   0.229
 2917SOL     OW 9649   3.280   0.640   4.397
 2917SOL    HW1 9650   3.309   0.600   4.483
 2917SOL    HW2 9651   3.251   0.735   4.412
 2918SOL     OW 9652   5.915   3.599   6.225
 2918SOL    HW1 9653   5.993   3.659   6.244
 2918SOL    HW2 9654   5.929   3.511   6.269
 2919SOL     OW 9655   6.118   0.415   3.484
 2919SOL    HW1 9656   6.088   0.344   3.419
 2919SOL    HW2 9657   6.055   0.416   3.562
 2920SOL     OW 9658   3.565   0.359   1.542
 2920SOL    HW1 9659   3.657   0.321   1.530
 2920SOL    HW2 9660   3.553   0.390   1.636
 2921SOL     OW 9661   0.543   6.898   5.741
 2921SOL    HW1 9662   0.586   6.955   5.810
 2921SOL    HW2 9663   0.599   6.817   5.724
 2922SOL     OW 9664   3.987   6.079   1.813
 2922SOL    HW1 9665   4.057   6.109   1.878
 2922SOL    HW2 9666   3.917   6.150   1.804
 2923SOL     OW 9667   6.831   5.479   4.499
 2923SOL    HW1 9668   6.826   5.434   4.589
 2923SOL    HW2 9669   6.834   5.410   4.427
 2924SOL     OW 9670   0.606   2.142   4.277
 2924SOL    HW1 9671   0.638   2.099   4.192
 2924SOL    HW2 9672   0.506   2.137   4.281
 2925SOL     OW 9673   5.834   1.623   0.334
 2925SOL    HW1 9674   5.807   1.682   0.257
 2925SOL    HW2 9675   5.793   1.533   0.323
 2926SOL     OW 9676   6.379   1.902   6.095
 2926SOL    HW1 9677   6.370   2.001   6.106
 2926SOL    HW2 9678   6.455   1.868   6.149
 2927SOL     OW 9679   1.367   3.539   0.630
 2927SOL    HW1 9680   1.384   3.441   0.631
 2927SOL    HW2 9681   1.366   3.573   0.725
 2928SOL     OW 9682   6.227   1.252   6.967
 2928SOL    HW1 9683   6.237   1.243   6.868
 2928SOL    HW2 9684   6.143   1.300   6.989
 2929SOL     OW 9685   2.214   2.654   5.533
 2929SOL    HW1 9686   2.186   2.708   5.613
 2929SOL    HW2 9687   2.233   2.715   5.456
 2930SOL     OW 9688   5.226   6.305   5.142
 2930SOL    HW1 9689   5.276   6.383   5.178
 2930SOL    HW2 9690   5.289   6.230   5.123
 2931SOL     OW 9691   4.789   4.739   0.038
 2931SOL    HW1 9692   4.851   4.807   7.015
 2931SOL    HW2 9693   4.795   4.741   0.138
 2932SOL     OW 9694   0.387   5.852   1.645
 2932SOL    HW1 9695   0.304   5.890   1.604
 2932SOL    HW2 9696   0.466   5.902   1.612
 2933SOL     OW 9697   0.738   6.260   1.731
 2933SOL    HW1 9698   0.784   6.331   1.677
 2933SOL    HW2 9699   0.640   6.277   1.732
 2934SOL     OW 9700   5.111   2.791   0.722
 2934SOL    HW1 9701   5.026   2.805   0.772
 2934SOL    HW2 9702   5.094   2.735   0.642
 2935SOL     OW 9703   0.270   2.279   6.384
 2935SOL    HW1 9704   0.274   2.296   6.286
 2935SOL    HW2 9705   0.200   2.338   6.425
 2936SOL     OW 9706   3.935   6.373   0.533
 2936SOL    HW1 9707   3.963   6.285   0.572
 2936SOL    HW2 9708   3.836   6.374   0.522
 2937SOL     OW 9709   4.771   5.612   0.962
 2937SOL    HW1 9710   4.764   5.519   0.926
 2937SOL    HW2 9711   4.861   5.625   1.002
 2938SOL     OW 9712   0.012   5.195   0.207
 2938SOL    HW1 9713   6.952   5.256   0.185
 2938SOL    HW2 9714   7.015   5.157   0.299
 2939SOL     OW 9715   1.910   0.642   1.518
 2939SOL    HW1 9716   1.967   0.691   1.451
 2939SOL    HW2 9717   1.814   0.654   1.495
 2940SOL     OW 9718   6.456   5.394   5.165
 2940SOL    HW1 9719   6.385   5.426   5.229
 2940SOL    HW2 9720   6.545   5.427   5.195
 2941SOL     OW 9721   2.458   1.758   2.925
 2941SOL    HW1 9722   2.468   1.717   3.016
 2941SOL    HW2 9723   2.537   1.816   2.906
 2942SOL     OW 9724   3.863   2.729   0.877
 2942SOL    HW1 9725   3.923   2.781   0.817
 2942SOL    HW2 9726   3.768   2.739   0.846
 2943SOL     OW 9727   5.531   4.645   3.811
 2943SOL    HW1 9728   5.560   4.634   3.716
 2943SOL    HW2 9729   5.533   4.556   3.857
 2944SOL     OW 9730   2.740   6.275   3.943
 2944SOL    HW1 9731   2.713   6.354   3.999
 2944SOL    HW2 9732   2.781   6.307   3.858
 2945SOL     OW 9733   4.712   2.570   1.873
 2945SOL    HW1 9734   4.805   2.559   1.837
 2945SOL    HW2 9735   4.655   2.613   1.803
 2946SOL     OW 9736   2.342   4.312   5.737
 2946SOL    HW1 9737   2.410   4.364   5.684
 2946SOL    HW2 9738   2.389   4.243   5.793
 2947SOL     OW 9739   0.114   5.259   0.755
 2947SOL    HW1 9740   0.065   5.318   0.819
 2947SOL    HW2 9741   0.162   5.188   0.806
 2948SOL     OW 9742   6.721   4.290   3.633
 2948SOL    HW1 9743   6.729   4.389   3.643
 2948SOL    HW2 9744   6.804   4.246   3.669
 2949SOL     OW 9745   0.521   5.379   0.061
 2949SOL    HW1 9746   0.465   5.423   0.132
 2949SOL    HW2 9747   0.540   5.445   7.004
 2950SOL     OW 9748   6.066   6.060   3.834
 2950SOL    HW1 9749   6.048   6.085   3.930
 2950SOL    HW2 9750   6.075   5.961   3.827
 2951SOL     OW 9751   5.581   1.837   2.214
 2951SOL    HW1 9752   5.592   1.844   2.115
 2951SOL    HW2 9753   5.585   1.929   2.254
 2952SOL     OW 9754   0.323   6.877   5.219
 2952SOL    HW1 9755   0.357   6.940   5.149
 2952SOL    HW2 9756   0.223   6.876   5.216
 2953SOL     OW 9757   6.944   4.283   3.225
 2953SOL    HW1 9758   6.941   4.224   3.306
 2953SOL    HW2 9759   6.867   4.346   3.227
 2954SOL     OW 9760   0.086   4.575   0.118
 2954SOL    HW1 9761   0.066   4.625   0.202
 2954SOL    HW2 9762   0.184   4.581   0.098
 2955SOL     OW 9763   0.694   4.539   1.315
 2955SOL    HW1 9764   0.674   4.500   1.225
 2955SOL    HW2 9765   0.715   4.465   1.379
 2956SOL     OW 9766   6.489   5.579   3.380
 2956SOL    HW1 9767   6.430   5.502   3.354
 2956SOL    HW2 9768   6.566   5.584   3.317
 2957SOL     OW 9769   4.744   4.365   1.520
 2957SOL    HW1 9770   4.687   4.386   1.600
 2957SOL    HW2 9771   4.695   4.302   1.460
 2958SOL     OW 9772   2.251   4.722   3.402
 2958SOL    HW1 9773   2.299   4.701   3.487
 2958SOL    HW2 9774   2.152   4.719   3.418
 2959SOL     OW 9775   5.524   2.984   2.484
 2959SOL    HW1 9776   5.604   2.925   2.475
 2959SOL    HW2 9777   5.551   3.071   2.526
 2960SOL     OW 9778   3.634   6.668   6.662
 2960SOL    HW1 9779   3.661   6.595   6.725
 2960SOL    HW2 9780   3.652   6.639   6.568
 2961SOL     OW 9781   5.965   4.841   3.157
 2961SOL    HW1 9782   6.021   4.920   3.186
 2961SOL    HW2 9783   6.017   4.757   3.173
 2962SOL     OW 9784   4.808   6.110   3.362
 2962SOL    HW1 9785   4.790   6.179   3.432
 2962SOL    HW2 9786   4.820   6.155   3.273
 2963SOL     OW 9787   0.629   1.264   6.885
 2963SOL    HW1 9788   0.686   1.258   6.803
 2963SOL    HW2 9789   0.623   1.359   6.915
 2964SOL     OW 9790   0.791   1.900   5.895
 2964SOL    HW1 9791   0.759   1.856   5.812
 2964SOL    HW2 9792   0.718   1.900   5.963
 2965SOL     OW 9793   0.645   1.017   4.492
 2965SOL    HW1 9794   0.564   1.000   4.547
 2965SOL    HW2 9795   0.642   0.962   4.409
 2966SOL     OW 9796   4.768   5.499   3.646
 2966SOL    HW1 9797   4.804   5.489   3.739
 2966SOL    HW2 9798   4.798   5.586   3.608
 2967SOL     OW 9799   6.434   0.795   5.253
 2967SOL    HW1 9800   6.437   0.722   5.321
 2967SOL    HW2 9801   6.386   0.874   5.292
 2968SOL     OW 9802   1.053   2.676   0.872
 2968SOL    HW1 9803   0.975   2.630   0.914
 2968SOL    HW2 9804   1.135   2.619   0.882
 2969SOL     OW 9805   4.586   2.595   4.322
 2969SOL    HW1 9806   4.612   2.671   4.380
 2969SOL    HW2 9807   4.520   2.537   4.370
 2970SOL     OW 9808   2.634   3.096   5.422
 2970SOL    HW1 9809   2.647   3.025   5.491
 2970SOL    HW2 9810   2.571   3.064   5.352
 2971SOL     OW 9811   5.101   4.176   0.524
 2971SOL    HW1 9812   5.101   4.087   0.479
 2971SOL    HW2 9813   5.037   4.237   0.477
 2972SOL     OW 9814   5.754   5.164   6.170
 2972SOL    HW1 9815   5.729   5.088   6.109
 2972SOL    HW2 9816   5.682   5.177   6.239
 2973SOL     OW 9817   4.733   6.640   2.227
 2973SOL    HW1 9818   4.825   6.602   2.236
 2973SOL    HW2 9819   4.671   6.568   2.196
 2974SOL     OW 9820   6.427   4.360   3.391
 2974SOL    HW1 9821   6.463   4.322   3.305
 2974SOL    HW2 9822   6.494   4.426   3.428
 2975SOL     OW 9823   5.331   4.571   4.043
 2975SOL    HW1 9824   5.270   4.494   4.065
 2975SOL    HW2 9825   5.421   4.535   4.016
 2976SOL     OW 9826   5.152   1.982   2.523
 2976SOL    HW1 9827   5.232   1.943   2.567
 2976SOL    HW2 9828   5.078   1.990   2.590
 2977SOL     OW 9829   0.468   1.014   2.464
 2977SOL    HW1 9830   0.510   1.063   2.388
 2977SOL    HW2 9831   0.389   1.065   2.496
 2978SOL     OW 9832   3.895   4.358   0.125
 2978SOL    HW1 9833   3.899   4.265   0.088
 2978SOL    HW2 9834   3.965   4.414   0.080
 2979SOL     OW 9835   3.549   1.639   4.061
 2979SOL    HW1 9836   3.563   1.705   3.987
 2979SOL    HW2 9837   3.628   1.640   4.121
 2980SOL     OW 9838   2.300   5.432   5.951
 2980SOL    HW1 9839   2.214   5.395   5.986
 2980SOL    HW2 9840   2.377   5.386   5.995
 2981SOL     OW 9841   2.161   0.834   0.349
 2981SOL    HW1 9842   2.073   0.799   0.316
 2981SOL    HW2 9843   2.176   0.925   0.312
 2982SOL     OW 9844   2.435   6.205   1.552
 2982SOL    HW1 9845   2.519   6.179   1.598
 2982SOL    HW2 9846   2.374   6.125   1.545
 2983SOL     OW 9847   6.444   2.200   1.462
 2983SOL    HW1 9848   6.374   2.239   1.521
 2983SOL    HW2 9849   6.530   2.192   1.512
 2984SOL     OW 9850   5.644   5.785   6.054
 2984SOL    HW1 9851   5.642   5.687   6.036
 2984SOL    HW2 9852   5.729   5.809   6.100
 2985SOL     OW 9853   1.714   1.899   4.704
 2985SOL    HW1 9854   1.782   1.866   4.638
 2985SOL    HW2 9855   1.648   1.958   4.657
 2986SOL     OW 9856   3.658   3.872   2.544
 2986SOL    HW1 9857   3.663   3.785   2.495
 2986SOL    HW2 9858   3.671   3.857   2.642
 2987SOL     OW 9859   1.788   1.457   4.391
 2987SOL    HW1 9860   1.699   1.415   4.412
 2987SOL    HW2 9861   1.821   1.423   4.303
 2988SOL     OW 9862   1.298   6.861   2.024
 2988SOL    HW1 9863   1.234   6.875   2.099
 2988SOL    HW2 9864   1.252   6.876   1.937
 2989SOL     OW 9865   5.232   4.151   5.620
 2989SOL    HW1 9866   5.247   4.227   5.682
 2989SOL    HW2 9867   5.165   4.178   5.550
 2990SOL     OW 9868   4.738   2.400   4.150
 2990SOL    HW1 9869   4.715   2.496   4.163
 2990SOL    HW2 9870   4.734   2.378   4.052
 2991SOL     OW 9871   6.167   3.026   6.291
 2991SOL    HW1 9872   6.213   2.941   6.265
 2991SOL    HW2 9873   6.076   3.029   6.251
 2992SOL     OW 9874   1.916   4.791   4.690
 2992SOL    HW1 9875   1.907   4.783   4.790
 2992SOL    HW2 9876   1.947   4.703   4.653
 2993SOL     OW 9877   0.407   4.861   0.801
 2993SOL    HW1 9878   0.459   4.929   0.854
 2993SOL    HW2 9879   0.318   4.847   0.843
 2994SOL     OW 9880   3.767   5.980   0.427
 2994SOL    HW1 9881   3.777   6.059   0.367
 2994SOL    HW2 9882   3.851   5.966   0.479
 2995SOL     OW 9883   3.987   1.012   0.182
 2995SOL    HW1 9884   3.907   1.037   0.237
 2995SOL    HW2 9885   3.974   1.043   0.088
 2996SOL     OW 9886   0.856   2.182   4.728
 2996SOL    HW1 9887   0.766   2.226   4.732
 2996SOL    HW2 9888   0.892   2.188   4.635
 2997SOL     OW 9889   5.248   0.233   3.164
 2997SOL    HW1 9890   5.325   0.292   3.140
 2997SOL    HW2 9891   5.239   0.228   3.263
 2998SOL     OW 9892   4.493   6.264   3.381
 2998SOL    HW1 9893   4.528   6.181   3.337
 2998SOL    HW2 9894   4.552   6.341   3.357
 2999SOL     OW 9895   2.680   5.249   5.801
 2999SOL    HW1 9896   2.613   5.188   5.843
 2999SOL    HW2 9897   2.761   5.197   5.774
 3000SOL     OW 9898   2.527   3.897   6.653
 3000SOL    HW1 9899   2.567   3.866   6.567
 3000SOL    HW2 9900   2.446   3.952   6.635
 3001SOL     OW 9901   6.178   1.797   0.393
 3001SOL    HW1 9902   6.188   1.717   0.333
 3001SOL    HW2 9903   6.268   1.829   0.421
 3002SOL     OW 9904   3.372   1.917   0.315
 3002SOL    HW1 9905   3.437   1.952   0.248
 3002SOL    HW2 9906   3.410   1.834   0.358
 3003SOL     OW 9907   0.757   6.621   1.088
 3003SOL    HW1 9908   0.778   6.524   1.100
 3003SOL    HW2 9909   0.840   6.675   1.102
 3004SOL     OW 9910   1.434   4.810   2.620
 3004SOL    HW1 9911   1.425   4.752   2.540
 3004SOL    HW2 9912   1.495   4.887   2.599
 3005SOL     OW 9913   1.316   3.171   6.749
 3005SOL    HW1 9914   1.316   3.270   6.736
 3005SOL    HW2 9915   1.359   3.127   6.671
 3006SOL     OW 9916   5.473   1.500   5.125
 3006SOL    HW1 9917   5.545   1.570   5.128
 3006SOL    HW2 9918   5.471   1.459   5.034
 3007SOL     OW 9919   4.738   4.795   0.654
 3007SOL    HW1 9920   4.694   4.884   0.658
 3007SOL    HW2 9921   4.684   4.734   0.596
 3008SOL     OW 9922   3.183   2.194   6.145
 3008SOL    HW1 9923   3.221   2.239   6.064
 3008SOL    HW2 9924   3.252   2.132   6.183
 3009SOL     OW 9925   6.968   3.230   2.400
 3009SOL    HW1 9926   0.033   3.181   2.369
 3009SOL    HW2 9927   6.974   3.245   2.499
 3010SOL     OW 9928   2.921   5.727   4.273
 3010SOL    HW1 9929   2.929   5.762   4.180
 3010SOL    HW2 9930   2.871   5.641   4.273
 3011SOL     OW 9931   5.927   0.816   1.833
 3011SOL    HW1 9932   6.010   0.872   1.832
 3011SOL    HW2 9933   5.857   0.860   1.776
 3012SOL     OW 9934   2.354   3.344   0.443
 3012SOL    HW1 9935   2.304   3.352   0.357
 3012SOL    HW2 9936   2.443   3.301   0.426
 3013SOL     OW 9937   6.190   4.960   3.688
 3013SOL    HW1 9938   6.274   4.994   3.645
 3013SOL    HW2 9939   6.139   4.904   3.622
 3014SOL     OW 9940   4.659   2.046   6.236
 3014SOL    HW1 9941   4.701   2.137   6.226
 3014SOL    HW2 9942   4.731   1.977   6.243
 3015SOL     OW 9943   1.961   1.893   0.379
 3015SOL    HW1 9944   1.891   1.913   0.311
 3015SOL    HW2 9945   2.040   1.952   0.364
 3016SOL     OW 9946   3.338   0.015   4.229
 3016SOL    HW1 9947   3.344   0.070   4.312
 3016SOL    HW2 9948   3.406   6.958   4.232
 3017SOL     OW 9949   5.360   5.627   2.494
 3017SOL    HW1 9950   5.303   5.648   2.414
 3017SOL    HW2 9951   5.328   5.542   2.536
 3018SOL     OW 9952   3.466   0.088   6.745
 3018SOL    HW1 9953   3.378   0.073   6.791
 3018SOL    HW2 9954   3.520   0.153   6.798
 3019SOL     OW 9955   1.148   0.325   6.485
 3019SOL    HW1 9956   1.050   0.330   6.464
 3019SOL    HW2 9957   1.194   0.266   6.418
 3020SOL     OW 9958   3.912   3.359   0.737
 3020SOL    HW1 9959   4.006   3.347   0.704
 3020SOL    HW2 9960   3.894   3.294   0.810
 3021SOL     OW 9961   2.220   0.143   4.339
 3021SOL    HW1 9962   2.135   0.092   4.352
 3021SOL    HW2 9963   2.201   0.224   4.285
 3022SOL     OW 9964   4.642   5.346   5.036
 3022SOL    HW1 9965   4.560   5.290   5.050
 3022SOL    HW2 9966   4.632   5.432   5.087
 3023SOL     OW 9967   4.253   6.696   3.364
 3023SOL    HW1 9968   4.273   6.605   3.329
 3023SOL    HW2 9969   4.161   6.723   3.337
 3024SOL     OW 9970   5.719   6.431   5.449
 3024SOL    HW1 9971   5.730   6.428   5.548
 3024SOL    HW2 9972   5.761   6.350   5.408
 3025SOL     OW 9973   3.912   5.765   1.833
 3025SOL    HW1 9974   3.981   5.837   1.829
 3025SOL    HW2 9975   3.821   5.805   1.842
 3026SOL     OW 9976   0.439   1.215   5.937
 3026SOL    HW1 9977   0.532   1.207   5.903
 3026SOL    HW2 9978   0.441   1.231   6.036
 3027SOL     OW 9979   3.774   1.571   1.971
 3027SOL    HW1 9980   3.839   1.552   2.045
 3027SOL    HW2 9981   3.821   1.564   1.883
 3028SOL     OW 9982   1.367   4.482   5.978
 3028SOL    HW1 9983   1.428   4.428   5.919
 3028SOL    HW2 9984   1.419   4.519   6.055
 3029SOL     OW 9985   1.091   2.861   3.938
 3029SOL    HW1 9986   1.085   2.782   3.998
 3029SOL    HW2 9987   1.185   2.895   3.935
 3030SOL     OW 9988   1.383   4.137   1.137
 3030SOL    HW1 9989   1.456   4.098   1.080
 3030SOL    HW2 9990   1.365   4.077   1.214
 3031SOL     OW 9991   0.336   4.465   1.044
 3031SOL    HW1 9992   0.386   4.410   0.978
 3031SOL    HW2 9993   0.294   4.405   1.112
 3032SOL     OW 9994   1.993   6.565   1.315
 3032SOL    HW1 9995   1.932   6.553   1.236
 3032SOL    HW2 9996   2.085   6.590   1.283
 3033SOL     OW 9997   6.344   1.215   2.643
 3033SOL    HW1 9998   6.406   1.278   2.597
 3033SOL    HW2 9999   6.366   1.121   2.617
 3034SOL     OW10000   0.198   6.366   3.288
 3034SOL    HW110001   0.223   6.354   3.192
 3034SOL    HW210002   0.130   6.297   3.314
 3035SOL     OW10003   0.808   3.440   6.028
 3035SOL    HW110004   0.726   3.394   6.064
 3035SOL    HW210005   0.808   3.536   6.057
 3036SOL     OW10006   1.472   2.394   5.103
 3036SOL    HW110007   1.497   2.307   5.145
 3036SOL    HW210008   1.488   2.389   5.004
 3037SOL     OW10009   6.554   4.928   5.462
 3037SOL    HW110010   6.504   4.844   5.483
 3037SOL    HW210011   6.632   4.937   5.523
 3038SOL     OW10012   4.849   4.145   5.893
 3038SOL    HW110013   4.781   4.151   5.966
 3038SOL    HW210014   4.845   4.227   5.836
 3039SOL     OW10015   0.033   3.141   0.448
 3039SOL    HW110016   6.988   3.219   0.462
 3039SOL    HW210017   0.062   3.106   0.537
 3040SOL     OW10018   3.386   4.836   5.502
 3040SOL    HW110019   3.395   4.748   5.549
 3040SOL    HW210020   3.453   4.840   5.428
 3041SOL     OW10021   1.048   4.915   6.026
 3041SOL    HW110022   1.096   4.863   6.098
 3041SOL    HW210023   1.008   4.997   6.066
 3042SOL     OW10024   5.761   6.544   2.671
 3042SOL    HW110025   5.718   6.458   2.701
 3042SOL    HW210026   5.800   6.591   2.750
 3043SOL     OW10027   3.098   3.880   1.395
 3043SOL    HW110028   3.090   3.965   1.448
 3043SOL    HW210029   3.070   3.803   1.452
 3044SOL     OW10030   3.067   5.334   5.619
 3044SOL    HW110031   2.983   5.281   5.629
 3044SOL    HW210032   3.055   5.401   5.545
 3045SOL     OW10033   4.969   6.508   3.150
 3045SOL    HW110034   4.972   6.589   3.091
 3045SOL    HW210035   5.061   6.488   3.184
 3046SOL     OW10036   3.231   0.049   6.852
 3046SOL    HW110037   3.206   0.145   6.867
 3046SOL    HW210038   3.163   0.006   6.793
 3047SOL     OW10039   5.904   0.235   0.977
 3047SOL    HW110040   5.870   0.250   1.070
 3047SOL    HW210041   5.911   0.323   0.930
 3048SOL     OW10042   4.842   1.792   0.810
 3048SOL    HW110043   4.834   1.692   0.807
 3048SOL    HW210044   4.802   1.826   0.895
 3049SOL     OW10045   1.642   0.626   3.601
 3049SOL    HW110046   1.551   0.613   3.561
 3049SOL    HW210047   1.710   0.579   3.544
 3050SOL     OW10048   3.023   2.075   1.292
 3050SOL    HW110049   2.960   2.148   1.265
 3050SOL    HW210050   3.048   2.021   1.211
 3051SOL     OW10051   2.155   6.435   6.444
 3051SOL    HW110052   2.216   6.392   6.378
 3051SOL    HW210053   2.087   6.368   6.475
 3052SOL     OW10054   5.194   5.261   2.013
 3052SOL    HW110055   5.288   5.290   2.031
 3052SOL    HW210056   5.161   5.305   1.930
 3053SOL     OW10057   0.275   3.466   1.608
 3053SOL    HW110058   0.277   3.368   1.589
 3053SOL    HW210059   0.356   3.492   1.661
 3054SOL     OW10060   5.605   1.138   2.290
 3054SOL    HW110061   5.532   1.134   2.223
 3054SOL    HW210062   5.690   1.165   2.244
 3055SOL     OW10063   5.133   0.597   5.180
 3055SOL    HW110064   5.135   0.696   5.173
 3055SOL    HW210065   5.097   0.558   5.095
 3056SOL     OW10066   6.721   0.936   5.644
 3056SOL    HW110067   6.682   0.985   5.566
 3056SOL    HW210068   6.678   0.847   5.653
 3057SOL     OW10069   5.087   6.168   4.095
 3057SOL    HW110070   4.991   6.189   4.077
 3057SOL    HW210071   5.134   6.251   4.125
 3058SOL     OW10072   6.187   4.486   0.974
 3058SOL    HW110073   6.191   4.429   0.892
 3058SOL    HW210074   6.208   4.431   1.054
 3059SOL     OW10075   2.695   1.502   3.695
 3059SOL    HW110076   2.744   1.588   3.713
 3059SOL    HW210077   2.761   1.426   3.692
 3060SOL     OW10078   1.792   5.102   0.348
 3060SOL    HW110079   1.863   5.079   0.414
 3060SOL    HW210080   1.807   5.195   0.313
 3061SOL     OW10081   6.232   5.599   5.748
 3061SOL    HW110082   6.205   5.644   5.834
 3061SOL    HW210083   6.157   5.605   5.682
 3062SOL     OW10084   2.091   6.302   0.835
 3062SOL    HW110085   2.146   6.308   0.752
 3062SOL    HW210086   2.010   6.245   0.817
 3063SOL     OW10087   1.193   4.810   1.325
 3063SOL    HW110088   1.275   4.866   1.319
 3063SOL    HW210089   1.168   4.797   1.421
 3064SOL     OW10090   4.440   3.504   0.572
 3064SOL    HW110091   4.411   3.451   0.493
 3064SOL    HW210092   4.496   3.581   0.543
 3065SOL     OW10093   1.211   2.300   6.349
 3065SOL    HW110094   1.197   2.261   6.440
 3065SOL    HW210095   1.211   2.227   6.281
 3066SOL     OW10096   5.350   5.363   6.801
 3066SOL    HW110097   5.267   5.381   6.854
 3066SOL    HW210098   5.429   5.404   6.847
 3067SOL     OW10099   2.888   0.894   0.161
 3067SOL    HW110100   2.878   0.960   0.086
 3067SOL    HW210101   2.859   0.804   0.129
 3068SOL     OW10102   6.710   6.959   1.596
 3068SOL    HW110103   6.746   6.883   1.540
 3068SOL    HW210104   6.772   0.021   1.589
 3069SOL     OW10105   6.234   6.489   3.223
 3069SOL    HW110106   6.171   6.510   3.148
 3069SOL    HW210107   6.318   6.543   3.211
 3070SOL     OW10108   2.005   0.648   0.043
 3070SOL    HW110109   2.104   0.645   0.061
 3070SOL    HW210110   1.960   0.706   0.111
 3071SOL     OW10111   6.284   5.747   3.786
 3071SOL    HW110112   6.350   5.819   3.767
 3071SOL    HW210113   6.321   5.686   3.857
 3072SOL     OW10114   2.151   5.700   6.356
 3072SOL    HW110115   2.236   5.658   6.324
 3072SOL    HW210116   2.079   5.631   6.357
 3073SOL     OW10117   7.006   4.420   2.390
 3073SOL    HW110118   6.954   4.430   2.306
 3073SOL    HW210119   6.967   4.479   2.461
 3074SOL     OW10120   0.301   4.259   0.794
 3074SOL    HW110121   0.394   4.267   0.757
 3074SOL    HW210122   0.280   4.162   0.809
 3075SOL     OW10123   3.122   5.346   3.536
 3075SOL    HW110124   3.097   5.422   3.595
 3075SOL    HW210125   3.219   5.323   3.550
 3076SOL     OW10126   0.112   1.684   4.228
 3076SOL    HW110127   0.099   1.596   4.274
 3076SOL    HW210128   0.081   1.677   4.133
 3077SOL     OW10129   5.841   4.028   2.083
 3077SOL    HW110130   5.744   4.038   2.106
 3077SOL    HW210131   5.874   4.111   2.038
 3078SOL     OW10132   6.559   3.463   2.379
 3078SOL    HW110133   6.550   3.404   2.458
 3078SOL    HW210134   6.656   3.476   2.357
 3079SOL     OW10135   3.346   2.081   3.110
 3079SOL    HW110136   3.274   2.025   3.069
 3079SOL    HW210137   3.434   2.059   3.067
 3080SOL     OW10138   5.283   4.045   2.029
 3080SOL    HW110139   5.281   4.064   2.127
 3080SOL    HW210140   5.198   4.077   1.987
 3081SOL     OW10141   0.207   4.615   5.817
 3081SOL    HW110142   0.243   4.524   5.839
 3081SOL    HW210143   0.237   4.640   5.725
 3082SOL     OW10144   1.872   5.623   4.241
 3082SOL    HW110145   1.879   5.551   4.171
 3082SOL    HW210146   1.884   5.712   4.198
 3083SOL     OW10147   3.538   6.060   2.888
 3083SOL    HW110148   3.580   6.053   2.979
 3083SOL    HW210149   3.539   5.970   2.844
 3084SOL     OW10150   6.499   4.717   3.059
 3084SOL    HW110151   6.562   4.792   3.040
 3084SOL    HW210152   6.550   4.630   3.056
 3085SOL     OW10153   5.871   4.572   0.722
 3085SOL    HW110154   5.936   4.498   0.738
 3085SOL    HW210155   5.879   4.603   0.627
 3086SOL     OW10156   4.912   1.067   6.536
 3086SOL    HW110157   4.937   1.075   6.439
 3086SOL    HW210158   4.813   1.059   6.544
 3087SOL     OW10159   3.246   6.114   3.258
 3087SOL    HW110160   3.201   6.155   3.337
 3087SOL    HW210161   3.321   6.055   3.289
 3088SOL     OW10162   1.767   3.423   5.282
 3088SOL    HW110163   1.812   3.489   5.341
 3088SOL    HW210164   1.761   3.459   5.189
 3089SOL     OW10165   4.104   2.231   4.656
 3089SOL    HW110166   4.175   2.284   4.704
 3089SOL    HW210167   4.137   2.205   4.566
 3090SOL     OW10168   2.456   0.875   2.246
 3090SOL    HW110169   2.374   0.823   2.271
 3090SOL    HW210170   2.429   0.964   2.208
 3091SOL     OW10171   1.240   1.313   0.454
 3091SOL    HW110172   1.174   1.366   0.507
 3091SOL    HW210173   1.216   1.216   0.458
 3092SOL     OW10174   5.452   6.929   0.959
 3092SOL    HW110175   5.461   0.010   0.981
 3092SOL    HW210176   5.538   6.882   0.975
 3093SOL     OW10177   5.668   6.022   6.417
 3093SOL    HW110178   5.587   6.061   6.461
 3093SOL    HW210179   5.725   6.096   6.381
 3094SOL     OW10180   2.512   0.124   4.218
 3094SOL    HW110181   2.534   0.219   4.244
 3094SOL    HW210182   2.425   0.122   4.170
 3095SOL     OW10183   2.435   4.122   5.897
 3095SOL    HW110184   2.419   4.023   5.897
 3095SOL    HW210185   2.523   4.141   5.854
 3096SOL     OW10186   1.267   4.962   5.442
 3096SOL    HW110187   1.217   5.023   5.503
 3096SOL    HW210188   1.315   4.893   5.497
 3097SOL     OW10189   5.196   3.343   6.940
 3097SOL    HW110190   5.110   3.296   6.954
 3097SOL    HW210191   5.179   3.441   6.927
 3098SOL     OW10192   1.791   3.539   1.740
 3098SOL    HW110193   1.829   3.481   1.667
 3098SOL    HW210194   1.748   3.619   1.699
 3099SOL     OW10195   1.119   6.532   4.000
 3099SOL    HW110196   1.186   6.599   4.031
 3099SOL    HW210197   1.167   6.454   3.958
 3100SOL     OW10198   6.576   6.307   3.402
 3100SOL    HW110199   6.517   6.290   3.323
 3100SOL    HW210200   6.662   6.346   3.371
 3101SOL     OW10201   4.893   5.590   6.207
 3101SOL    HW110202   4.896   5.513   6.143
 3101SOL    HW210203   4.956   5.661   6.176
 3102SOL     OW10204   6.340   0.148   1.481
 3102SOL    HW110205   6.378   0.119   1.393
 3102SOL    HW210206   6.381   0.235   1.508
 3103SOL     OW10207   4.534   1.063   1.191
 3103SOL    HW110208   4.527   1.077   1.290
 3103SOL    HW210209   4.447   1.029   1.156
 3104SOL     OW10210   3.403   0.540   6.000
 3104SOL    HW110211   3.416   0.534   5.901
 3104SOL    HW210212   3.462   0.474   6.045
 3105SOL     OW10213   4.739   3.696   1.568
 3105SOL    HW110214   4.831   3.716   1.599
 3105SOL    HW210215   4.676   3.768   1.599
 3106SOL     OW10216   5.377   6.467   5.339
 3106SOL    HW110217   5.448   6.491   5.405
 3106SOL    HW210218   5.349   6.549   5.290
 3107SOL     OW10219   3.837   1.061   4.485
 3107SOL    HW110220   3.866   1.063   4.389
 3107SOL    HW210221   3.808   1.152   4.513
 3108SOL     OW10222   1.878   5.347   4.883
 3108SOL    HW110223   1.921   5.411   4.948
 3108SOL    HW210224   1.914   5.364   4.791
 3109SOL     OW10225   6.431   6.703   4.284
 3109SOL    HW110226   6.387   6.623   4.244
 3109SOL    HW210227   6.528   6.684   4.299
 3110SOL     OW10228   2.049   4.342   3.498
 3110SOL    HW110229   2.023   4.330   3.594
 3110SOL    HW210230   2.149   4.337   3.490
 3111SOL     OW10231   0.135   4.819   3.501
 3111SOL    HW110232   0.136   4.838   3.600
 3111SOL    HW210233   0.084   4.735   3.483
 3112SOL     OW10234   2.580   3.316   0.706
 3112SOL    HW110235   2.626   3.333   0.618
 3112SOL    HW210236   2.541   3.224   0.705
 3113SOL     OW10237   3.135   5.952   2.725
 3113SOL    HW110238   3.217   5.941   2.669
 3113SOL    HW210239   3.114   6.049   2.734
 3114SOL     OW10240   3.949   1.588   0.238
 3114SOL    HW110241   3.866   1.562   0.288
 3114SOL    HW210242   3.959   1.528   0.158
 3115SOL     OW10243   3.972   4.634   5.704
 3115SOL    HW110244   3.913   4.580   5.764
 3115SOL    HW210245   4.016   4.573   5.637
 3116SOL     OW10246   6.808   1.672   0.146
 3116SOL    HW110247   6.786   1.687   0.050
 3116SOL    HW210248   6.727   1.692   0.202
 3117SOL     OW10249   4.302   3.253   5.292
 3117SOL    HW110250   4.232   3.275   5.225
 3117SOL    HW210251   4.375   3.321   5.288
 3118SOL     OW10252   0.714   5.776   1.907
 3118SOL    HW110253   0.660   5.859   1.922
 3118SOL    HW210254   0.800   5.799   1.863
 3119SOL     OW10255   2.397   2.441   6.167
 3119SOL    HW110256   2.431   2.376   6.235
 3119SOL    HW210257   2.347   2.393   6.096
 3120SOL     OW10258   2.657   0.490   5.771
 3120SOL    HW110259   2.599   0.564   5.805
 3120SOL    HW210260   2.675   0.425   5.844
 3121SOL     OW10261   5.994   1.959   4.848
 3121SOL    HW110262   6.042   1.894   4.907
 3121SOL    HW210263   5.951   1.910   4.772
 3122SOL     OW10264   4.738   4.896   4.957
 3122SOL    HW110265   4.718   4.934   5.047
 3122SOL    HW210266   4.654   4.894   4.902
 3123SOL     OW10267   1.727   1.498   2.829
 3123SOL    HW110268   1.814   1.514   2.876
 3123SOL    HW210269   1.689   1.410   2.857
 3124SOL     OW10270   4.687   0.177   4.056
 3124SOL    HW110271   4.779   0.176   4.095
 3124SOL    HW210272   4.647   0.268   4.068
 3125SOL     OW10273   1.537   3.052   5.295
 3125SOL    HW110274   1.562   3.108   5.216
 3125SOL    HW210275   1.472   2.982   5.266
 3126SOL     OW10276   5.399   4.682   5.558
 3126SOL    HW110277   5.447   4.627   5.489
 3126SOL    HW210278   5.301   4.663   5.554
 3127SOL     OW10279   2.047   1.879   6.046
 3127SOL    HW110280   2.122   1.936   6.011
 3127SOL    HW210281   1.998   1.837   5.969
 3128SOL     OW10282   3.475   0.813   0.267
 3128SOL    HW110283   3.447   0.778   0.357
 3128SOL    HW210284   3.433   0.757   0.196
 3129SOL     OW10285   5.250   3.537   1.081
 3129SOL    HW110286   5.200   3.475   1.142
 3129SOL    HW210287   5.329   3.489   1.043
 3130SOL     OW10288   2.038   4.723   1.592
 3130SOL    HW110289   2.127   4.695   1.630
 3130SOL    HW210290   2.011   4.659   1.521
 3131SOL     OW10291   0.671   3.514   2.376
 3131SOL    HW110292   0.600   3.562   2.324
 3131SOL    HW210293   0.651   3.519   2.474
 3132SOL     OW10294   5.048   5.165   6.880
 3132SOL    HW110295   5.069   5.253   6.923
 3132SOL    HW210296   5.107   5.152   6.800
 3133SOL     OW10297   3.875   1.189   3.305
 3133SOL    HW110298   3.846   1.223   3.394
 3133SOL    HW210299   3.795   1.173   3.247
 3134SOL     OW10300   4.516   4.870   0.919
 3134SOL    HW110301   4.557   4.779   0.922
 3134SOL    HW210302   4.539   4.919   1.003
 3135SOL     OW10303   5.322   0.259   5.818
 3135SOL    HW110304   5.414   0.268   5.781
 3135SOL    HW210305   5.322   0.285   5.914
 3136SOL     OW10306   5.636   0.110   2.340
 3136SOL    HW110307   5.648   0.137   2.244
 3136SOL    HW210308   5.725   0.111   2.386
 3137SOL     OW10309   6.922   6.819   3.467
 3137SOL    HW110310   6.989   6.763   3.418
 3137SOL    HW210311   6.938   6.915   3.445
 3138SOL     OW10312   5.715   5.305   3.440
 3138SOL    HW110313   5.658   5.334   3.363
 3138SOL    HW210314   5.797   5.362   3.445
 3139SOL     OW10315   3.738   5.164   1.429
 3139SOL    HW110316   3.720   5.076   1.473
 3139SOL    HW210317   3.817   5.207   1.473
 3140SOL     OW10318   6.368   5.922   5.287
 3140SOL    HW110319   6.285   5.901   5.236
 3140SOL    HW210320   6.354   6.007   5.339
 3141SOL     OW10321   0.567   0.075   6.582
 3141SOL    HW110322   0.473   0.055   6.607
 3141SOL    HW210323   0.626   7.014   6.608
 3142SOL     OW10324   2.829   0.243   2.701
 3142SOL    HW110325   2.903   0.304   2.729
 3142SOL    HW210326   2.741   0.284   2.726
 3143SOL     OW10327   5.945   0.967   0.107
 3143SOL    HW110328   5.882   0.889   0.101
 3143SOL    HW210329   5.893   1.050   0.125
 3144SOL     OW10330   4.689   3.592   0.849
 3144SOL    HW110331   4.622   3.654   0.890
 3144SOL    HW210332   4.656   3.498   0.854
 3145SOL     OW10333   1.762   6.446   2.498
 3145SOL    HW110334   1.670   6.439   2.461
 3145SOL    HW210335   1.825   6.390   2.444
 3146SOL     OW10336   1.175   1.081   4.656
 3146SOL    HW110337   1.110   1.101   4.583
 3146SOL    HW210338   1.268   1.085   4.619
 3147SOL     OW10339   2.861   4.885   6.997
 3147SOL    HW110340   2.948   4.879   6.949
 3147SOL    HW210341   2.825   4.793   7.012
 3148SOL     OW10342   6.769   6.937   4.220
 3148SOL    HW110343   6.866   6.955   4.211
 3148SOL    HW210344   6.753   6.839   4.225
 3149SOL     OW10345   2.917   1.104   6.622
 3149SOL    HW110346   3.002   1.121   6.671
 3149SOL    HW210347   2.846   1.164   6.656
 3150SOL     OW10348   0.246   5.932   4.855
 3150SOL    HW110349   0.286   5.926   4.947
 3150SOL    HW210350   0.147   5.941   4.862
 3151SOL     OW10351   0.363   1.255   5.535
 3151SOL    HW110352   0.312   1.224   5.615
 3151SOL    HW210353   0.301   1.304   5.473
 3152SOL     OW10354   0.449   4.183   0.548
 3152SOL    HW110355   0.525   4.131   0.586
 3152SOL    HW210356   0.378   4.120   0.515
 3153SOL     OW10357   6.392   5.631   0.536
 3153SOL    HW110358   6.459   5.705   0.535
 3153SOL    HW210359   6.368   5.609   0.631
 3154SOL     OW10360   6.841   1.253   0.473
 3154SOL    HW110361   6.782   1.173   0.485
 3154SOL    HW210362   6.784   1.334   0.457
 3155SOL     OW10363   6.390   5.155   0.071
 3155SOL    HW110364   6.477   5.157   0.121
 3155SOL    HW210365   6.405   5.188   6.994
 3156SOL     OW10366   3.315   3.741   1.874
 3156SOL    HW110367   3.283   3.731   1.969
 3156SOL    HW210368   3.414   3.757   1.874
 3157SOL     OW10369   1.959   1.751   5.485
 3157SOL    HW110370   1.985   1.655   5.489
 3157SOL    HW210371   2.028   1.802   5.433
 3158SOL     OW10372   2.419   0.972   4.217
 3158SOL    HW110373   2.467   0.958   4.304
 3158SOL    HW210374   2.320   0.972   4.234
 3159SOL     OW10375   5.972   6.991   6.387
 3159SOL    HW110376   5.985   6.892   6.391
 3159SOL    HW210377   5.904   7.013   6.317
 3160SOL     OW10378   1.799   5.873   5.844
 3160SOL    HW110379   1.805   5.927   5.928
 3160SOL    HW210380   1.877   5.893   5.785
 3161SOL     OW10381   2.232   2.195   2.389
 3161SOL    HW110382   2.319   2.151   2.368
 3161SOL    HW210383   2.205   2.253   2.312
 3162SOL     OW10384   0.984   5.874   1.814
 3162SOL    HW110385   0.999   5.845   1.719
 3162SOL    HW210386   1.062   5.929   1.844
 3163SOL     OW10387   4.150   3.926   6.607
 3163SOL    HW110388   4.169   3.951   6.702
 3163SOL    HW210389   4.154   3.826   6.598
 3164SOL     OW10390   3.618   5.745   1.573
 3164SOL    HW110391   3.536   5.790   1.536
 3164SOL    HW210392   3.620   5.756   1.672
 3165SOL     OW10393   1.798   5.570   1.592
 3165SOL    HW110394   1.807   5.473   1.615
 3165SOL    HW210395   1.739   5.579   1.511
 3166SOL     OW10396   4.392   2.003   3.641
 3166SOL    HW110397   4.449   2.038   3.715
 3166SOL    HW210398   4.450   1.983   3.561
 3167SOL     OW10399   5.460   4.070   1.069
 3167SOL    HW110400   5.429   3.977   1.051
 3167SOL    HW210401   5.513   4.103   0.991
 3168SOL     OW10402   5.345   3.131   6.852
 3168SOL    HW110403   5.339   3.058   6.920
 3168SOL    HW210404   5.278   3.202   6.873
 3169SOL     OW10405   2.315   4.184   3.767
 3169SOL    HW110406   2.341   4.236   3.686
 3169SOL    HW210407   2.263   4.103   3.740
 3170SOL     OW10408   4.007   5.894   2.100
 3170SOL    HW110409   3.924   5.851   2.064
 3170SOL    HW210410   4.045   5.957   2.032
 3171SOL     OW10411   6.748   1.838   2.166
 3171SOL    HW110412   6.772   1.847   2.263
 3171SOL    HW210413   6.772   1.922   2.118
 3172SOL     OW10414   0.111   5.559   6.581
 3172SOL    HW110415   0.165   5.640   6.604
 3172SOL    HW210416   0.071   5.521   6.664
 3173SOL     OW10417   3.338   2.144   6.927
 3173SOL    HW110418   3.334   2.046   6.904
 3173SOL    HW210419   3.420   2.184   6.886
 3174SOL     OW10420   2.913   2.661   6.616
 3174SOL    HW110421   2.974   2.645   6.538
 3174SOL    HW210422   2.836   2.597   6.612
 3175SOL     OW10423   5.470   1.778   1.715
 3175SOL    HW110424   5.552   1.815   1.758
 3175SOL    HW210425   5.452   1.826   1.629
 3176SOL     OW10426   0.868   4.034   5.312
 3176SOL    HW110427   0.895   4.130   5.325
 3176SOL    HW210428   0.911   3.999   5.228
 3177SOL     OW10429   5.340   4.293   4.423
 3177SOL    HW110430   5.339   4.393   4.420
 3177SOL    HW210431   5.248   4.258   4.437
 3178SOL     OW10432   6.440   2.488   0.345
 3178SOL    HW110433   6.466   2.453   0.435
 3178SOL    HW210434   6.370   2.428   0.305
 3179SOL     OW10435   1.203   2.297   2.040
 3179SOL    HW110436   1.128   2.355   2.010
 3179SOL    HW210437   1.251   2.259   1.961
 3180SOL     OW10438   5.852   0.073   0.640
 3180SOL    HW110439   5.891   0.096   0.550
 3180SOL    HW210440   5.823   6.994   0.640
 3181SOL     OW10441   6.245   2.111   3.632
 3181SOL    HW110442   6.315   2.155   3.575
 3181SOL    HW210443   6.198   2.040   3.578
 3182SOL     OW10444   2.443   0.299   6.888
 3182SOL    HW110445   2.392   0.378   6.852
 3182SOL    HW210446   2.462   0.314   6.985
 3183SOL     OW10447   4.599   4.395   2.235
 3183SOL    HW110448   4.598   4.366   2.139
 3183SOL    HW210449   4.514   4.443   2.257
 3184SOL     OW10450   0.282   2.608   3.104
 3184SOL    HW110451   0.241   2.524   3.067
 3184SOL    HW210452   0.381   2.600   3.102
 3185SOL     OW10453   4.182   6.129   6.165
 3185SOL    HW110454   4.189   6.038   6.204
 3185SOL    HW210455   4.210   6.126   6.069
 3186SOL     OW10456   3.123   2.188   0.509
 3186SOL    HW110457   3.106   2.246   0.430
 3186SOL    HW210458   3.075   2.225   0.588
 3187SOL     OW10459   4.257   5.299   0.857
 3187SOL    HW110460   4.240   5.392   0.892
 3187SOL    HW210461   4.206   5.286   0.772
 3188SOL     OW10462   1.391   6.692   4.052
 3188SOL    HW110463   1.448   6.631   3.999
 3188SOL    HW210464   1.404   6.674   4.150
 3189SOL     OW10465   1.354   2.331   1.481
 3189SOL    HW110466   1.409   2.288   1.409
 3189SOL    HW210467   1.291   2.263   1.520
 3190SOL     OW10468   7.000   5.454   0.515
 3190SOL    HW110469   0.015   5.531   0.570
 3190SOL    HW210470   0.030   5.371   0.544
 3191SOL     OW10471   4.829   5.384   1.619
 3191SOL    HW110472   4.756   5.393   1.687
 3191SOL    HW210473   4.789   5.361   1.530
 3192SOL     OW10474   0.694   3.928   1.531
 3192SOL    HW110475   0.727   4.019   1.559
 3192SOL    HW210476   0.601   3.915   1.564
 3193SOL     OW10477   4.027   1.421   5.704
 3193SOL    HW110478   3.971   1.343   5.675
 3193SOL    HW210479   4.103   1.388   5.760
 3194SOL     OW10480   1.625   2.168   5.921
 3194SOL    HW110481   1.637   2.265   5.899
 3194SOL    HW210482   1.703   2.136   5.975
 3195SOL     OW10483   1.681   1.136   2.504
 3195SOL    HW110484   1.700   1.194   2.425
 3195SOL    HW210485   1.582   1.125   2.515
 3196SOL     OW10486   7.000   0.884   6.670
 3196SOL    HW110487   6.940   0.804   6.678
 3196SOL    HW210488   0.065   0.872   6.726
 3197SOL     OW10489   2.829   6.334   4.633
 3197SOL    HW110490   2.812   6.401   4.705
 3197SOL    HW210491   2.825   6.379   4.544
 3198SOL     OW10492   6.374   3.329   3.232
 3198SOL    HW110493   6.401   3.370   3.145
 3198SOL    HW210494   6.433   3.251   3.253
 3199SOL     OW10495   5.077   3.939   2.723
 3199SOL    HW110496   4.980   3.953   2.746
 3199SOL    HW210497   5.128   4.023   2.740
 3200SOL     OW10498   6.134   3.120   2.874
 3200SOL    HW110499   6.067   3.096   2.944
 3200SOL    HW210500   6.226   3.100   2.908
 3201SOL     OW10501   6.487   4.829   3.370
 3201SOL    HW110502   6.410   4.797   3.315
 3201SOL    HW210503   6.568   4.775   3.349
 3202SOL     OW10504   0.979   4.945   1.215
 3202SOL    HW110505   0.904   4.883   1.192
 3202SOL    HW210506   1.055   4.892   1.254
 3203SOL     OW10507   5.682   1.552   0.661
 3203SOL    HW110508   5.601   1.612   0.663
 3203SOL    HW210509   5.760   1.601   0.701
 3204SOL     OW10510   3.993   7.006   3.321
 3204SOL    HW110511   3.961   6.914   3.300
 3204SOL    HW210512   3.981   0.049   3.241
 3205SOL     OW10513   5.295   3.040   6.365
 3205SOL    HW110514   5.338   3.084   6.286
 3205SOL    HW210515   5.196   3.033   6.350
 3206SOL     OW10516   1.839   4.618   1.073
 3206SOL    HW110517   1.745   4.610   1.105
 3206SOL    HW210518   1.887   4.532   1.091
 3207SOL     OW10519   1.330   0.732   6.756
 3207SOL    HW110520   1.389   0.773   6.826
 3207SOL    HW210521   1.237   0.722   6.792
 3208SOL     OW10522   5.134   6.367   6.325
 3208SOL    HW110523   5.104   6.296   6.261
 3208SOL    HW210524   5.136   6.456   6.279
 3209SOL     OW10525   3.583   5.415   4.009
 3209SOL    HW110526   3.506   5.370   3.963
 3209SOL    HW210527   3.609   5.363   4.090
 3210SOL     OW10528   1.167   4.603   1.151
 3210SOL    HW110529   1.178   4.683   1.209
 3210SOL    HW210530   1.250   4.547   1.156
 3211SOL     OW10531   1.598   4.002   0.605
 3211SOL    HW110532   1.504   4.010   0.572
 3211SOL    HW210533   1.612   3.910   0.643
 3212SOL     OW10534   3.047   6.578   2.020
 3212SOL    HW110535   2.963   6.539   2.057
 3212SOL    HW210536   3.094   6.629   2.093
 3213SOL     OW10537   1.616   6.930   0.154
 3213SOL    HW110538   1.526   6.973   0.142
 3213SOL    HW210539   1.674   6.953   0.076
 3214SOL     OW10540   4.441   5.879   1.594
 3214SOL    HW110541   4.506   5.907   1.523
 3214SOL    HW210542   4.380   5.808   1.559
 3215SOL     OW10543   0.335   3.955   0.795
 3215SOL    HW110544   0.299   3.862   0.811
 3215SOL    HW210545   0.334   3.974   0.697
 3216SOL     OW10546   5.845   5.553   0.554
 3216SOL    HW110547   5.920   5.496   0.520
 3216SOL    HW210548   5.833   5.632   0.493
 3217SOL     OW10549   0.057   5.628   2.630
 3217SOL    HW110550   0.149   5.641   2.665
 3217SOL    HW210551   0.011   5.716   2.622
 3218SOL     OW10552   5.374   2.740   2.791
 3218SOL    HW110553   5.457   2.721   2.844
 3218SOL    HW210554   5.305   2.779   2.852
 3219SOL     OW10555   0.853   1.665   3.652
 3219SOL    HW110556   0.823   1.732   3.584
 3219SOL    HW210557   0.926   1.704   3.708
 3220SOL     OW10558   6.950   5.367   5.839
 3220SOL    HW110559   6.916   5.277   5.866
 3220SOL    HW210560   6.931   5.434   5.911
 3221SOL     OW10561   3.612   0.158   1.970
 3221SOL    HW110562   3.568   0.209   2.043
 3221SOL    HW210563   3.560   0.168   1.885
 3222SOL     OW10564   2.778   1.688   2.517
 3222SOL    HW110565   2.772   1.591   2.539
 3222SOL    HW210566   2.688   1.723   2.490
 3223SOL     OW10567   2.744   6.541   6.276
 3223SOL    HW110568   2.822   6.482   6.294
 3223SOL    HW210569   2.680   6.494   6.216
 3224SOL     OW10570   4.609   2.598   4.857
 3224SOL    HW110571   4.541   2.549   4.803
 3224SOL    HW210572   4.694   2.545   4.861
 3225SOL     OW10573   4.895   2.454   5.813
 3225SOL    HW110574   4.984   2.463   5.858
 3225SOL    HW210575   4.879   2.359   5.789
 3226SOL     OW10576   2.006   1.162   2.194
 3226SOL    HW110577   2.011   1.107   2.110
 3226SOL    HW210578   2.082   1.227   2.197
 3227SOL     OW10579   3.356   3.254   6.720
 3227SOL    HW110580   3.364   3.287   6.814
 3227SOL    HW210581   3.284   3.185   6.715
 3228SOL     OW10582   6.629   3.826   1.042
 3228SOL    HW110583   6.598   3.857   0.952
 3228SOL    HW210584   6.709   3.767   1.031
 3229SOL     OW10585   3.575   0.491   5.757
 3229SOL    HW110586   3.614   0.580   5.782
 3229SOL    HW210587   3.621   0.419   5.809
 3230SOL     OW10588   2.038   4.876   5.634
 3230SOL    HW110589   1.947   4.903   5.604
 3230SOL    HW210590   2.107   4.928   5.583
 3231SOL     OW10591   2.769   0.319   1.811
 3231SOL    HW110592   2.718   0.396   1.775
 3231SOL    HW210593   2.852   0.306   1.758
 3232SOL     OW10594   4.591   6.708   4.513
 3232SOL    HW110595   4.582   6.802   4.479
 3232SOL    HW210596   4.668   6.704   4.578
 3233SOL     OW10597   6.437   2.344   0.644
 3233SOL    HW110598   6.474   2.411   0.709
 3233SOL    HW210599   6.340   2.361   0.630
 3234SOL     OW10600   0.819   2.600   0.043
 3234SOL    HW110601   0.871   2.683   0.022
 3234SOL    HW210602   0.774   2.611   0.131
 3235SOL     OW10603   0.298   0.188   1.426
 3235SOL    HW110604   0.271   0.277   1.463
 3235SOL    HW210605   0.263   0.180   1.332
 3236SOL     OW10606   0.681   3.803   0.376
 3236SOL    HW110607   0.749   3.753   0.323
 3236SOL    HW210608   0.673   3.896   0.341
 3237SOL     OW10609   6.213   1.560   2.510
 3237SOL    HW110610   6.255   1.606   2.589
 3237SOL    HW210611   6.145   1.494   2.542
 3238SOL     OW10612   6.691   5.621   0.120
 3238SOL    HW110613   6.733   5.636   0.031
 3238SOL    HW210614   6.700   5.704   0.176
 3239SOL     OW10615   0.120   1.459   2.565
 3239SOL    HW110616   0.066   1.534   2.525
 3239SOL    HW210617   0.147   1.483   2.658
 3240SOL     OW10618   6.743   6.352   6.557
 3240SOL    HW110619   6.796   6.432   6.529
 3240SOL    HW210620   6.659   6.347   6.504
 3241SOL     OW10621   4.343   0.703   5.777
 3241SOL    HW110622   4.356   0.800   5.798
 3241SOL    HW210623   4.431   0.656   5.783
 3242SOL     OW10624   4.744   4.804   6.542
 3242SOL    HW110625   4.715   4.740   6.613
 3242SOL    HW210626   4.679   4.799   6.465
 3243SOL     OW10627   4.414   4.854   0.288
 3243SOL    HW110628   4.455   4.764   0.274
 3243SOL    HW210629   4.461   4.921   0.230
 3244SOL     OW10630   5.093   6.058   0.002
 3244SOL    HW110631   5.044   5.971   7.015
 3244SOL    HW210632   5.028   6.133   7.002
 3245SOL     OW10633   5.380   3.042   4.041
 3245SOL    HW110634   5.394   2.948   4.009
 3245SOL    HW210635   5.469   3.083   4.062
 3246SOL     OW10636   6.761   0.113   3.377
 3246SOL    HW110637   6.734   0.208   3.394
 3246SOL    HW210638   6.858   0.102   3.398
 3247SOL     OW10639   5.890   4.191   2.418
 3247SOL    HW110640   5.916   4.147   2.504
 3247SOL    HW210641   5.818   4.137   2.373
 3248SOL     OW10642   5.440   3.136   2.050
 3248SOL    HW110643   5.382   3.215   2.031
 3248SOL    HW210644   5.412   3.093   2.136
 3249SOL     OW10645   3.708   3.979   3.641
 3249SOL    HW110646   3.645   4.044   3.685
 3249SOL    HW210647   3.781   3.955   3.706
 3250SOL     OW10648   6.119   0.286   2.648
 3250SOL    HW110649   6.058   0.338   2.707
 3250SOL    HW210650   6.068   0.251   2.569
 3251SOL     OW10651   3.604   0.919   3.352
 3251SOL    HW110652   3.640   0.953   3.265
 3251SOL    HW210653   3.674   0.925   3.422
 3252SOL     OW10654   2.883   1.143   2.584
 3252SOL    HW110655   2.915   1.149   2.489
 3252SOL    HW210656   2.846   1.052   2.601
 3253SOL     OW10657   4.737   3.637   1.176
 3253SOL    HW110658   4.651   3.676   1.208
 3253SOL    HW210659   4.731   3.621   1.077
 3254SOL     OW10660   4.570   5.700   6.651
 3254SOL    HW110661   4.643   5.741   6.705
 3254SOL    HW210662   4.609   5.640   6.582
 3255SOL     OW10663   4.348   6.630   0.647
 3255SOL    HW110664   4.412   6.573   0.698
 3255SOL    HW210665   4.300   6.692   0.709
 3256SOL     OW10666   3.995   1.428   1.325
 3256SOL    HW110667   3.964   1.351   1.270
 3256SOL    HW210668   3.979   1.408   1.422
 3257SOL     OW10669   1.254   1.990   2.075
 3257SOL    HW110670   1.203   2.073   2.095
 3257SOL    HW210671   1.342   2.014   2.034
 3258SOL     OW10672   4.972   5.928   2.171
 3258SOL    HW110673   4.971   5.900   2.075
 3258SOL    HW210674   4.909   5.870   2.223
 3259SOL     OW10675   4.674   4.885   5.240
 3259SOL    HW110676   4.768   4.864   5.266
 3259SOL    HW210677   4.647   4.974   5.278
 3260SOL     OW10678   1.444   2.238   1.013
 3260SOL    HW110679   1.512   2.298   0.971
 3260SOL    HW210680   1.447   2.148   0.970
 3261SOL     OW10681   5.555   0.811   1.479
 3261SOL    HW110682   5.479   0.772   1.426
 3261SOL    HW210683   5.525   0.896   1.522
 3262SOL     OW10684   3.230   1.901   2.256
 3262SOL    HW110685   3.145   1.851   2.239
 3262SOL    HW210686   3.308   1.842   2.235
 3263SOL     OW10687   3.130   1.043   2.698
 3263SOL    HW110688   3.137   0.945   2.682
 3263SOL    HW210689   3.047   1.078   2.656
 3264SOL     OW10690   1.759   5.961   0.905
 3264SOL    HW110691   1.664   5.945   0.928
 3264SOL    HW210692   1.812   5.877   0.917
 3265SOL     OW10693   4.564   0.219   6.511
 3265SOL    HW110694   4.660   0.193   6.523
 3265SOL    HW210695   4.508   0.170   6.578
 3266SOL     OW10696   2.130   4.242   0.226
 3266SOL    HW110697   2.215   4.200   0.193
 3266SOL    HW210698   2.117   4.331   0.183
 3267SOL     OW10699   3.030   6.147   1.390
 3267SOL    HW110700   3.079   6.223   1.433
 3267SOL    HW210701   3.096   6.077   1.363
 3268SOL     OW10702   2.347   3.828   1.680
 3268SOL    HW110703   2.281   3.790   1.745
 3268SOL    HW210704   2.330   3.927   1.671
 3269SOL     OW10705   5.059   5.697   2.547
 3269SOL    HW110706   5.096   5.713   2.456
 3269SOL    HW210707   5.065   5.782   2.601
 3270SOL     OW10708   1.363   4.518   6.349
 3270SOL    HW110709   1.394   4.588   6.284
 3270SOL    HW210710   1.440   4.490   6.407
 3271SOL     OW10711   5.638   3.694   1.926
 3271SOL    HW110712   5.576   3.689   1.847
 3271SOL    HW210713   5.715   3.754   1.904
 3272SOL     OW10714   2.955   4.445   6.248
 3272SOL    HW110715   2.964   4.366   6.308
 3272SOL    HW210716   3.002   4.427   6.161
 3273SOL     OW10717   6.421   5.441   0.344
 3273SOL    HW110718   6.434   5.449   0.245
 3273SOL    HW210719   6.425   5.533   0.384
 3274SOL     OW10720   4.954   0.896   0.880
 3274SOL    HW110721   4.989   0.940   0.798
 3274SOL    HW210722   4.967   0.956   0.959
 3275SOL     OW10723   5.225   0.701   0.134
 3275SOL    HW110724   5.255   0.660   0.220
 3275SOL    HW210725   5.146   0.760   0.152
 3276SOL     OW10726   4.027   6.011   6.572
 3276SOL    HW110727   4.041   6.110   6.581
 3276SOL    HW210728   3.937   5.986   6.607
 3277SOL     OW10729   3.761   0.313   0.764
 3277SOL    HW110730   3.684   0.360   0.806
 3277SOL    HW210731   3.845   0.336   0.812
 3278SOL     OW10732   1.035   0.916   5.900
 3278SOL    HW110733   0.975   0.842   5.871
 3278SOL    HW210734   1.057   0.905   5.997
 3279SOL     OW10735   5.072   0.008   0.470
 3279SOL    HW110736   5.023   0.088   0.437
 3279SOL    HW210737   5.028   6.941   0.435
 3280SOL     OW10738   4.980   4.369   4.728
 3280SOL    HW110739   4.950   4.420   4.647
 3280SOL    HW210740   5.041   4.295   4.701
 3281SOL     OW10741   1.241   4.636   1.687
 3281SOL    HW110742   1.269   4.638   1.783
 3281SOL    HW210743   1.181   4.714   1.668
 3282SOL     OW10744   0.285   5.004   4.655
 3282SOL    HW110745   0.232   5.089   4.660
 3282SOL    HW210746   0.342   4.996   4.737
 3283SOL     OW10747   3.653   0.650   0.876
 3283SOL    HW110748   3.740   0.652   0.828
 3283SOL    HW210749   3.660   0.590   0.956
 3284SOL     OW10750   1.051   5.696   6.512
 3284SOL    HW110751   1.092   5.608   6.536
 3284SOL    HW210752   1.098   5.735   6.434
 3285SOL     OW10753   4.010   2.179   3.889
 3285SOL    HW110754   4.070   2.176   3.968
 3285SOL    HW210755   4.063   2.197   3.806
 3286SOL     OW10756   3.455   3.217   2.463
 3286SOL    HW110757   3.469   3.207   2.364
 3286SOL    HW210758   3.499   3.141   2.510
 3287SOL     OW10759   1.000   0.252   0.007
 3287SOL    HW110760   1.052   0.335   0.023
 3287SOL    HW210761   1.050   0.192   6.960
 3288SOL     OW10762   2.010   5.984   6.944
 3288SOL    HW110763   2.088   6.045   6.962
 3288SOL    HW210764   2.014   5.952   6.850
 3289SOL     OW10765   3.045   0.763   5.668
 3289SOL    HW110766   2.970   0.822   5.638
 3289SOL    HW210767   3.008   0.677   5.703
 3290SOL     OW10768   0.041   5.408   1.264
 3290SOL    HW110769   0.027   5.492   1.210
 3290SOL    HW210770   7.000   5.412   1.346
 3291SOL     OW10771   1.962   0.345   6.518
 3291SOL    HW110772   2.037   0.402   6.484
 3291SOL    HW210773   1.877   0.397   6.517
 3292SOL     OW10774   0.264   1.027   0.705
 3292SOL    HW110775   0.195   1.061   0.770
 3292SOL    HW210776   0.235   1.048   0.612
 3293SOL     OW10777   6.421   4.556   1.874
 3293SOL    HW110778   6.359   4.480   1.852
 3293SOL    HW210779   6.501   4.521   1.922
 3294SOL     OW10780   5.994   2.807   6.429
 3294SOL    HW110781   6.044   2.893   6.417
 3294SOL    HW210782   6.058   2.733   6.449
 3295SOL     OW10783   1.385   2.595   2.292
 3295SOL    HW110784   1.485   2.594   2.300
 3295SOL    HW210785   1.348   2.513   2.336
 3296SOL     OW10786   1.143   0.203   2.874
 3296SOL    HW110787   1.136   0.265   2.795
 3296SOL    HW210788   1.239   0.178   2.888
 3297SOL     OW10789   3.015   1.433   5.546
 3297SOL    HW110790   3.112   1.417   5.529
 3297SOL    HW210791   2.968   1.444   5.458
 3298SOL     OW10792   6.052   2.000   5.648
 3298SOL    HW110793   6.010   1.915   5.680
 3298SOL    HW210794   6.149   2.001   5.674
 3299SOL     OW10795   4.136   6.038   2.920
 3299SOL    HW110796   4.117   6.135   2.931
 3299SOL    HW210797   4.052   5.990   2.895
 3300SOL     OW10798   0.358   0.531   5.908
 3300SOL    HW110799   0.435   0.521   5.971
 3300SOL    HW210800   0.285   0.469   5.935
 3301SOL     OW10801   2.196   2.918   3.478
 3301SOL    HW110802   2.203   3.007   3.523
 3301SOL    HW210803   2.120   2.867   3.517
 3302SOL     OW10804   0.587   5.087   5.245
 3302SOL    HW110805   0.497   5.054   5.274
 3302SOL    HW210806   0.579   5.129   5.154
 3303SOL     OW10807   3.300   3.573   0.709
 3303SOL    HW110808   3.293   3.480   0.675
 3303SOL    HW210809   3.355   3.628   0.646
 3304SOL     OW10810   1.742   5.641   4.877
 3304SOL    HW110811   1.828   5.666   4.832
 3304SOL    HW210812   1.690   5.723   4.899
 3305SOL     OW10813   2.298   1.619   2.258
 3305SOL    HW110814   2.270   1.699   2.206
 3305SOL    HW210815   2.293   1.639   2.356
 3306SOL     OW10816   2.304   5.529   4.598
 3306SOL    HW110817   2.268   5.452   4.651
 3306SOL    HW210818   2.331   5.603   4.660
 3307SOL     OW10819   0.544   5.756   6.351
 3307SOL    HW110820   0.624   5.726   6.299
 3307SOL    HW210821   0.483   5.678   6.366
 3308SOL     OW10822   2.604   5.845   1.363
 3308SOL    HW110823   2.691   5.876   1.402
 3308SOL    HW210824   2.531   5.858   1.430
 3309SOL     OW10825   5.961   5.436   3.725
 3309SOL    HW110826   5.996   5.352   3.767
 3309SOL    HW210827   5.898   5.481   3.788
 3310SOL     OW10828   0.136   4.410   5.449
 3310SOL    HW110829   0.119   4.317   5.479
 3310SOL    HW210830   0.078   4.431   5.370
 3311SOL     OW10831   4.017   4.205   0.655
 3311SOL    HW110832   3.951   4.142   0.697
 3311SOL    HW210833   3.977   4.296   0.651
 3312SOL     OW10834   4.124   4.448   5.550
 3312SOL    HW110835   4.077   4.423   5.466
 3312SOL    HW210836   4.129   4.369   5.611
 3313SOL     OW10837   1.018   6.455   3.601
 3313SOL    HW110838   1.003   6.529   3.667
 3313SOL    HW210839   1.114   6.456   3.572
 3314SOL     OW10840   2.148   1.177   2.528
 3314SOL    HW110841   2.121   1.083   2.507
 3314SOL    HW210842   2.069   1.227   2.565
 3315SOL     OW10843   0.182   4.573   4.877
 3315SOL    HW110844   0.202   4.582   4.780
 3315SOL    HW210845   0.266   4.588   4.929
 3316SOL     OW10846   5.147   0.970   5.706
 3316SOL    HW110847   5.054   1.003   5.693
 3316SOL    HW210848   5.210   1.047   5.711
 3317SOL     OW10849   4.996   2.972   1.928
 3317SOL    HW110850   4.901   2.956   1.956
 3317SOL    HW210851   5.015   3.071   1.930
 3318SOL     OW10852   1.978   1.658   1.418
 3318SOL    HW110853   1.982   1.613   1.329
 3318SOL    HW210854   2.071   1.680   1.448
 3319SOL     OW10855   6.055   1.691   3.772
 3319SOL    HW110856   5.998   1.609   3.764
 3319SOL    HW210857   6.138   1.669   3.824
 3320SOL     OW10858   6.637   1.072   5.419
 3320SOL    HW110859   6.546   1.049   5.386
 3320SOL    HW210860   6.672   1.151   5.369
 3321SOL     OW10861   5.017   1.444   0.761
 3321SOL    HW110862   4.965   1.442   0.846
 3321SOL    HW210863   4.955   1.432   0.684
 3322SOL     OW10864   6.456   2.576   0.864
 3322SOL    HW110865   6.552   2.551   0.849
 3322SOL    HW210866   6.448   2.675   0.873
 3323SOL     OW10867   3.054   2.723   0.418
 3323SOL    HW110868   3.147   2.740   0.384
 3323SOL    HW210869   3.040   2.773   0.504
 3324SOL     OW10870   3.864   4.982   6.950
 3324SOL    HW110871   3.789   5.027   6.998
 3324SOL    HW210872   3.847   4.884   6.945
 3325SOL     OW10873   0.277   3.681   6.461
 3325SOL    HW110874   0.232   3.641   6.540
 3325SOL    HW210875   0.285   3.613   6.388
 3326SOL     OW10876   4.935   2.118   2.336
 3326SOL    HW110877   4.906   2.030   2.299
 3326SOL    HW210878   4.993   2.104   2.416
 3327SOL     OW10879   3.060   5.304   1.534
 3327SOL    HW110880   3.096   5.213   1.513
 3327SOL    HW210881   3.007   5.300   1.618
 3328SOL     OW10882   4.709   2.221   0.762
 3328SOL    HW110883   4.756   2.139   0.727
 3328SOL    HW210884   4.613   2.218   0.736
 3329SOL     OW10885   5.889   0.709   4.803
 3329SOL    HW110886   5.873   0.798   4.845
 3329SOL    HW210887   5.981   0.707   4.763
 3330SOL     OW10888   6.480   4.299   1.533
 3330SOL    HW110889   6.438   4.359   1.601
 3330SOL    HW210890   6.435   4.210   1.534
 3331SOL     OW10891   2.302   2.557   1.923
 3331SOL    HW110892   2.328   2.619   1.849
 3331SOL    HW210893   2.266   2.610   2.000
 3332SOL     OW10894   5.833   5.651   6.900
 3332SOL    HW110895   5.741   5.613   6.912
 3332SOL    HW210896   5.832   5.717   6.825
 3333SOL     OW10897   4.683   4.992   6.812
 3333SOL    HW110898   4.768   4.945   6.789
 3333SOL    HW210899   4.614   4.924   6.837
 3334SOL     OW10900   2.759   3.979   1.591
 3334SOL    HW110901   2.695   3.975   1.668
 3334SOL    HW210902   2.839   4.034   1.618
 3335SOL     OW10903   4.789   5.925   6.066
 3335SOL    HW110904   4.869   5.887   6.017
 3335SOL    HW210905   4.718   5.947   6.000
 3336SOL     OW10906   2.743   5.961   4.990
 3336SOL    HW110907   2.785   5.999   4.907
 3336SOL    HW210908   2.716   6.037   5.050
 3337SOL     OW10909   2.987   3.854   2.591
 3337SOL    HW110910   2.969   3.805   2.506
 3337SOL    HW210911   3.029   3.943   2.570
 3338SOL     OW10912   5.648   2.745   1.588
 3338SOL    HW110913   5.724   2.767   1.649
 3338SOL    HW210914   5.562   2.775   1.629
 3339SOL     OW10915   6.543   6.931   6.776
 3339SOL    HW110916   6.522   6.835   6.757
 3339SOL    HW210917   6.641   6.947   6.763
 3340SOL     OW10918   3.834   1.121   2.324
 3340SOL    HW110919   3.767   1.166   2.383
 3340SOL    HW210920   3.909   1.084   2.380
 3341SOL     OW10921   0.947   6.000   3.191
 3341SOL    HW110922   0.916   6.065   3.260
 3341SOL    HW210923   0.883   5.923   3.186
 3342SOL     OW10924   2.500   6.729   4.276
 3342SOL    HW110925   2.493   6.646   4.220
 3342SOL    HW210926   2.574   6.787   4.242
 3343SOL     OW10927   4.567   3.092   0.704
 3343SOL    HW110928   4.614   3.073   0.618
 3343SOL    HW210929   4.565   3.009   0.760
 3344SOL     OW10930   5.791   3.444   4.328
 3344SOL    HW110931   5.793   3.425   4.230
 3344SOL    HW210932   5.735   3.375   4.375
 3345SOL     OW10933   1.471   3.639   6.242
 3345SOL    HW110934   1.374   3.618   6.245
 3345SOL    HW210935   1.513   3.593   6.163
 3346SOL     OW10936   1.744   0.680   0.678
 3346SOL    HW110937   1.785   0.658   0.766
 3346SOL    HW210938   1.644   0.682   0.687
 3347SOL     OW10939   0.697   3.859   3.918
 3347SOL    HW110940   0.632   3.795   3.958
 3347SOL    HW210941   0.677   3.952   3.951
 3348SOL     OW10942   3.026   3.111   3.624
 3348SOL    HW110943   2.995   3.154   3.709
 3348SOL    HW210944   3.087   3.034   3.645
 3349SOL     OW10945   0.981   5.734   3.603
 3349SOL    HW110946   0.991   5.818   3.656
 3349SOL    HW210947   0.891   5.732   3.560
 3350SOL     OW10948   1.749   2.605   5.672
 3350SOL    HW110949   1.658   2.618   5.633
 3350SOL    HW210950   1.818   2.608   5.599
 3351SOL     OW10951   5.286   0.756   2.526
 3351SOL    HW110952   5.350   0.759   2.603
 3351SOL    HW210953   5.310   0.828   2.460
 3352SOL     OW10954   0.274   2.568   0.423
 3352SOL    HW110955   0.290   2.476   0.388
 3352SOL    HW210956   0.360   2.618   0.424
 3353SOL     OW10957   1.460   5.672   1.803
 3353SOL    HW110958   1.432   5.579   1.778
 3353SOL    HW210959   1.552   5.670   1.843
 3354SOL     OW10960   5.131   2.522   5.037
 3354SOL    HW110961   5.089   2.447   4.986
 3354SOL    HW210962   5.220   2.544   4.997
 3355SOL     OW10963   2.107   1.543   0.680
 3355SOL    HW110964   2.080   1.633   0.647
 3355SOL    HW210965   2.185   1.552   0.742
 3356SOL     OW10966   2.371   3.769   6.323
 3356SOL    HW110967   2.425   3.851   6.307
 3356SOL    HW210968   2.429   3.688   6.309
 3357SOL     OW10969   2.571   4.724   1.893
 3357SOL    HW110970   2.644   4.684   1.950
 3357SOL    HW210971   2.496   4.658   1.885
 3358SOL     OW10972   5.188   0.579   0.700
 3358SOL    HW110973   5.132   0.609   0.777
 3358SOL    HW210974   5.261   0.520   0.733
 3359SOL     OW10975   6.969   0.524   3.718
 3359SOL    HW110976   0.021   0.585   3.758
 3359SOL    HW210977   6.885   0.575   3.700
 3360SOL     OW10978   0.385   1.453   6.569
 3360SOL    HW110979   0.407   1.489   6.660
 3360SOL    HW210980   0.405   1.355   6.566
 3361SOL     OW10981   0.433   4.100   3.100
 3361SOL    HW110982   0.476   4.054   3.177
 3361SOL    HW210983   0.385   4.182   3.132
 3362SOL     OW10984   3.767   1.240   3.959
 3362SOL    HW110985   3.671   1.260   3.976
 3362SOL    HW210986   3.813   1.322   3.927
 3363SOL     OW10987   0.217   7.003   0.421
 3363SOL    HW110988   0.131   0.019   0.380
 3363SOL    HW210989   0.293   0.011   0.361
 3364SOL     OW10990   1.434   4.314   3.951
 3364SOL    HW110991   1.438   4.414   3.950
 3364SOL    HW210992   1.491   4.278   3.877
 3365SOL     OW10993   0.738   2.326   5.236
 3365SOL    HW110994   0.667   2.396   5.241
 3365SOL    HW210995   0.827   2.367   5.255
 3366SOL     OW10996   5.769   0.632   6.179
 3366SOL    HW110997   5.775   0.596   6.272
 3366SOL    HW210998   5.673   0.645   6.155
 3367SOL     OW10999   3.361   3.057   1.602
 3367SOL    HW111000   3.446   3.050   1.653
 3367SOL    HW211001   3.362   2.991   1.526
 3368SOL     OW11002   0.662   5.188   6.181
 3368SOL    HW111003   0.584   5.191   6.244
 3368SOL    HW211004   0.662   5.270   6.124
 3369SOL     OW11005   3.916   2.526   5.606
 3369SOL    HW111006   3.887   2.479   5.689
 3369SOL    HW211007   3.958   2.613   5.631
 3370SOL     OW11008   6.591   6.156   5.956
 3370SOL    HW111009   6.664   6.214   5.920
 3370SOL    HW211010   6.509   6.166   5.900
 3371SOL     OW11011   1.597   3.356   2.077
 3371SOL    HW111012   1.662   3.423   2.041
 3371SOL    HW211013   1.592   3.365   2.177
 3372SOL     OW11014   1.047   1.051   1.348
 3372SOL    HW111015   1.130   1.000   1.325
 3372SOL    HW211016   1.065   1.149   1.344
 3373SOL     OW11017   6.902   2.136   2.889
 3373SOL    HW111018   6.840   2.196   2.840
 3373SOL    HW211019   6.996   2.152   2.858
 3374SOL     OW11020   1.874   6.271   4.344
 3374SOL    HW111021   1.860   6.179   4.381
 3374SOL    HW211022   1.785   6.310   4.317
 3375SOL     OW11023   5.813   5.423   6.092
 3375SOL    HW111024   5.829   5.499   6.156
 3375SOL    HW211025   5.777   5.344   6.142
 3376SOL     OW11026   3.771   2.947   3.820
 3376SOL    HW111027   3.831   2.971   3.744
 3376SOL    HW211028   3.819   2.961   3.906
 3377SOL     OW11029   0.358   6.535   4.656
 3377SOL    HW111030   0.416   6.565   4.732
 3377SOL    HW211031   0.274   6.495   4.692
 3378SOL     OW11032   6.999   1.031   0.435
 3378SOL    HW111033   6.960   1.123   0.424
 3378SOL    HW211034   0.080   1.033   0.413
 3379SOL     OW11035   7.010   5.832   6.439
 3379SOL    HW111036   7.002   5.921   6.484
 3379SOL    HW211037   0.080   5.788   6.467
 3380SOL     OW11038   5.674   6.716   6.018
 3380SOL    HW111039   5.750   6.755   5.966
 3380SOL    HW211040   5.704   6.694   6.111
 3381SOL     OW11041   1.289   2.874   1.320
 3381SOL    HW111042   1.308   2.859   1.417
 3381SOL    HW211043   1.345   2.950   1.286
 3382SOL     OW11044   0.934   1.203   0.655
 3382SOL    HW111045   0.881   1.124   0.626
 3382SOL    HW211046   0.934   1.209   0.754
 3383SOL     OW11047   4.432   5.846   2.058
 3383SOL    HW111048   4.410   5.790   1.978
 3383SOL    HW211049   4.490   5.923   2.030
 3384SOL     OW11050   2.399   3.795   5.593
 3384SOL    HW111051   2.425   3.888   5.566
 3384SOL    HW211052   2.468   3.731   5.561
 3385SOL     OW11053   6.976   2.837   3.772
 3385SOL    HW111054   6.942   2.861   3.863
 3385SOL    HW211055   0.051   2.876   3.759
 3386SOL     OW11056   6.546   3.261   6.676
 3386SOL    HW111057   6.623   3.265   6.613
 3386SOL    HW211058   6.565   3.319   6.755
 3387SOL     OW11059   3.214   1.258   3.957
 3387SOL    HW111060   3.132   1.223   4.004
 3387SOL    HW211061   3.217   1.357   3.966
 3388SOL     OW11062   5.180   3.333   2.181
 3388SOL    HW111063   5.113   3.277   2.134
 3388SOL    HW211064   5.162   3.430   2.162
 3389SOL     OW11065   5.397   4.983   5.474
 3389SOL    HW111066   5.454   5.036   5.537
 3389SOL    HW211067   5.417   4.886   5.484
 3390SOL     OW11068   4.932   4.824   5.750
 3390SOL    HW111069   4.903   4.849   5.842
 3390SOL    HW211070   5.016   4.769   5.755
 3391SOL     OW11071   5.199   2.841   5.011
 3391SOL    HW111072   5.216   2.837   4.912
 3391SOL    HW211073   5.286   2.847   5.060
 3392SOL     OW11074   2.672   6.823   3.890
 3392SOL    HW111075   2.690   6.897   3.826
 3392SOL    HW211076   2.578   6.791   3.879
 3393SOL     OW11077   0.495   6.250   0.138
 3393SOL    HW111078   0.574   6.228   0.081
 3393SOL    HW211079   0.491   6.349   0.153
 3394SOL     OW11080   5.953   3.259   1.423
 3394SOL    HW111081   5.968   3.161   1.406
 3394SOL    HW211082   5.893   3.296   1.352
 3395SOL     OW11083   5.625   3.148   3.413
 3395SOL    HW111084   5.672   3.136   3.326
 3395SOL    HW211085   5.533   3.108   3.407
 3396SOL     OW11086   5.380   2.023   3.603
 3396SOL    HW111087   5.304   2.018   3.538
 3396SOL    HW211088   5.465   2.042   3.554
 3397SOL     OW11089   2.804   0.962   5.867
 3397SOL    HW111090   2.880   1.012   5.908
 3397SOL    HW211091   2.746   0.924   5.940
 3398SOL     OW11092   1.252   0.039   4.473
 3398SOL    HW111093   1.164   0.005   4.506
 3398SOL    HW211094   1.326   7.000   4.512
 3399SOL     OW11095   5.734   4.386   4.506
 3399SOL    HW111096   5.781   4.393   4.418
 3399SOL    HW211097   5.693   4.295   4.515
 3400SOL     OW11098   4.762   2.203   5.835
 3400SOL    HW111099   4.812   2.123   5.867
 3400SOL    HW211100   4.701   2.177   5.761
 3401SOL     OW11101   6.941   3.365   1.070
 3401SOL    HW111102   6.919   3.283   1.122
 3401SOL    HW211103   0.007   3.350   1.015
 3402SOL     OW11104   3.847   6.300   6.404
 3402SOL    HW111105   3.922   6.308   6.470
 3402SOL    HW211106   3.760   6.308   6.452
 3403SOL     OW11107   4.341   6.791   4.766
 3403SOL    HW111108   4.251   6.824   4.795
 3403SOL    HW211109   4.331   6.701   4.722
 3404SOL     OW11110   5.395   1.289   0.265
 3404SOL    HW111111   5.422   1.194   0.252
 3404SOL    HW211112   5.375   1.330   0.176
 3405SOL     OW11113   6.818   3.939   4.194
 3405SOL    HW111114   6.767   4.003   4.137
 3405SOL    HW211115   6.896   3.903   4.142
 3406SOL     OW11116   0.671   3.843   2.551
 3406SOL    HW111117   0.755   3.848   2.497
 3406SOL    HW211118   0.681   3.772   2.621
 3407SOL     OW11119   1.567   5.516   0.130
 3407SOL    HW111120   1.582   5.609   0.166
 3407SOL    HW211121   1.532   5.522   0.037
 3408SOL     OW11122   5.042   3.783   5.378
 3408SOL    HW111123   5.003   3.818   5.292
 3408SOL    HW211124   4.985   3.709   5.413
 3409SOL     OW11125   3.450   6.012   6.546
 3409SOL    HW111126   3.417   6.105   6.557
 3409SOL    HW211127   3.374   5.948   6.560
 3410SOL     OW11128   0.117   6.271   0.244
 3410SOL    HW111129   0.115   6.237   0.150
 3410SOL    HW211130   0.138   6.369   0.244
 3411SOL     OW11131   0.206   2.572   1.605
 3411SOL    HW111132   0.206   2.665   1.642
 3411SOL    HW211133   0.278   2.518   1.650
 3412SOL     OW11134   3.967   2.668   6.876
 3412SOL    HW111135   3.982   2.635   6.783
 3412SOL    HW211136   3.873   2.699   6.886
 3413SOL     OW11137   5.674   1.177   1.474
 3413SOL    HW111138   5.766   1.208   1.499
 3413SOL    HW211139   5.632   1.130   1.552
 3414SOL     OW11140   1.943   0.888   5.961
 3414SOL    HW111141   1.876   0.913   5.891
 3414SOL    HW211142   1.905   0.816   6.019
 3415SOL     OW11143   1.659   3.892   4.631
 3415SOL    HW111144   1.737   3.949   4.607
 3415SOL    HW211145   1.688   3.797   4.640
 3416SOL     OW11146   0.125   5.499   0.900
 3416SOL    HW111147   0.214   5.526   0.939
 3416SOL    HW211148   0.054   5.507   0.970
 3417SOL     OW11149   0.454   6.050   3.021
 3417SOL    HW111150   0.361   6.082   3.037
 3417SOL    HW211151   0.519   6.124   3.041
 3418SOL     OW11152   3.384   0.634   4.712
 3418SOL    HW111153   3.358   0.701   4.782
 3418SOL    HW211154   3.475   0.657   4.676
 3419SOL     OW11155   4.459   5.970   4.953
 3419SOL    HW111156   4.528   6.004   4.890
 3419SOL    HW211157   4.397   5.908   4.905
 3420SOL     OW11158   5.602   2.873   3.770
 3420SOL    HW111159   5.514   2.844   3.807
 3420SOL    HW211160   5.628   2.812   3.695
 3421SOL     OW11161   5.480   0.660   6.120
 3421SOL    HW111162   5.443   0.692   6.207
 3421SOL    HW211163   5.464   0.730   6.050
 3422SOL     OW11164   1.907   0.121   1.245
 3422SOL    HW111165   1.908   0.220   1.231
 3422SOL    HW211166   1.832   0.096   1.305
 3423SOL     OW11167   2.132   5.524   0.113
 3423SOL    HW111168   2.079   5.464   0.053
 3423SOL    HW211169   2.084   5.532   0.201
 3424SOL     OW11170   2.675   6.974   2.247
 3424SOL    HW111171   2.714   0.007   2.169
 3424SOL    HW211172   2.719   7.007   2.331
 3425SOL     OW11173   5.113   4.699   2.521
 3425SOL    HW111174   5.203   4.668   2.550
 3425SOL    HW211175   5.043   4.636   2.555
 3426SOL     OW11176   3.825   2.841   0.494
 3426SOL    HW111177   3.842   2.877   0.403
 3426SOL    HW211178   3.734   2.798   0.497
 3427SOL     OW11179   6.518   0.199   0.409
 3427SOL    HW111180   6.522   0.101   0.429
 3427SOL    HW211181   6.443   0.241   0.460
 3428SOL     OW11182   3.179   4.500   1.047
 3428SOL    HW111183   3.117   4.470   0.974
 3428SOL    HW211184   3.229   4.581   1.016
 3429SOL     OW11185   0.598   2.283   0.053
 3429SOL    HW111186   0.526   2.214   0.062
 3429SOL    HW211187   0.560   2.374   0.068
 3430SOL     OW11188   0.306   6.150   5.146
 3430SOL    HW111189   0.315   6.055   5.116
 3430SOL    HW211190   0.295   6.210   5.067
 3431SOL     OW11191   1.237   6.882   1.178
 3431SOL    HW111192   1.263   6.959   1.120
 3431SOL    HW211193   1.311   6.862   1.242
 3432SOL     OW11194   1.822   2.834   0.005
 3432SOL    HW111195   1.736   2.881   7.002
 3432SOL    HW211196   1.811   2.773   0.084
 3433SOL     OW11197   1.110   0.141   6.246
 3433SOL    HW111198   1.013   0.131   6.266
 3433SOL    HW211199   1.150   0.051   6.229
 3434SOL     OW11200   4.520   1.840   0.648
 3434SOL    HW111201   4.614   1.848   0.682
 3434SOL    HW211202   4.508   1.752   0.603
 3435SOL     OW11203   1.218   1.896   0.948
 3435SOL    HW111204   1.245   1.805   0.918
 3435SOL    HW211205   1.292   1.961   0.929
 3436SOL     OW11206   3.358   5.994   6.202
 3436SOL    HW111207   3.342   5.896   6.193
 3436SOL    HW211208   3.456   6.012   6.206
 3437SOL     OW11209   2.457   1.161   6.036
 3437SOL    HW111210   2.431   1.212   6.118
 3437SOL    HW211211   2.379   1.156   5.974
 3438SOL     OW11212   1.174   2.827   0.363
 3438SOL    HW111213   1.267   2.815   0.327
 3438SOL    HW211214   1.156   2.756   0.431
 3439SOL     OW11215   2.116   6.249   5.210
 3439SOL    HW111216   2.200   6.231   5.262
 3439SOL    HW211217   2.140   6.275   5.117
 3440SOL     OW11218   3.644   3.248   1.579
 3440SOL    HW111219   3.587   3.297   1.646
 3440SOL    HW211220   3.671   3.160   1.616
 3441SOL     OW11221   5.282   6.796   4.250
 3441SOL    HW111222   5.367   6.846   4.266
 3441SOL    HW211223   5.295   6.731   4.174
 3442SOL     OW11224   3.440   5.447   2.129
 3442SOL    HW111225   3.516   5.475   2.187
 3442SOL    HW211226   3.400   5.528   2.085
 3443SOL     OW11227   5.132   6.757   2.032
 3443SOL    HW111228   5.139   6.684   2.101
 3443SOL    HW211229   5.128   6.715   1.941
 3444SOL     OW11230   5.350   5.714   0.455
 3444SOL    HW111231   5.261   5.669   0.459
 3444SOL    HW211232   5.337   5.813   0.444
 3445SOL     OW11233   6.282   5.835   4.430
 3445SOL    HW111234   6.247   5.741   4.431
 3445SOL    HW211235   6.252   5.883   4.512
 3446SOL     OW11236   6.027   0.274   2.361
 3446SOL    HW111237   6.120   0.306   2.345
 3446SOL    HW211238   5.965   0.352   2.371
 3447SOL     OW11239   5.185   5.542   1.019
 3447SOL    HW111240   5.118   5.608   1.053
 3447SOL    HW211241   5.139   5.456   0.999
 3448SOL     OW11242   3.092   0.237   1.099
 3448SOL    HW111243   3.020   0.170   1.114
 3448SOL    HW211244   3.180   0.199   1.128
 3449SOL     OW11245   6.738   6.875   3.866
 3449SOL    HW111246   6.709   6.928   3.786
 3449SOL    HW211247   6.773   6.786   3.835
 3450SOL     OW11248   6.797   1.919   6.659
 3450SOL    HW111249   6.869   1.932   6.590
 3450SOL    HW211250   6.838   1.890   6.745
 3451SOL     OW11251   1.909   6.180   2.031
 3451SOL    HW111252   1.921   6.093   2.078
 3451SOL    HW211253   1.995   6.231   2.032
 3452SOL     OW11254   5.847   1.628   6.102
 3452SOL    HW111255   5.921   1.583   6.151
 3452SOL    HW211256   5.882   1.709   6.056
 3453SOL     OW11257   6.884   5.713   5.760
 3453SOL    HW111258   6.875   5.676   5.667
 3453SOL    HW211259   6.956   5.664   5.809
 3454SOL     OW11260   1.157   2.136   6.591
 3454SOL    HW111261   1.223   2.082   6.643
 3454SOL    HW211262   1.073   2.147   6.644
 3455SOL     OW11263   2.354   2.380   4.450
 3455SOL    HW111264   2.327   2.330   4.532
 3455SOL    HW211265   2.444   2.421   4.464
 3456SOL     OW11266   6.028   5.467   2.646
 3456SOL    HW111267   6.034   5.554   2.598
 3456SOL    HW211268   5.934   5.452   2.677
 3457SOL     OW11269   3.235   5.747   3.607
 3457SOL    HW111270   3.250   5.715   3.514
 3457SOL    HW211271   3.211   5.844   3.606
 3458SOL     OW11272   4.850   0.467   0.914
 3458SOL    HW111273   4.817   0.470   1.009
 3458SOL    HW211274   4.807   0.390   0.866
 3459SOL     OW11275   5.557   4.192   2.929
 3459SOL    HW111276   5.520   4.100   2.940
 3459SOL    HW211277   5.483   4.259   2.935
 3460SOL     OW11278   2.591   3.255   0.328
 3460SOL    HW111279   2.668   3.302   0.371
 3460SOL    HW211280   2.623   3.207   0.246
 3461SOL     OW11281   4.786   6.885   5.012
 3461SOL    HW111282   4.767   6.798   5.058
 3461SOL    HW211283   4.707   6.945   5.022
 3462SOL     OW11284   0.426   3.432   2.114
 3462SOL    HW111285   0.347   3.412   2.172
 3462SOL    HW211286   0.467   3.346   2.083
 3463SOL     OW11287   1.237   3.331   3.784
 3463SOL    HW111288   1.174   3.274   3.837
 3463SOL    HW211289   1.203   3.425   3.782
 3464SOL     OW11290   6.868   3.034   6.715
 3464SOL    HW111291   6.785   3.067   6.761
 3464SOL    HW211292   6.940   3.019   6.782
 3465SOL     OW11293   1.591   2.287   2.189
 3465SOL    HW111294   1.664   2.320   2.130
 3465SOL    HW211295   1.572   2.354   2.260
 3466SOL     OW11296   6.595   4.830   6.711
 3466SOL    HW111297   6.613   4.853   6.807
 3466SOL    HW211298   6.649   4.891   6.652
 3467SOL     OW11299   1.999   2.768   0.987
 3467SOL    HW111300   2.013   2.693   0.922
 3467SOL    HW211301   1.978   2.852   0.937
 3468SOL     OW11302   5.768   0.326   2.625
 3468SOL    HW111303   5.782   0.232   2.657
 3468SOL    HW211304   5.682   0.333   2.575
 3469SOL     OW11305   4.522   6.823   3.733
 3469SOL    HW111306   4.508   6.862   3.824
 3469SOL    HW211307   4.620   6.811   3.716
 3470SOL     OW11308   6.915   2.288   1.807
 3470SOL    HW111309   6.898   2.384   1.786
 3470SOL    HW211310   7.011   2.266   1.790
 3471SOL     OW11311   4.994   4.785   4.587
 3471SOL    HW111312   4.899   4.768   4.557
 3471SOL    HW211313   5.052   4.795   4.506
 3472SOL     OW11314   3.114   1.333   3.167
 3472SOL    HW111315   3.153   1.425   3.172
 3472SOL    HW211316   3.102   1.307   3.071
 3473SOL     OW11317   6.926   2.777   1.362
 3473SOL    HW111318   6.991   2.759   1.288
 3473SOL    HW211319   6.946   2.718   1.440
 3474SOL     OW11320   0.765   4.664   2.935
 3474SOL    HW111321   0.754   4.594   2.865
 3474SOL    HW211322   0.831   4.633   3.003
 3475SOL     OW11323   1.429   4.204   4.195
 3475SOL    HW111324   1.346   4.149   4.191
 3475SOL    HW211325   1.446   4.246   4.106
 3476SOL     OW11326   2.301   1.607   2.779
 3476SOL    HW111327   2.373   1.665   2.817
 3476SOL    HW211328   2.211   1.646   2.799
 3477SOL     OW11329   1.662   5.268   0.796
 3477SOL    HW111330   1.638   5.190   0.854
 3477SOL    HW211331   1.746   5.310   0.829
 3478SOL     OW11332   2.572   5.433   5.210
 3478SOL    HW111333   2.582   5.339   5.240
 3478SOL    HW211334   2.661   5.469   5.182
 3479SOL     OW11335   1.210   0.944   3.099
 3479SOL    HW111336   1.195   0.846   3.086
 3479SOL    HW211337   1.172   0.994   3.021
 3480SOL     OW11338   0.387   6.145   4.668
 3480SOL    HW111339   0.385   6.135   4.569
 3480SOL    HW211340   0.338   6.069   4.710
 3481SOL     OW11341   4.900   0.618   0.235
 3481SOL    HW111342   4.863   0.613   0.328
 3481SOL    HW211343   4.848   0.558   0.175
 3482SOL     OW11344   6.379   1.439   2.071
 3482SOL    HW111345   6.399   1.537   2.067
 3482SOL    HW211346   6.347   1.414   2.162
 3483SOL     OW11347   4.661   2.181   2.078
 3483SOL    HW111348   4.713   2.224   2.152
 3483SOL    HW211349   4.722   2.160   2.001
 3484SOL     OW11350   0.905   3.204   0.222
 3484SOL    HW111351   0.884   3.220   0.126
 3484SOL    HW211352   0.993   3.157   0.230
 3485SOL     OW11353   2.016   2.120   4.192
 3485SOL    HW111354   1.938   2.079   4.240
 3485SOL    HW211355   2.101   2.089   4.235
 3486SOL     OW11356   2.648   0.111   3.959
 3486SOL    HW111357   2.663   0.210   3.962
 3486SOL    HW211358   2.592   0.084   4.037
 3487SOL     OW11359   5.990   2.242   6.039
 3487SOL    HW111360   6.039   2.330   6.035
 3487SOL    HW211361   5.914   2.250   6.103
 3488SOL     OW11362   6.578   0.411   4.443
 3488SOL    HW111363   6.657   0.375   4.493
 3488SOL    HW211364   6.508   0.340   4.436
 3489SOL     OW11365   4.240   0.207   1.432
 3489SOL    HW111366   4.221   0.305   1.423
 3489SOL    HW211367   4.242   0.165   1.341
 3490SOL     OW11368   4.201   4.142   0.848
 3490SOL    HW111369   4.139   4.151   0.769
 3490SOL    HW211370   4.271   4.074   0.827
 3491SOL     OW11371   4.211   2.557   5.839
 3491SOL    HW111372   4.216   2.546   5.938
 3491SOL    HW211373   4.300   2.535   5.799
 3492SOL     OW11374   6.693   4.497   1.184
 3492SOL    HW111375   6.664   4.403   1.206
 3492SOL    HW211376   6.750   4.532   1.258
 3493SOL     OW11377   5.214   3.968   5.227
 3493SOL    HW111378   5.202   3.877   5.267
 3493SOL    HW211379   5.179   3.968   5.133
 3494SOL     OW11380   3.265   0.480   1.963
 3494SOL    HW111381   3.279   0.520   2.053
 3494SOL    HW211382   3.351   0.483   1.911
 3495SOL     OW11383   5.714   5.058   1.727
 3495SOL    HW111384   5.690   5.078   1.632
 3495SOL    HW211385   5.737   4.961   1.736
 3496SOL     OW11386   5.998   4.703   1.060
 3496SOL    HW111387   5.934   4.670   1.129
 3496SOL    HW211388   6.046   4.626   1.019
 3497SOL     OW11389   2.457   1.239   4.193
 3497SOL    HW111390   2.364   1.276   4.194
 3497SOL    HW211391   2.453   1.139   4.193
 3498SOL     OW11392   3.218   2.264   0.839
 3498SOL    HW111393   3.266   2.213   0.767
 3498SOL    HW211394   3.181   2.201   0.906
 3499SOL     OW11395   5.287   3.625   3.934
 3499SOL    HW111396   5.287   3.525   3.935
 3499SOL    HW211397   5.371   3.659   3.977
 3500SOL     OW11398   1.892   3.717   4.749
 3500SOL    HW111399   1.907   3.765   4.836
 3500SOL    HW211400   1.958   3.643   4.740
 3501SOL     OW11401   1.394   5.944   4.874
 3501SOL    HW111402   1.356   6.036   4.887
 3501SOL    HW211403   1.472   5.931   4.935
 3502SOL     OW11404   6.737   2.785   2.194
 3502SOL    HW111405   6.643   2.810   2.174
 3502SOL    HW211406   6.791   2.868   2.208
 3503SOL     OW11407   6.266   6.412   4.773
 3503SOL    HW111408   6.353   6.369   4.795
 3503SOL    HW211409   6.259   6.499   4.822
 3504SOL     OW11410   2.549   1.574   1.482
 3504SOL    HW111411   2.549   1.492   1.425
 3504SOL    HW211412   2.514   1.552   1.573
 3505SOL     OW11413   5.488   4.009   5.075
 3505SOL    HW111414   5.418   3.949   5.037
 3505SOL    HW211415   5.463   4.033   5.169
 3506SOL     OW11416   5.154   5.523   5.544
 3506SOL    HW111417   5.077   5.498   5.603
 3506SOL    HW211418   5.225   5.454   5.550
 3507SOL     OW11419   1.936   0.642   0.873
 3507SOL    HW111420   1.874   0.633   0.950
 3507SOL    HW211421   1.977   0.552   0.853
 3508SOL     OW11422   2.324   2.023   5.591
 3508SOL    HW111423   2.258   2.077   5.644
 3508SOL    HW211424   2.408   2.012   5.644
 3509SOL     OW11425   5.372   0.309   6.210
 3509SOL    HW111426   5.431   0.232   6.235
 3509SOL    HW211427   5.418   0.365   6.141
 3510SOL     OW11428   1.358   1.905   2.319
 3510SOL    HW111429   1.319   1.955   2.396
 3510SOL    HW211430   1.340   1.953   2.234
 3511SOL     OW11431   2.538   5.175   0.811
 3511SOL    HW111432   2.546   5.077   0.794
 3511SOL    HW211433   2.551   5.225   0.725
 3512SOL     OW11434   6.781   4.192   1.049
 3512SOL    HW111435   6.818   4.283   1.033
 3512SOL    HW211436   6.707   4.197   1.116
 3513SOL     OW11437   5.533   2.817   7.001
 3513SOL    HW111438   5.583   2.753   0.043
 3513SOL    HW211439   5.517   2.775   6.912
 3514SOL     OW11440   0.274   1.646   1.739
 3514SOL    HW111441   0.258   1.656   1.641
 3514SOL    HW211442   0.237   1.558   1.770
 3515SOL     OW11443   5.222   6.046   3.180
 3515SOL    HW111444   5.215   5.948   3.198
 3515SOL    HW211445   5.188   6.066   3.088
 3516SOL     OW11446   4.885   7.010   0.790
 3516SOL    HW111447   4.787   7.005   0.774
 3516SOL    HW211448   4.926   6.920   0.777
 3517SOL     OW11449   1.604   2.628   0.777
 3517SOL    HW111450   1.641   2.692   0.710
 3517SOL    HW211451   1.607   2.669   0.868
 3518SOL     OW11452   5.732   2.142   3.771
 3518SOL    HW111453   5.753   2.186   3.858
 3518SOL    HW211454   5.789   2.061   3.759
 3519SOL     OW11455   1.766   0.536   6.614
 3519SOL    HW111456   1.683   0.481   6.612
 3519SOL    HW211457   1.753   0.619   6.559
 3520SOL     OW11458   3.175   4.853   6.477
 3520SOL    HW111459   3.204   4.900   6.561
 3520SOL    HW211460   3.125   4.770   6.500
 3521SOL     OW11461   4.800   2.293   6.856
 3521SOL    HW111462   4.719   2.266   6.908
 3521SOL    HW211463   4.874   2.316   6.919
 3522SOL     OW11464   0.293   4.656   1.728
 3522SOL    HW111465   0.331   4.734   1.678
 3522SOL    HW211466   0.317   4.664   1.824
 3523SOL     OW11467   1.756   5.171   6.013
 3523SOL    HW111468   1.668   5.183   5.967
 3523SOL    HW211469   1.799   5.087   5.981
 3524SOL     OW11470   4.588   1.702   1.926
 3524SOL    HW111471   4.629   1.745   1.846
 3524SOL    HW211472   4.659   1.659   1.981
 3525SOL     OW11473   1.413   4.252   3.253
 3525SOL    HW111474   1.442   4.166   3.212
 3525SOL    HW211475   1.417   4.244   3.353
 3526SOL     OW11476   2.234   6.809   4.204
 3526SOL    HW111477   2.185   6.796   4.290
 3526SOL    HW211478   2.327   6.773   4.212
 3527SOL     OW11479   5.898   3.190   6.173
 3527SOL    HW111480   5.878   3.241   6.090
 3527SOL    HW211481   5.904   3.253   6.251
 3528SOL     OW11482   0.966   5.897   5.015
 3528SOL    HW111483   0.919   5.851   4.940
 3528SOL    HW211484   1.056   5.928   4.985
 3529SOL     OW11485   3.883   0.336   6.924
 3529SOL    HW111486   3.870   0.252   6.872
 3529SOL    HW211487   3.974   0.336   6.965
 3530SOL     OW11488   0.336   5.179   2.409
 3530SOL    HW111489   0.421   5.156   2.456
 3530SOL    HW211490   0.338   5.275   2.381
 3531SOL     OW11491   5.108   2.813   0.213
 3531SOL    HW111492   5.035   2.771   0.158
 3531SOL    HW211493   5.157   2.742   0.263
 3532SOL     OW11494   3.078   0.861   1.537
 3532SOL    HW111495   3.018   0.814   1.472
 3532SOL    HW211496   3.085   0.806   1.621
 3533SOL     OW11497   1.762   2.026   2.780
 3533SOL    HW111498   1.764   2.046   2.878
 3533SOL    HW211499   1.775   1.928   2.766
 3534SOL     OW11500   5.980   1.100   6.458
 3534SOL    HW111501   5.910   1.029   6.449
 3534SOL    HW211502   6.012   1.102   6.553
 3535SOL     OW11503   1.885   6.111   0.687
 3535SOL    HW111504   1.923   6.047   0.620
 3535SOL    HW211505   1.834   6.061   0.757
 3536SOL     OW11506   3.068   2.184   3.123
 3536SOL    HW111507   3.037   2.178   3.218
 3536SOL    HW211508   3.167   2.187   3.120
 3537SOL     OW11509   3.007   5.559   1.687
 3537SOL    HW111510   3.037   5.514   1.771
 3537SOL    HW211511   3.085   5.574   1.626
 3538SOL     OW11512   1.390   0.571   6.388
 3538SOL    HW111513   1.310   0.600   6.335
 3538SOL    HW211514   1.457   0.645   6.390
 3539SOL     OW11515   5.452   3.016   5.867
 3539SOL    HW111516   5.423   3.051   5.778
 3539SOL    HW211517   5.550   2.999   5.865
 3540SOL     OW11518   2.546   2.009   5.723
 3540SOL    HW111519   2.646   1.997   5.725
 3540SOL    HW211520   2.511   2.008   5.816
 3541SOL     OW11521   1.895   2.517   6.756
 3541SOL    HW111522   1.954   2.551   6.683
 3541SOL    HW211523   1.933   2.544   6.845
 3542SOL     OW11524   1.596   5.238   2.749
 3542SOL    HW111525   1.501   5.217   2.774
 3542SOL    HW211526   1.634   5.302   2.815
 3543SOL     OW11527   0.568   2.237   4.797
 3543SOL    HW111528   0.570   2.296   4.879
 3543SOL    HW211529   0.499   2.271   4.734
 3544SOL     OW11530   2.804   4.147   6.305
 3544SOL    HW111531   2.802   4.197   6.219
 3544SOL    HW211532   2.737   4.187   6.368
 3545SOL     OW11533   4.053   4.941   0.697
 3545SOL    HW111534   4.079   4.876   0.626
 3545SOL    HW211535   4.134   4.970   0.748
 3546SOL     OW11536   0.938   3.756   3.850
 3546SOL    HW111537   0.861   3.815   3.871
 3546SOL    HW211538   0.936   3.674   3.908
 3547SOL     OW11539   6.774   4.834   4.483
 3547SOL    HW111540   6.758   4.835   4.385
 3547SOL    HW211541   6.856   4.887   4.505
 3548SOL     OW11542   6.057   0.990   5.864
 3548SOL    HW111543   6.000   1.025   5.938
 3548SOL    HW211544   6.123   0.925   5.902
 3549SOL     OW11545   6.726   4.768   5.696
 3549SOL    HW111546   6.770   4.734   5.612
 3549SOL    HW211547   6.796   4.802   5.759
 3550SOL     OW11548   5.902   3.558   3.345
 3550SOL    HW111549   5.827   3.514   3.394
 3550SOL    HW211550   5.987   3.546   3.397
 3551SOL     OW11551   3.948   1.435   2.474
 3551SOL    HW111552   3.982   1.473   2.560
 3551SOL    HW211553   3.983   1.489   2.397
 3552SOL     OW11554   6.185   6.558   1.882
 3552SOL    HW111555   6.275   6.572   1.841
 3552SOL    HW211556   6.115   6.574   1.813
 3553SOL     OW11557   4.561   5.413   1.056
 3553SOL    HW111558   4.508   5.394   0.974
 3553SOL    HW211559   4.597   5.506   1.052
 3554SOL     OW11560   4.524   2.204   1.684
 3554SOL    HW111561   4.513   2.117   1.732
 3554SOL    HW211562   4.436   2.249   1.674
 3555SOL     OW11563   0.780   4.512   3.450
 3555SOL    HW111564   0.716   4.580   3.486
 3555SOL    HW211565   0.772   4.427   3.503
 3556SOL     OW11566   4.202   1.681   4.461
 3556SOL    HW111567   4.171   1.672   4.366
 3556SOL    HW211568   4.281   1.620   4.475
 3557SOL     OW11569   1.311   1.776   4.627
 3557SOL    HW111570   1.265   1.758   4.714
 3557SOL    HW211571   1.305   1.695   4.569
 3558SOL     OW11572   1.136   6.467   2.381
 3558SOL    HW111573   1.153   6.424   2.293
 3558SOL    HW211574   1.045   6.508   2.382
 3559SOL     OW11575   0.809   5.980   5.694
 3559SOL    HW111576   0.841   6.068   5.656
 3559SOL    HW211577   0.826   5.979   5.792
 3560SOL     OW11578   0.966   5.795   2.111
 3560SOL    HW111579   0.973   5.873   2.050
 3560SOL    HW211580   1.029   5.723   2.083
 3561SOL     OW11581   4.326   4.721   4.816
 3561SOL    HW111582   4.320   4.657   4.739
 3561SOL    HW211583   4.321   4.670   4.902
 3562SOL     OW11584   4.614   0.993   3.581
 3562SOL    HW111585   4.636   0.977   3.485
 3562SOL    HW211586   4.522   0.961   3.601
 3563SOL     OW11587   5.817   1.173   0.218
 3563SOL    HW111588   5.773   1.263   0.216
 3563SOL    HW211589   5.822   1.141   0.312
 3564SOL     OW11590   2.124   4.419   3.783
 3564SOL    HW111591   2.192   4.349   3.802
 3564SOL    HW211592   2.073   4.441   3.866
 3565SOL     OW11593   2.548   5.743   5.015
 3565SOL    HW111594   2.567   5.652   4.980
 3565SOL    HW211595   2.634   5.796   5.017
 3566SOL     OW11596   6.650   3.731   6.068
 3566SOL    HW111597   6.666   3.646   6.018
 3566SOL    HW211598   6.727   3.748   6.130
 3567SOL     OW11599   0.108   2.968   0.234
 3567SOL    HW111600   0.036   2.925   0.180
 3567SOL    HW211601   0.068   3.015   0.313
 3568SOL     OW11602   4.560   5.164   4.246
 3568SOL    HW111603   4.563   5.094   4.317
 3568SOL    HW211604   4.467   5.201   4.239
 3569SOL     OW11605   1.887   1.825   5.745
 3569SOL    HW111606   1.801   1.780   5.767
 3569SOL    HW211607   1.912   1.804   5.650
 3570SOL     OW11608   5.455   0.977   4.923
 3570SOL    HW111609   5.437   0.878   4.918
 3570SOL    HW211610   5.535   0.998   4.867
 3571SOL     OW11611   0.859   5.538   5.205
 3571SOL    HW111612   0.904   5.452   5.228
 3571SOL    HW211613   0.878   5.561   5.109
 3572SOL     OW11614   6.037   3.092   3.181
 3572SOL    HW111615   6.114   3.028   3.182
 3572SOL    HW211616   6.056   3.169   3.241
 3573SOL     OW11617   6.857   4.982   3.484
 3573SOL    HW111618   6.809   4.931   3.413
 3573SOL    HW211619   6.955   4.983   3.464
 3574SOL     OW11620   0.354   3.010   0.670
 3574SOL    HW111621   0.445   2.969   0.664
 3574SOL    HW211622   0.329   3.021   0.767
 3575SOL     OW11623   5.766   5.513   2.697
 3575SOL    HW111624   5.735   5.583   2.632
 3575SOL    HW211625   5.743   5.423   2.661
 3576SOL     OW11626   0.530   2.390   6.414
 3576SOL    HW111627   0.526   2.484   6.380
 3576SOL    HW211628   0.438   2.350   6.411
 3577SOL     OW11629   1.460   2.273   7.009
 3577SOL    HW111630   1.528   2.317   0.052
 3577SOL    HW211631   1.461   2.317   6.919
 3578SOL     OW11632   3.750   1.398   0.118
 3578SOL    HW111633   3.667   1.446   0.146
 3578SOL    HW211634   3.741   1.301   0.139
 3579SOL     OW11635   6.561   2.415   3.274
 3579SOL    HW111636   6.659   2.422   3.291
 3579SOL    HW211637   6.512   2.479   3.332
 3580SOL     OW11638   6.366   3.300   1.296
 3580SOL    HW111639   6.281   3.351   1.284
 3580SOL    HW211640   6.346   3.206   1.320
 3581SOL     OW11641   1.297   4.823   3.327
 3581SOL    HW111642   1.356   4.894   3.290
 3581SOL    HW211643   1.252   4.774   3.252
 3582SOL     OW11644   1.319   3.448   6.721
 3582SOL    HW111645   1.287   3.451   6.627
 3582SOL    HW211646   1.343   3.540   6.752
 3583SOL     OW11647   1.428   4.770   6.783
 3583SOL    HW111648   1.390   4.850   6.830
 3583SOL    HW211649   1.431   4.693   6.847
 3584SOL     OW11650   5.759   4.492   6.109
 3584SOL    HW111651   5.785   4.436   6.030
 3584SOL    HW211652   5.662   4.480   6.128
 3585SOL     OW11653   2.850   1.583   4.350
 3585SOL    HW111654   2.908   1.629   4.283
 3585SOL    HW211655   2.841   1.486   4.325
 3586SOL     OW11656   6.486   1.455   4.335
 3586SOL    HW111657   6.576   1.497   4.333
 3586SOL    HW211658   6.451   1.446   4.241
 3587SOL     OW11659   2.129   4.685   5.829
 3587SOL    HW111660   2.224   4.660   5.811
 3587SOL    HW211661   2.090   4.728   5.748
 3588SOL     OW11662   0.816   3.127   5.025
 3588SOL    HW111663   0.875   3.202   5.056
 3588SOL    HW211664   0.873   3.048   5.002
 3589SOL     OW11665   5.370   1.122   5.608
 3589SOL    HW111666   5.431   1.063   5.662
 3589SOL    HW211667   5.329   1.190   5.668
 3590SOL     OW11668   0.692   3.536   0.531
 3590SOL    HW111669   0.688   3.590   0.446
 3590SOL    HW211670   0.720   3.443   0.509
 3591SOL     OW11671   5.377   4.171   6.975
 3591SOL    HW111672   5.442   4.095   6.982
 3591SOL    HW211673   5.355   4.187   6.879
 3592SOL     OW11674   0.401   5.694   1.867
 3592SOL    HW111675   0.500   5.694   1.886
 3592SOL    HW211676   0.385   5.720   1.772
 3593SOL     OW11677   1.015   5.330   5.328
 3593SOL    HW111678   0.964   5.344   5.413
 3593SOL    HW211679   1.082   5.403   5.317
 3594SOL     OW11680   4.897   6.549   3.426
 3594SOL    HW111681   4.908   6.647   3.411
 3594SOL    HW211682   4.924   6.499   3.344
 3595SOL     OW11683   4.470   6.251   6.181
 3595SOL    HW111684   4.371   6.264   6.190
 3595SOL    HW211685   4.508   6.227   6.270
 3596SOL     OW11686   6.109   3.323   2.628
 3596SOL    HW111687   6.152   3.281   2.708
 3596SOL    HW211688   6.158   3.296   2.545
 3597SOL     OW11689   1.823   2.021   5.404
 3597SOL    HW111690   1.763   1.944   5.421
 3597SOL    HW211691   1.835   2.033   5.305
 3598SOL     OW11692   1.013   6.238   6.095
 3598SOL    HW111693   0.924   6.218   6.055
 3598SOL    HW211694   1.015   6.334   6.126
 3599SOL     OW11695   5.299   2.209   6.607
 3599SOL    HW111696   5.294   2.159   6.694
 3599SOL    HW211697   5.208   2.241   6.582
 3600SOL     OW11698   0.652   2.957   1.965
 3600SOL    HW111699   0.699   3.020   1.902
 3600SOL    HW211700   0.698   2.868   1.964
 3601SOL     OW11701   4.926   3.306   6.192
 3601SOL    HW111702   4.957   3.279   6.101
 3601SOL    HW211703   4.865   3.385   6.184
 3602SOL     OW11704   0.703   3.839   0.854
 3602SOL    HW111705   0.668   3.928   0.882
 3602SOL    HW211706   0.638   3.768   0.880
 3603SOL     OW11707   3.738   1.367   4.279
 3603SOL    HW111708   3.700   1.454   4.309
 3603SOL    HW211709   3.805   1.334   4.347
 3604SOL     OW11710   6.822   6.398   3.326
 3604SOL    HW111711   6.873   6.379   3.242
 3604SOL    HW211712   6.884   6.430   3.397
 3605SOL     OW11713   0.141   4.032   3.767
 3605SOL    HW111714   0.215   3.971   3.792
 3605SOL    HW211715   0.080   3.986   3.703
 3606SOL     OW11716   0.560   0.280   4.164
 3606SOL    HW111717   0.492   0.349   4.188
 3606SOL    HW211718   0.648   0.323   4.146
 3607SOL     OW11719   5.301   5.533   1.754
 3607SOL    HW111720   5.353   5.451   1.776
 3607SOL    HW211721   5.312   5.600   1.827
 3608SOL     OW11722   4.538   2.084   4.500
 3608SOL    HW111723   4.515   2.004   4.445
 3608SOL    HW211724   4.631   2.115   4.476
 3609SOL     OW11725   1.344   0.336   4.069
 3609SOL    HW111726   1.337   0.308   3.973
 3609SOL    HW211727   1.304   0.266   4.127
 3610SOL     OW11728   1.715   6.981   5.892
 3610SOL    HW111729   1.780   0.014   5.951
 3610SOL    HW211730   1.645   6.937   5.949
 3611SOL     OW11731   4.592   4.587   4.608
 3611SOL    HW111732   4.600   4.556   4.703
 3611SOL    HW211733   4.629   4.680   4.600
 3612SOL     OW11734   0.276   0.219   7.005
 3612SOL    HW111735   0.294   0.315   6.984
 3612SOL    HW211736   0.179   0.200   6.991
 3613SOL     OW11737   4.849   4.623   2.144
 3613SOL    HW111738   4.912   4.616   2.066
 3613SOL    HW211739   4.873   4.554   2.212
 3614SOL     OW11740   3.509   3.691   0.555
 3614SOL    HW111741   3.576   3.712   0.626
 3614SOL    HW211742   3.535   3.736   0.470
 3615SOL     OW11743   5.022   3.665   6.288
 3615SOL    HW111744   5.043   3.609   6.208
 3615SOL    HW211745   5.089   3.646   6.360
 3616SOL     OW11746   0.245   1.043   6.645
 3616SOL    HW111747   0.229   1.125   6.699
 3616SOL    HW211748   0.190   1.048   6.561
 3617SOL     OW11749   4.639   1.000   6.577
 3617SOL    HW111750   4.549   1.027   6.612
 3617SOL    HW211751   4.667   0.914   6.620
 3618SOL     OW11752   2.294   3.072   5.343
 3618SOL    HW111753   2.369   3.052   5.280
 3618SOL    HW211754   2.311   3.159   5.389
 3619SOL     OW11755   5.824   2.527   5.064
 3619SOL    HW111756   5.850   2.465   5.139
 3619SOL    HW211757   5.830   2.479   4.977
 3620SOL     OW11758   6.344   5.518   5.438
 3620SOL    HW111759   6.256   5.564   5.451
 3620SOL    HW211760   6.347   5.435   5.495
 3621SOL     OW11761   3.446   2.624   5.350
 3621SOL    HW111762   3.491   2.597   5.435
 3621SOL    HW211763   3.374   2.558   5.329
 3622SOL     OW11764   1.071   1.755   6.720
 3622SOL    HW111765   1.129   1.723   6.795
 3622SOL    HW211766   0.976   1.758   6.750
 3623SOL     OW11767   6.813   6.139   4.397
 3623SOL    HW111768   6.815   6.106   4.303
 3623SOL    HW211769   6.905   6.167   4.425
 3624SOL     OW11770   1.494   0.143   2.277
 3624SOL    HW111771   1.534   0.172   2.190
 3624SOL    HW211772   1.424   0.208   2.305
 3625SOL     OW11773   0.158   3.060   6.396
 3625SOL    HW111774   0.152   2.984   6.461
 3625SOL    HW211775   0.162   3.147   6.446
 3626SOL     OW11776   0.895   2.909   5.598
 3626SOL    HW111777   0.977   2.854   5.581
 3626SOL    HW211778   0.826   2.889   5.529
 3627SOL     OW11779   3.794   3.424   1.076
 3627SOL    HW111780   3.724   3.352   1.088
 3627SOL    HW211781   3.882   3.390   1.108
 3628SOL     OW11782   0.983   1.595   2.310
 3628SOL    HW111783   1.072   1.618   2.350
 3628SOL    HW211784   0.991   1.510   2.257
 3629SOL     OW11785   0.736   1.194   5.689
 3629SOL    HW111786   0.693   1.258   5.624
 3629SOL    HW211787   0.737   1.235   5.780
 3630SOL     OW11788   5.256   2.223   4.063
 3630SOL    HW111789   5.235   2.140   4.012
 3630SOL    HW211790   5.172   2.257   4.107
 3631SOL     OW11791   2.452   0.910   2.848
 3631SOL    HW111792   2.462   0.989   2.787
 3631SOL    HW211793   2.369   0.921   2.903
 3632SOL     OW11794   5.271   5.132   1.365
 3632SOL    HW111795   5.249   5.229   1.362
 3632SOL    HW211796   5.208   5.081   1.306
 3633SOL     OW11797   4.062   2.324   5.897
 3633SOL    HW111798   4.129   2.394   5.873
 3633SOL    HW211799   3.970   2.364   5.895
 3634SOL     OW11800   1.642   5.287   5.673
 3634SOL    HW111801   1.662   5.385   5.676
 3634SOL    HW211802   1.545   5.272   5.693
 3635SOL     OW11803   3.354   0.215   1.206
 3635SOL    HW111804   3.318   0.190   1.296
 3635SOL    HW211805   3.397   0.305   1.211
 3636SOL     OW11806   6.472   5.843   0.806
 3636SOL    HW111807   6.537   5.813   0.736
 3636SOL    HW211808   6.503   5.812   0.896
 3637SOL     OW11809   0.333   2.295   2.216
 3637SOL    HW111810   0.313   2.381   2.263
 3637SOL    HW211811   0.248   2.255   2.181
 3638SOL     OW11812   6.951   3.654   2.943
 3638SOL    HW111813   0.004   3.612   2.884
 3638SOL    HW211814   6.933   3.747   2.910
 3639SOL     OW11815   4.113   5.230   0.628
 3639SOL    HW111816   4.055   5.156   0.661
 3639SOL    HW211817   4.146   5.208   0.536
 3640SOL     OW11818   4.677   1.074   6.920
 3640SOL    HW111819   4.651   0.988   6.964
 3640SOL    HW211820   4.670   1.064   6.821
 3641SOL     OW11821   6.035   3.684   1.998
 3641SOL    HW111822   5.973   3.747   1.949
 3641SOL    HW211823   6.010   3.682   2.095
 3642SOL     OW11824   5.225   2.182   0.034
 3642SOL    HW111825   5.278   2.108   7.010
 3642SOL    HW211826   5.182   2.149   0.119
 3643SOL     OW11827   2.593   5.904   4.650
 3643SOL    HW111828   2.597   5.994   4.694
 3643SOL    HW211829   2.527   5.846   4.698
 3644SOL     OW11830   1.881   1.485   2.041
 3644SOL    HW111831   1.934   1.422   1.983
 3644SOL    HW211832   1.804   1.521   1.990
 3645SOL     OW11833   1.942   2.276   3.821
 3645SOL    HW111834   1.903   2.363   3.853
 3645SOL    HW211835   1.896   2.200   3.866
 3646SOL     OW11836   1.281   4.119   5.800
 3646SOL    HW111837   1.361   4.099   5.744
 3646SOL    HW211838   1.306   4.112   5.897
 3647SOL     OW11839   2.393   6.164   6.652
 3647SOL    HW111840   2.402   6.260   6.624
 3647SOL    HW211841   2.301   6.149   6.687
 3648SOL     OW11842   4.458   6.246   3.013
 3648SOL    HW111843   4.539   6.305   3.007
 3648SOL    HW211844   4.376   6.302   3.007
 3649SOL     OW11845   5.886   3.141   0.892
 3649SOL    HW111846   5.945   3.064   0.868
 3649SOL    HW211847   5.826   3.115   0.968
 3650SOL     OW11848   6.297   5.075   1.624
 3650SOL    HW111849   6.338   5.117   1.542
 3650SOL    HW211850   6.298   5.141   1.699
 3651SOL     OW11851   0.956   0.938   3.977
 3651SOL    HW111852   0.950   0.959   3.879
 3651SOL    HW211853   1.051   0.920   4.001
 3652SOL     OW11854   6.227   6.762   3.508
 3652SOL    HW111855   6.253   6.668   3.529
 3652SOL    HW211856   6.252   6.822   3.584
 3653SOL     OW11857   1.453   1.475   2.932
 3653SOL    HW111858   1.365   1.497   2.974
 3653SOL    HW211859   1.491   1.557   2.889
 3654SOL     OW11860   3.735   4.682   0.525
 3654SOL    HW111861   3.649   4.730   0.507
 3654SOL    HW211862   3.760   4.629   0.445
 3655SOL     OW11863   3.337   0.580   3.789
 3655SOL    HW111864   3.288   0.503   3.748
 3655SOL    HW211865   3.291   0.665   3.764
 3656SOL     OW11866   0.387   5.076   1.419
 3656SOL    HW111867   0.428   5.018   1.489
 3656SOL    HW211868   0.338   5.019   1.353
 3657SOL     OW11869   5.103   5.324   5.065
 3657SOL    HW111870   5.065   5.271   4.990
 3657SOL    HW211871   5.062   5.295   5.151
 3658SOL     OW11872   2.765   4.699   6.535
 3658SOL    HW111873   2.675   4.671   6.571
 3658SOL    HW211874   2.795   4.781   6.583
 3659SOL     OW11875   1.562   2.428   5.824
 3659SOL    HW111876   1.555   2.501   5.892
 3659SOL    HW211877   1.648   2.437   5.774
 3660SOL     OW11878   6.079   6.576   4.412
 3660SOL    HW111879   6.041   6.539   4.497
 3660SOL    HW211880   6.142   6.510   4.373
 3661SOL     OW11881   0.084   0.602   4.878
 3661SOL    HW111882   0.065   0.544   4.799
 3661SOL    HW211883   0.114   0.546   4.954
 3662SOL     OW11884   4.277   0.785   4.432
 3662SOL    HW111885   4.275   0.728   4.514
 3662SOL    HW211886   4.223   0.868   4.448
 3663SOL     OW11887   1.811   3.012   0.296
 3663SOL    HW111888   1.765   3.099   0.276
 3663SOL    HW211889   1.745   2.938   0.293
 3664SOL     OW11890   4.501   2.108   2.278
 3664SOL    HW111891   4.511   2.129   2.375
 3664SOL    HW211892   4.559   2.170   2.225
 3665SOL     OW11893   1.121   6.188   5.018
 3665SOL    HW111894   1.051   6.163   5.084
 3665SOL    HW211895   1.099   6.149   4.929
 3666SOL     OW11896   0.902   3.910   3.219
 3666SOL    HW111897   0.990   3.952   3.197
 3666SOL    HW211898   0.835   3.983   3.238
 3667SOL     OW11899   0.324   1.665   3.616
 3667SOL    HW111900   0.343   1.620   3.703
 3667SOL    HW211901   0.292   1.597   3.549
 3668SOL     OW11902   1.262   0.891   1.288
 3668SOL    HW111903   1.353   0.912   1.323
 3668SOL    HW211904   1.232   0.802   1.324
 3669SOL     OW11905   5.834   1.805   3.478
 3669SOL    HW111906   5.913   1.836   3.426
 3669SOL    HW211907   5.839   1.705   3.491
 3670SOL     OW11908   2.619   5.299   6.705
 3670SOL    HW111909   2.699   5.359   6.705
 3670SOL    HW211910   2.542   5.347   6.747
 3671SOL     OW11911   0.197   2.081   4.040
 3671SOL    HW111912   0.099   2.092   4.022
 3671SOL    HW211913   0.232   2.002   3.988
 3672SOL     OW11914   4.618   1.894   2.556
 3672SOL    HW111915   4.614   1.877   2.458
 3672SOL    HW211916   4.582   1.986   2.575
 3673SOL     OW11917   3.764   5.681   6.913
 3673SOL    HW111918   3.785   5.670   7.010
 3673SOL    HW211919   3.673   5.644   6.895
 3674SOL     OW11920   2.017   5.894   5.678
 3674SOL    HW111921   2.011   5.945   5.592
 3674SOL    HW211922   2.015   5.796   5.658
 3675SOL     OW11923   1.539   2.518   4.061
 3675SOL    HW111924   1.603   2.526   4.137
 3675SOL    HW211925   1.590   2.521   3.974
 3676SOL     OW11926   6.141   3.848   2.387
 3676SOL    HW111927   6.158   3.943   2.362
 3676SOL    HW211928   6.157   3.835   2.485
 3677SOL     OW11929   2.958   6.848   4.301
 3677SOL    HW111930   3.030   6.888   4.244
 3677SOL    HW211931   2.968   6.748   4.301
 3678SOL     OW11932   1.327   1.382   4.606
 3678SOL    HW111933   1.342   1.430   4.519
 3678SOL    HW211934   1.268   1.437   4.665
 3679SOL     OW11935   0.132   0.390   3.284
 3679SOL    HW111936   0.099   0.357   3.373
 3679SOL    HW211937   0.201   0.461   3.299
 3680SOL     OW11938   5.130   2.608   4.171
 3680SOL    HW111939   5.037   2.613   4.207
 3680SOL    HW211940   5.195   2.620   4.246
 3681SOL     OW11941   0.991   1.126   6.542
 3681SOL    HW111942   0.969   1.029   6.558
 3681SOL    HW211943   1.081   1.146   6.581
 3682SOL     OW11944   5.552   2.433   7.007
 3682SOL    HW111945   5.527   2.340   0.019
 3682SOL    HW211946   5.518   2.499   0.058
 3683SOL     OW11947   0.406   1.348   4.441
 3683SOL    HW111948   0.386   1.443   4.418
 3683SOL    HW211949   0.479   1.314   4.382
 3684SOL     OW11950   0.822   5.458   0.509
 3684SOL    HW111951   0.883   5.391   0.552
 3684SOL    HW211952   0.756   5.411   0.451
 3685SOL     OW11953   1.982   5.638   5.614
 3685SOL    HW111954   2.048   5.582   5.664
 3685SOL    HW211955   1.988   5.617   5.517
 3686SOL     OW11956   6.259   4.973   4.505
 3686SOL    HW111957   6.257   5.028   4.422
 3686SOL    HW211958   6.300   4.884   4.486
 3687SOL     OW11959   4.474   6.197   4.426
 3687SOL    HW111960   4.471   6.116   4.484
 3687SOL    HW211961   4.473   6.279   4.483
 3688SOL     OW11962   6.670   3.032   7.015
 3688SOL    HW111963   6.681   2.981   0.084
 3688SOL    HW211964   6.596   3.098   0.009
 3689SOL     OW11965   2.256   0.857   5.892
 3689SOL    HW111966   2.262   0.956   5.901
 3689SOL    HW211967   2.161   0.831   5.874
 3690SOL     OW11968   3.812   5.385   0.852
 3690SOL    HW111969   3.801   5.295   0.809
 3690SOL    HW211970   3.724   5.419   0.883
 3691SOL     OW11971   2.634   1.719   0.008
 3691SOL    HW111972   2.657   1.752   0.100
 3691SOL    HW211973   2.713   1.674   6.984
 3692SOL     OW11974   6.206   4.871   5.378
 3692SOL    HW111975   6.150   4.921   5.312
 3692SOL    HW211976   6.250   4.936   5.440
 3693SOL     OW11977   2.173   2.049   3.265
 3693SOL    HW111978   2.167   2.084   3.358
 3693SOL    HW211979   2.259   2.000   3.253
 3694SOL     OW11980   1.743   6.709   2.216
 3694SOL    HW111981   1.678   6.783   2.202
 3694SOL    HW211982   1.741   6.680   2.312
 3695SOL     OW11983   5.174   2.398   1.473
 3695SOL    HW111984   5.214   2.306   1.475
 3695SOL    HW211985   5.232   2.458   1.418
 3696SOL     OW11986   4.481   0.438   4.393
 3696SOL    HW111987   4.580   0.448   4.400
 3696SOL    HW211988   4.455   0.427   4.297
 3697SOL     OW11989   0.235   5.872   2.743
 3697SOL    HW111990   0.164   5.903   2.806
 3697SOL    HW211991   0.311   5.937   2.744
 3698SOL     OW11992   2.452   0.923   3.457
 3698SOL    HW111993   2.401   0.946   3.374
 3698SOL    HW211994   2.428   0.987   3.530
 3699SOL     OW11995   2.112   0.952   3.524
 3699SOL    HW111996   2.049   0.978   3.451
 3699SOL    HW211997   2.173   1.029   3.544
 3700SOL     OW11998   1.720   4.536   4.883
 3700SOL    HW111999   1.626   4.504   4.890
 3700SOL    HW212000   1.762   4.498   4.801
 3701SOL     OW12001   1.453   0.392   3.517
 3701SOL    HW112002   1.535   0.344   3.549
 3701SOL    HW212003   1.423   0.352   3.431
 3702SOL     OW12004   5.251   6.478   3.083
 3702SOL    HW112005   5.213   6.401   3.134
 3702SOL    HW212006   5.314   6.529   3.141
 3703SOL     OW12007   0.181   0.453   6.697
 3703SOL    HW112008   0.279   0.450   6.682
 3703SOL    HW212009   0.162   0.468   6.794
 3704SOL     OW12010   4.005   2.291   1.528
 3704SOL    HW112011   3.923   2.236   1.546
 3704SOL    HW212012   4.002   2.374   1.583
 3705SOL     OW12013   5.632   4.133   4.545
 3705SOL    HW112014   5.538   4.102   4.530
 3705SOL    HW212015   5.694   4.084   4.483
 3706SOL     OW12016   0.444   3.904   6.421
 3706SOL    HW112017   0.408   3.815   6.452
 3706SOL    HW212018   0.404   3.977   6.477
 3707SOL     OW12019   4.756   5.888   4.737
 3707SOL    HW112020   4.839   5.916   4.689
 3707SOL    HW212021   4.758   5.789   4.751
 3708SOL     OW12022   5.179   6.575   1.298
 3708SOL    HW112023   5.149   6.636   1.371
 3708SOL    HW212024   5.105   6.512   1.275
 3709SOL     OW12025   3.219   0.370   1.560
 3709SOL    HW112026   3.287   0.300   1.541
 3709SOL    HW212027   3.258   0.461   1.541
 3710SOL     OW12028   6.960   5.579   5.222
 3710SOL    HW112029   6.983   5.484   5.239
 3710SOL    HW212030   6.970   5.599   5.124
 3711SOL     OW12031   1.628   5.692   5.390
 3711SOL    HW112032   1.714   5.741   5.374
 3711SOL    HW212033   1.554   5.738   5.342
 3712SOL     OW12034   1.246   5.429   6.945
 3712SOL    HW112035   1.203   5.519   6.955
 3712SOL    HW212036   1.187   5.370   6.889
 3713SOL     OW12037   0.165   0.200   5.336
 3713SOL    HW112038   0.121   0.171   5.251
 3713SOL    HW212039   0.257   0.162   5.341
 3714SOL     OW12040   5.814   5.843   6.716
 3714SOL    HW112041   5.786   5.789   6.636
 3714SOL    HW212042   5.734   5.891   6.753
 3715SOL     OW12043   1.074   4.181   2.488
 3715SOL    HW112044   1.137   4.169   2.411
 3715SOL    HW212045   1.076   4.098   2.545
 3716SOL     OW12046   6.106   6.148   4.757
 3716SOL    HW112047   6.169   6.073   4.735
 3716SOL    HW212048   6.158   6.229   4.782
 3717SOL     OW12049   5.586   0.298   6.896
 3717SOL    HW112050   5.503   0.268   6.944
 3717SOL    HW212051   5.660   0.233   6.913
 3718SOL     OW12052   0.074   0.383   0.168
 3718SOL    HW112053   0.150   0.421   0.221
 3718SOL    HW212054   0.081   0.413   0.073
 3719SOL     OW12055   4.572   2.675   0.536
 3719SOL    HW112056   4.627   2.662   0.453
 3719SOL    HW212057   4.613   2.624   0.612
 3720SOL     OW12058   5.325   3.225   0.495
 3720SOL    HW112059   5.289   3.214   0.402
 3720SOL    HW212060   5.300   3.144   0.550
 3721SOL     OW12061   0.194   4.646   0.916
 3721SOL    HW112062   0.172   4.711   0.988
 3721SOL    HW212063   0.263   4.581   0.949
 3722SOL     OW12064   5.520   6.073   1.109
 3722SOL    HW112065   5.506   6.115   1.019
 3722SOL    HW212066   5.610   6.030   1.112
 3723SOL     OW12067   4.576   5.014   0.692
 3723SOL    HW112068   4.500   5.069   0.658
 3723SOL    HW212069   4.542   4.944   0.755
 3724SOL     OW12070   1.958   4.388   5.815
 3724SOL    HW112071   2.031   4.367   5.880
 3724SOL    HW212072   1.997   4.394   5.723
 3725SOL     OW12073   0.660   5.699   6.730
 3725SOL    HW112074   0.713   5.654   6.658
 3725SOL    HW212075   0.611   5.777   6.692
 3726SOL     OW12076   5.282   3.265   5.932
 3726SOL    HW112077   5.258   3.289   6.026
 3726SOL    HW212078   5.360   3.202   5.932
 3727SOL     OW12079   6.763   2.638   5.404
 3727SOL    HW112080   6.862   2.648   5.411
 3727SOL    HW212081   6.741   2.553   5.356
 3728SOL     OW12082   1.131   3.316   6.924
 3728SOL    HW112083   1.201   3.385   6.945
 3728SOL    HW212084   1.170   3.248   6.862
 3729SOL     OW12085   1.742   1.612   4.074
 3729SOL    HW112086   1.754   1.657   3.985
 3729SOL    HW212087   1.663   1.653   4.121
 3730SOL     OW12088   3.929   6.233   5.496
 3730SOL    HW112089   3.847   6.223   5.440
 3730SOL    HW212090   3.939   6.153   5.555
 3731SOL     OW12091   0.272   1.539   0.574
 3731SOL    HW112092   0.346   1.586   0.622
 3731SOL    HW212093   0.197   1.521   0.639
 3732SOL     OW12094   2.454   1.590   0.309
 3732SOL    HW112095   2.425   1.652   0.382
 3732SOL    HW212096   2.420   1.624   0.221
 3733SOL     OW12097   2.310   2.700   3.388
 3733SOL    HW112098   2.219   2.669   3.361
 3733SOL    HW212099   2.307   2.797   3.411
 3734SOL     OW12100   4.831   0.033   1.265
 3734SOL    HW112101   4.920   0.072   1.241
 3734SOL    HW212102   4.808   0.056   1.359
 3735SOL     OW12103   2.913   0.663   2.662
 3735SOL    HW112104   2.910   0.603   2.583
 3735SOL    HW212105   2.880   0.614   2.743
 3736SOL     OW12106   0.202   1.199   1.159
 3736SOL    HW112107   0.243   1.122   1.208
 3736SOL    HW212108   0.273   1.261   1.127
 3737SOL     OW12109   5.704   1.290   3.785
 3737SOL    HW112110   5.762   1.370   3.768
 3737SOL    HW212111   5.749   1.229   3.851
 3738SOL     OW12112   6.213   0.776   1.363
 3738SOL    HW112113   6.240   0.870   1.387
 3738SOL    HW212114   6.253   0.712   1.429
 3739SOL     OW12115   2.481   4.558   1.253
 3739SOL    HW112116   2.421   4.628   1.289
 3739SOL    HW212117   2.561   4.547   1.312
 3740SOL     OW12118   6.500   6.612   0.448
 3740SOL    HW112119   6.403   6.589   0.437
 3740SOL    HW212120   6.519   6.631   0.545
 3741SOL     OW12121   5.124   2.725   6.332
 3741SOL    HW112122   5.036   2.755   6.294
 3741SOL    HW212123   5.111   2.638   6.381
 3742SOL     OW12124   3.918   0.698   0.195
 3742SOL    HW112125   3.951   0.792   0.197
 3742SOL    HW212126   3.982   0.638   0.243
 3743SOL     OW12127   5.584   3.252   0.708
 3743SOL    HW112128   5.530   3.320   0.658
 3743SOL    HW212129   5.578   3.270   0.806
 3744SOL     OW12130   1.159   6.053   1.519
 3744SOL    HW112131   1.227   6.119   1.487
 3744SOL    HW212132   1.197   6.001   1.595
 3745SOL     OW12133   5.097   4.010   3.222
 3745SOL    HW112134   5.034   4.062   3.281
 3745SOL    HW212135   5.052   3.927   3.190
 3746SOL     OW12136   6.716   0.193   3.766
 3746SOL    HW112137   6.632   0.147   3.740
 3746SOL    HW212138   6.712   0.289   3.739
 3747SOL     OW12139   4.450   5.831   5.290
 3747SOL    HW112140   4.351   5.829   5.276
 3747SOL    HW212141   4.486   5.919   5.259
 3748SOL     OW12142   5.360   1.257   1.935
 3748SOL    HW112143   5.356   1.305   2.023
 3748SOL    HW212144   5.390   1.321   1.864
 3749SOL     OW12145   2.718   4.826   2.937
 3749SOL    HW112146   2.690   4.762   3.008
 3749SOL    HW212147   2.642   4.887   2.914
 3750SOL     OW12148   6.337   4.706   0.872
 3750SOL    HW112149   6.433   4.679   0.875
 3750SOL    HW212150   6.280   4.634   0.912
 3751SOL     OW12151   6.664   3.359   0.966
 3751SOL    HW112152   6.751   3.334   1.008
 3751SOL    HW212153   6.628   3.442   1.010
 3752SOL     OW12154   0.287   6.754   6.957
 3752SOL    HW112155   0.337   6.840   6.968
 3752SOL    HW212156   0.224   6.761   6.880
 3753SOL     OW12157   6.971   1.027   3.973
 3753SOL    HW112158   6.936   0.987   3.888
 3753SOL    HW212159   0.044   0.986   3.995
 3754SOL     OW12160   3.888   6.628   1.234
 3754SOL    HW112161   3.850   6.549   1.185
 3754SOL    HW212162   3.814   6.692   1.256
 3755SOL     OW12163   5.964   5.672   4.448
 3755SOL    HW112164   5.883   5.631   4.491
 3755SOL    HW212165   5.945   5.769   4.428
 3756SOL     OW12166   2.450   6.622   5.659
 3756SOL    HW112167   2.485   6.583   5.574
 3756SOL    HW212168   2.363   6.578   5.683
 3757SOL     OW12169   3.792   6.535   6.284
 3757SOL    HW112170   3.835   6.458   6.331
 3757SOL    HW212171   3.724   6.500   6.219
 3758SOL     OW12172   1.720   1.499   4.764
 3758SOL    HW112173   1.684   1.406   4.760
 3758SOL    HW212174   1.805   1.504   4.710
 3759SOL     OW12175   4.453   5.605   5.973
 3759SOL    HW112176   4.474   5.697   5.939
 3759SOL    HW212177   4.368   5.608   6.026
 3760SOL     OW12178   1.839   2.532   4.505
 3760SOL    HW112179   1.851   2.439   4.468
 3760SOL    HW212180   1.899   2.544   4.584
 3761SOL     OW12181   0.713   0.429   5.743
 3761SOL    HW112182   0.709   0.373   5.826
 3761SOL    HW212183   0.621   0.446   5.709
 3762SOL     OW12184   0.897   4.886   7.001
 3762SOL    HW112185   0.809   4.841   6.984
 3762SOL    HW212186   0.932   4.857   0.074
 3763SOL     OW12187   0.009   4.318   0.103
 3763SOL    HW112188   0.050   4.258   0.171
 3763SOL    HW212189   0.032   4.413   0.124
 3764SOL     OW12190   1.835   6.977   3.736
 3764SOL    HW112191   1.772   7.012   3.806
 3764SOL    HW212192   1.861   6.883   3.759
 3765SOL     OW12193   4.874   1.243   1.239
 3765SOL    HW112194   4.788   1.274   1.199
 3765SOL    HW212195   4.861   1.153   1.281
 3766SOL     OW12196   0.899   1.432   3.430
 3766SOL    HW112197   0.964   1.498   3.467
 3766SOL    HW212198   0.825   1.481   3.383
 3767SOL     OW12199   2.097   5.017   0.272
 3767SOL    HW112200   2.147   5.011   0.358
 3767SOL    HW212201   2.065   5.111   0.259
 3768SOL     OW12202   2.018   5.976   4.864
 3768SOL    HW112203   1.947   6.017   4.921
 3768SOL    HW212204   1.988   5.886   4.833
 3769SOL     OW12205   5.938   5.845   5.433
 3769SOL    HW112206   5.960   5.918   5.498
 3769SOL    HW212207   5.852   5.802   5.460
 3770SOL     OW12208   1.651   0.027   6.489
 3770SOL    HW112209   1.701   0.073   6.563
 3770SOL    HW212210   1.667   0.076   6.404
 3771SOL     OW12211   6.190   2.971   6.787
 3771SOL    HW112212   6.176   2.973   6.886
 3771SOL    HW212213   6.108   3.005   6.741
 3772SOL     OW12214   0.125   0.622   0.482
 3772SOL    HW112215   0.051   0.554   0.487
 3772SOL    HW212216   0.122   0.680   0.563
 3773SOL     OW12217   6.694   2.828   6.262
 3773SOL    HW112218   6.700   2.731   6.237
 3773SOL    HW212219   6.618   2.841   6.326
 3774SOL     OW12220   0.272   6.077   0.033
 3774SOL    HW112221   0.337   6.096   0.107
 3774SOL    HW212222   0.300   6.127   6.967
 3775SOL     OW12223   4.925   5.003   2.011
 3775SOL    HW112224   5.023   5.018   2.019
 3775SOL    HW212225   4.905   4.957   1.924
 3776SOL     OW12226   4.151   1.634   1.408
 3776SOL    HW112227   4.171   1.616   1.504
 3776SOL    HW212228   4.097   1.558   1.370
 3777SOL     OW12229   3.314   4.963   4.977
 3777SOL    HW112230   3.215   4.978   4.979
 3777SOL    HW212231   3.346   4.968   4.883
 3778SOL     OW12232   3.379   4.969   3.004
 3778SOL    HW112233   3.372   4.917   2.919
 3778SOL    HW212234   3.389   5.066   2.983
 3779SOL     OW12235   2.270   4.985   1.135
 3779SOL    HW112236   2.350   4.943   1.092
 3779SOL    HW212237   2.234   4.923   1.205
 3780SOL     OW12238   5.016   5.823   5.897
 3780SOL    HW112239   4.957   5.838   5.818
 3780SOL    HW212240   5.012   5.728   5.925
 3781SOL     OW12241   1.186   0.149   4.208
 3781SOL    HW112242   1.194   0.105   4.118
 3781SOL    HW212243   1.241   0.098   4.275
 3782SOL     OW12244   2.705   0.800   4.427
 3782SOL    HW112245   2.719   0.817   4.329
 3782SOL    HW212246   2.642   0.868   4.464
 3783SOL     OW12247   5.424   5.811   4.277
 3783SOL    HW112248   5.336   5.854   4.256
 3783SOL    HW212249   5.424   5.717   4.243
 3784SOL     OW12250   4.947   2.574   2.650
 3784SOL    HW112251   4.897   2.601   2.732
 3784SOL    HW212252   4.899   2.608   2.569
 3785SOL     OW12253   1.085   1.513   6.987
 3785SOL    HW112254   1.170   1.534   6.937
 3785SOL    HW212255   1.106   1.455   0.049
 3786SOL     OW12256   2.437   6.656   3.379
 3786SOL    HW112257   2.471   6.658   3.284
 3786SOL    HW212258   2.389   6.570   3.394
 3787SOL     OW12259   5.886   0.091   2.504
 3787SOL    HW112260   5.918   7.012   2.508
 3787SOL    HW212261   5.940   0.141   2.436
 3788SOL     OW12262   1.130   4.065   4.181
 3788SOL    HW112263   1.111   3.966   4.186
 3788SOL    HW212264   1.141   4.101   4.273
 3789SOL     OW12265   0.038   3.454   5.142
 3789SOL    HW112266   6.989   3.454   5.066
 3789SOL    HW212267   0.119   3.506   5.117
 3790SOL     OW12268   1.715   4.514   5.786
 3790SOL    HW112269   1.812   4.488   5.790
 3790SOL    HW212270   1.670   4.465   5.711
 3791SOL     OW12271   6.041   0.119   0.430
 3791SOL    HW112272   6.070   0.031   0.393
 3791SOL    HW212273   6.072   0.128   0.524
 3792SOL     OW12274   0.893   1.012   4.565
 3792SOL    HW112275   0.917   1.020   4.469
 3792SOL    HW212276   0.793   1.009   4.574
 3793SOL     OW12277   4.453   0.139   2.539
 3793SOL    HW112278   4.366   0.112   2.497
 3793SOL    HW212279   4.436   0.209   2.608
 3794SOL     OW12280   2.269   4.201   0.925
 3794SOL    HW112281   2.355   4.235   0.964
 3794SOL    HW212282   2.289   4.141   0.848
 3795SOL     OW12283   3.697   6.054   5.863
 3795SOL    HW112284   3.642   6.116   5.807
 3795SOL    HW212285   3.712   6.094   5.953
 3796SOL     OW12286   2.866   1.530   0.692
 3796SOL    HW112287   2.946   1.576   0.653
 3796SOL    HW212288   2.814   1.485   0.619
 3797SOL     OW12289   6.902   4.341   2.728
 3797SOL    HW112290   6.903   4.271   2.800
 3797SOL    HW212291   6.884   4.430   2.769
 3798SOL     OW12292   3.815   6.147   2.849
 3798SOL    HW112293   3.848   6.128   2.756
 3798SOL    HW212294   3.756   6.227   2.848
 3799SOL     OW12295   0.947   2.418   4.221
 3799SOL    HW112296   0.986   2.352   4.157
 3799SOL    HW212297   0.847   2.417   4.213
 3800SOL     OW12298   5.711   3.060   4.295
 3800SOL    HW112299   5.640   3.060   4.366
 3800SOL    HW212300   5.669   3.044   4.206
 3801SOL     OW12301   5.805   6.223   3.179
 3801SOL    HW112302   5.900   6.200   3.200
 3801SOL    HW212303   5.759   6.253   3.262
 3802SOL     OW12304   1.066   2.467   3.042
 3802SOL    HW112305   1.035   2.385   3.090
 3802SOL    HW212306   1.075   2.448   2.944
 3803SOL     OW12307   3.681   2.035   1.192
 3803SOL    HW112308   3.690   2.070   1.285
 3803SOL    HW212309   3.757   2.068   1.136
 3804SOL     OW12310   5.181   1.578   3.522
 3804SOL    HW112311   5.130   1.639   3.461
 3804SOL    HW212312   5.184   1.617   3.614
 3805SOL     OW12313   2.863   3.436   1.892
 3805SOL    HW112314   2.902   3.525   1.868
 3805SOL    HW212315   2.915   3.363   1.847
 3806SOL     OW12316   3.265   3.863   6.890
 3806SOL    HW112317   3.215   3.942   6.926
 3806SOL    HW212318   3.325   3.827   6.962
 3807SOL     OW12319   2.428   6.549   3.783
 3807SOL    HW112320   2.420   6.491   3.864
 3807SOL    HW212321   2.408   6.496   3.701
 3808SOL     OW12322   4.747   0.178   1.055
 3808SOL    HW112323   4.793   0.112   1.114
 3808SOL    HW212324   4.662   0.138   1.020
 3809SOL     OW12325   5.443   2.656   0.674
 3809SOL    HW112326   5.464   2.559   0.681
 3809SOL    HW212327   5.379   2.682   0.747
 3810SOL     OW12328   4.758   2.299   4.841
 3810SOL    HW112329   4.681   2.316   4.780
 3810SOL    HW212330   4.767   2.375   4.905
 3811SOL     OW12331   1.181   4.205   3.854
 3811SOL    HW112332   1.259   4.164   3.901
 3811SOL    HW212333   1.110   4.228   3.920
 3812SOL     OW12334   5.084   0.001   5.329
 3812SOL    HW112335   5.027   0.074   5.293
 3812SOL    HW212336   5.142   0.038   5.402
 3813SOL     OW12337   4.534   3.955   0.400
 3813SOL    HW112338   4.489   4.044   0.396
 3813SOL    HW212339   4.512   3.903   0.318
 3814SOL     OW12340   0.182   0.101   0.687
 3814SOL    HW112341   0.256   0.095   0.754
 3814SOL    HW212342   0.217   0.076   0.597
 3815SOL     OW12343   4.261   2.887   0.351
 3815SOL    HW112344   4.233   2.798   0.385
 3815SOL    HW212345   4.326   2.875   0.275
 3816SOL     OW12346   0.418   6.234   0.415
 3816SOL    HW112347   0.488   6.291   0.457
 3816SOL    HW212348   0.425   6.240   0.315
 3817SOL     OW12349   5.404   3.860   3.427
 3817SOL    HW112350   5.412   3.814   3.339
 3817SOL    HW212351   5.485   3.916   3.443
 3818SOL     OW12352   5.373   0.144   0.045
 3818SOL    HW112353   5.280   0.151   0.080
 3818SOL    HW212354   5.438   0.150   0.122
 3819SOL     OW12355   5.224   5.418   1.337
 3819SOL    HW112356   5.182   5.434   1.248
 3819SOL    HW212357   5.266   5.502   1.370
 3820SOL     OW12358   6.462   6.653   3.194
 3820SOL    HW112359   6.534   6.588   3.171
 3820SOL    HW212360   6.499   6.728   3.248
 3821SOL     OW12361   2.713   2.262   0.805
 3821SOL    HW112362   2.641   2.307   0.752
 3821SOL    HW212363   2.707   2.163   0.791
 3822SOL     OW12364   1.690   6.181   2.920
 3822SOL    HW112365   1.594   6.174   2.891
 3822SOL    HW212366   1.723   6.274   2.906
 3823SOL     OW12367   3.133   2.577   6.070
 3823SOL    HW112368   3.083   2.494   6.045
 3823SOL    HW212369   3.203   2.596   6.001
 3824SOL     OW12370   5.747   1.929   6.862
 3824SOL    HW112371   5.840   1.940   6.828
 3824SOL    HW212372   5.687   1.900   6.787
 3825SOL     OW12373   0.163   6.630   0.425
 3825SOL    HW112374   0.235   6.639   0.357
 3825SOL    HW212375   0.191   6.564   0.495
 3826SOL     OW12376   0.168   3.438   0.222
 3826SOL    HW112377   0.142   3.371   0.153
 3826SOL    HW212378   0.085   3.471   0.268
 3827SOL     OW12379   3.134   2.566   1.240
 3827SOL    HW112380   3.207   2.633   1.258
 3827SOL    HW212381   3.159   2.479   1.282
 3828SOL     OW12382   3.741   2.212   1.604
 3828SOL    HW112383   3.745   2.114   1.621
 3828SOL    HW212384   3.742   2.262   1.691
 3829SOL     OW12385   2.243   4.186   4.661
 3829SOL    HW112386   2.224   4.114   4.728
 3829SOL    HW212387   2.170   4.254   4.664
 3830SOL     OW12388   0.673   0.184   4.624
 3830SOL    HW112389   0.632   0.253   4.564
 3830SOL    HW212390   0.615   0.170   4.704
 3831SOL     OW12391   4.947   1.572   2.580
 3831SOL    HW112392   4.872   1.525   2.627
 3831SOL    HW212393   4.935   1.671   2.588
 3832SOL     OW12394   5.847   0.497   2.388
 3832SOL    HW112395   5.805   0.494   2.478
 3832SOL    HW212396   5.876   0.590   2.367
 3833SOL     OW12397   0.739   5.647   6.219
 3833SOL    HW112398   0.834   5.615   6.219
 3833SOL    HW212399   0.704   5.646   6.125
 3834SOL     OW12400   3.591   2.832   0.805
 3834SOL    HW112401   3.589   2.932   0.801
 3834SOL    HW212402   3.524   2.800   0.872
 3835SOL     OW12403   2.815   5.139   5.052
 3835SOL    HW112404   2.864   5.226   5.051
 3835SOL    HW212405   2.751   5.135   4.975
 3836SOL     OW12406   1.533   4.045   5.699
 3836SOL    HW112407   1.623   4.083   5.718
 3836SOL    HW212408   1.539   3.945   5.697
 3837SOL     OW12409   4.766   3.857   0.136
 3837SOL    HW112410   4.756   3.956   0.147
 3837SOL    HW212411   4.849   3.827   0.182
 3838SOL     OW12412   6.917   3.588   4.127
 3838SOL    HW112413   6.929   3.683   4.099
 3838SOL    HW212414   6.941   3.527   4.051
 3839SOL     OW12415   4.093   0.797   4.200
 3839SOL    HW112416   4.173   0.774   4.255
 3839SOL    HW212417   4.077   0.725   4.132
 3840SOL     OW12418   1.890   1.196   5.194
 3840SOL    HW112419   1.890   1.285   5.149
 3840SOL    HW212420   1.976   1.148   5.175
 3841SOL     OW12421   0.192   3.243   5.278
 3841SOL    HW112422   0.140   3.302   5.216
 3841SOL    HW212423   0.256   3.299   5.331
 3842SOL     OW12424   0.796   4.168   6.696
 3842SOL    HW112425   0.782   4.188   6.599
 3842SOL    HW212426   0.708   4.163   6.742
 3843SOL     OW12427   6.828   4.713   1.840
 3843SOL    HW112428   6.815   4.812   1.842
 3843SOL    HW212429   6.850   4.684   1.747
 3844SOL     OW12430   6.920   3.710   6.189
 3844SOL    HW112431   6.963   3.631   6.144
 3844SOL    HW212432   6.923   3.698   6.288
 3845SOL     OW12433   3.809   2.940   2.748
 3845SOL    HW112434   3.744   2.924   2.822
 3845SOL    HW212435   3.893   2.888   2.765
 3846SOL     OW12436   0.608   4.488   4.010
 3846SOL    HW112437   0.667   4.434   4.069
 3846SOL    HW212438   0.594   4.439   3.924
 3847SOL     OW12439   6.062   0.969   5.421
 3847SOL    HW112440   5.983   0.969   5.359
 3847SOL    HW212441   6.042   1.026   5.501
 3848SOL     OW12442   3.212   5.500   2.561
 3848SOL    HW112443   3.151   5.478   2.636
 3848SOL    HW212444   3.253   5.416   2.525
 3849SOL     OW12445   0.897   1.679   5.132
 3849SOL    HW112446   0.845   1.599   5.103
 3849SOL    HW212447   0.974   1.693   5.071
 3850SOL     OW12448   2.694   3.413   1.186
 3850SOL    HW112449   2.685   3.315   1.203
 3850SOL    HW212450   2.609   3.459   1.210
 3851SOL     OW12451   1.154   4.285   2.998
 3851SOL    HW112452   1.187   4.232   3.076
 3851SOL    HW212453   1.231   4.303   2.935
 3852SOL     OW12454   4.808   6.753   4.129
 3852SOL    HW112455   4.865   6.775   4.208
 3852SOL    HW212456   4.831   6.661   4.095
 3853SOL     OW12457   1.747   3.036   2.661
 3853SOL    HW112458   1.679   2.985   2.715
 3853SOL    HW212459   1.832   3.042   2.713
 3854SOL     OW12460   1.236   3.711   2.725
 3854SOL    HW112461   1.293   3.711   2.807
 3854SOL    HW212462   1.182   3.626   2.722
 3855SOL     OW12463   4.449   5.755   6.909
 3855SOL    HW112464   4.484   5.722   6.821
 3855SOL    HW212465   4.355   5.786   6.897
 3856SOL     OW12466   6.902   6.338   5.359
 3856SOL    HW112467   6.811   6.296   5.361
 3856SOL    HW212468   6.899   6.423   5.307
 3857SOL     OW12469   1.049   5.770   5.951
 3857SOL    HW112470   1.149   5.773   5.959
 3857SOL    HW212471   1.024   5.745   5.858
 3858SOL     OW12472   1.710   6.208   5.617
 3858SOL    HW112473   1.732   6.274   5.544
 3858SOL    HW212474   1.782   6.211   5.686
 3859SOL     OW12475   6.630   2.242   2.821
 3859SOL    HW112476   6.544   2.293   2.824
 3859SOL    HW212477   6.610   2.144   2.827
 3860SOL     OW12478   1.088   0.248   5.525
 3860SOL    HW112479   1.073   0.346   5.515
 3860SOL    HW212480   1.175   0.223   5.482
 3861SOL     OW12481   5.074   4.206   1.885
 3861SOL    HW112482   4.991   4.239   1.930
 3861SOL    HW212483   5.152   4.261   1.914
 3862SOL     OW12484   0.446   6.564   5.153
 3862SOL    HW112485   0.529   6.592   5.200
 3862SOL    HW212486   0.374   6.631   5.169
 3863SOL     OW12487   3.800   4.246   6.623
 3863SOL    HW112488   3.855   4.203   6.551
 3863SOL    HW212489   3.709   4.205   6.624
 3864SOL     OW12490   3.967   1.908   5.500
 3864SOL    HW112491   3.948   1.901   5.598
 3864SOL    HW212492   3.888   1.948   5.453
 3865SOL     OW12493   3.805   0.567   1.460
 3865SOL    HW112494   3.808   0.613   1.549
 3865SOL    HW212495   3.796   0.468   1.474
 3866SOL     OW12496   4.171   0.871   0.845
 3866SOL    HW112497   4.270   0.863   0.859
 3866SOL    HW212498   4.144   0.967   0.850
 3867SOL     OW12499   1.293   3.401   4.278
 3867SOL    HW112500   1.222   3.340   4.313
 3867SOL    HW212501   1.279   3.493   4.314
 3868SOL     OW12502   2.076   6.527   1.743
 3868SOL    HW112503   2.148   6.594   1.724
 3868SOL    HW212504   2.093   6.443   1.691
 3869SOL     OW12505   6.767   3.218   4.651
 3869SOL    HW112506   6.681   3.176   4.623
 3869SOL    HW212507   6.805   3.269   4.573
 3870SOL     OW12508   4.551   4.555   0.586
 3870SOL    HW112509   4.494   4.531   0.508
 3870SOL    HW212510   4.541   4.486   0.657
 3871SOL     OW12511   3.390   0.988   2.289
 3871SOL    HW112512   3.377   1.048   2.368
 3871SOL    HW212513   3.387   1.042   2.205
 3872SOL     OW12514   3.140   2.988   1.851
 3872SOL    HW112515   3.214   3.038   1.895
 3872SOL    HW212516   3.173   2.898   1.822
 3873SOL     OW12517   5.847   5.703   1.213
 3873SOL    HW112518   5.812   5.612   1.235
 3873SOL    HW212519   5.892   5.741   1.294
 3874SOL     OW12520   3.985   6.229   6.862
 3874SOL    HW112521   4.073   6.182   6.856
 3874SOL    HW212522   3.915   6.165   6.893
 3875SOL     OW12523   1.003   3.132   2.329
 3875SOL    HW112524   1.073   3.060   2.329
 3875SOL    HW212525   0.927   3.104   2.269
 3876SOL     OW12526   5.902   5.654   6.220
 3876SOL    HW112527   5.991   5.616   6.248
 3876SOL    HW212528   5.914   5.747   6.187
 3877SOL     OW12529   6.755   1.485   0.423
 3877SOL    HW112530   6.666   1.448   0.396
 3877SOL    HW212531   6.744   1.581   0.449
 3878SOL     OW12532   2.650   6.243   5.647
 3878SOL    HW112533   2.597   6.199   5.574
 3878SOL    HW212534   2.590   6.267   5.723
 3879SOL     OW12535   4.102   6.395   1.564
 3879SOL    HW112536   4.080   6.313   1.511
 3879SOL    HW212537   4.047   6.472   1.532
 3880SOL     OW12538   5.899   4.169   3.224
 3880SOL    HW112539   5.901   4.071   3.240
 3880SOL    HW212540   5.898   4.186   3.125
 3881SOL     OW12541   1.441   5.606   0.920
 3881SOL    HW112542   1.414   5.531   0.981
 3881SOL    HW212543   1.523   5.579   0.870
 3882SOL     OW12544   6.249   1.284   4.791
 3882SOL    HW112545   6.218   1.189   4.779
 3882SOL    HW212546   6.345   1.292   4.764
 3883SOL     OW12547   4.848   1.294   4.072
 3883SOL    HW112548   4.917   1.285   4.001
 3883SOL    HW212549   4.758   1.306   4.030
 3884SOL     OW12550   1.199   5.930   4.540
 3884SOL    HW112551   1.248   5.956   4.623
 3884SOL    HW212552   1.264   5.890   4.475
 3885SOL     OW12553   6.512   1.126   4.702
 3885SOL    HW112554   6.601   1.084   4.680
 3885SOL    HW212555   6.457   1.132   4.619
 3886SOL     OW12556   6.187   0.305   5.573
 3886SOL    HW112557   6.151   0.292   5.481
 3886SOL    HW212558   6.239   0.390   5.576
 3887SOL     OW12559   5.512   2.198   5.821
 3887SOL    HW112560   5.485   2.263   5.750
 3887SOL    HW212561   5.443   2.197   5.893
 3888SOL     OW12562   0.088   0.347   6.256
 3888SOL    HW112563   0.067   0.406   6.334
 3888SOL    HW212564   0.006   0.335   6.200
 3889SOL     OW12565   6.979   4.467   6.606
 3889SOL    HW112566   6.928   4.403   6.664
 3889SOL    HW212567   6.946   4.459   6.512
 3890SOL     OW12568   6.613   6.483   3.033
 3890SOL    HW112569   6.618   6.384   3.024
 3890SOL    HW212570   6.544   6.519   2.970
 3891SOL     OW12571   5.339   4.347   4.773
 3891SOL    HW112572   5.305   4.430   4.729
 3891SOL    HW212573   5.335   4.358   4.872
 3892SOL     OW12574   0.926   6.987   2.202
 3892SOL    HW112575   0.886   0.030   2.271
 3892SOL    HW212576   1.023   6.970   2.223
 3893SOL     OW12577   3.668   5.861   2.542
 3893SOL    HW112578   3.614   5.844   2.625
 3893SOL    HW212579   3.649   5.953   2.508
 3894SOL     OW12580   3.821   2.426   0.694
 3894SOL    HW112581   3.884   2.494   0.731
 3894SOL    HW212582   3.797   2.361   0.766
 3895SOL     OW12583   0.803   0.733   5.805
 3895SOL    HW112584   0.816   0.823   5.764
 3895SOL    HW212585   0.745   0.677   5.745
 3896SOL     OW12586   0.748   2.442   6.152
 3896SOL    HW112587   0.788   2.451   6.061
 3896SOL    HW212588   0.650   2.459   6.148
 3897SOL     OW12589   3.210   6.296   2.520
 3897SOL    HW112590   3.181   6.224   2.456
 3897SOL    HW212591   3.208   6.385   2.473
 3898SOL     OW12592   3.218   2.987   3.275
 3898SOL    HW112593   3.224   2.986   3.175
 3898SOL    HW212594   3.157   3.061   3.304
 3899SOL     OW12595   5.292   0.977   4.663
 3899SOL    HW112596   5.333   0.959   4.752
 3899SOL    HW212597   5.332   1.060   4.624
 3900SOL     OW12598   5.590   2.866   3.186
 3900SOL    HW112599   5.521   2.833   3.251
 3900SOL    HW212600   5.676   2.819   3.203
 3901SOL     OW12601   1.923   6.300   5.764
 3901SOL    HW112602   1.991   6.330   5.697
 3901SOL    HW212603   1.969   6.280   5.850
 3902SOL     OW12604   4.755   4.115   3.089
 3902SOL    HW112605   4.715   4.112   2.998
 3902SOL    HW212606   4.837   4.172   3.087
 3903SOL     OW12607   4.223   4.422   6.769
 3903SOL    HW112608   4.194   4.481   6.695
 3903SOL    HW212609   4.157   4.348   6.781
 3904SOL     OW12610   1.136   0.050   6.864
 3904SOL    HW112611   1.177   0.005   6.944
 3904SOL    HW212612   1.153   7.012   6.782
 3905SOL     OW12613   6.411   6.457   6.571
 3905SOL    HW112614   6.451   6.424   6.485
 3905SOL    HW212615   6.344   6.390   6.604
 3906SOL     OW12616   1.803   4.494   4.628
 3906SOL    HW112617   1.887   4.505   4.575
 3906SOL    HW212618   1.727   4.535   4.577
 3907SOL     OW12619   0.703   0.913   4.863
 3907SOL    HW112620   0.792   0.880   4.833
 3907SOL    HW212621   0.712   0.963   4.949
 3908SOL     OW12622   0.923   0.251   5.965
 3908SOL    HW112623   0.920   0.161   5.921
 3908SOL    HW212624   0.830   0.284   5.979
 3909SOL     OW12625   4.934   3.974   6.614
 3909SOL    HW112626   4.898   3.998   6.524
 3909SOL    HW212627   4.983   4.052   6.652
 3910SOL     OW12628   3.575   3.845   1.905
 3910SOL    HW112629   3.590   3.780   1.980
 3910SOL    HW212630   3.553   3.935   1.943
 3911SOL     OW12631   5.338   0.274   0.513
 3911SOL    HW112632   5.412   0.209   0.529
 3911SOL    HW212633   5.253   0.238   0.551
 3912SOL     OW12634   3.143   0.957   5.836
 3912SOL    HW112635   3.230   0.953   5.886
 3912SOL    HW212636   3.128   0.871   5.788
 3913SOL     OW12637   3.816   6.002   6.964
 3913SOL    HW112638   3.872   5.919   6.965
 3913SOL    HW212639   3.760   6.006   0.031
 3914SOL     OW12640   5.428   1.943   1.497
 3914SOL    HW112641   5.414   2.031   1.542
 3914SOL    HW212642   5.351   1.925   1.435
 3915SOL     OW12643   3.145   6.603   0.188
 3915SOL    HW112644   3.066   6.548   0.161
 3915SOL    HW212645   3.155   6.601   0.288
 3916SOL     OW12646   3.002   0.229   3.055
 3916SOL    HW112647   3.038   0.301   3.114
 3916SOL    HW212648   3.019   0.139   3.097
 3917SOL     OW12649   2.704   5.052   0.594
 3917SOL    HW112650   2.675   4.993   0.669
 3917SOL    HW212651   2.779   5.110   0.626
 3918SOL     OW12652   4.784   1.239   0.646
 3918SOL    HW112653   4.802   1.240   0.547
 3918SOL    HW212654   4.786   1.333   0.680
 3919SOL     OW12655   4.037   1.167   1.151
 3919SOL    HW112656   3.959   1.164   1.213
 3919SOL    HW212657   4.006   1.182   1.057
 3920SOL     OW12658   2.659   1.217   6.934
 3920SOL    HW112659   2.747   1.205   6.981
 3920SOL    HW212660   2.603   1.281   6.986
 3921SOL     OW12661   6.510   2.854   6.864
 3921SOL    HW112662   6.584   2.908   6.905
 3921SOL    HW212663   6.476   2.901   6.782
 3922SOL     OW12664   4.612   4.828   2.135
 3922SOL    HW112665   4.634   4.768   2.058
 3922SOL    HW212666   4.529   4.880   2.114
 3923SOL     OW12667   6.051   1.200   1.340
 3923SOL    HW112668   6.012   1.245   1.420
 3923SOL    HW212669   6.118   1.132   1.369
 3924SOL     OW12670   6.981   4.392   3.544
 3924SOL    HW112671   0.033   4.347   3.486
 3924SOL    HW212672   7.003   4.375   3.640
 3925SOL     OW12673   4.549   4.349   0.756
 3925SOL    HW112674   4.496   4.265   0.741
 3925SOL    HW212675   4.635   4.343   0.705
 3926SOL     OW12676   0.838   0.057   5.745
 3926SOL    HW112677   0.900   0.023   5.674
 3926SOL    HW212678   0.769   0.116   5.703
 3927SOL     OW12679   0.783   3.167   4.156
 3927SOL    HW112680   0.768   3.225   4.236
 3927SOL    HW212681   0.846   3.213   4.093
 3928SOL     OW12682   3.078   6.606   3.137
 3928SOL    HW112683   2.985   6.618   3.172
 3928SOL    HW212684   3.090   6.661   3.054
 3929SOL     OW12685   6.587   1.744   6.622
 3929SOL    HW112686   6.514   1.757   6.689
 3929SOL    HW212687   6.666   1.801   6.647
 3930SOL     OW12688   1.157   2.171   3.806
 3930SOL    HW112689   1.224   2.245   3.815
 3930SOL    HW212690   1.107   2.182   3.720
 3931SOL     OW12691   1.706   1.925   2.017
 3931SOL    HW112692   1.644   2.000   1.991
 3931SOL    HW212693   1.663   1.837   1.997
 3932SOL     OW12694   1.970   5.685   3.448
 3932SOL    HW112695   2.008   5.764   3.495
 3932SOL    HW212696   1.972   5.606   3.509
 3933SOL     OW12697   0.990   5.311   0.655
 3933SOL    HW112698   1.029   5.362   0.731
 3933SOL    HW212699   1.058   5.301   0.582
 3934SOL     OW12700   0.507   2.296   3.030
 3934SOL    HW112701   0.516   2.200   3.055
 3934SOL    HW212702   0.595   2.331   2.997
 3935SOL     OW12703   6.277   2.695   6.734
 3935SOL    HW112704   6.313   2.647   6.814
 3935SOL    HW212705   6.270   2.792   6.754
 3936SOL     OW12706   7.005   5.957   4.939
 3936SOL    HW112707   6.953   5.965   5.024
 3936SOL    HW212708   6.943   5.933   4.865
 3937SOL     OW12709   0.450   5.418   2.738
 3937SOL    HW112710   0.393   5.467   2.671
 3937SOL    HW212711   0.474   5.480   2.813
 3938SOL     OW12712   6.926   3.556   4.916
 3938SOL    HW112713   6.891   3.649   4.903
 3938SOL    HW212714   7.014   3.546   4.871
 3939SOL     OW12715   1.199   1.288   2.481
 3939SOL    HW112716   1.210   1.359   2.550
 3939SOL    HW212717   1.115   1.304   2.429
 3940SOL     OW12718   2.983   4.748   1.792
 3940SOL    HW112719   2.918   4.823   1.780
 3940SOL    HW212720   2.935   4.669   1.830
 3941SOL     OW12721   5.874   6.809   4.488
 3941SOL    HW112722   5.831   6.727   4.525
 3941SOL    HW212723   5.921   6.786   4.402
 3942SOL     OW12724   1.605   6.347   5.944
 3942SOL    HW112725   1.585   6.384   6.035
 3942SOL    HW212726   1.625   6.249   5.953
 3943SOL     OW12727   1.040   3.777   1.759
 3943SOL    HW112728   1.129   3.781   1.712
 3943SOL    HW212729   1.048   3.720   1.841
 3944SOL     OW12730   5.499   3.251   6.658
 3944SOL    HW112731   5.463   3.245   6.751
 3944SOL    HW212732   5.456   3.327   6.610
 3945SOL     OW12733   0.753   2.123   3.026
 3945SOL    HW112734   0.768   2.141   2.928
 3945SOL    HW212735   0.782   2.030   3.048
 3946SOL     OW12736   6.767   3.747   0.320
 3946SOL    HW112737   6.689   3.700   0.362
 3946SOL    HW212738   6.850   3.722   0.369
 3947SOL     OW12739   5.919   5.780   0.146
 3947SOL    HW112740   5.939   5.716   0.072
 3947SOL    HW212741   6.004   5.801   0.195
 3948SOL     OW12742   2.136   3.184   6.895
 3948SOL    HW112743   2.058   3.160   6.953
 3948SOL    HW212744   2.220   3.178   6.949
 3949SOL     OW12745   6.559   6.711   2.655
 3949SOL    HW112746   6.625   6.786   2.661
 3949SOL    HW212747   6.606   6.628   2.627
 3950SOL     OW12748   4.188   4.006   1.770
 3950SOL    HW112749   4.164   3.924   1.822
 3950SOL    HW212750   4.254   4.060   1.822
 3951SOL     OW12751   0.553   2.462   5.693
 3951SOL    HW112752   0.644   2.423   5.708
 3951SOL    HW212753   0.499   2.401   5.636
 3952SOL     OW12754   5.872   2.404   4.827
 3952SOL    HW112755   5.880   2.309   4.796
 3952SOL    HW212756   5.955   2.454   4.804
 3953SOL     OW12757   3.161   3.813   6.043
 3953SOL    HW112758   3.105   3.731   6.027
 3953SOL    HW212759   3.116   3.871   6.111
 3954SOL     OW12760   6.219   3.910   5.455
 3954SOL    HW112761   6.187   3.971   5.383
 3954SOL    HW212762   6.301   3.863   5.424
 3955SOL     OW12763   5.091   6.450   0.335
 3955SOL    HW112764   5.067   6.355   0.316
 3955SOL    HW212765   5.029   6.487   0.404
 3956SOL     OW12766   0.751   3.071   5.762
 3956SOL    HW112767   0.788   3.163   5.755
 3956SOL    HW212768   0.796   3.011   5.696
 3957SOL     OW12769   3.150   6.898   4.071
 3957SOL    HW112770   3.196   6.810   4.056
 3957SOL    HW212771   3.210   6.958   4.123
 3958SOL     OW12772   6.379   6.646   0.118
 3958SOL    HW112773   6.469   6.660   0.075
 3958SOL    HW212774   6.365   6.717   0.187
 3959SOL     OW12775   2.648   5.474   1.047
 3959SOL    HW112776   2.685   5.526   1.124
 3959SOL    HW212777   2.605   5.537   0.982
 3960SOL     OW12778   4.307   2.525   6.744
 3960SOL    HW112779   4.366   2.564   6.673
 3960SOL    HW212780   4.313   2.425   6.742
 3961SOL     OW12781   5.286   2.329   2.191
 3961SOL    HW112782   5.305   2.263   2.264
 3961SOL    HW212783   5.279   2.421   2.230
 3962SOL     OW12784   0.803   5.920   0.409
 3962SOL    HW112785   0.709   5.892   0.390
 3962SOL    HW212786   0.860   5.838   0.422
 3963SOL     OW12787   5.100   5.567   3.349
 3963SOL    HW112788   5.155   5.484   3.340
 3963SOL    HW212789   5.005   5.542   3.368
 3964SOL     OW12790   5.104   5.993   5.256
 3964SOL    HW112791   5.166   5.926   5.297
 3964SOL    HW212792   5.105   6.077   5.311
 3965SOL     OW12793   3.168   4.772   0.029
 3965SOL    HW112794   3.131   4.822   6.967
 3965SOL    HW212795   3.239   4.710   7.014
 3966SOL     OW12796   6.350   4.112   6.189
 3966SOL    HW112797   6.325   4.144   6.280
 3966SOL    HW212798   6.447   4.129   6.172
 3967SOL     OW12799   0.793   5.237   4.086
 3967SOL    HW112800   0.711   5.184   4.071
 3967SOL    HW212801   0.853   5.232   4.006
 3968SOL     OW12802   5.514   0.349   3.125
 3968SOL    HW112803   5.553   0.268   3.082
 3968SOL    HW212804   5.582   0.393   3.183
 3969SOL     OW12805   1.576   4.883   2.930
 3969SOL    HW112806   1.585   4.913   2.835
 3969SOL    HW212807   1.514   4.804   2.935
 3970SOL     OW12808   4.752   4.762   4.394
 3970SOL    HW112809   4.744   4.761   4.295
 3970SOL    HW212810   4.714   4.846   4.431
 3971SOL     OW12811   3.164   5.426   3.029
 3971SOL    HW112812   3.238   5.428   3.097
 3971SOL    HW212813   3.099   5.354   3.053
 3972SOL     OW12814   0.285   6.189   0.745
 3972SOL    HW112815   0.277   6.108   0.688
 3972SOL    HW212816   0.369   6.183   0.799
 3973SOL     OW12817   3.074   3.070   5.094
 3973SOL    HW112818   3.037   3.116   5.013
 3973SOL    HW212819   3.126   2.989   5.065
 3974SOL     OW12820   0.211   1.483   6.163
 3974SOL    HW112821   0.217   1.461   6.260
 3974SOL    HW212822   0.286   1.544   6.138
 3975SOL     OW12823   6.488   0.346   5.912
 3975SOL    HW112824   6.400   0.302   5.933
 3975SOL    HW212825   6.520   0.397   5.992
 3976SOL     OW12826   0.605   4.231   1.297
 3976SOL    HW112827   0.604   4.241   1.396
 3976SOL    HW212828   0.516   4.201   1.265
 3977SOL     OW12829   2.609   6.054   5.443
 3977SOL    HW112830   2.684   6.086   5.385
 3977SOL    HW212831   2.566   5.974   5.401
 3978SOL     OW12832   5.931   1.481   5.657
 3978SOL    HW112833   5.832   1.467   5.668
 3978SOL    HW212834   5.951   1.506   5.563
 3979SOL     OW12835   2.143   0.128   1.586
 3979SOL    HW112836   2.178   0.079   1.506
 3979SOL    HW212837   2.105   0.216   1.557
 3980SOL     OW12838   5.562   3.236   4.504
 3980SOL    HW112839   5.481   3.200   4.551
 3980SOL    HW212840   5.621   3.283   4.570
 3981SOL     OW12841   6.983   1.900   6.426
 3981SOL    HW112842   0.063   1.895   6.400
 3981SOL    HW212843   6.940   1.979   6.383
 3982SOL     OW12844   2.214   1.016   4.796
 3982SOL    HW112845   2.129   1.017   4.743
 3982SOL    HW212846   2.230   0.924   4.831
 3983SOL     OW12847   3.417   0.012   4.825
 3983SOL    HW112848   3.458   6.957   4.883
 3983SOL    HW212849   3.432   7.005   4.728
 3984SOL     OW12850   1.878   6.469   2.010
 3984SOL    HW112851   1.976   6.454   2.019
 3984SOL    HW212852   1.850   6.543   2.072
 3985SOL     OW12853   1.796   4.245   6.895
 3985SOL    HW112854   1.805   4.345   6.889
 3985SOL    HW212855   1.699   4.220   6.895
 3986SOL     OW12856   0.578   2.024   1.873
 3986SOL    HW112857   0.519   1.968   1.815
 3986SOL    HW212858   0.575   1.988   1.967
 3987SOL     OW12859   1.443   5.876   5.222
 3987SOL    HW112860   1.343   5.872   5.212
 3987SOL    HW212861   1.469   5.967   5.253
 3988SOL     OW12862   3.768   1.697   6.460
 3988SOL    HW112863   3.842   1.634   6.437
 3988SOL    HW212864   3.727   1.732   6.376
 3989SOL     OW12865   6.291   6.740   6.532
 3989SOL    HW112866   6.308   6.827   6.485
 3989SOL    HW212867   6.356   6.731   6.608
 3990SOL     OW12868   6.696   2.538   5.020
 3990SOL    HW112869   6.636   2.611   5.052
 3990SOL    HW212870   6.771   2.577   4.967
 3991SOL     OW12871   7.004   2.378   3.615
 3991SOL    HW112872   0.065   2.325   3.650
 3991SOL    HW212873   0.005   2.475   3.630
 3992SOL     OW12874   3.625   3.113   6.730
 3992SOL    HW112875   3.527   3.129   6.740
 3992SOL    HW212876   3.652   3.129   6.635
 3993SOL     OW12877   2.732   2.339   2.702
 3993SOL    HW112878   2.687   2.253   2.678
 3993SOL    HW212879   2.813   2.320   2.758
 3994SOL     OW12880   2.281   2.499   4.969
 3994SOL    HW112881   2.199   2.546   4.938
 3994SOL    HW212882   2.358   2.522   4.908
 3995SOL     OW12883   2.326   4.292   3.502
 3995SOL    HW112884   2.320   4.209   3.447
 3995SOL    HW212885   2.379   4.361   3.452
 3996SOL     OW12886   1.871   1.383   4.109
 3996SOL    HW112887   1.833   1.473   4.088
 3996SOL    HW212888   1.800   1.314   4.099
 3997SOL     OW12889   5.012   3.509   3.400
 3997SOL    HW112890   4.964   3.428   3.365
 3997SOL    HW212891   5.110   3.490   3.402
 3998SOL     OW12892   6.289   2.167   1.963
 3998SOL    HW112893   6.207   2.224   1.970
 3998SOL    HW212894   6.285   2.113   1.879
 3999SOL     OW12895   6.131   3.884   3.576
 3999SOL    HW112896   6.205   3.844   3.631
 3999SOL    HW212897   6.081   3.811   3.529
 4000SOL     OW12898   3.227   5.908   2.989
 4000SOL    HW112899   3.177   5.924   2.904
 4000SOL    HW212900   3.239   5.995   3.037
 4001SOL     OW12901   2.379   4.259   6.128
 4001SOL    HW112902   2.408   4.215   6.043
 4001SOL    HW212903   2.282   4.239   6.145
 4002SOL     OW12904   3.672   2.975   4.724
 4002SOL    HW112905   3.639   3.068   4.742
 4002SOL    HW212906   3.771   2.971   4.740
 4003SOL     OW12907   1.920   1.355   6.217
 4003SOL    HW112908   1.937   1.259   6.194
 4003SOL    HW212909   2.006   1.400   6.240
 4004SOL     OW12910   6.586   3.215   3.867
 4004SOL    HW112911   6.629   3.124   3.869
 4004SOL    HW212912   6.585   3.254   3.959
 4005SOL     OW12913   4.115   4.583   0.744
 4005SOL    HW112914   4.123   4.518   0.820
 4005SOL    HW212915   4.206   4.605   0.709
 4006SOL     OW12916   5.255   4.732   1.828
 4006SOL    HW112917   5.332   4.795   1.839
 4006SOL    HW212918   5.287   4.638   1.835
 4007SOL     OW12919   0.098   2.236   3.128
 4007SOL    HW112920   0.084   2.242   3.227
 4007SOL    HW212921   0.115   2.141   3.103
 4008SOL     OW12922   3.371   0.463   6.466
 4008SOL    HW112923   3.290   0.522   6.463
 4008SOL    HW212924   3.347   0.371   6.434
 4009SOL     OW12925   4.494   1.967   1.370
 4009SOL    HW112926   4.553   1.935   1.444
 4009SOL    HW212927   4.444   1.890   1.330
 4010SOL     OW12928   3.216   3.470   1.733
 4010SOL    HW112929   3.182   3.386   1.689
 4010SOL    HW212930   3.151   3.544   1.717
 4011SOL     OW12931   6.639   5.899   1.666
 4011SOL    HW112932   6.573   5.920   1.594
 4011SOL    HW212933   6.732   5.918   1.632
 4012SOL     OW12934   4.258   6.751   2.779
 4012SOL    HW112935   4.305   6.680   2.831
 4012SOL    HW212936   4.184   6.710   2.726
 4013SOL     OW12937   1.930   0.398   1.204
 4013SOL    HW112938   1.993   0.476   1.201
 4013SOL    HW212939   1.863   0.406   1.130
 4014SOL     OW12940   3.470   6.158   4.144
 4014SOL    HW112941   3.390   6.211   4.170
 4014SOL    HW212942   3.450   6.105   4.061
 4015SOL     OW12943   4.552   5.259   6.511
 4015SOL    HW112944   4.562   5.248   6.610
 4015SOL    HW212945   4.617   5.198   6.465
 4016SOL     OW12946   3.056   5.455   0.035
 4016SOL    HW112947   2.992   5.430   0.107
 4016SOL    HW212948   3.143   5.485   0.076
 4017SOL     OW12949   0.297   5.366   5.322
 4017SOL    HW112950   0.294   5.443   5.386
 4017SOL    HW212951   0.310   5.281   5.373
 4018SOL     OW12952   4.525   0.369   1.728
 4018SOL    HW112953   4.543   0.317   1.811
 4018SOL    HW212954   4.528   0.467   1.749
 4019SOL     OW12955   5.359   3.675   2.925
 4019SOL    HW112956   5.415   3.597   2.897
 4019SOL    HW212957   5.280   3.682   2.865
 4020SOL     OW12958   6.683   2.822   5.668
 4020SOL    HW112959   6.669   2.739   5.613
 4020SOL    HW212960   6.770   2.815   5.716
 4021SOL     OW12961   3.568   4.114   5.475
 4021SOL    HW112962   3.484   4.081   5.518
 4021SOL    HW212963   3.559   4.212   5.455
 4022SOL     OW12964   3.639   6.289   6.574
 4022SOL    HW112965   3.647   6.339   6.661
 4022SOL    HW212966   3.619   6.193   6.593
 4023SOL     OW12967   6.794   0.697   5.043
 4023SOL    HW112968   6.808   0.691   4.944
 4023SOL    HW212969   6.853   0.769   5.080
 4024SOL     OW12970   2.444   4.504   3.865
 4024SOL    HW112971   2.438   4.578   3.932
 4024SOL    HW212972   2.422   4.417   3.910
 4025SOL     OW12973   0.457   6.243   4.187
 4025SOL    HW112974   0.427   6.277   4.276
 4025SOL    HW212975   0.556   6.230   4.188
 4026SOL     OW12976   6.248   6.482   4.131
 4026SOL    HW112977   6.267   6.427   4.212
 4026SOL    HW212978   6.324   6.475   4.067
 4027SOL     OW12979   2.560   2.845   0.067
 4027SOL    HW112980   2.483   2.899   0.032
 4027SOL    HW212981   2.553   2.751   0.033
 4028SOL     OW12982   4.684   1.320   3.638
 4028SOL    HW112983   4.596   1.319   3.591
 4028SOL    HW212984   4.736   1.401   3.611
 4029SOL     OW12985   2.682   4.175   5.759
 4029SOL    HW112986   2.731   4.253   5.721
 4029SOL    HW212987   2.721   4.090   5.724
 4030SOL     OW12988   6.706   1.073   2.190
 4030SOL    HW112989   6.752   1.022   2.263
 4030SOL    HW212990   6.614   1.035   2.176
 4031SOL     OW12991   5.402   6.206   3.302
 4031SOL    HW112992   5.373   6.226   3.395
 4031SOL    HW212993   5.339   6.140   3.261
 4032SOL     OW12994   0.101   6.805   2.202
 4032SOL    HW112995   0.027   6.757   2.248
 4032SOL    HW212996   0.095   6.789   2.103
 4033SOL     OW12997   2.179   2.968   1.452
 4033SOL    HW112998   2.164   3.034   1.378
 4033SOL    HW212999   2.194   2.877   1.413
 4034SOL     OW13000   5.805   2.093   5.035
 4034SOL    HW113001   5.857   2.033   4.974
 4034SOL    HW213002   5.858   2.109   5.119
 4035SOL     OW13003   6.051   1.266   0.821
 4035SOL    HW113004   6.074   1.173   0.851
 4035SOL    HW213005   6.013   1.264   0.729
 4036SOL     OW13006   4.035   4.809   2.419
 4036SOL    HW113007   3.946   4.798   2.373
 4036SOL    HW213008   4.102   4.844   2.354
 4037SOL     OW13009   2.132   1.825   0.042
 4037SOL    HW113010   2.071   1.894   0.003
 4037SOL    HW213011   2.088   1.735   0.037
 4038SOL     OW13012   4.118   2.936   1.372
 4038SOL    HW113013   4.152   2.979   1.289
 4038SOL    HW213014   4.134   2.997   1.450
 4039SOL     OW13015   5.629   5.619   1.449
 4039SOL    HW113016   5.568   5.555   1.403
 4039SOL    HW213017   5.706   5.568   1.489
 4040SOL     OW13018   3.718   6.913   4.935
 4040SOL    HW113019   3.727   6.985   4.866
 4040SOL    HW213020   3.809   6.877   4.957
 4041SOL     OW13021   1.370   5.197   0.772
 4041SOL    HW113022   1.308   5.257   0.721
 4041SOL    HW213023   1.405   5.246   0.852
 4042SOL     OW13024   6.074   6.084   4.326
 4042SOL    HW113025   5.993   6.043   4.367
 4042SOL    HW213026   6.141   6.013   4.306
 4043SOL     OW13027   6.840   2.136   6.359
 4043SOL    HW113028   6.886   2.189   6.430
 4043SOL    HW213029   6.747   2.171   6.345
 4044SOL     OW13030   4.700   6.340   3.838
 4044SOL    HW113031   4.625   6.305   3.782
 4044SOL    HW213032   4.664   6.403   3.906
 4045SOL     OW13033   3.985   5.810   5.887
 4045SOL    HW113034   3.938   5.755   5.817
 4045SOL    HW213035   3.918   5.850   5.949
 4046SOL     OW13036   1.482   1.752   3.576
 4046SOL    HW113037   1.417   1.676   3.587
 4046SOL    HW213038   1.435   1.838   3.595
 4047SOL     OW13039   2.410   2.465   0.088
 4047SOL    HW113040   2.459   2.497   0.169
 4047SOL    HW213041   2.442   2.516   0.008
 4048SOL     OW13042   5.331   1.733   1.970
 4048SOL    HW113043   5.372   1.765   1.885
 4048SOL    HW213044   5.302   1.812   2.025
 4049SOL     OW13045   5.217   4.769   6.255
 4049SOL    HW113046   5.193   4.866   6.242
 4049SOL    HW213047   5.143   4.712   6.220
 4050SOL     OW13048   0.916   6.571   1.866
 4050SOL    HW113049   0.973   6.562   1.784
 4050SOL    HW213050   0.820   6.582   1.839
 4051SOL     OW13051   4.106   1.210   6.738
 4051SOL    HW113052   4.161   1.276   6.789
 4051SOL    HW213053   4.162   1.170   6.665
 4052SOL     OW13054   6.120   1.173   2.348
 4052SOL    HW113055   6.207   1.220   2.361
 4052SOL    HW213056   6.049   1.239   2.327
 4053SOL     OW13057   3.012   6.600   4.411
 4053SOL    HW113058   2.966   6.611   4.499
 4053SOL    HW213059   3.072   6.520   4.414
 4054SOL     OW13060   5.774   3.979   1.041
 4054SOL    HW113061   5.748   3.932   1.125
 4054SOL    HW213062   5.722   3.942   0.964
 4055SOL     OW13063   2.859   3.374   0.391
 4055SOL    HW113064   2.912   3.326   0.321
 4055SOL    HW213065   2.851   3.316   0.472
 4056SOL     OW13066   5.217   3.933   0.686
 4056SOL    HW113067   5.254   4.025   0.673
 4056SOL    HW213068   5.117   3.937   0.688
 4057SOL     OW13069   6.652   2.287   0.869
 4057SOL    HW113070   6.715   2.353   0.827
 4057SOL    HW213071   6.672   2.195   0.835
 4058SOL     OW13072   2.242   0.035   4.989
 4058SOL    HW113073   2.322   0.036   4.929
 4058SOL    HW213074   2.222   0.128   5.018
 4059SOL     OW13075   0.994   1.747   2.859
 4059SOL    HW113076   0.940   1.700   2.789
 4059SOL    HW213077   1.007   1.686   2.937
 4060SOL     OW13078   5.831   5.538   5.034
 4060SOL    HW113079   5.893   5.520   4.957
 4060SOL    HW213080   5.877   5.595   5.101
 4061SOL     OW13081   2.358   5.027   2.379
 4061SOL    HW113082   2.331   5.121   2.400
 4061SOL    HW213083   2.368   5.016   2.280
 4062SOL     OW13084   2.529   0.988   1.639
 4062SOL    HW113085   2.618   1.031   1.653
 4062SOL    HW213086   2.541   0.895   1.604
 4063SOL     OW13087   5.966   6.594   0.344
 4063SOL    HW113088   5.908   6.522   0.383
 4063SOL    HW213089   5.964   6.588   0.244
 4064SOL     OW13090   2.498   0.559   3.707
 4064SOL    HW113091   2.435   0.534   3.634
 4064SOL    HW213092   2.578   0.604   3.668
 4065SOL     OW13093   1.208   6.890   1.782
 4065SOL    HW113094   1.188   6.794   1.761
 4065SOL    HW213095   1.296   6.914   1.742
 4066SOL     OW13096   6.145   4.782   3.463
 4066SOL    HW113097   6.068   4.719   3.452
 4066SOL    HW213098   6.206   4.774   3.385
 4067SOL     OW13099   6.082   3.799   3.024
 4067SOL    HW113100   6.059   3.894   3.006
 4067SOL    HW213101   6.158   3.795   3.089
 4068SOL     OW13102   1.625   1.293   5.069
 4068SOL    HW113103   1.554   1.237   5.025
 4068SOL    HW213104   1.619   1.281   5.168
 4069SOL     OW13105   2.786   5.286   6.305
 4069SOL    HW113106   2.869   5.303   6.358
 4069SOL    HW213107   2.805   5.300   6.208
 4070SOL     OW13108   0.760   3.639   2.061
 4070SOL    HW113109   0.748   3.546   2.096
 4070SOL    HW213110   0.683   3.696   2.091
 4071SOL     OW13111   1.235   1.052   5.537
 4071SOL    HW113112   1.147   1.066   5.582
 4071SOL    HW213113   1.253   1.128   5.475
 4072SOL     OW13114   0.647   5.722   4.386
 4072SOL    HW113115   0.730   5.772   4.411
 4072SOL    HW213116   0.571   5.752   4.444
 4073SOL     OW13117   3.239   6.142   5.998
 4073SOL    HW113118   3.276   6.093   6.077
 4073SOL    HW213119   3.154   6.188   6.025
 4074SOL     OW13120   6.816   4.123   1.886
 4074SOL    HW113121   6.814   4.205   1.828
 4074SOL    HW213122   6.911   4.092   1.895
 4075SOL     OW13123   4.454   1.994   1.862
 4075SOL    HW113124   4.482   1.917   1.920
 4075SOL    HW213125   4.412   2.065   1.918
 4076SOL     OW13126   3.096   3.042   5.533
 4076SOL    HW113127   3.186   3.001   5.540
 4076SOL    HW213128   3.036   3.005   5.603
 4077SOL     OW13129   3.279   1.498   6.907
 4077SOL    HW113130   3.315   1.405   6.907
 4077SOL    HW213131   3.218   1.510   6.828
 4078SOL     OW13132   0.278   5.329   1.435
 4078SOL    HW113133   0.220   5.308   1.356
 4078SOL    HW213134   0.337   5.251   1.455
 4079SOL     OW13135   1.654   0.915   3.607
 4079SOL    HW113136   1.713   0.835   3.618
 4079SOL    HW213137   1.601   0.929   3.691
 4080SOL     OW13138   4.298   4.377   6.068
 4080SOL    HW113139   4.322   4.468   6.103
 4080SOL    HW213140   4.301   4.378   5.968
 4081SOL     OW13141   2.020   2.795   4.395
 4081SOL    HW113142   2.086   2.725   4.367
 4081SOL    HW213143   2.007   2.791   4.494
 4082SOL     OW13144   0.235   4.000   0.511
 4082SOL    HW113145   0.268   3.914   0.472
 4082SOL    HW213146   0.166   4.040   0.451
 4083SOL     OW13147   6.717   3.896   2.237
 4083SOL    HW113148   6.637   3.871   2.183
 4083SOL    HW213149   6.732   3.995   2.230
 4084SOL     OW13150   5.597   1.955   3.400
 4084SOL    HW113151   5.566   1.900   3.323
 4084SOL    HW213152   5.683   1.917   3.436
 4085SOL     OW13153   2.714   5.506   1.618
 4085SOL    HW113154   2.792   5.445   1.614
 4085SOL    HW213155   2.671   5.500   1.708
 4086SOL     OW13156   1.117   5.558   2.061
 4086SOL    HW113157   1.187   5.627   2.045
 4086SOL    HW213158   1.160   5.470   2.081
 4087SOL     OW13159   1.762   1.906   3.243
 4087SOL    HW113160   1.710   1.836   3.194
 4087SOL    HW213161   1.855   1.873   3.257
 4088SOL     OW13162   6.908   1.314   6.831
 4088SOL    HW113163   6.996   1.278   6.800
 4088SOL    HW213164   6.875   1.382   6.765
 4089SOL     OW13165   6.258   6.320   4.371
 4089SOL    HW113166   6.190   6.247   4.377
 4089SOL    HW213167   6.337   6.298   4.429
 4090SOL     OW13168   1.549   4.924   5.784
 4090SOL    HW113169   1.613   4.971   5.723
 4090SOL    HW213170   1.491   4.863   5.730
 4091SOL     OW13171   6.952   6.192   6.987
 4091SOL    HW113172   6.872   6.213   0.026
 4091SOL    HW213173   6.954   6.094   6.967
 4092SOL     OW13174   6.468   2.497   6.027
 4092SOL    HW113175   6.403   2.546   5.970
 4092SOL    HW213176   6.557   2.495   5.983
 4093SOL     OW13177   4.454   6.758   2.354
 4093SOL    HW113178   4.529   6.799   2.405
 4093SOL    HW213179   4.486   6.673   2.312
 4094SOL     OW13180   2.314   5.706   4.811
 4094SOL    HW113181   2.318   5.806   4.807
 4094SOL    HW213182   2.343   5.674   4.901
 4095SOL     OW13183   0.284   3.733   0.421
 4095SOL    HW113184   0.320   3.706   0.331
 4095SOL    HW213185   0.317   3.669   0.490
 4096SOL     OW13186   4.602   5.810   5.800
 4096SOL    HW113187   4.656   5.892   5.815
 4096SOL    HW213188   4.527   5.829   5.737
 4097SOL     OW13189   3.647   4.552   5.650
 4097SOL    HW113190   3.698   4.611   5.588
 4097SOL    HW213191   3.710   4.500   5.707
 4098SOL     OW13192   6.935   2.031   1.616
 4098SOL    HW113193   6.982   1.944   1.628
 4098SOL    HW213194   6.986   2.103   1.663
 4099SOL     OW13195   2.768   4.936   1.815
 4099SOL    HW113196   2.688   4.878   1.833
 4099SOL    HW213197   2.779   5.001   1.890
 4100SOL     OW13198   0.209   5.998   4.487
 4100SOL    HW113199   0.172   6.003   4.580
 4100SOL    HW213200   0.198   6.086   4.442
 4101SOL     OW13201   6.038   0.837   0.348
 4101SOL    HW113202   6.042   0.872   0.254
 4101SOL    HW213203   5.976   0.894   0.402
 4102SOL     OW13204   6.625   0.587   0.940
 4102SOL    HW113205   6.701   0.606   1.002
 4102SOL    HW213206   6.658   0.590   0.845
 4103SOL     OW13207   0.401   0.460   6.954
 4103SOL    HW113208   0.426   0.553   6.982
 4103SOL    HW213209   0.392   0.456   6.854
 4104SOL     OW13210   0.977   4.911   3.076
 4104SOL    HW113211   0.884   4.900   3.040
 4104SOL    HW213212   0.977   4.889   3.174
 4105SOL     OW13213   4.754   0.013   1.517
 4105SOL    HW113214   4.731   6.994   1.607
 4105SOL    HW213215   4.733   0.111   1.513
 4106SOL     OW13216   6.296   2.623   3.163
 4106SOL    HW113217   6.354   2.601   3.242
 4106SOL    HW213218   6.353   2.637   3.082
 4107SOL     OW13219   1.221   5.555   1.195
 4107SOL    HW113220   1.287   5.505   1.251
 4107SOL    HW213221   1.265   5.637   1.157
 4108SOL     OW13222   6.181   4.033   5.206
 4108SOL    HW113223   6.249   3.988   5.149
 4108SOL    HW213224   6.109   4.071   5.148
 4109SOL     OW13225   6.340   0.002   4.976
 4109SOL    HW113226   6.245   6.988   4.980
 4109SOL    HW213227   6.398   6.949   5.020
 4110SOL     OW13228   3.831   3.857   6.231
 4110SOL    HW113229   3.768   3.895   6.163
 4110SOL    HW213230   3.779   3.805   6.299
 4111SOL     OW13231   4.339   3.332   6.922
 4111SOL    HW113232   4.435   3.352   6.939
 4111SOL    HW213233   4.295   3.412   6.881
 4112SOL     OW13234   4.952   6.531   4.792
 4112SOL    HW113235   4.923   6.611   4.741
 4112SOL    HW213236   5.040   6.550   4.836
 4113SOL     OW13237   4.954   6.136   4.598
 4113SOL    HW113238   4.896   6.190   4.659
 4113SOL    HW213239   5.034   6.190   4.572
 4114SOL     OW13240   3.520   2.098   3.748
 4114SOL    HW113241   3.518   2.099   3.648
 4114SOL    HW213242   3.549   2.188   3.781
 4115SOL     OW13243   3.546   4.994   2.158
 4115SOL    HW113244   3.563   4.912   2.102
 4115SOL    HW213245   3.534   5.073   2.098
 4116SOL     OW13246   3.392   1.702   2.147
 4116SOL    HW113247   3.426   1.617   2.186
 4116SOL    HW213248   3.462   1.742   2.087
 4117SOL     OW13249   1.409   4.539   2.365
 4117SOL    HW113250   1.457   4.457   2.332
 4117SOL    HW213251   1.321   4.512   2.403
 4118SOL     OW13252   2.948   6.592   0.619
 4118SOL    HW113253   2.926   6.593   0.521
 4118SOL    HW213254   2.979   6.683   0.647
 4119SOL     OW13255   3.573   1.895   3.907
 4119SOL    HW113256   3.561   1.970   3.842
 4119SOL    HW213257   3.545   1.926   3.998
 4120SOL     OW13258   3.693   0.498   0.101
 4120SOL    HW113259   3.644   0.416   0.128
 4120SOL    HW213260   3.776   0.473   0.051
 4121SOL     OW13261   6.118   0.700   4.652
 4121SOL    HW113262   6.107   0.601   4.667
 4121SOL    HW213263   6.203   0.730   4.695
 4122SOL     OW13264   1.165   5.875   5.217
 4122SOL    HW113265   1.082   5.920   5.251
 4122SOL    HW213266   1.140   5.812   5.143
 4123SOL     OW13267   4.314   5.349   5.683
 4123SOL    HW113268   4.215   5.360   5.680
 4123SOL    HW213269   4.342   5.313   5.772
 4124SOL     OW13270   6.371   5.622   6.358
 4124SOL    HW113271   6.400   5.577   6.443
 4124SOL    HW213272   6.440   5.689   6.331
 4125SOL     OW13273   4.464   1.351   2.743
 4125SOL    HW113274   4.512   1.356   2.830
 4125SOL    HW213275   4.458   1.255   2.714
 4126SOL     OW13276   0.985   3.664   4.641
 4126SOL    HW113277   1.057   3.689   4.706
 4126SOL    HW213278   1.015   3.587   4.586
 4127SOL     OW13279   4.452   4.959   4.851
 4127SOL    HW113280   4.429   5.030   4.784
 4127SOL    HW213281   4.391   4.881   4.840
 4128SOL     OW13282   1.443   3.030   1.713
 4128SOL    HW113283   1.494   2.950   1.682
 4128SOL    HW213284   1.361   3.001   1.763
 4129SOL     OW13285   3.993   1.249   6.341
 4129SOL    HW113286   3.898   1.219   6.342
 4129SOL    HW213287   4.043   1.200   6.269
 4130SOL     OW13288   6.523   2.918   6.036
 4130SOL    HW113289   6.575   2.993   5.996
 4130SOL    HW213290   6.575   2.875   6.109
 4131SOL     OW13291   1.429   0.201   2.933
 4131SOL    HW113292   1.480   0.287   2.938
 4131SOL    HW213293   1.484   0.127   2.972
 4132SOL     OW13294   5.116   4.392   3.871
 4132SOL    HW113295   5.183   4.328   3.833
 4132SOL    HW213296   5.130   4.398   3.970
 4133SOL     OW13297   3.079   6.154   0.884
 4133SOL    HW113298   3.018   6.215   0.834
 4133SOL    HW213299   3.086   6.067   0.836
 4134SOL     OW13300   2.594   2.852   0.630
 4134SOL    HW113301   2.559   2.910   0.557
 4134SOL    HW213302   2.589   2.756   0.603
 4135SOL     OW13303   0.935   1.547   3.064
 4135SOL    HW113304   0.843   1.555   3.026
 4135SOL    HW213305   0.932   1.493   3.148
 4136SOL     OW13306   1.239   2.079   2.975
 4136SOL    HW113307   1.238   2.000   3.036
 4136SOL    HW213308   1.314   2.071   2.910
 4137SOL     OW13309   0.505   4.686   0.536
 4137SOL    HW113310   0.485   4.669   0.439
 4137SOL    HW213311   0.421   4.675   0.590
 4138SOL     OW13312   4.465   5.331   3.378
 4138SOL    HW113313   4.538   5.341   3.310
 4138SOL    HW213314   4.419   5.244   3.365
 4139SOL     OW13315   2.027   2.004   5.190
 4139SOL    HW113316   2.075   2.045   5.268
 4139SOL    HW213317   2.089   1.943   5.141
 4140SOL     OW13318   2.929   0.640   5.356
 4140SOL    HW113319   2.835   0.608   5.344
 4140SOL    HW213320   2.932   0.739   5.339
 4141SOL     OW13321   6.070   6.028   1.231
 4141SOL    HW113322   6.056   5.945   1.176
 4141SOL    HW213323   6.025   6.105   1.187
 4142SOL     OW13324   6.048   5.492   1.132
 4142SOL    HW113325   6.054   5.580   1.086
 4142SOL    HW213326   5.975   5.438   1.090
 4143SOL     OW13327   6.841   2.382   1.098
 4143SOL    HW113328   6.758   2.330   1.075
 4143SOL    HW213329   6.816   2.470   1.138
 4144SOL     OW13330   4.886   3.887   6.180
 4144SOL    HW113331   4.929   3.801   6.207
 4144SOL    HW213332   4.927   3.919   6.095
 4145SOL     OW13333   6.589   6.446   1.064
 4145SOL    HW113334   6.540   6.377   1.011
 4145SOL    HW213335   6.553   6.448   1.157
 4146SOL     OW13336   6.980   0.890   4.905
 4146SOL    HW113337   6.961   0.807   4.852
 4146SOL    HW213338   0.060   0.889   4.934
 4147SOL     OW13339   4.531   3.691   6.007
 4147SOL    HW113340   4.454   3.707   5.945
 4147SOL    HW213341   4.551   3.774   6.058
 4148SOL     OW13342   1.200   0.519   4.404
 4148SOL    HW113343   1.199   0.537   4.306
 4148SOL    HW213344   1.288   0.481   4.431
 4149SOL     OW13345   6.944   2.754   0.600
 4149SOL    HW113346   6.888   2.795   0.529
 4149SOL    HW213347   6.943   2.654   0.590
 4150SOL     OW13348   0.814   0.686   6.285
 4150SOL    HW113349   0.861   0.601   6.261
 4150SOL    HW213350   0.746   0.667   6.355
 4151SOL     OW13351   3.549   5.530   5.401
 4151SOL    HW113352   3.501   5.486   5.477
 4151SOL    HW213353   3.511   5.498   5.315
 4152SOL     OW13354   3.810   6.297   1.734
 4152SOL    HW113355   3.744   6.306   1.661
 4152SOL    HW213356   3.811   6.380   1.789
 4153SOL     OW13357   4.264   5.144   0.102
 4153SOL    HW113358   4.221   5.120   0.189
 4153SOL    HW213359   4.193   5.152   0.031
 4154SOL     OW13360   0.502   4.692   4.299
 4154SOL    HW113361   0.581   4.746   4.272
 4154SOL    HW213362   0.423   4.719   4.244
 4155SOL     OW13363   7.013   1.220   2.017
 4155SOL    HW113364   7.010   1.288   2.091
 4155SOL    HW213365   6.924   1.219   1.970
 4156SOL     OW13366   5.998   6.174   5.033
 4156SOL    HW113367   6.013   6.101   5.100
 4156SOL    HW213368   6.023   6.142   4.942
 4157SOL     OW13369   4.900   5.624   4.474
 4157SOL    HW113370   4.916   5.722   4.484
 4157SOL    HW213371   4.856   5.588   4.556
 4158SOL     OW13372   1.981   4.570   2.720
 4158SOL    HW113373   1.890   4.611   2.731
 4158SOL    HW213374   2.047   4.620   2.776
 4159SOL     OW13375   1.889   3.653   4.361
 4159SOL    HW113376   1.845   3.631   4.449
 4159SOL    HW213377   1.821   3.646   4.288
 4160SOL     OW13378   6.101   0.720   0.765
 4160SOL    HW113379   6.047   0.656   0.710
 4160SOL    HW213380   6.190   0.679   0.786
 4161SOL     OW13381   0.811   0.692   0.190
 4161SOL    HW113382   0.725   0.674   0.237
 4161SOL    HW213383   0.822   0.790   0.176
 4162SOL     OW13384   6.077   6.691   6.053
 4162SOL    HW113385   6.027   6.629   6.114
 4162SOL    HW213386   6.137   6.750   6.106
 4163SOL     OW13387   5.942   6.478   3.566
 4163SOL    HW113388   5.925   6.399   3.625
 4163SOL    HW213389   6.009   6.453   3.496
 4164SOL     OW13390   1.826   6.560   6.503
 4164SOL    HW113391   1.762   6.520   6.567
 4164SOL    HW213392   1.826   6.660   6.513
 4165SOL     OW13393   3.901   0.075   6.856
 4165SOL    HW113394   3.963   0.002   6.884
 4165SOL    HW213395   3.871   0.059   6.763
 4166SOL     OW13396   6.362   4.122   0.942
 4166SOL    HW113397   6.370   4.102   1.039
 4166SOL    HW213398   6.453   4.140   0.904
 4167SOL     OW13399   1.056   4.055   1.467
 4167SOL    HW113400   1.081   3.968   1.424
 4167SOL    HW213401   1.014   4.115   1.399
 4168SOL     OW13402   6.765   4.762   0.831
 4168SOL    HW113403   6.827   4.758   0.909
 4168SOL    HW213404   6.675   4.730   0.859
 4169SOL     OW13405   6.123   4.003   3.950
 4169SOL    HW113406   6.061   4.045   3.884
 4169SOL    HW213407   6.192   4.069   3.978
 4170SOL     OW13408   3.670   3.890   5.570
 4170SOL    HW113409   3.706   3.886   5.663
 4170SOL    HW213410   3.658   3.985   5.542
 4171SOL     OW13411   5.646   5.466   1.121
 4171SOL    HW113412   5.629   5.428   1.212
 4171SOL    HW213413   5.587   5.545   1.106
 4172SOL     OW13414   0.603   2.183   6.159
 4172SOL    HW113415   0.522   2.240   6.150
 4172SOL    HW213416   0.655   2.186   6.074
 4173SOL     OW13417   4.761   3.658   5.805
 4173SOL    HW113418   4.845   3.705   5.833
 4173SOL    HW213419   4.685   3.690   5.861
 4174SOL     OW13420   5.355   1.139   3.301
 4174SOL    HW113421   5.277   1.152   3.239
 4174SOL    HW213422   5.440   1.143   3.250
 4175SOL     OW13423   2.006   6.340   4.642
 4175SOL    HW113424   1.954   6.334   4.557
 4175SOL    HW213425   2.082   6.275   4.639
 4176SOL     OW13426   3.084   6.604   2.448
 4176SOL    HW113427   2.984   6.604   2.456
 4176SOL    HW213428   3.111   6.650   2.363
 4177SOL     OW13429   6.516   4.525   4.732
 4177SOL    HW113430   6.546   4.604   4.787
 4177SOL    HW213431   6.596   4.474   4.700
 4178SOL     OW13432   4.864   0.571   3.939
 4178SOL    HW113433   4.857   0.661   3.897
 4178SOL    HW213434   4.814   0.570   4.026
 4179SOL     OW13435   5.422   2.421   2.867
 4179SOL    HW113436   5.393   2.514   2.845
 4179SOL    HW213437   5.415   2.365   2.784
 4180SOL     OW13438   4.996   3.956   1.612
 4180SOL    HW113439   5.027   3.920   1.524
 4180SOL    HW213440   5.072   3.954   1.677
 4181SOL     OW13441   2.422   2.165   0.082
 4181SOL    HW113442   2.513   2.125   0.070
 4181SOL    HW213443   2.431   2.261   0.109
 4182SOL     OW13444   0.269   6.621   3.082
 4182SOL    HW113445   0.223   6.698   3.039
 4182SOL    HW213446   0.355   6.653   3.123
 4183SOL     OW13447   4.737   0.778   6.709
 4183SOL    HW113448   4.791   0.802   6.789
 4183SOL    HW213449   4.714   0.681   6.712
 4184SOL     OW13450   4.509   4.990   1.731
 4184SOL    HW113451   4.582   4.963   1.794
 4184SOL    HW213452   4.448   5.055   1.777
 4185SOL     OW13453   0.812   5.617   2.602
 4185SOL    HW113454   0.869   5.651   2.527
 4185SOL    HW213455   0.831   5.519   2.616
 4186SOL     OW13456   2.440   4.816   1.012
 4186SOL    HW113457   2.383   4.734   1.003
 4186SOL    HW213458   2.530   4.790   1.048
 4187SOL     OW13459   3.563   3.628   6.008
 4187SOL    HW113460   3.519   3.640   5.920
 4187SOL    HW213461   3.643   3.568   5.998
 4188SOL     OW13462   5.225   0.424   4.375
 4188SOL    HW113463   5.321   0.401   4.358
 4188SOL    HW213464   5.183   0.353   4.431
 4189SOL     OW13465   3.647   0.573   5.095
 4189SOL    HW113466   3.745   0.582   5.112
 4189SOL    HW213467   3.629   0.589   4.998
 4190SOL     OW13468   0.360   0.724   0.055
 4190SOL    HW113469   0.276   0.727   0.109
 4190SOL    HW213470   0.435   0.689   0.111
 4191SOL     OW13471   5.484   3.500   3.298
 4191SOL    HW113472   5.474   3.467   3.203
 4191SOL    HW213473   5.448   3.431   3.360
 4192SOL     OW13474   0.470   1.148   3.970
 4192SOL    HW113475   0.465   1.057   3.928
 4192SOL    HW213476   0.565   1.172   3.985
 4193SOL     OW13477   1.921   6.825   2.766
 4193SOL    HW113478   1.993   6.889   2.739
 4193SOL    HW213479   1.879   6.856   2.851
 4194SOL     OW13480   5.737   0.761   5.583
 4194SOL    HW113481   5.694   0.834   5.635
 4194SOL    HW213482   5.828   0.743   5.620
 4195SOL     OW13483   4.178   0.317   2.061
 4195SOL    HW113484   4.098   0.270   2.100
 4195SOL    HW213485   4.254   0.252   2.053
 4196SOL     OW13486   5.920   2.198   3.496
 4196SOL    HW113487   5.896   2.124   3.559
 4196SOL    HW213488   6.008   2.237   3.523
 4197SOL     OW13489   5.301   5.803   4.952
 4197SOL    HW113490   5.237   5.739   4.909
 4197SOL    HW213491   5.390   5.797   4.907
 4198SOL     OW13492   5.567   2.906   6.392
 4198SOL    HW113493   5.479   2.946   6.365
 4198SOL    HW213494   5.634   2.924   6.320
 4199SOL     OW13495   1.701   3.839   6.402
 4199SOL    HW113496   1.699   3.866   6.305
 4199SOL    HW213497   1.766   3.764   6.414
 4200SOL     OW13498   3.126   6.098   5.084
 4200SOL    HW113499   3.079   6.082   5.171
 4200SOL    HW213500   3.211   6.148   5.101
 4201SOL     OW13501   5.887   6.216   3.694
 4201SOL    HW113502   5.955   6.166   3.747
 4201SOL    HW213503   5.853   6.158   3.620
 4202SOL     OW13504   4.243   5.624   5.691
 4202SOL    HW113505   4.242   5.700   5.757
 4202SOL    HW213506   4.326   5.570   5.704
 4203SOL     OW13507   4.784   5.643   1.305
 4203SOL    HW113508   4.802   5.642   1.403
 4203SOL    HW213509   4.690   5.675   1.289
 4204SOL     OW13510   3.599   2.849   2.401
 4204SOL    HW113511   3.596   2.902   2.486
 4204SOL    HW213512   3.641   2.760   2.420
 4205SOL     OW13513   3.611   4.992   4.169
 4205SOL    HW113514   3.686   4.934   4.201
 4205SOL    HW213515   3.533   4.983   4.231
 4206SOL     OW13516   5.974   0.729   5.692
 4206SOL    HW113517   6.006   0.822   5.708
 4206SOL    HW213518   5.956   0.684   5.780
 4207SOL     OW13519   2.135   1.641   1.823
 4207SOL    HW113520   2.073   1.704   1.869
 4207SOL    HW213521   2.106   1.547   1.840
 4208SOL     OW13522   0.869   3.231   6.894
 4208SOL    HW113523   0.841   3.292   6.820
 4208SOL    HW213524   0.962   3.252   6.922
 4209SOL     OW13525   0.504   1.655   5.295
 4209SOL    HW113526   0.518   1.571   5.242
 4209SOL    HW213527   0.573   1.722   5.270
 4210SOL     OW13528   2.950   3.555   2.118
 4210SOL    HW113529   2.896   3.525   2.039
 4210SOL    HW213530   2.952   3.482   2.187
 4211SOL     OW13531   3.919   5.563   5.222
 4211SOL    HW113532   4.008   5.603   5.204
 4211SOL    HW213533   3.921   5.466   5.200
 4212SOL     OW13534   6.539   2.519   2.113
 4212SOL    HW113535   6.538   2.614   2.145
 4212SOL    HW213536   6.516   2.516   2.016
 4213SOL     OW13537   2.774   0.901   2.650
 4213SOL    HW113538   2.716   0.900   2.568
 4213SOL    HW213539   2.822   0.814   2.659
 4214SOL     OW13540   0.910   3.838   5.912
 4214SOL    HW113541   0.886   3.804   6.003
 4214SOL    HW213542   1.009   3.839   5.902
 4215SOL     OW13543   6.675   5.960   4.548
 4215SOL    HW113544   6.730   6.038   4.519
 4215SOL    HW213545   6.678   5.889   4.477
 4216SOL     OW13546   1.530   1.971   3.032
 4216SOL    HW113547   1.619   1.997   3.071
 4216SOL    HW213548   1.504   2.038   2.962
 4217SOL     OW13549   6.668   6.946   2.841
 4217SOL    HW113550   6.677   6.891   2.924
 4217SOL    HW213551   6.573   6.976   2.830
 4218SOL     OW13552   5.320   0.192   1.499
 4218SOL    HW113553   5.317   0.274   1.557
 4218SOL    HW213554   5.233   0.142   1.507
 4219SOL     OW13555   3.072   5.446   4.106
 4219SOL    HW113556   3.146   5.514   4.104
 4219SOL    HW213557   3.051   5.418   4.013
 4220SOL     OW13558   5.981   2.411   2.937
 4220SOL    HW113559   5.962   2.343   2.866
 4220SOL    HW213560   5.903   2.473   2.945
 4221SOL     OW13561   6.140   5.529   6.260
 4221SOL    HW113562   6.226   5.564   6.296
 4221SOL    HW213563   6.121   5.439   6.298
 4222SOL     OW13564   6.209   2.600   2.574
 4222SOL    HW113565   6.232   2.540   2.498
 4222SOL    HW213566   6.173   2.686   2.538
 4223SOL     OW13567   2.903   3.400   5.025
 4223SOL    HW113568   2.849   3.321   5.054
 4223SOL    HW213569   2.885   3.477   5.086
 4224SOL     OW13570   4.792   3.038   3.703
 4224SOL    HW113571   4.748   2.957   3.665
 4224SOL    HW213572   4.864   3.068   3.641
 4225SOL     OW13573   4.106   0.361   5.904
 4225SOL    HW113574   4.112   0.461   5.910
 4225SOL    HW213575   4.025   0.336   5.852
 4226SOL     OW13576   0.839   0.265   3.196
 4226SOL    HW113577   0.879   0.193   3.140
 4226SOL    HW213578   0.912   0.323   3.233
 4227SOL     OW13579   3.513   4.648   6.596
 4227SOL    HW113580   3.575   4.575   6.623
 4227SOL    HW213581   3.418   4.616   6.604
 4228SOL     OW13582   0.419   3.362   3.335
 4228SOL    HW113583   0.358   3.285   3.355
 4228SOL    HW213584   0.403   3.393   3.241
 4229SOL     OW13585   4.427   5.150   5.879
 4229SOL    HW113586   4.498   5.218   5.894
 4229SOL    HW213587   4.399   5.111   5.967
 4230SOL     OW13588   2.218   0.868   4.462
 4230SOL    HW113589   2.151   0.891   4.533
 4230SOL    HW213590   2.171   0.854   4.375
 4231SOL     OW13591   5.163   6.308   4.488
 4231SOL    HW113592   5.213   6.229   4.453
 4231SOL    HW213593   5.225   6.385   4.497
 4232SOL     OW13594   6.672   4.487   1.945
 4232SOL    HW113595   6.708   4.430   1.872
 4232SOL    HW213596   6.716   4.577   1.942
 4233SOL     OW13597   0.109   0.529   6.954
 4233SOL    HW113598   0.021   0.575   6.959
 4233SOL    HW213599   0.182   0.596   6.943
 4234SOL     OW13600   1.582   0.182   5.746
 4234SOL    HW113601   1.591   0.084   5.763
 4234SOL    HW213602   1.603   0.201   5.650
 4235SOL     OW13603   5.838   3.478   5.293
 4235SOL    HW113604   5.823   3.379   5.299
 4235SOL    HW213605   5.759   3.526   5.329
 4236SOL     OW13606   0.594   3.484   3.054
 4236SOL    HW113607   0.497   3.494   3.075
 4236SOL    HW213608   0.648   3.535   3.120
 4237SOL     OW13609   6.452   4.783   4.223
 4237SOL    HW113610   6.356   4.781   4.193
 4237SOL    HW213611   6.456   4.768   4.322
 4238SOL     OW13612   4.068   4.943   3.560
 4238SOL    HW113613   4.099   4.934   3.654
 4238SOL    HW213614   4.052   5.040   3.539
 4239SOL     OW13615   6.192   1.280   3.259
 4239SOL    HW113616   6.220   1.354   3.198
 4239SOL    HW213617   6.235   1.194   3.229
 4240SOL     OW13618   2.006   6.869   6.863
 4240SOL    HW113619   1.943   6.857   6.940
 4240SOL    HW213620   2.064   6.949   6.880
 4241SOL     OW13621   5.338   1.293   1.485
 4241SOL    HW113622   5.309   1.384   1.456
 4241SOL    HW213623   5.275   1.225   1.449
 4242SOL     OW13624   2.182   0.848   3.039
 4242SOL    HW113625   2.163   0.753   3.014
 4242SOL    HW213626   2.103   0.905   3.019
 4243SOL     OW13627   0.685   3.688   3.225
 4243SOL    HW113628   0.740   3.770   3.205
 4243SOL    HW213629   0.724   3.641   3.304
 4244SOL     OW13630   4.562   5.399   0.780
 4244SOL    HW113631   4.510   5.340   0.718
 4244SOL    HW213632   4.546   5.495   0.755
 4245SOL     OW13633   6.286   1.249   6.290
 4245SOL    HW113634   6.313   1.219   6.382
 4245SOL    HW213635   6.317   1.343   6.275
 4246SOL     OW13636   5.772   2.276   3.249
 4246SOL    HW113637   5.834   2.311   3.319
 4246SOL    HW213638   5.735   2.352   3.195
 4247SOL     OW13639   2.229   5.257   3.685
 4247SOL    HW113640   2.304   5.190   3.680
 4247SOL    HW213641   2.174   5.239   3.767
 4248SOL     OW13642   1.358   1.216   3.791
 4248SOL    HW113643   1.277   1.212   3.733
 4248SOL    HW213644   1.330   1.226   3.887
 4249SOL     OW13645   5.916   1.317   3.326
 4249SOL    HW113646   5.850   1.270   3.268
 4249SOL    HW213647   6.009   1.286   3.303
 4250SOL     OW13648   6.762   6.006   4.126
 4250SOL    HW113649   6.766   6.018   4.026
 4250SOL    HW213650   6.774   5.909   4.147
 4251SOL     OW13651   6.394   2.844   0.857
 4251SOL    HW113652   6.342   2.870   0.776
 4251SOL    HW213653   6.405   2.924   0.917
 4252SOL     OW13654   5.194   5.975   6.587
 4252SOL    HW113655   5.107   5.991   6.540
 4252SOL    HW213656   5.208   5.877   6.599
 4253SOL     OW13657   3.384   6.518   2.087
 4253SOL    HW113658   3.420   6.606   2.057
 4253SOL    HW213659   3.358   6.524   2.183
 4254SOL     OW13660   2.046   4.236   1.785
 4254SOL    HW113661   1.993   4.319   1.769
 4254SOL    HW213662   1.993   4.172   1.841
 4255SOL     OW13663   0.315   3.545   3.533
 4255SOL    HW113664   0.352   3.538   3.626
 4255SOL    HW213665   0.321   3.455   3.489
 4256SOL     OW13666   0.861   6.137   1.471
 4256SOL    HW113667   0.843   6.190   1.554
 4256SOL    HW213668   0.928   6.065   1.492
 4257SOL     OW13669   5.165   1.134   4.105
 4257SOL    HW113670   5.194   1.053   4.155
 4257SOL    HW213671   5.148   1.209   4.168
 4258SOL     OW13672   3.327   6.171   0.990
 4258SOL    HW113673   3.344   6.189   1.087
 4258SOL    HW213674   3.232   6.194   0.968
 4259SOL     OW13675   1.686   6.297   0.670
 4259SOL    HW113676   1.770   6.244   0.663
 4259SOL    HW213677   1.607   6.235   0.676
 4260SOL     OW13678   5.674   0.453   3.584
 4260SOL    HW113679   5.748   0.401   3.542
 4260SOL    HW213680   5.603   0.390   3.616
 4261SOL     OW13681   1.933   0.512   2.771
 4261SOL    HW113682   1.877   0.573   2.715
 4261SOL    HW213683   1.917   0.417   2.745
 4262SOL     OW13684   0.841   4.357   5.780
 4262SOL    HW113685   0.787   4.342   5.697
 4262SOL    HW213686   0.901   4.278   5.795
 4263SOL     OW13687   2.322   1.145   3.597
 4263SOL    HW113688   2.322   1.200   3.514
 4263SOL    HW213689   2.363   1.197   3.672
 4264SOL     OW13690   5.983   2.086   4.392
 4264SOL    HW113691   6.067   2.073   4.445
 4264SOL    HW213692   5.979   2.019   4.318
 4265SOL     OW13693   3.667   1.136   0.962
 4265SOL    HW113694   3.721   1.052   0.962
 4265SOL    HW213695   3.610   1.138   1.044
 4266SOL     OW13696   1.766   6.281   6.655
 4266SOL    HW113697   1.770   6.309   6.751
 4266SOL    HW213698   1.854   6.242   6.627
 4267SOL     OW13699   2.122   3.562   3.987
 4267SOL    HW113700   2.130   3.649   3.939
 4267SOL    HW213701   2.140   3.575   4.084
 4268SOL     OW13702   2.165   5.401   6.679
 4268SOL    HW113703   2.221   5.334   6.728
 4268SOL    HW213704   2.154   5.373   6.584
 4269SOL     OW13705   2.914   1.006   3.652
 4269SOL    HW113706   2.973   0.925   3.658
 4269SOL    HW213707   2.877   1.013   3.560
 4270SOL     OW13708   3.117   2.988   2.179
 4270SOL    HW113709   3.077   2.900   2.153
 4270SOL    HW213710   3.217   2.980   2.180
 4271SOL     OW13711   7.011   1.284   0.093
 4271SOL    HW113712   6.987   1.319   0.002
 4271SOL    HW213713   6.961   1.335   0.163
 4272SOL     OW13714   0.055   2.613   4.853
 4272SOL    HW113715   0.086   2.666   4.931
 4272SOL    HW213716   6.976   2.636   4.833
 4273SOL     OW13717   4.943   6.310   5.138
 4273SOL    HW113718   4.892   6.294   5.054
 4273SOL    HW213719   5.038   6.332   5.117
 4274SOL     OW13720   1.006   0.178   1.991
 4274SOL    HW113721   1.004   0.101   2.054
 4274SOL    HW213722   0.982   0.147   1.899
 4275SOL     OW13723   0.574   2.025   3.912
 4275SOL    HW113724   0.528   2.108   3.942
 4275SOL    HW213725   0.506   1.953   3.897
 4276SOL     OW13726   3.198   4.918   4.064
 4276SOL    HW113727   3.146   4.868   3.995
 4276SOL    HW213728   3.288   4.942   4.027
 4277SOL     OW13729   0.253   4.467   2.457
 4277SOL    HW113730   0.285   4.421   2.540
 4277SOL    HW213731   0.156   4.446   2.443
 4278SOL     OW13732   0.700   6.898   4.104
 4278SOL    HW113733   0.757   6.977   4.082
 4278SOL    HW213734   0.664   6.857   4.020
 4279SOL     OW13735   1.394   1.113   2.554
 4279SOL    HW113736   1.382   1.129   2.652
 4279SOL    HW213737   1.334   1.174   2.503
 4280SOL     OW13738   6.495   0.059   6.120
 4280SOL    HW113739   6.405   0.101   6.133
 4280SOL    HW213740   6.523   0.070   6.025
 4281SOL     OW13741   5.367   4.618   3.231
 4281SOL    HW113742   5.277   4.609   3.187
 4281SOL    HW213743   5.404   4.527   3.250
 4282SOL     OW13744   3.093   4.720   0.703
 4282SOL    HW113745   3.056   4.627   0.699
 4282SOL    HW213746   3.122   4.741   0.797
 4283SOL     OW13747   3.693   1.571   3.406
 4283SOL    HW113748   3.605   1.554   3.451
 4283SOL    HW213749   3.727   1.662   3.432
 4284SOL     OW13750   3.959   5.449   0.552
 4284SOL    HW113751   3.957   5.358   0.592
 4284SOL    HW213752   4.043   5.460   0.498
 4285SOL     OW13753   2.236   1.147   5.872
 4285SOL    HW113754   2.229   1.246   5.878
 4285SOL    HW213755   2.250   1.121   5.776
 4286SOL     OW13756   5.720   0.050   5.686
 4286SOL    HW113757   5.811   0.084   5.662
 4286SOL    HW213758   5.713   0.042   5.785
 4287SOL     OW13759   4.699   0.873   5.411
 4287SOL    HW113760   4.683   0.971   5.401
 4287SOL    HW213761   4.653   0.839   5.493
 4288SOL     OW13762   0.776   5.431   3.316
 4288SOL    HW113763   0.705   5.405   3.251
 4288SOL    HW213764   0.849   5.479   3.267
 4289SOL     OW13765   0.829   2.447   6.497
 4289SOL    HW113766   0.780   2.506   6.560
 4289SOL    HW213767   0.921   2.483   6.481
 4290SOL     OW13768   0.537   6.276   4.846
 4290SOL    HW113769   0.616   6.229   4.886
 4290SOL    HW213770   0.502   6.223   4.770
 4291SOL     OW13771   5.191   4.121   6.357
 4291SOL    HW113772   5.182   4.114   6.257
 4291SOL    HW213773   5.100   4.121   6.399
 4292SOL     OW13774   5.724   3.009   0.031
 4292SOL    HW113775   5.641   2.953   0.039
 4292SOL    HW213776   5.707   3.083   6.982
 4293SOL     OW13777   3.366   4.289   6.998
 4293SOL    HW113778   3.408   4.214   0.033
 4293SOL    HW213779   3.377   4.272   6.900
 4294SOL     OW13780   2.019   1.723   6.251
 4294SOL    HW113781   2.017   1.792   6.178
 4294SOL    HW213782   1.929   1.720   6.296
 4295SOL     OW13783   4.336   5.965   3.763
 4295SOL    HW113784   4.337   6.041   3.827
 4295SOL    HW213785   4.398   5.893   3.795
 4296SOL     OW13786   2.988   6.879   0.448
 4296SOL    HW113787   2.923   6.937   0.398
 4296SOL    HW213788   3.000   6.793   0.398
 4297SOL     OW13789   6.427   6.453   2.190
 4297SOL    HW113790   6.468   6.373   2.234
 4297SOL    HW213791   6.494   6.527   2.187
 4298SOL     OW13792   3.223   6.186   1.645
 4298SOL    HW113793   3.188   6.276   1.672
 4298SOL    HW213794   3.312   6.171   1.687
 4299SOL     OW13795   0.610   3.139   6.936
 4299SOL    HW113796   0.593   3.081   6.857
 4299SOL    HW213797   0.701   3.179   6.930
 4300SOL     OW13798   2.615   0.161   0.217
 4300SOL    HW113799   2.563   0.239   0.182
 4300SOL    HW213800   2.631   0.096   0.142
 4301SOL     OW13801   4.601   0.584   1.947
 4301SOL    HW113802   4.577   0.670   1.902
 4301SOL    HW213803   4.598   0.596   2.046
 4302SOL     OW13804   6.714   0.154   6.275
 4302SOL    HW113805   6.770   0.079   6.310
 4302SOL    HW213806   6.632   0.117   6.230
 4303SOL     OW13807   6.981   4.735   3.723
 4303SOL    HW113808   6.956   4.672   3.649
 4303SOL    HW213809   6.999   4.682   3.806
 4304SOL     OW13810   3.362   3.646   2.399
 4304SOL    HW113811   3.303   3.722   2.373
 4304SOL    HW213812   3.395   3.661   2.492
 4305SOL     OW13813   0.378   6.500   6.395
 4305SOL    HW113814   0.419   6.575   6.345
 4305SOL    HW213815   0.299   6.465   6.345
 4306SOL     OW13816   4.905   5.075   4.455
 4306SOL    HW113817   4.937   5.046   4.545
 4306SOL    HW213818   4.846   5.155   4.465
 4307SOL     OW13819   5.484   3.154   4.994
 4307SOL    HW113820   5.387   3.144   5.017
 4307SOL    HW213821   5.526   3.063   4.988
 4308SOL     OW13822   5.518   5.364   1.356
 4308SOL    HW113823   5.424   5.375   1.388
 4308SOL    HW213824   5.555   5.277   1.390
 4309SOL     OW13825   1.571   2.212   0.620
 4309SOL    HW113826   1.596   2.257   0.706
 4309SOL    HW213827   1.489   2.255   0.582
 4310SOL     OW13828   1.732   2.450   1.609
 4310SOL    HW113829   1.807   2.392   1.640
 4310SOL    HW213830   1.768   2.541   1.586
 4311SOL     OW13831   0.809   5.996   2.369
 4311SOL    HW113832   0.845   5.972   2.459
 4311SOL    HW213833   0.725   5.944   2.351
 4312SOL     OW13834   1.686   5.380   2.957
 4312SOL    HW113835   1.686   5.335   3.047
 4312SOL    HW213836   1.773   5.427   2.944
 4313SOL     OW13837   4.465   1.731   0.108
 4313SOL    HW113838   4.401   1.807   0.096
 4313SOL    HW213839   4.428   1.666   0.175
 4314SOL     OW13840   6.507   1.549   4.986
 4314SOL    HW113841   6.437   1.619   5.002
 4314SOL    HW213842   6.518   1.535   4.888
 4315SOL     OW13843   2.350   0.998   3.183
 4315SOL    HW113844   2.419   1.035   3.121
 4315SOL    HW213845   2.287   0.940   3.132
 4316SOL     OW13846   5.335   0.294   2.371
 4316SOL    HW113847   5.351   0.209   2.322
 4316SOL    HW213848   5.298   0.274   2.462
 4317SOL     OW13849   4.757   1.480   5.949
 4317SOL    HW113850   4.792   1.500   5.858
 4317SOL    HW213851   4.665   1.442   5.942
 4318SOL     OW13852   0.940   1.283   4.696
 4318SOL    HW113853   0.854   1.280   4.746
 4318SOL    HW213854   0.980   1.191   4.692
 4319SOL     OW13855   1.059   2.030   1.301
 4319SOL    HW113856   1.100   1.960   1.360
 4319SOL    HW213857   1.130   2.087   1.261
 4320SOL     OW13858   3.640   5.436   1.257
 4320SOL    HW113859   3.656   5.341   1.282
 4320SOL    HW213860   3.617   5.441   1.159
 4321SOL     OW13861   6.690   4.573   3.643
 4321SOL    HW113862   6.682   4.574   3.543
 4321SOL    HW213863   6.688   4.667   3.677
 4322SOL     OW13864   6.549   3.392   6.187
 4322SOL    HW113865   6.534   3.296   6.165
 4322SOL    HW213866   6.646   3.406   6.211
 4323SOL     OW13867   5.097   4.797   0.399
 4323SOL    HW113868   5.043   4.877   0.425
 4323SOL    HW213869   5.195   4.819   0.406
 4324SOL     OW13870   6.234   3.835   5.841
 4324SOL    HW113871   6.286   3.757   5.875
 4324SOL    HW213872   6.285   3.919   5.861
 4325SOL     OW13873   2.729   1.687   2.164
 4325SOL    HW113874   2.763   1.717   2.075
 4325SOL    HW213875   2.733   1.764   2.228
 4326SOL     OW13876   5.189   4.363   2.091
 4326SOL    HW113877   5.263   4.374   2.158
 4326SOL    HW213878   5.107   4.410   2.123
 4327SOL     OW13879   4.560   6.204   2.655
 4327SOL    HW113880   4.531   6.132   2.592
 4327SOL    HW213881   4.647   6.178   2.697
 4328SOL     OW13882   5.508   4.340   5.616
 4328SOL    HW113883   5.537   4.378   5.528
 4328SOL    HW213884   5.545   4.248   5.627
 4329SOL     OW13885   5.964   2.498   5.527
 4329SOL    HW113886   6.013   2.411   5.527
 4329SOL    HW213887   5.995   2.553   5.604
 4330SOL     OW13888   1.724   6.826   4.249
 4330SOL    HW113889   1.762   6.918   4.239
 4330SOL    HW213890   1.790   6.768   4.296
 4331SOL     OW13891   6.200   0.887   1.675
 4331SOL    HW113892   6.203   0.794   1.638
 4331SOL    HW213893   6.287   0.907   1.721
 4332SOL     OW13894   6.642   2.993   2.998
 4332SOL    HW113895   6.546   3.015   3.016
 4332SOL    HW213896   6.650   2.896   2.974
 4333SOL     OW13897   4.541   1.784   4.943
 4333SOL    HW113898   4.473   1.792   4.870
 4333SOL    HW213899   4.631   1.769   4.903
 4334SOL     OW13900   1.551   2.901   2.293
 4334SOL    HW113901   1.458   2.922   2.264
 4334SOL    HW213902   1.549   2.826   2.360
 4335SOL     OW13903   3.732   2.878   1.912
 4335SOL    HW113904   3.813   2.934   1.930
 4335SOL    HW213905   3.669   2.886   1.989
 4336SOL     OW13906   2.575   5.462   5.664
 4336SOL    HW113907   2.606   5.374   5.702
 4336SOL    HW213908   2.527   5.446   5.578
 4337SOL     OW13909   2.321   4.641   1.640
 4337SOL    HW113910   2.396   4.707   1.630
 4337SOL    HW213911   2.346   4.571   1.706
 4338SOL     OW13912   6.294   0.210   6.271
 4338SOL    HW113913   6.206   0.245   6.239
 4338SOL    HW213914   6.338   0.280   6.328
 4339SOL     OW13915   3.802   2.372   6.347
 4339SOL    HW113916   3.856   2.300   6.303
 4339SOL    HW213917   3.705   2.348   6.343
 4340SOL     OW13918   6.039   3.830   1.006
 4340SOL    HW113919   6.068   3.870   0.920
 4340SOL    HW213920   5.958   3.879   1.040
 4341SOL     OW13921   1.287   5.110   1.165
 4341SOL    HW113922   1.285   5.123   1.264
 4341SOL    HW213923   1.214   5.046   1.139
 4342SOL     OW13924   5.328   3.679   3.188
 4342SOL    HW113925   5.346   3.667   3.090
 4342SOL    HW213926   5.381   3.611   3.240
 4343SOL     OW13927   3.324   6.498   5.060
 4343SOL    HW113928   3.395   6.565   5.044
 4343SOL    HW213929   3.359   6.406   5.039
 4344SOL     OW13930   1.303   3.291   3.212
 4344SOL    HW113931   1.384   3.342   3.185
 4344SOL    HW213932   1.228   3.354   3.231
 4345SOL     OW13933   3.085   3.265   4.853
 4345SOL    HW113934   3.028   3.321   4.913
 4345SOL    HW213935   3.137   3.324   4.791
 4346SOL     OW13936   2.138   2.785   2.479
 4346SOL    HW113937   2.207   2.717   2.456
 4346SOL    HW213938   2.048   2.751   2.453
 4347SOL     OW13939   5.837   6.849   2.506
 4347SOL    HW113940   5.894   6.771   2.479
 4347SOL    HW213941   5.746   6.816   2.532
 4348SOL     OW13942   0.530   5.867   4.050
 4348SOL    HW113943   0.596   5.918   4.105
 4348SOL    HW213944   0.484   5.800   4.107
 4349SOL     OW13945   6.696   2.811   4.190
 4349SOL    HW113946   6.615   2.834   4.243
 4349SOL    HW213947   6.704   2.711   4.184
 4350SOL     OW13948   4.535   2.181   4.084
 4350SOL    HW113949   4.586   2.124   4.149
 4350SOL    HW213950   4.530   2.275   4.118
 4351SOL     OW13951   1.120   6.229   1.171
 4351SOL    HW113952   1.139   6.139   1.132
 4351SOL    HW213953   1.166   6.238   1.259
 4352SOL     OW13954   6.352   4.070   1.594
 4352SOL    HW113955   6.256   4.057   1.567
 4352SOL    HW213956   6.379   3.998   1.657
 4353SOL     OW13957   3.369   3.765   0.113
 4353SOL    HW113958   3.300   3.729   0.175
 4353SOL    HW213959   3.437   3.817   0.165
 4354SOL     OW13960   1.429   1.718   6.434
 4354SOL    HW113961   1.395   1.775   6.509
 4354SOL    HW213962   1.467   1.633   6.470
 4355SOL     OW13963   1.784   6.970   2.581
 4355SOL    HW113964   1.822   6.906   2.647
 4355SOL    HW213965   1.859   7.009   2.526
 4356SOL     OW13966   4.622   3.281   5.538
 4356SOL    HW113967   4.706   3.329   5.564
 4356SOL    HW213968   4.580   3.328   5.461
 4357SOL     OW13969   6.949   1.378   1.287
 4357SOL    HW113970   6.869   1.334   1.247
 4357SOL    HW213971   0.015   1.351   1.237
 4358SOL     OW13972   6.753   0.332   0.279
 4358SOL    HW113973   6.779   0.271   0.203
 4358SOL    HW213974   6.663   0.305   0.312
 4359SOL     OW13975   1.376   1.327   6.927
 4359SOL    HW113976   1.449   1.260   6.914
 4359SOL    HW213977   1.342   1.322   0.004
 4360SOL     OW13978   0.677   2.816   4.801
 4360SOL    HW113979   0.643   2.878   4.730
 4360SOL    HW213980   0.682   2.865   4.888
 4361SOL     OW13981   1.937   3.813   1.462
 4361SOL    HW113982   1.890   3.844   1.379
 4361SOL    HW213983   2.020   3.764   1.437
 4362SOL     OW13984   0.048   5.810   3.711
 4362SOL    HW113985   6.967   5.827   3.695
 4362SOL    HW213986   0.088   5.763   3.632
 4363SOL     OW13987   4.654   1.452   2.065
 4363SOL    HW113988   4.646   1.383   2.138
 4363SOL    HW213989   4.724   1.422   1.999
 4364SOL     OW13990   3.076   3.984   3.355
 4364SOL    HW113991   3.035   3.956   3.268
 4364SOL    HW213992   3.145   4.054   3.339
 4365SOL     OW13993   3.000   0.680   2.170
 4365SOL    HW113994   2.953   0.605   2.123
 4365SOL    HW213995   3.098   0.660   2.175
 4366SOL     OW13996   6.117   6.094   6.536
 4366SOL    HW113997   6.018   6.090   6.523
 4366SOL    HW213998   6.162   6.059   6.454
 4367SOL     OW13999   3.002   5.058   3.557
 4367SOL    HW114000   3.008   5.037   3.654
 4367SOL    HW214001   3.042   5.149   3.540
 4368SOL     OW14002   3.942   5.487   1.856
 4368SOL    HW114003   3.904   5.467   1.765
 4368SOL    HW214004   3.926   5.583   1.878
 4369SOL     OW14005   4.846   5.162   3.374
 4369SOL    HW114006   4.785   5.229   3.332
 4369SOL    HW214007   4.859   5.085   3.312
 4370SOL     OW14008   3.561   3.958   1.438
 4370SOL    HW114009   3.580   3.921   1.529
 4370SOL    HW214010   3.518   3.887   1.381
 4371SOL     OW14011   2.169   1.535   3.196
 4371SOL    HW114012   2.135   1.470   3.263
 4371SOL    HW214013   2.138   1.627   3.221
 4372SOL     OW14014   2.320   2.743   4.166
 4372SOL    HW114015   2.301   2.840   4.182
 4372SOL    HW214016   2.322   2.725   4.068
 4373SOL     OW14017   4.367   0.700   6.427
 4373SOL    HW114018   4.377   0.769   6.355
 4373SOL    HW214019   4.430   0.625   6.411
 4374SOL     OW14020   2.190   1.752   1.583
 4374SOL    HW114021   2.161   1.719   1.673
 4374SOL    HW214022   2.275   1.707   1.557
 4375SOL     OW14023   4.187   6.437   2.716
 4375SOL    HW114024   4.247   6.427   2.636
 4375SOL    HW214025   4.094   6.409   2.692
 4376SOL     OW14026   6.448   0.697   1.873
 4376SOL    HW114027   6.460   0.796   1.885
 4376SOL    HW214028   6.362   0.668   1.915
 4377SOL     OW14029   6.114   5.533   0.482
 4377SOL    HW114030   6.122   5.604   0.552
 4377SOL    HW214031   6.176   5.458   0.504
 4378SOL     OW14032   1.388   4.335   2.865
 4378SOL    HW114033   1.401   4.280   2.782
 4378SOL    HW214034   1.437   4.293   2.941
 4379SOL     OW14035   2.237   1.139   1.836
 4379SOL    HW114036   2.221   1.070   1.766
 4379SOL    HW214037   2.324   1.186   1.817
 4380SOL     OW14038   1.474   6.229   4.092
 4380SOL    HW114039   1.553   6.254   4.148
 4380SOL    HW214040   1.390   6.240   4.146
 4381SOL     OW14041   2.128   3.986   4.824
 4381SOL    HW114042   2.161   3.924   4.753
 4381SOL    HW214043   2.199   4.001   4.892
 4382SOL     OW14044   6.015   3.919   6.187
 4382SOL    HW114045   5.994   3.940   6.091
 4382SOL    HW214046   6.111   3.895   6.196
 4383SOL     OW14047   0.276   2.568   5.566
 4383SOL    HW114048   0.284   2.471   5.544
 4383SOL    HW214049   0.346   2.619   5.515
 4384SOL     OW14050   5.348   0.771   6.916
 4384SOL    HW114051   5.338   0.871   6.914
 4384SOL    HW214052   5.290   0.733   6.988
 4385SOL     OW14053   6.872   2.971   4.435
 4385SOL    HW114054   6.797   3.029   4.405
 4385SOL    HW214055   6.854   2.876   4.407
 4386SOL     OW14056   0.788   3.668   6.827
 4386SOL    HW114057   0.833   3.625   6.748
 4386SOL    HW214058   0.833   3.755   6.847
 4387SOL     OW14059   0.784   2.244   1.705
 4387SOL    HW114060   0.737   2.233   1.617
 4387SOL    HW214061   0.810   2.154   1.739
 4388SOL     OW14062   5.077   0.928   6.731
 4388SOL    HW114063   5.032   0.868   6.797
 4388SOL    HW214064   5.008   0.988   6.689
 4389SOL     OW14065   5.312   1.443   0.479
 4389SOL    HW114066   5.214   1.452   0.459
 4389SOL    HW214067   5.357   1.395   0.404
 4390SOL     OW14068   3.682   1.988   2.130
 4390SOL    HW114069   3.671   1.903   2.078
 4390SOL    HW214070   3.672   2.066   2.068
 4391SOL     OW14071   1.631   5.348   6.349
 4391SOL    HW114072   1.579   5.284   6.293
 4391SOL    HW214073   1.670   5.300   6.428
 4392SOL     OW14074   6.221   3.527   4.730
 4392SOL    HW114075   6.288   3.456   4.753
 4392SOL    HW214076   6.219   3.596   4.802
 4393SOL     OW14077   5.298   6.728   2.731
 4393SOL    HW114078   5.255   6.669   2.662
 4393SOL    HW214079   5.344   6.670   2.799
 4394SOL     OW14080   6.377   5.470   2.595
 4394SOL    HW114081   6.374   5.421   2.508
 4394SOL    HW214082   6.341   5.562   2.583
 4395SOL     OW14083   4.191   1.606   1.942
 4395SOL    HW114084   4.205   1.604   1.843
 4395SOL    HW214085   4.148   1.520   1.971
 4396SOL     OW14086   2.566   1.876   3.880
 4396SOL    HW114087   2.595   1.853   3.973
 4396SOL    HW214088   2.560   1.793   3.826
 4397SOL     OW14089   0.511   1.311   4.705
 4397SOL    HW114090   0.483   1.301   4.609
 4397SOL    HW214091   0.503   1.407   4.731
 4398SOL     OW14092   1.455   4.483   4.904
 4398SOL    HW114093   1.435   4.386   4.891
 4398SOL    HW214094   1.380   4.538   4.866
 4399SOL     OW14095   1.990   0.271   2.059
 4399SOL    HW114096   1.966   0.184   2.103
 4399SOL    HW214097   2.046   0.325   2.121
 4400SOL     OW14098   1.949   6.754   4.616
 4400SOL    HW114099   2.032   6.697   4.609
 4400SOL    HW214100   1.974   6.850   4.608
 4401SOL     OW14101   5.488   6.599   6.490
 4401SOL    HW114102   5.567   6.643   6.533
 4401SOL    HW214103   5.413   6.665   6.485
 4402SOL     OW14104   1.935   6.289   2.359
 4402SOL    HW114105   1.977   6.300   2.268
 4402SOL    HW214106   1.999   6.241   2.419
 4403SOL     OW14107   0.157   6.956   3.710
 4403SOL    HW114108   0.127   7.011   3.788
 4403SOL    HW214109   0.076   6.926   3.659
 4404SOL     OW14110   0.902   3.906   5.568
 4404SOL    HW114111   0.893   3.941   5.475
 4404SOL    HW214112   0.813   3.877   5.602
 4405SOL     OW14113   2.969   3.895   0.486
 4405SOL    HW114114   3.008   3.806   0.465
 4405SOL    HW214115   2.938   3.939   0.402
 4406SOL     OW14116   5.962   4.583   1.632
 4406SOL    HW114117   5.909   4.500   1.649
 4406SOL    HW214118   5.984   4.627   1.720
 4407SOL     OW14119   0.260   4.660   0.640
 4407SOL    HW114120   0.255   4.664   0.740
 4407SOL    HW214121   0.228   4.571   0.609
 4408SOL     OW14122   4.616   0.708   1.057
 4408SOL    HW114123   4.664   0.769   1.121
 4408SOL    HW214124   4.602   0.619   1.101
 4409SOL     OW14125   4.169   0.782   2.334
 4409SOL    HW114126   4.159   0.743   2.242
 4409SOL    HW214127   4.169   0.708   2.401
 4410SOL     OW14128   1.685   4.929   0.774
 4410SOL    HW114129   1.631   4.845   0.763
 4410SOL    HW214130   1.754   4.934   0.702
 4411SOL     OW14131   3.923   3.088   4.031
 4411SOL    HW114132   3.955   3.127   4.117
 4411SOL    HW214133   3.978   3.124   3.956
 4412SOL     OW14134   3.446   1.358   4.314
 4412SOL    HW114135   3.427   1.260   4.304
 4412SOL    HW214136   3.532   1.380   4.268
 4413SOL     OW14137   4.668   6.109   4.849
 4413SOL    HW114138   4.739   6.177   4.865
 4413SOL    HW214139   4.709   6.028   4.807
 4414SOL     OW14140   4.159   4.847   1.923
 4414SOL    HW114141   4.179   4.773   1.859
 4414SOL    HW214142   4.073   4.891   1.898
 4415SOL     OW14143   4.038   4.335   6.439
 4415SOL    HW114144   4.059   4.245   6.402
 4415SOL    HW214145   4.122   4.390   6.442
 4416SOL     OW14146   3.111   0.550   4.188
 4416SOL    HW114147   3.115   0.450   4.186
 4416SOL    HW214148   3.171   0.584   4.260
 4417SOL     OW14149   6.644   4.391   3.180
 4417SOL    HW114150   6.655   4.295   3.207
 4417SOL    HW214151   6.616   4.395   3.084
 4418SOL     OW14152   5.733   0.865   3.966
 4418SOL    HW114153   5.707   0.798   3.896
 4418SOL    HW214154   5.823   0.842   4.002
 4419SOL     OW14155   5.862   6.126   0.223
 4419SOL    HW114156   5.812   6.078   0.150
 4419SOL    HW214157   5.946   6.075   0.244
 4420SOL     OW14158   4.857   1.725   1.221
 4420SOL    HW114159   4.888   1.783   1.296
 4420SOL    HW214160   4.791   1.775   1.165
 4421SOL     OW14161   1.998   1.061   3.286
 4421SOL    HW114162   1.905   1.074   3.322
 4421SOL    HW214163   1.995   1.060   3.186
 4422SOL     OW14164   2.250   3.768   6.036
 4422SOL    HW114165   2.241   3.691   5.973
 4422SOL    HW214166   2.234   3.736   6.130
 4423SOL     OW14167   1.443   2.919   5.903
 4423SOL    HW114168   1.350   2.955   5.895
 4423SOL    HW214169   1.501   2.987   5.950
 4424SOL     OW14170   5.381   6.237   3.592
 4424SOL    HW114171   5.404   6.140   3.595
 4424SOL    HW214172   5.455   6.290   3.635
 4425SOL     OW14173   3.333   5.473   5.696
 4425SOL    HW114174   3.298   5.555   5.742
 4425SOL    HW214175   3.259   5.408   5.682
 4426SOL     OW14176   0.182   1.863   5.011
 4426SOL    HW114177   0.095   1.865   4.962
 4426SOL    HW214178   0.256   1.888   4.949
 4427SOL     OW14179   6.869   6.571   3.063
 4427SOL    HW114180   6.859   6.670   3.063
 4427SOL    HW214181   6.778   6.528   3.057
 4428SOL     OW14182   3.090   5.156   2.197
 4428SOL    HW114183   3.172   5.196   2.239
 4428SOL    HW214184   3.114   5.069   2.154
 4429SOL     OW14185   2.975   0.619   3.910
 4429SOL    HW114186   3.045   0.593   3.976
 4429SOL    HW214187   2.893   0.649   3.958
 4430SOL     OW14188   5.682   3.059   4.020
 4430SOL    HW114189   5.685   3.006   3.935
 4430SOL    HW214190   5.761   3.120   4.023
 4431SOL     OW14191   1.373   0.994   2.162
 4431SOL    HW114192   1.357   1.086   2.125
 4431SOL    HW214193   1.398   0.933   2.087
 4432SOL     OW14194   3.257   3.700   3.586
 4432SOL    HW114195   3.275   3.717   3.489
 4432SOL    HW214196   3.200   3.619   3.596
 4433SOL     OW14197   6.044   0.384   4.742
 4433SOL    HW114198   5.954   0.359   4.708
 4433SOL    HW214199   6.112   0.318   4.710
 4434SOL     OW14200   4.113   2.117   3.232
 4434SOL    HW114201   4.120   2.020   3.258
 4434SOL    HW214202   4.095   2.123   3.133
 4435SOL     OW14203   4.490   3.691   1.030
 4435SOL    HW114204   4.438   3.722   0.951
 4435SOL    HW214205   4.502   3.767   1.094
 4436SOL     OW14206   3.316   2.090   0.653
 4436SOL    HW114207   3.409   2.090   0.617
 4436SOL    HW214208   3.254   2.130   0.586
 4437SOL     OW14209   5.440   1.342   3.770
 4437SOL    HW114210   5.532   1.305   3.787
 4437SOL    HW214211   5.400   1.295   3.692
 4438SOL     OW14212   3.948   1.140   6.937
 4438SOL    HW114213   3.951   1.222   6.994
 4438SOL    HW214214   3.994   1.158   6.850
 4439SOL     OW14215   0.181   6.239   1.306
 4439SOL    HW114216   0.231   6.246   1.393
 4439SOL    HW214217   0.112   6.311   1.301
 4440SOL     OW14218   1.663   4.365   0.503
 4440SOL    HW114219   1.750   4.320   0.527
 4440SOL    HW214220   1.681   4.459   0.475
 4441SOL     OW14221   6.600   1.963   2.859
 4441SOL    HW114222   6.669   1.949   2.929
 4441SOL    HW214223   6.603   1.888   2.793
 4442SOL     OW14224   2.995   6.195   4.423
 4442SOL    HW114225   2.980   6.097   4.431
 4442SOL    HW214226   3.066   6.213   4.354
 4443SOL     OW14227   0.064   2.989   0.683
 4443SOL    HW114228   0.157   2.988   0.719
 4443SOL    HW214229   0.028   2.896   0.680
 4444SOL     OW14230   3.443   5.591   6.072
 4444SOL    HW114231   3.481   5.564   5.983
 4444SOL    HW214232   3.494   5.545   6.145
 4445SOL     OW14233   6.924   0.503   0.877
 4445SOL    HW114234   7.012   0.468   0.843
 4445SOL    HW214235   6.940   0.584   0.932
 4446SOL     OW14236   6.106   1.542   2.167
 4446SOL    HW114237   6.060   1.605   2.104
 4446SOL    HW214238   6.189   1.584   2.202
 4447SOL     OW14239   5.794   3.358   5.965
 4447SOL    HW114240   5.772   3.455   5.960
 4447SOL    HW214241   5.724   3.305   5.917
 4448SOL     OW14242   3.568   4.082   1.104
 4448SOL    HW114243   3.474   4.071   1.071
 4448SOL    HW214244   3.623   4.003   1.075
 4449SOL     OW14245   4.178   0.591   6.159
 4449SOL    HW114246   4.163   0.602   6.061
 4449SOL    HW214247   4.276   0.596   6.179
 4450SOL     OW14248   4.034   3.531   4.418
 4450SOL    HW114249   3.984   3.509   4.334
 4450SOL    HW214250   4.047   3.630   4.423
 4451SOL     OW14251   5.814   4.229   2.956
 4451SOL    HW114252   5.883   4.241   2.884
 4451SOL    HW214253   5.729   4.195   2.916
 4452SOL     OW14254   5.596   6.647   4.987
 4452SOL    HW114255   5.591   6.573   5.054
 4452SOL    HW214256   5.573   6.734   5.032
 4453SOL     OW14257   6.478   2.710   1.232
 4453SOL    HW114258   6.454   2.746   1.322
 4453SOL    HW214259   6.428   2.760   1.162
 4454SOL     OW14260   5.265   1.898   6.733
 4454SOL    HW114261   5.252   1.799   6.727
 4454SOL    HW214262   5.182   1.944   6.704
 4455SOL     OW14263   3.824   0.171   6.203
 4455SOL    HW114264   3.794   0.249   6.259
 4455SOL    HW214265   3.920   0.153   6.220
 4456SOL     OW14266   2.888   5.363   2.581
 4456SOL    HW114267   2.946   5.316   2.515
 4456SOL    HW214268   2.945   5.401   2.654
 4457SOL     OW14269   4.335   2.329   0.495
 4457SOL    HW114270   4.395   2.355   0.419
 4457SOL    HW214271   4.373   2.250   0.543
 4458SOL     OW14272   0.938   3.933   0.160
 4458SOL    HW114273   0.982   3.989   0.230
 4458SOL    HW214274   0.928   3.839   0.192
 4459SOL     OW14275   5.069   0.755   3.337
 4459SOL    HW114276   5.103   0.711   3.420
 4459SOL    HW214277   5.028   0.843   3.360
 4460SOL     OW14278   2.849   3.377   5.342
 4460SOL    HW114279   2.947   3.390   5.327
 4460SOL    HW214280   2.825   3.282   5.321
 4461SOL     OW14281   0.670   0.622   2.704
 4461SOL    HW114282   0.756   0.643   2.658
 4461SOL    HW214283   0.687   0.608   2.802
 4462SOL     OW14284   0.069   3.334   1.882
 4462SOL    HW114285   0.145   3.334   1.817
 4462SOL    HW214286   0.092   3.389   1.961
 4463SOL     OW14287   2.696   2.997   6.816
 4463SOL    HW114288   2.647   3.083   6.831
 4463SOL    HW214289   2.638   2.921   6.844
 4464SOL     OW14290   6.145   4.535   6.843
 4464SOL    HW114291   6.068   4.534   6.908
 4464SOL    HW214292   6.131   4.609   6.777
 4465SOL     OW14293   2.060   5.471   3.624
 4465SOL    HW114294   2.117   5.396   3.660
 4465SOL    HW214295   1.971   5.434   3.597
 4466SOL     OW14296   1.371   0.633   2.133
 4466SOL    HW114297   1.324   0.714   2.166
 4466SOL    HW214298   1.305   0.561   2.113
 4467SOL     OW14299   1.184   6.380   3.333
 4467SOL    HW114300   1.090   6.355   3.356
 4467SOL    HW214301   1.220   6.442   3.403
 4468SOL     OW14302   1.321   2.557   0.862
 4468SOL    HW114303   1.397   2.493   0.865
 4468SOL    HW214304   1.353   2.645   0.827
 4469SOL     OW14305   3.822   0.284   1.537
 4469SOL    HW114306   3.872   0.207   1.497
 4469SOL    HW214307   3.860   0.306   1.627
 4470SOL     OW14308   6.270   3.822   1.981
 4470SOL    HW114309   6.181   3.779   1.997
 4470SOL    HW214310   6.276   3.849   1.885
 4471SOL     OW14311   6.982   1.529   0.286
 4471SOL    HW114312   6.926   1.579   0.220
 4471SOL    HW214313   6.928   1.511   0.368
 4472SOL     OW14314   1.849   3.212   3.572
 4472SOL    HW114315   1.793   3.139   3.532
 4472SOL    HW214316   1.932   3.173   3.610
 4473SOL     OW14317   6.420   1.688   3.265
 4473SOL    HW114318   6.425   1.783   3.295
 4473SOL    HW214319   6.327   1.668   3.234
 4474SOL     OW14320   3.545   0.781   2.044
 4474SOL    HW114321   3.446   0.781   2.034
 4474SOL    HW214322   3.575   0.695   2.083
 4475SOL     OW14323   1.668   3.719   2.538
 4475SOL    HW114324   1.747   3.743   2.482
 4475SOL    HW214325   1.698   3.664   2.616
 4476SOL     OW14326   5.019   6.409   3.923
 4476SOL    HW114327   5.110   6.440   3.950
 4476SOL    HW214328   4.990   6.458   3.842
 4477SOL     OW14329   1.609   0.271   5.378
 4477SOL    HW114330   1.638   0.196   5.320
 4477SOL    HW214331   1.684   0.336   5.389
 4478SOL     OW14332   2.865   6.010   2.354
 4478SOL    HW114333   2.772   6.002   2.317
 4478SOL    HW214334   2.879   5.940   2.424
 4479SOL     OW14335   0.579   0.571   1.166
 4479SOL    HW114336   0.498   0.543   1.115
 4479SOL    HW214337   0.661   0.546   1.115
 4480SOL     OW14338   1.621   3.674   5.435
 4480SOL    HW114339   1.709   3.685   5.481
 4480SOL    HW214340   1.631   3.694   5.337
 4481SOL     OW14341   2.652   6.916   4.978
 4481SOL    HW114342   2.595   6.944   4.901
 4481SOL    HW214343   2.737   6.969   4.977
 4482SOL     OW14344   0.634   4.098   4.038
 4482SOL    HW114345   0.537   4.124   4.042
 4482SOL    HW214346   0.687   4.163   4.093
 4483SOL     OW14347   5.497   3.543   1.620
 4483SOL    HW114348   5.591   3.552   1.587
 4483SOL    HW214349   5.446   3.627   1.600
 4484SOL     OW14350   3.177   2.540   5.340
 4484SOL    HW114351   3.088   2.586   5.349
 4484SOL    HW214352   3.173   2.471   5.268
 4485SOL     OW14353   5.326   2.119   6.023
 4485SOL    HW114354   5.324   2.136   6.122
 4485SOL    HW214355   5.339   2.021   6.007
 4486SOL     OW14356   5.244   3.488   4.587
 4486SOL    HW114357   5.323   3.470   4.529
 4486SOL    HW214358   5.273   3.488   4.683
 4487SOL     OW14359   2.534   3.186   6.615
 4487SOL    HW114360   2.485   3.237   6.545
 4487SOL    HW214361   2.575   3.104   6.574
 4488SOL     OW14362   6.062   3.525   5.146
 4488SOL    HW114363   6.089   3.441   5.098
 4488SOL    HW214364   5.979   3.508   5.199
 4489SOL     OW14365   5.397   5.678   4.622
 4489SOL    HW114366   5.358   5.586   4.618
 4489SOL    HW214367   5.422   5.707   4.530
 4490SOL     OW14368   6.290   2.445   2.363
 4490SOL    HW114369   6.339   2.363   2.335
 4490SOL    HW214370   6.329   2.525   2.318
 4491SOL     OW14371   0.314   2.966   4.158
 4491SOL    HW114372   0.342   3.061   4.175
 4491SOL    HW214373   0.218   2.955   4.184
 4492SOL     OW14374   5.127   3.171   0.827
 4492SOL    HW114375   5.124   3.130   0.918
 4492SOL    HW214376   5.035   3.175   0.789
 4493SOL     OW14377   4.862   5.870   5.652
 4493SOL    HW114378   4.814   5.833   5.573
 4493SOL    HW214379   4.800   5.930   5.703
 4494SOL     OW14380   6.797   1.729   5.617
 4494SOL    HW114381   6.836   1.813   5.581
 4494SOL    HW214382   6.855   1.694   5.691
 4495SOL     OW14383   4.789   5.914   4.016
 4495SOL    HW114384   4.863   5.903   3.950
 4495SOL    HW214385   4.780   6.011   4.039
 4496SOL     OW14386   4.036   6.035   0.999
 4496SOL    HW114387   3.942   6.042   0.963
 4496SOL    HW214388   4.091   6.110   0.962
 4497SOL     OW14389   4.869   0.352   6.639
 4497SOL    HW114390   4.965   0.332   6.621
 4497SOL    HW214391   4.812   0.281   6.596
 4498SOL     OW14392   0.232   2.767   6.412
 4498SOL    HW114393   0.139   2.731   6.410
 4498SOL    HW214394   0.260   2.793   6.319
 4499SOL     OW14395   0.447   3.548   3.805
 4499SOL    HW114396   0.429   3.559   3.903
 4499SOL    HW214397   0.545   3.559   3.787
 4500SOL     OW14398   3.103   3.381   4.238
 4500SOL    HW114399   3.015   3.429   4.240
 4500SOL    HW214400   3.177   3.448   4.234
 4501SOL     OW14401   0.245   2.990   5.816
 4501SOL    HW114402   0.182   2.922   5.778
 4501SOL    HW214403   0.339   2.964   5.794
 4502SOL     OW14404   1.796   1.956   0.158
 4502SOL    HW114405   1.759   2.008   0.080
 4502SOL    HW214406   1.795   1.859   0.137
 4503SOL     OW14407   3.397   0.190   2.745
 4503SOL    HW114408   3.352   0.279   2.737
 4503SOL    HW214409   3.375   0.134   2.665
 4504SOL     OW14410   6.795   1.306   4.633
 4504SOL    HW114411   6.770   1.210   4.618
 4504SOL    HW214412   6.821   1.319   4.729
 4505SOL     OW14413   6.452   5.725   3.112
 4505SOL    HW114414   6.548   5.729   3.086
 4505SOL    HW214415   6.429   5.807   3.166
 4506SOL     OW14416   4.391   2.432   4.150
 4506SOL    HW114417   4.340   2.377   4.084
 4506SOL    HW214418   4.358   2.413   4.242
 4507SOL     OW14419   5.453   4.753   2.341
 4507SOL    HW114420   5.415   4.844   2.358
 4507SOL    HW214421   5.531   4.737   2.401
 4508SOL     OW14422   0.797   5.134   5.881
 4508SOL    HW114423   0.738   5.200   5.927
 4508SOL    HW214424   0.742   5.058   5.846
 4509SOL     OW14425   5.301   2.326   3.500
 4509SOL    HW114426   5.233   2.368   3.560
 4509SOL    HW214427   5.392   2.333   3.542
 4510SOL     OW14428   4.852   0.456   5.292
 4510SOL    HW114429   4.772   0.438   5.350
 4510SOL    HW214430   4.934   0.462   5.349
 4511SOL     OW14431   6.652   3.627   6.615
 4511SOL    HW114432   6.694   3.641   6.704
 4511SOL    HW214433   6.555   3.653   6.620
 4512SOL     OW14434   2.610   6.640   5.892
 4512SOL    HW114435   2.565   6.695   5.962
 4512SOL    HW214436   2.553   6.639   5.810
 4513SOL     OW14437   5.007   6.784   0.664
 4513SOL    HW114438   4.996   6.748   0.571
 4513SOL    HW214439   5.063   6.866   0.662
 4514SOL     OW14440   4.933   1.132   5.366
 4514SOL    HW114441   4.983   1.064   5.312
 4514SOL    HW214442   4.929   1.102   5.461
 4515SOL     OW14443   6.845   3.699   5.559
 4515SOL    HW114444   6.896   3.663   5.637
 4515SOL    HW214445   6.820   3.794   5.577
 4516SOL     OW14446   1.625   0.970   6.259
 4516SOL    HW114447   1.554   1.039   6.248
 4516SOL    HW214448   1.712   1.015   6.280
 4517SOL     OW14449   1.719   0.431   6.986
 4517SOL    HW114450   1.756   0.522   7.007
 4517SOL    HW214451   1.793   0.373   6.950
 4518SOL     OW14452   6.551   1.156   3.577
 4518SOL    HW114453   6.541   1.242   3.528
 4518SOL    HW214454   6.511   1.082   3.523
 4519SOL     OW14455   5.550   0.057   1.956
 4519SOL    HW114456   5.509   7.014   2.025
 4519SOL    HW214457   5.482   0.123   1.924
 4520SOL     OW14458   5.637   5.662   3.586
 4520SOL    HW114459   5.611   5.585   3.528
 4520SOL    HW214460   5.634   5.746   3.532
 4521SOL     OW14461   5.309   1.904   4.150
 4521SOL    HW114462   5.362   1.980   4.113
 4521SOL    HW214463   5.213   1.913   4.124
 4522SOL     OW14464   5.732   6.682   3.781
 4522SOL    HW114465   5.792   6.655   3.856
 4522SOL    HW214466   5.786   6.721   3.706
 4523SOL     OW14467   0.904   4.247   0.102
 4523SOL    HW114468   0.885   4.149   0.100
 4523SOL    HW214469   0.840   4.292   0.164
 4524SOL     OW14470   5.253   2.229   4.445
 4524SOL    HW114471   5.323   2.161   4.424
 4524SOL    HW214472   5.164   2.196   4.411
 4525SOL     OW14473   5.962   1.033   3.051
 4525SOL    HW114474   6.061   1.042   3.061
 4525SOL    HW214475   5.932   1.085   2.971
 4526SOL     OW14476   5.031   0.651   0.929
 4526SOL    HW114477   4.964   0.578   0.914
 4526SOL    HW214478   4.987   0.739   0.915
 4527SOL     OW14479   4.441   0.773   3.907
 4527SOL    HW114480   4.466   0.780   4.004
 4527SOL    HW214481   4.518   0.802   3.851
 4528SOL     OW14482   4.571   6.840   0.017
 4528SOL    HW114483   4.577   6.751   6.988
 4528SOL    HW214484   4.586   6.913   6.966
 4529SOL     OW14485   3.168   1.766   4.534
 4529SOL    HW114486   3.150   1.691   4.470
 4529SOL    HW214487   3.092   1.830   4.534
 4530SOL     OW14488   6.992   3.355   5.673
 4530SOL    HW114489   6.991   3.455   5.666
 4530SOL    HW214490   6.966   3.314   5.586
 4531SOL     OW14491   0.584   3.073   3.572
 4531SOL    HW114492   0.491   3.110   3.581
 4531SOL    HW214493   0.628   3.070   3.661
 4532SOL     OW14494   6.890   1.331   2.798
 4532SOL    HW114495   6.926   1.277   2.722
 4532SOL    HW214496   6.803   1.374   2.771
 4533SOL     OW14497   0.935   0.161   2.453
 4533SOL    HW114498   0.899   0.160   2.546
 4533SOL    HW214499   1.003   0.088   2.443
 4534SOL     OW14500   5.802   4.134   4.764
 4534SOL    HW114501   5.891   4.180   4.759
 4534SOL    HW214502   5.759   4.137   4.674
 4535SOL     OW14503   4.868   1.822   2.640
 4535SOL    HW114504   4.887   1.919   2.654
 4535SOL    HW214505   4.772   1.810   2.616
 4536SOL     OW14506   4.568   2.116   3.815
 4536SOL    HW114507   4.542   2.146   3.907
 4536SOL    HW214508   4.598   2.195   3.761
 4537SOL     OW14509   4.055   3.043   6.017
 4537SOL    HW114510   4.122   3.113   6.040
 4537SOL    HW214511   4.066   3.017   5.921
 4538SOL     OW14512   2.606   0.555   4.401
 4538SOL    HW114513   2.644   0.648   4.405
 4538SOL    HW214514   2.677   0.492   4.370
 4539SOL     OW14515   2.125   0.866   4.205
 4539SOL    HW114516   2.122   0.768   4.223
 4539SOL    HW214517   2.160   0.882   4.112
 4540SOL     OW14518   3.239   2.916   4.676
 4540SOL    HW114519   3.179   2.939   4.752
 4540SOL    HW214520   3.285   2.829   4.695
 4541SOL     OW14521   5.575   1.146   0.463
 4541SOL    HW114522   5.511   1.218   0.488
 4541SOL    HW214523   5.568   1.070   0.529
 4542SOL     OW14524   6.398   0.183   2.099
 4542SOL    HW114525   6.316   0.235   2.124
 4542SOL    HW214526   6.375   0.119   2.025
 4543SOL     OW14527   5.138   1.878   0.790
 4543SOL    HW114528   5.087   1.945   0.844
 4543SOL    HW214529   5.142   1.791   0.841
 4544SOL     OW14530   3.090   6.478   5.643
 4544SOL    HW114531   3.108   6.539   5.566
 4544SOL    HW214532   2.992   6.466   5.654
 4545SOL     OW14533   6.103   2.528   4.770
 4545SOL    HW114534   6.051   2.596   4.823
 4545SOL    HW214535   6.198   2.530   4.799
 4546SOL     OW14536   1.282   1.407   6.595
 4546SOL    HW114537   1.222   1.401   6.515
 4546SOL    HW214538   1.283   1.319   6.643
 4547SOL     OW14539   6.615   2.809   3.261
 4547SOL    HW114540   6.553   2.776   3.333
 4547SOL    HW214541   6.605   2.751   3.180
 4548SOL     OW14542   1.259   4.098   4.799
 4548SOL    HW114543   1.325   4.102   4.724
 4548SOL    HW214544   1.308   4.096   4.886
 4549SOL     OW14545   5.805   3.782   2.240
 4549SOL    HW114546   5.889   3.730   2.258
 4549SOL    HW214547   5.828   3.865   2.190
 4550SOL     OW14548   0.792   5.943   2.652
 4550SOL    HW114549   0.694   5.959   2.663
 4550SOL    HW214550   0.837   5.953   2.741
 4551SOL     OW14551   6.227   1.737   5.961
 4551SOL    HW114552   6.285   1.793   6.021
 4551SOL    HW214553   6.265   1.645   5.955
 4552SOL     OW14554   6.519   2.886   0.515
 4552SOL    HW114555   6.522   2.844   0.606
 4552SOL    HW214556   6.594   2.951   0.506
 4553SOL     OW14557   3.950   4.117   7.014
 4553SOL    HW114558   3.864   4.076   6.983
 4553SOL    HW214559   4.021   4.047   7.016
 4554SOL     OW14560   4.502   0.783   1.783
 4554SOL    HW114561   4.495   0.858   1.849
 4554SOL    HW214562   4.410   0.752   1.759
 4555SOL     OW14563   3.479   1.787   5.581
 4555SOL    HW114564   3.470   1.876   5.536
 4555SOL    HW214565   3.431   1.789   5.668
 4556SOL     OW14566   4.605   2.318   3.535
 4556SOL    HW114567   4.532   2.336   3.470
 4556SOL    HW214568   4.642   2.227   3.519
 4557SOL     OW14569   5.354   6.910   5.200
 4557SOL    HW114570   5.257   6.934   5.203
 4557SOL    HW214571   5.409   6.993   5.211
 4558SOL     OW14572   6.662   3.514   5.635
 4558SOL    HW114573   6.648   3.533   5.732
 4558SOL    HW214574   6.734   3.573   5.599
 4559SOL     OW14575   0.607   4.774   1.491
 4559SOL    HW114576   0.661   4.693   1.471
 4559SOL    HW214577   0.659   4.856   1.467
 4560SOL     OW14578   4.558   4.623   3.669
 4560SOL    HW114579   4.540   4.546   3.607
 4560SOL    HW214580   4.559   4.708   3.616
 4561SOL     OW14581   3.000   0.462   1.242
 4561SOL    HW114582   3.045   0.530   1.185
 4561SOL    HW214583   3.014   0.371   1.202
 4562SOL     OW14584   3.344   6.120   5.423
 4562SOL    HW114585   3.406   6.198   5.425
 4562SOL    HW214586   3.376   6.051   5.488
 4563SOL     OW14587   0.319   4.179   0.235
 4563SOL    HW114588   0.232   4.133   0.250
 4563SOL    HW214589   0.321   4.265   0.285
 4564SOL     OW14590   0.578   6.908   0.948
 4564SOL    HW114591   0.557   6.838   0.879
 4564SOL    HW214592   0.551   6.998   0.914
 4565SOL     OW14593   0.612   1.355   5.475
 4565SOL    HW114594   0.528   1.325   5.520
 4565SOL    HW214595   0.592   1.381   5.381
 4566SOL     OW14596   6.976   1.364   0.946
 4566SOL    HW114597   6.887   1.381   0.988
 4566SOL    HW214598   0.019   1.443   0.963
 4567SOL     OW14599   0.177   1.083   0.074
 4567SOL    HW114600   0.181   1.070   6.991
 4567SOL    HW214601   0.115   1.159   0.095
 4568SOL     OW14602   0.961   4.921   5.061
 4568SOL    HW114603   0.937   4.828   5.088
 4568SOL    HW214604   0.985   4.974   5.142
 4569SOL     OW14605   1.899   1.163   3.043
 4569SOL    HW114606   1.814   1.113   3.027
 4569SOL    HW214607   1.878   1.260   3.058
 4570SOL     OW14608   0.425   5.111   2.952
 4570SOL    HW114609   0.473   5.194   2.981
 4570SOL    HW214610   0.356   5.135   2.883
 4571SOL     OW14611   3.485   3.521   5.749
 4571SOL    HW114612   3.403   3.570   5.719
 4571SOL    HW214613   3.466   3.423   5.753
 4572SOL     OW14614   1.070   6.998   6.579
 4572SOL    HW114615   1.137   6.927   6.557
 4572SOL    HW214616   0.979   6.969   6.548
 4573SOL     OW14617   6.269   6.229   0.322
 4573SOL    HW114618   6.275   6.275   0.234
 4573SOL    HW214619   6.307   6.287   0.394
 4574SOL     OW14620   6.376   4.101   1.208
 4574SOL    HW114621   6.280   4.074   1.210
 4574SOL    HW214622   6.433   4.025   1.240
 4575SOL     OW14623   6.690   1.945   6.972
 4575SOL    HW114624   6.636   2.023   6.941
 4575SOL    HW214625   6.656   1.861   6.929
 4576SOL     OW14626   2.018   6.192   6.557
 4576SOL    HW114627   2.053   6.179   6.649
 4576SOL    HW214628   2.042   6.113   6.500
 4577SOL     OW14629   0.939   2.256   3.975
 4577SOL    HW114630   0.874   2.298   3.911
 4577SOL    HW214631   1.022   2.232   3.925
 4578SOL     OW14632   0.845   2.896   4.156
 4578SOL    HW114633   0.802   2.985   4.140
 4578SOL    HW214634   0.875   2.858   4.069
 4579SOL     OW14635   5.496   2.242   2.646
 4579SOL    HW114636   5.578   2.211   2.694
 4579SOL    HW214637   5.420   2.180   2.664
 4580SOL     OW14638   5.172   5.558   0.202
 4580SOL    HW114639   5.217   5.470   0.194
 4580SOL    HW214640   5.077   5.550   0.172
 4581SOL     OW14641   3.163   5.682   3.132
 4581SOL    HW114642   3.205   5.737   3.061
 4581SOL    HW214643   3.154   5.588   3.100
 4582SOL     OW14644   5.398   6.169   4.803
 4582SOL    HW114645   5.433   6.144   4.893
 4582SOL    HW214646   5.358   6.089   4.759
 4583SOL     OW14647   2.783   0.892   4.788
 4583SOL    HW114648   2.780   0.868   4.885
 4583SOL    HW214649   2.865   0.853   4.746
 4584SOL     OW14650   0.246   5.151   5.500
 4584SOL    HW114651   0.309   5.125   5.572
 4584SOL    HW214652   0.239   5.077   5.433
 4585SOL     OW14653   3.535   6.257   2.656
 4585SOL    HW114654   3.550   6.194   2.732
 4585SOL    HW214655   3.460   6.319   2.679
 4586SOL     OW14656   3.718   5.096   0.433
 4586SOL    HW114657   3.641   5.041   0.403
 4586SOL    HW214658   3.803   5.054   0.402
 4587SOL     OW14659   3.899   3.578   2.098
 4587SOL    HW114660   3.885   3.669   2.137
 4587SOL    HW214661   3.958   3.524   2.159
 4588SOL     OW14662   3.775   3.904   5.811
 4588SOL    HW114663   3.866   3.867   5.831
 4588SOL    HW214664   3.721   3.905   5.895
 4589SOL     OW14665   5.935   0.960   1.520
 4589SOL    HW114666   6.033   0.942   1.531
 4589SOL    HW214667   5.914   1.052   1.552
 4590SOL     OW14668   5.062   5.776   1.474
 4590SOL    HW114669   5.026   5.825   1.394
 4590SOL    HW214670   4.987   5.727   1.519
 4591SOL     OW14671   0.547   6.037   5.313
 4591SOL    HW114672   0.598   6.113   5.272
 4591SOL    HW214673   0.453   6.065   5.331
 4592SOL     OW14674   4.096   2.228   2.199
 4592SOL    HW114675   4.099   2.172   2.282
 4592SOL    HW214676   4.074   2.323   2.224
 4593SOL     OW14677   3.704   5.703   4.503
 4593SOL    HW114678   3.626   5.761   4.528
 4593SOL    HW214679   3.734   5.726   4.410
 4594SOL     OW14680   3.085   1.906   1.517
 4594SOL    HW114681   3.052   1.971   1.448
 4594SOL    HW214682   3.133   1.831   1.471
 4595SOL     OW14683   3.791   2.770   6.036
 4595SOL    HW114684   3.809   2.791   5.940
 4595SOL    HW214685   3.693   2.749   6.048
 4596SOL     OW14686   6.165   6.471   2.288
 4596SOL    HW114687   6.257   6.472   2.248
 4596SOL    HW214688   6.121   6.559   2.272
 4597SOL     OW14689   5.245   4.758   6.953
 4597SOL    HW114690   5.304   4.716   6.884
 4597SOL    HW214691   5.242   4.700   0.019
 4598SOL     OW14692   2.205   5.081   6.978
 4598SOL    HW114693   2.119   5.132   6.977
 4598SOL    HW214694   2.232   5.062   0.056
 4599SOL     OW14695   1.519   4.700   0.771
 4599SOL    HW114696   1.528   4.688   0.672
 4599SOL    HW214697   1.453   4.773   0.790
 4600SOL     OW14698   1.425   5.138   5.282
 4600SOL    HW114699   1.377   5.069   5.336
 4600SOL    HW214700   1.379   5.149   5.194
 4601SOL     OW14701   1.684   0.094   5.184
 4601SOL    HW114702   1.636   0.108   5.097
 4601SOL    HW214703   1.680   7.013   5.208
 4602SOL     OW14704   0.924   6.022   1.048
 4602SOL    HW114705   0.848   6.038   1.111
 4602SOL    HW214706   1.002   5.985   1.098
 4603SOL     OW14707   3.425   6.511   1.581
 4603SOL    HW114708   3.436   6.607   1.607
 4603SOL    HW214709   3.511   6.463   1.596
 4604SOL     OW14710   4.547   0.596   2.230
 4604SOL    HW114711   4.482   0.521   2.226
 4604SOL    HW214712   4.516   0.664   2.296
 4605SOL     OW14713   4.439   0.961   3.174
 4605SOL    HW114714   4.470   1.051   3.143
 4605SOL    HW214715   4.383   0.919   3.103
 4606SOL     OW14716   1.024   6.925   1.385
 4606SOL    HW114717   1.113   6.924   1.431
 4606SOL    HW214718   1.028   6.870   1.302
 4607SOL     OW14719   2.534   2.677   1.151
 4607SOL    HW114720   2.566   2.591   1.110
 4607SOL    HW214721   2.444   2.699   1.113
 4608SOL     OW14722   0.876   5.300   3.807
 4608SOL    HW114723   0.904   5.205   3.792
 4608SOL    HW214724   0.851   5.341   3.719
 4609SOL     OW14725   3.832   5.459   6.081
 4609SOL    HW114726   3.915   5.465   6.026
 4609SOL    HW214727   3.833   5.530   6.151
 4610SOL     OW14728   5.356   1.969   0.684
 4610SOL    HW114729   5.267   1.956   0.729
 4610SOL    HW214730   5.406   1.882   0.684
 4611SOL     OW14731   6.217   5.912   5.809
 4611SOL    HW114732   6.287   5.902   5.738
 4611SOL    HW214733   6.217   5.831   5.868
 4612SOL     OW14734   0.990   6.060   0.293
 4612SOL    HW114735   1.074   6.018   0.327
 4612SOL    HW214736   0.911   6.018   0.338
 4613SOL     OW14737   2.875   5.774   2.515
 4613SOL    HW114738   2.894   5.694   2.459
 4613SOL    HW214739   2.882   5.750   2.612
 4614SOL     OW14740   0.850   4.258   4.894
 4614SOL    HW114741   0.867   4.333   4.829
 4614SOL    HW214742   0.927   4.195   4.892
 4615SOL     OW14743   1.708   0.503   0.301
 4615SOL    HW114744   1.637   0.436   0.323
 4615SOL    HW214745   1.794   0.456   0.282
 4616SOL     OW14746   5.568   0.339   5.738
 4616SOL    HW114747   5.614   0.260   5.698
 4616SOL    HW214748   5.536   0.400   5.665
 4617SOL     OW14749   1.184   2.230   2.290
 4617SOL    HW114750   1.186   2.261   2.195
 4617SOL    HW214751   1.251   2.283   2.344
 4618SOL     OW14752   2.225   2.317   5.161
 4618SOL    HW114753   2.137   2.270   5.152
 4618SOL    HW214754   2.234   2.386   5.089
 4619SOL     OW14755   3.966   6.213   3.080
 4619SOL    HW114756   3.898   6.186   3.012
 4619SOL    HW214757   3.987   6.311   3.069
 4620SOL     OW14758   3.209   4.256   0.385
 4620SOL    HW114759   3.293   4.310   0.397
 4620SOL    HW214760   3.225   4.186   0.315
 4621SOL     OW14761   5.228   2.002   3.128
 4621SOL    HW114762   5.242   2.089   3.081
 4621SOL    HW214763   5.247   1.927   3.065
 4622SOL     OW14764   1.667   3.895   0.103
 4622SOL    HW114765   1.655   3.978   0.158
 4622SOL    HW214766   1.642   3.815   0.159
 4623SOL     OW14767   6.750   6.609   0.734
 4623SOL    HW114768   6.786   6.558   0.656
 4623SOL    HW214769   6.795   6.577   0.818
 4624SOL     OW14770   5.553   6.928   3.493
 4624SOL    HW114771   5.570   6.901   3.587
 4624SOL    HW214772   5.461   6.900   3.466
 4625SOL     OW14773   1.469   4.772   0.090
 4625SOL    HW114774   1.380   4.752   0.133
 4625SOL    HW214775   1.501   4.862   0.120
 4626SOL     OW14776   5.656   5.636   2.493
 4626SOL    HW114777   5.675   5.616   2.397
 4626SOL    HW214778   5.558   5.628   2.510
 4627SOL     OW14779   3.371   5.299   3.821
 4627SOL    HW114780   3.375   5.262   3.728
 4627SOL    HW214781   3.314   5.382   3.821
 4628SOL     OW14782   5.842   3.483   3.769
 4628SOL    HW114783   5.769   3.522   3.714
 4628SOL    HW214784   5.891   3.415   3.715
 4629SOL     OW14785   2.192   4.978   4.631
 4629SOL    HW114786   2.121   5.022   4.687
 4629SOL    HW214787   2.220   4.893   4.675
 4630SOL     OW14788   3.875   5.635   2.671
 4630SOL    HW114789   3.812   5.692   2.619
 4630SOL    HW214790   3.960   5.625   2.620
 4631SOL     OW14791   2.279   6.119   3.683
 4631SOL    HW114792   2.251   6.066   3.603
 4631SOL    HW214793   2.277   6.217   3.660
 4632SOL     OW14794   4.137   5.399   2.882
 4632SOL    HW114795   4.097   5.372   2.795
 4632SOL    HW214796   4.214   5.339   2.904
 4633SOL     OW14797   6.225   1.546   3.501
 4633SOL    HW114798   6.226   1.630   3.555
 4633SOL    HW214799   6.187   1.565   3.411
 4634SOL     OW14800   1.896   4.533   6.960
 4634SOL    HW114801   1.941   4.540   6.871
 4634SOL    HW214802   1.806   4.577   6.956
 4635SOL     OW14803   5.414   3.741   2.034
 4635SOL    HW114804   5.395   3.839   2.031
 4635SOL    HW214805   5.510   3.724   2.013
 4636SOL     OW14806   1.807   5.370   0.213
 4636SOL    HW114807   1.860   5.394   0.294
 4636SOL    HW214808   1.722   5.423   0.211
 4637SOL     OW14809   1.113   0.528   0.034
 4637SOL    HW114810   1.092   0.597   6.981
 4637SOL    HW214811   1.160   0.571   0.111
 4638SOL     OW14812   4.154   2.659   0.109
 4638SOL    HW114813   4.105   2.629   0.191
 4638SOL    HW214814   4.090   2.660   0.031
 4639SOL     OW14815   1.981   4.481   4.954
 4639SOL    HW114816   1.890   4.505   4.919
 4639SOL    HW214817   2.046   4.476   4.878
 4640SOL     OW14818   4.926   4.983   3.975
 4640SOL    HW114819   4.852   4.974   3.909
 4640SOL    HW214820   4.893   5.034   4.055
 4641SOL     OW14821   2.671   6.541   4.437
 4641SOL    HW114822   2.629   6.608   4.375
 4641SOL    HW214823   2.698   6.460   4.385
 4642SOL     OW14824   0.783   6.380   5.001
 4642SOL    HW114825   0.812   6.298   5.050
 4642SOL    HW214826   0.765   6.453   5.067
 4643SOL     OW14827   5.119   2.714   1.132
 4643SOL    HW114828   5.021   2.732   1.129
 4643SOL    HW214829   5.143   2.669   1.218
 4644SOL     OW14830   1.118   4.847   4.833
 4644SOL    HW114831   1.051   4.842   4.908
 4644SOL    HW214832   1.173   4.930   4.843
 4645SOL     OW14833   1.114   0.785   4.287
 4645SOL    HW114834   1.092   0.697   4.245
 4645SOL    HW214835   1.194   0.775   4.346
 4646SOL     OW14836   2.860   6.270   3.326
 4646SOL    HW114837   2.796   6.202   3.361
 4646SOL    HW214838   2.810   6.343   3.281
 4647SOL     OW14839   1.525   0.072   3.528
 4647SOL    HW114840   1.546   6.998   3.567
 4647SOL    HW214841   1.606   0.131   3.535
 4648SOL     OW14842   3.857   0.599   1.746
 4648SOL    HW114843   3.884   0.554   1.832
 4648SOL    HW214844   3.798   0.677   1.767
 4649SOL     OW14845   4.991   0.019   5.722
 4649SOL    HW114846   4.974   6.973   5.645
 4649SOL    HW214847   5.085   0.007   5.754
 4650SOL     OW14848   4.573   5.817   3.880
 4650SOL    HW114849   4.672   5.827   3.886
 4650SOL    HW214850   4.546   5.727   3.913
 4651SOL     OW14851   0.366   1.392   1.036
 4651SOL    HW114852   0.377   1.364   0.941
 4651SOL    HW214853   0.303   1.469   1.041
 4652SOL     OW14854   0.270   0.150   4.543
 4652SOL    HW114855   0.319   0.064   4.553
 4652SOL    HW214856   0.174   0.132   4.522
 4653SOL     OW14857   6.264   5.298   6.677
 4653SOL    HW114858   6.310   5.210   6.686
 4653SOL    HW214859   6.220   5.322   6.764
 4654SOL     OW14860   0.359   6.593   0.198
 4654SOL    HW114861   0.454   6.581   0.226
 4654SOL    HW214862   0.354   6.657   0.122
 4655SOL     OW14863   6.571   5.608   1.600
 4655SOL    HW114864   6.551   5.521   1.644
 4655SOL    HW214865   6.506   5.677   1.633
 4656SOL     OW14866   0.998   0.423   3.429
 4656SOL    HW114867   1.005   0.340   3.485
 4656SOL    HW214868   0.959   0.497   3.483
 4657SOL     OW14869   4.712   6.296   1.536
 4657SOL    HW114870   4.669   6.299   1.446
 4657SOL    HW214871   4.761   6.382   1.552
 4658SOL     OW14872   4.021   1.652   2.324
 4658SOL    HW114873   3.977   1.738   2.299
 4658SOL    HW214874   4.084   1.668   2.400
 4659SOL     OW14875   2.537   4.471   5.591
 4659SOL    HW114876   2.526   4.509   5.499
 4659SOL    HW214877   2.634   4.465   5.613
 4660SOL     OW14878   1.397   3.329   5.672
 4660SOL    HW114879   1.449   3.249   5.642
 4660SOL    HW214880   1.435   3.411   5.629
 4661SOL     OW14881   3.907   3.723   5.546
 4661SOL    HW114882   3.832   3.787   5.529
 4661SOL    HW214883   3.871   3.643   5.595
 4662SOL     OW14884   4.199   0.533   5.133
 4662SOL    HW114885   4.229   0.607   5.073
 4662SOL    HW214886   4.262   0.525   5.210
 4663SOL     OW14887   0.988   1.966   2.575
 4663SOL    HW114888   0.925   1.928   2.643
 4663SOL    HW214889   1.081   1.940   2.598
 4664SOL     OW14890   2.362   1.790   0.459
 4664SOL    HW114891   2.284   1.793   0.523
 4664SOL    HW214892   2.364   1.874   0.405
 4665SOL     OW14893   4.395   0.306   0.637
 4665SOL    HW114894   4.457   0.375   0.677
 4665SOL    HW214895   4.358   0.249   0.710
 4666SOL     OW14896   1.551   1.939   0.629
 4666SOL    HW114897   1.460   1.914   0.598
 4666SOL    HW214898   1.553   2.036   0.653
 4667SOL     OW14899   6.325   4.561   1.402
 4667SOL    HW114900   6.424   4.566   1.383
 4667SOL    HW214901   6.291   4.651   1.428
 4668SOL     OW14902   5.971   2.868   2.943
 4668SOL    HW114903   5.880   2.881   2.905
 4668SOL    HW214904   5.968   2.882   3.042
 4669SOL     OW14905   3.302   6.845   0.250
 4669SOL    HW114906   3.251   6.761   0.271
 4669SOL    HW214907   3.311   6.854   0.150
 4670SOL     OW14908   2.982   2.124   5.167
 4670SOL    HW114909   3.028   2.212   5.159
 4670SOL    HW214910   2.895   2.128   5.118
 4671SOL     OW14911   6.793   2.547   2.319
 4671SOL    HW114912   6.770   2.633   2.274
 4671SOL    HW214913   6.724   2.527   2.389
 4672SOL     OW14914   2.565   4.564   6.383
 4672SOL    HW114915   2.633   4.637   6.390
 4672SOL    HW214916   2.510   4.561   6.467
 4673SOL     OW14917   4.911   6.186   1.118
 4673SOL    HW114918   4.921   6.184   1.018
 4673SOL    HW214919   5.001   6.192   1.161
 4674SOL     OW14920   4.857   0.027   6.829
 4674SOL    HW114921   4.835   6.973   6.897
 4674SOL    HW214922   4.939   0.076   6.857
 4675SOL     OW14923   0.453   2.791   6.830
 4675SOL    HW114924   0.403   2.877   6.837
 4675SOL    HW214925   0.541   2.800   6.876
 4676SOL     OW14926   6.802   5.622   3.606
 4676SOL    HW114927   6.878   5.558   3.592
 4676SOL    HW214928   6.716   5.577   3.585
 4677SOL     OW14929   3.057   1.708   0.551
 4677SOL    HW114930   3.154   1.696   0.573
 4677SOL    HW214931   3.047   1.782   0.485
 4678SOL     OW14932   1.955   4.504   3.253
 4678SOL    HW114933   1.995   4.443   3.185
 4678SOL    HW214934   1.985   4.476   3.345
 4679SOL     OW14935   4.142   6.978   1.535
 4679SOL    HW114936   4.234   6.939   1.542
 4679SOL    HW214937   4.140   0.029   1.461
 4680SOL     OW14938   3.733   1.166   6.287
 4680SOL    HW114939   3.677   1.095   6.330
 4680SOL    HW214940   3.754   1.140   6.193
 4681SOL     OW14941   5.497   4.854   0.298
 4681SOL    HW114942   5.594   4.877   0.298
 4681SOL    HW214943   5.457   4.875   0.208
 4682SOL     OW14944   4.639   4.888   5.852
 4682SOL    HW114945   4.623   4.804   5.801
 4682SOL    HW214946   4.672   4.959   5.790
 4683SOL     OW14947   5.400   5.620   2.907
 4683SOL    HW114948   5.449   5.535   2.889
 4683SOL    HW214949   5.308   5.614   2.868
 4684SOL     OW14950   4.542   0.190   5.806
 4684SOL    HW114951   4.603   0.178   5.728
 4684SOL    HW214952   4.451   0.214   5.773
 4685SOL     OW14953   1.971   4.501   6.675
 4685SOL    HW114954   1.898   4.560   6.641
 4685SOL    HW214955   2.051   4.556   6.697
 4686SOL     OW14956   4.189   5.860   6.839
 4686SOL    HW114957   4.181   5.958   6.821
 4686SOL    HW214958   4.207   5.811   6.754
 4687SOL     OW14959   4.853   3.122   3.966
 4687SOL    HW114960   4.809   3.103   3.878
 4687SOL    HW214961   4.857   3.039   4.020
 4688SOL     OW14962   5.811   3.231   5.062
 4688SOL    HW114963   5.786   3.221   5.158
 4688SOL    HW214964   5.745   3.291   5.016
 4689SOL     OW14965   5.123   0.679   0.471
 4689SOL    HW114966   5.157   0.634   0.554
 4689SOL    HW214967   5.079   0.611   0.412
 4690SOL     OW14968   1.715   0.409   0.962
 4690SOL    HW114969   1.672   0.413   0.872
 4690SOL    HW214970   1.744   0.316   0.982
 4691SOL     OW14971   2.872   3.463   0.876
 4691SOL    HW114972   2.898   3.433   0.968
 4691SOL    HW214973   2.813   3.394   0.834
 4692SOL     OW14974   5.489   5.283   3.069
 4692SOL    HW114975   5.565   5.319   3.015
 4692SOL    HW214976   5.405   5.287   3.014
 4693SOL     OW14977   1.004   1.286   3.247
 4693SOL    HW114978   0.959   1.334   3.322
 4693SOL    HW214979   1.013   1.189   3.270
 4694SOL     OW14980   2.488   1.367   0.113
 4694SOL    HW114981   2.531   1.407   0.194
 4694SOL    HW214982   2.419   1.430   0.078
 4695SOL     OW14983   1.356   4.911   0.813
 4695SOL    HW114984   1.272   4.872   0.775
 4695SOL    HW214985   1.358   5.009   0.797
 4696SOL     OW14986   6.980   5.154   6.795
 4696SOL    HW114987   6.949   5.220   6.726
 4696SOL    HW214988   0.056   5.122   6.771
 4697SOL     OW14989   1.124   3.800   1.353
 4697SOL    HW114990   1.069   3.806   1.269
 4697SOL    HW214991   1.066   3.768   1.428
 4698SOL     OW14992   4.321   5.998   3.159
 4698SOL    HW114993   4.334   6.086   3.114
 4698SOL    HW214994   4.335   5.924   3.094
 4699SOL     OW14995   0.502   6.223   2.163
 4699SOL    HW114996   0.520   6.181   2.252
 4699SOL    HW214997   0.576   6.201   2.100
 4700SOL     OW14998   6.612   2.030   2.576
 4700SOL    HW114999   6.617   1.999   2.671
 4700SOL    HW215000   6.522   2.072   2.559
 4701SOL     OW15001   3.165   2.177   0.112
 4701SOL    HW115002   3.247   2.188   0.056
 4701SOL    HW215003   3.163   2.084   0.149
 4702SOL     OW15004   4.918   4.961   0.517
 4702SOL    HW115005   4.846   5.028   0.498
 4702SOL    HW215006   4.877   4.879   0.559
 4703SOL     OW15007   0.530   6.916   2.298
 4703SOL    HW115008   0.468   6.892   2.373
 4703SOL    HW215009   0.536   7.015   2.289
 4704SOL     OW15010   6.581   6.060   6.378
 4704SOL    HW115011   6.538   6.061   6.468
 4704SOL    HW215012   6.584   5.966   6.343
 4705SOL     OW15013   4.212   2.519   1.044
 4705SOL    HW115014   4.114   2.500   1.055
 4705SOL    HW215015   4.226   2.617   1.029
 4706SOL     OW15016   2.367   0.770   0.518
 4706SOL    HW115017   2.371   0.672   0.538
 4706SOL    HW215018   2.297   0.787   0.448
 4707SOL     OW15019   0.951   6.900   0.908
 4707SOL    HW115020   0.919   6.825   0.964
 4707SOL    HW215021   0.909   6.986   0.939
 4708SOL     OW15022   1.197   2.069   5.912
 4708SOL    HW115023   1.286   2.056   5.868
 4708SOL    HW215024   1.199   2.029   6.003
 4709SOL     OW15025   4.775   5.527   5.406
 4709SOL    HW115026   4.773   5.626   5.394
 4709SOL    HW215027   4.706   5.500   5.473
 4710SOL     OW15028   5.136   0.462   5.769
 4710SOL    HW115029   5.204   0.403   5.815
 4710SOL    HW215030   5.184   0.533   5.718
 4711SOL     OW15031   6.247   1.699   1.811
 4711SOL    HW115032   6.271   1.615   1.859
 4711SOL    HW215033   6.152   1.695   1.781
 4712SOL     OW15034   3.194   4.724   6.103
 4712SOL    HW115035   3.101   4.724   6.066
 4712SOL    HW215036   3.195   4.677   6.191
 4713SOL     OW15037   3.678   4.307   0.742
 4713SOL    HW115038   3.751   4.360   0.698
 4713SOL    HW215039   3.612   4.279   0.673
 4714SOL     OW15040   1.125   1.364   6.356
 4714SOL    HW115041   1.091   1.270   6.363
 4714SOL    HW215042   1.199   1.369   6.289
 4715SOL     OW15043   5.940   3.408   1.670
 4715SOL    HW115044   5.960   3.352   1.590
 4715SOL    HW215045   6.024   3.450   1.704
 4716SOL     OW15046   4.073   6.463   5.316
 4716SOL    HW115047   4.143   6.396   5.291
 4716SOL    HW215048   4.002   6.420   5.371
 4717SOL     OW15049   0.724   6.175   4.174
 4717SOL    HW115050   0.764   6.258   4.138
 4717SOL    HW215051   0.785   6.097   4.155
 4718SOL     OW15052   6.044   1.693   1.473
 4718SOL    HW115053   6.024   1.653   1.383
 4718SOL    HW215054   6.103   1.773   1.461
 4719SOL     OW15055   4.948   3.195   2.071
 4719SOL    HW115056   4.881   3.122   2.078
 4719SOL    HW215057   4.912   3.268   2.012
 4720SOL     OW15058   1.952   5.327   5.745
 4720SOL    HW115059   1.908   5.277   5.670
 4720SOL    HW215060   2.041   5.361   5.714
 4721SOL     OW15061   0.157   1.907   1.793
 4721SOL    HW115062   0.168   1.808   1.781
 4721SOL    HW215063   0.075   1.926   1.847
 4722SOL     OW15064   1.118   5.678   6.941
 4722SOL    HW115065   1.026   5.714   6.957
 4722SOL    HW215066   1.186   5.749   6.963
 4723SOL     OW15067   2.270   3.434   5.234
 4723SOL    HW115068   2.356   3.387   5.256
 4723SOL    HW215069   2.282   3.533   5.245
 4724SOL     OW15070   6.864   0.084   4.719
 4724SOL    HW115071   6.878   0.167   4.773
 4724SOL    HW215072   6.790   0.099   4.653
 4725SOL     OW15073   6.250   5.254   0.484
 4725SOL    HW115074   6.295   5.325   0.430
 4725SOL    HW215075   6.155   5.245   0.455
 4726SOL     OW15076   1.582   3.346   6.417
 4726SOL    HW115077   1.568   3.432   6.466
 4726SOL    HW215078   1.674   3.345   6.378
 4727SOL     OW15079   0.438   6.484   1.327
 4727SOL    HW115080   0.533   6.502   1.353
 4727SOL    HW215081   0.425   6.386   1.310
 4728SOL     OW15082   5.735   1.564   2.351
 4728SOL    HW115083   5.648   1.608   2.371
 4728SOL    HW215084   5.809   1.611   2.399
 4729SOL     OW15085   4.584   1.105   0.750
 4729SOL    HW115086   4.654   1.166   0.713
 4729SOL    HW215087   4.624   1.015   0.766
 4730SOL     OW15088   3.142   6.149   4.830
 4730SOL    HW115089   3.070   6.116   4.770
 4730SOL    HW215090   3.136   6.103   4.918
 4731SOL     OW15091   3.131   0.876   0.615
 4731SOL    HW115092   3.033   0.856   0.620
 4731SOL    HW215093   3.180   0.794   0.586
 4732SOL     OW15094   0.613   3.468   5.246
 4732SOL    HW115095   0.573   3.489   5.335
 4732SOL    HW215096   0.645   3.553   5.204
 4733SOL     OW15097   1.487   3.675   3.987
 4733SOL    HW115098   1.476   3.576   3.974
 4733SOL    HW215099   1.566   3.707   3.934
 4734SOL     OW15100   4.352   3.335   0.374
 4734SOL    HW115101   4.305   3.351   0.287
 4734SOL    HW215102   4.401   3.248   0.370
 4735SOL     OW15103   6.921   5.530   3.947
 4735SOL    HW115104   6.946   5.433   3.938
 4735SOL    HW215105   6.916   5.571   3.856
 4736SOL     OW15106   6.031   1.379   5.887
 4736SOL    HW115107   5.957   1.344   5.944
 4736SOL    HW215108   5.993   1.419   5.804
 4737SOL     OW15109   3.029   4.130   1.447
 4737SOL    HW115110   2.974   4.131   1.531
 4737SOL    HW215111   3.067   4.222   1.432
 4738SOL     OW15112   1.944   6.657   3.088
 4738SOL    HW115113   1.995   6.740   3.108
 4738SOL    HW215114   1.856   6.682   3.045
 4739SOL     OW15115   5.144   1.556   3.113
 4739SOL    HW115116   5.215   1.527   3.178
 4739SOL    HW215117   5.182   1.557   3.021
 4740SOL     OW15118   0.733   1.388   1.028
 4740SOL    HW115119   0.735   1.456   1.102
 4740SOL    HW215120   0.677   1.422   0.953
 4741SOL     OW15121   4.830   3.427   1.307
 4741SOL    HW115122   4.794   3.501   1.250
 4741SOL    HW215123   4.765   3.405   1.379
 4742SOL     OW15124   2.796   6.994   0.320
 4742SOL    HW115125   2.792   0.070   0.281
 4742SOL    HW215126   2.703   6.960   0.334
 4743SOL     OW15127   1.587   3.171   5.066
 4743SOL    HW115128   1.526   3.122   5.004
 4743SOL    HW215129   1.642   3.236   5.014
 4744SOL     OW15130   3.012   3.583   6.037
 4744SOL    HW115131   2.978   3.587   6.131
 4744SOL    HW215132   2.948   3.531   5.981
 4745SOL     OW15133   3.045   5.867   5.311
 4745SOL    HW115134   3.051   5.796   5.381
 4745SOL    HW215135   3.039   5.957   5.354
 4746SOL     OW15136   5.507   6.850   2.341
 4746SOL    HW115137   5.551   6.823   2.427
 4746SOL    HW215138   5.541   6.940   2.314
 4747SOL     OW15139   1.480   4.142   6.830
 4747SOL    HW115140   1.411   4.128   6.901
 4747SOL    HW215141   1.463   4.229   6.784
 4748SOL     OW15142   0.832   5.042   0.804
 4748SOL    HW115143   0.803   5.087   0.719
 4748SOL    HW215144   0.812   5.101   0.882
 4749SOL     OW15145   3.110   6.640   5.426
 4749SOL    HW115146   3.084   6.734   5.404
 4749SOL    HW215147   3.075   6.578   5.355
 4750SOL     OW15148   0.239   3.336   3.838
 4750SOL    HW115149   0.320   3.364   3.890
 4750SOL    HW215150   0.266   3.270   3.768
 4751SOL     OW15151   2.777   2.765   1.150
 4751SOL    HW115152   2.682   2.735   1.146
 4751SOL    HW215153   2.818   2.735   1.236
 4752SOL     OW15154   2.883   0.198   6.930
 4752SOL    HW115155   2.954   0.204   6.860
 4752SOL    HW215156   2.842   0.288   6.944
 4753SOL     OW15157   5.571   0.685   4.511
 4753SOL    HW115158   5.595   0.705   4.416
 4753SOL    HW215159   5.647   0.639   4.556
 4754SOL     OW15160   6.206   0.526   4.929
 4754SOL    HW115161   6.157   0.589   4.989
 4754SOL    HW215162   6.143   0.490   4.860
 4755SOL     OW15163   2.824   0.572   0.781
 4755SOL    HW115164   2.885   0.494   0.763
 4755SOL    HW215165   2.755   0.544   0.847
 4756SOL     OW15166   5.464   3.145   1.432
 4756SOL    HW115167   5.430   3.073   1.371
 4756SOL    HW215168   5.408   3.228   1.420
 4757SOL     OW15169   1.646   2.343   1.374
 4757SOL    HW115170   1.643   2.370   1.471
 4757SOL    HW215171   1.595   2.409   1.319
 4758SOL     OW15172   1.932   6.290   4.066
 4758SOL    HW115173   1.922   6.299   4.165
 4758SOL    HW215174   1.972   6.200   4.045
 4759SOL     OW15175   5.167   5.549   4.476
 4759SOL    HW115176   5.185   5.490   4.397
 4759SOL    HW215177   5.076   5.589   4.467
 4760SOL     OW15178   3.613   1.745   0.336
 4760SOL    HW115179   3.616   1.829   0.390
 4760SOL    HW215180   3.673   1.676   0.378
 4761SOL     OW15181   0.901   6.430   6.726
 4761SOL    HW115182   0.803   6.409   6.717
 4761SOL    HW215183   0.943   6.365   6.790
 4762SOL     OW15184   1.990   5.808   2.898
 4762SOL    HW115185   2.077   5.830   2.942
 4762SOL    HW215186   1.924   5.881   2.917
 4763SOL     OW15187   6.259   6.521   3.618
 4763SOL    HW115188   6.221   6.446   3.564
 4763SOL    HW215189   6.354   6.500   3.642
 4764SOL     OW15190   5.066   4.190   5.386
 4764SOL    HW115191   4.993   4.245   5.346
 4764SOL    HW215192   5.089   4.114   5.325
 4765SOL     OW15193   5.632   1.311   4.431
 4765SOL    HW115194   5.657   1.391   4.377
 4765SOL    HW215195   5.550   1.269   4.394
 4766SOL     OW15196   4.424   6.713   4.109
 4766SOL    HW115197   4.472   6.800   4.104
 4766SOL    HW215198   4.479   6.642   4.065
 4767SOL     OW15199   3.384   5.101   5.646
 4767SOL    HW115200   3.370   5.005   5.621
 4767SOL    HW215201   3.447   5.106   5.723
 4768SOL     OW15202   4.543   1.900   5.479
 4768SOL    HW115203   4.446   1.884   5.458
 4768SOL    HW215204   4.563   1.864   5.570
 4769SOL     OW15205   5.030   4.541   0.373
 4769SOL    HW115206   5.112   4.490   0.350
 4769SOL    HW215207   5.052   4.639   0.379
 4770SOL     OW15208   1.687   0.593   4.561
 4770SOL    HW115209   1.752   0.622   4.632
 4770SOL    HW215210   1.600   0.569   4.604
 4771SOL     OW15211   2.901   5.112   5.739
 4771SOL    HW115212   2.913   5.072   5.648
 4771SOL    HW215213   2.991   5.123   5.782
 4772SOL     OW15214   3.200   4.701   1.305
 4772SOL    HW115215   3.264   4.648   1.249
 4772SOL    HW215216   3.107   4.688   1.271
 4773SOL     OW15217   6.911   5.855   4.715
 4773SOL    HW115218   6.964   5.812   4.642
 4773SOL    HW215219   6.820   5.880   4.681
 4774SOL     OW15220   1.320   2.673   1.813
 4774SOL    HW115221   1.384   2.684   1.889
 4774SOL    HW215222   1.240   2.622   1.844
 4775SOL     OW15223   5.321   6.917   2.540
 4775SOL    HW115224   5.328   6.846   2.610
 4775SOL    HW215225   5.234   6.907   2.491
 4776SOL     OW15226   1.238   6.236   5.269
 4776SOL    HW115227   1.183   6.181   5.332
 4776SOL    HW215228   1.203   6.225   5.176
 4777SOL     OW15229   3.133   4.433   1.411
 4777SOL    HW115230   3.098   4.422   1.318
 4777SOL    HW215231   3.125   4.529   1.438
 4778SOL     OW15232   6.537   2.591   2.755
 4778SOL    HW115233   6.623   2.582   2.705
 4778SOL    HW215234   6.488   2.504   2.753
 4779SOL     OW15235   6.247   6.330   2.521
 4779SOL    HW115236   6.195   6.369   2.445
 4779SOL    HW215237   6.203   6.246   2.552
 4780SOL     OW15238   6.689   0.758   0.492
 4780SOL    HW115239   6.674   0.712   0.404
 4780SOL    HW215240   6.720   0.691   0.559
 4781SOL     OW15241   2.597   6.008   2.263
 4781SOL    HW115242   2.620   6.054   2.177
 4781SOL    HW215243   2.534   6.065   2.315
 4782SOL     OW15244   3.956   6.483   6.935
 4782SOL    HW115245   4.023   6.496   7.007
 4782SOL    HW215246   3.959   6.389   6.902
 4783SOL     OW15247   4.730   4.665   6.804
 4783SOL    HW115248   4.816   4.619   6.782
 4783SOL    HW215249   4.720   4.672   6.903
 4784SOL     OW15250   6.099   4.261   6.581
 4784SOL    HW115251   6.010   4.229   6.550
 4784SOL    HW215252   6.126   4.211   6.664
 4785SOL     OW15253   5.841   5.505   1.978
 4785SOL    HW115254   5.813   5.410   1.985
 4785SOL    HW215255   5.783   5.553   1.912
 4786SOL     OW15256   2.570   1.826   1.027
 4786SOL    HW115257   2.649   1.792   0.976
 4786SOL    HW215258   2.516   1.749   1.061
 4787SOL     OW15259   3.987   1.707   3.119
 4787SOL    HW115260   4.025   1.758   3.196
 4787SOL    HW215261   3.945   1.622   3.153
 4788SOL     OW15262   1.122   5.135   5.590
 4788SOL    HW115263   1.196   5.198   5.567
 4788SOL    HW215264   1.107   5.136   5.689
 4789SOL     OW15265   4.716   0.840   0.780
 4789SOL    HW115266   4.798   0.854   0.837
 4789SOL    HW215267   4.638   0.822   0.839
 4790SOL     OW15268   7.002   2.876   5.706
 4790SOL    HW115269   0.031   2.840   5.624
 4790SOL    HW215270   6.938   2.948   5.680
 4791SOL     OW15271   5.860   2.137   1.112
 4791SOL    HW115272   5.876   2.178   1.022
 4791SOL    HW215273   5.855   2.038   1.103
 4792SOL     OW15274   1.972   3.359   2.762
 4792SOL    HW115275   1.939   3.269   2.789
 4792SOL    HW215276   2.059   3.349   2.714
 4793SOL     OW15277   2.027   2.729   6.118
 4793SOL    HW115278   2.000   2.785   6.196
 4793SOL    HW215279   1.948   2.712   6.060
 4794SOL     OW15280   4.541   0.276   3.120
 4794SOL    HW115281   4.552   0.326   3.205
 4794SOL    HW215282   4.472   0.205   3.131
 4795SOL     OW15283   6.566   1.895   4.120
 4795SOL    HW115284   6.533   1.938   4.204
 4795SOL    HW215285   6.607   1.965   4.060
 4796SOL     OW15286   5.019   1.882   5.755
 4796SOL    HW115287   5.070   1.968   5.743
 4796SOL    HW215288   4.979   1.854   5.667
 4797SOL     OW15289   2.123   6.295   5.588
 4797SOL    HW115290   2.164   6.355   5.519
 4797SOL    HW215291   2.192   6.229   5.619
 4798SOL     OW15292   6.704   3.316   4.926
 4798SOL    HW115293   6.756   3.400   4.941
 4798SOL    HW215294   6.731   3.275   4.839
 4799SOL     OW15295   4.793   2.585   6.822
 4799SOL    HW115296   4.868   2.622   6.768
 4799SOL    HW215297   4.799   2.486   6.824
 4800SOL     OW15298   3.275   3.474   5.944
 4800SOL    HW115299   3.311   3.551   5.891
 4800SOL    HW215300   3.179   3.492   5.968
 4801SOL     OW15301   2.977   2.055   1.026
 4801SOL    HW115302   2.902   2.121   1.041
 4801SOL    HW215303   2.959   2.004   0.942
 4802SOL     OW15304   0.715   6.137   1.982
 4802SOL    HW115305   0.802   6.119   2.028
 4802SOL    HW215306   0.732   6.197   1.904
 4803SOL     OW15307   1.326   5.806   1.082
 4803SOL    HW115308   1.391   5.875   1.051
 4803SOL    HW215309   1.331   5.726   1.022
 4804SOL     OW15310   5.241   5.701   6.585
 4804SOL    HW115311   5.238   5.615   6.534
 4804SOL    HW215312   5.335   5.720   6.613
 4805SOL     OW15313   6.033   0.542   1.518
 4805SOL    HW115314   6.071   0.482   1.588
 4805SOL    HW215315   5.964   0.602   1.559
 4806SOL     OW15316   1.007   4.806   3.330
 4806SOL    HW115317   0.921   4.757   3.342
 4806SOL    HW215318   1.054   4.812   3.419
 4807SOL     OW15319   0.934   4.781   0.282
 4807SOL    HW115320   0.940   4.835   0.367
 4807SOL    HW215321   0.845   4.736   0.277
 4808SOL     OW15322   6.161   3.462   6.342
 4808SOL    HW115323   6.200   3.414   6.264
 4808SOL    HW215324   6.218   3.446   6.423
 4809SOL     OW15325   3.522   4.119   0.117
 4809SOL    HW115326   3.572   4.057   0.057
 4809SOL    HW215327   3.586   4.175   0.168
 4810SOL     OW15328   0.882   5.083   2.698
 4810SOL    HW115329   0.827   5.057   2.777
 4810SOL    HW215330   0.979   5.075   2.720
 4811SOL     OW15331   2.030   4.634   1.874
 4811SOL    HW115332   1.933   4.610   1.880
 4811SOL    HW215333   2.084   4.563   1.920
 4812SOL     OW15334   6.721   4.865   4.203
 4812SOL    HW115335   6.730   4.957   4.164
 4812SOL    HW215336   6.625   4.841   4.211
 4813SOL     OW15337   5.177   1.634   0.891
 4813SOL    HW115338   5.110   1.595   0.829
 4813SOL    HW215339   5.240   1.563   0.922
 4814SOL     OW15340   6.066   4.033   0.393
 4814SOL    HW115341   6.123   4.043   0.475
 4814SOL    HW215342   6.107   4.084   0.317
 4815SOL     OW15343   5.660   4.392   3.116
 4815SOL    HW115344   5.699   4.375   3.206
 4815SOL    HW215345   5.711   4.341   3.047
 4816SOL     OW15346   1.180   5.236   1.419
 4816SOL    HW115347   1.127   5.276   1.344
 4816SOL    HW215348   1.129   5.244   1.505
 4817SOL     OW15349   0.408   2.445   6.802
 4817SOL    HW115350   0.384   2.530   6.754
 4817SOL    HW215351   0.350   2.371   6.769
 4818SOL     OW15352   1.307   0.474   5.200
 4818SOL    HW115353   1.377   0.545   5.211
 4818SOL    HW215354   1.229   0.511   5.150
 4819SOL     OW15355   0.757   2.236   0.272
 4819SOL    HW115356   0.700   2.262   0.193
 4819SOL    HW215357   0.816   2.160   0.246
 4820SOL     OW15358   5.932   2.874   1.173
 4820SOL    HW115359   5.978   2.889   1.260
 4820SOL    HW215360   6.000   2.867   1.100
 4821SOL     OW15361   1.180   6.095   2.470
 4821SOL    HW115362   1.098   6.146   2.495
 4821SOL    HW215363   1.175   6.003   2.509
 4822SOL     OW15364   2.103   2.496   4.611
 4822SOL    HW115365   2.134   2.547   4.531
 4822SOL    HW215366   2.177   2.437   4.644
 4823SOL     OW15367   2.036   1.150   4.106
 4823SOL    HW115368   2.001   1.242   4.085
 4823SOL    HW215369   1.959   1.087   4.115
 4824SOL     OW15370   4.935   2.767   5.015
 4824SOL    HW115371   5.034   2.776   5.022
 4824SOL    HW215372   4.898   2.738   5.103
 4825SOL     OW15373   1.562   2.967   4.622
 4825SOL    HW115374   1.597   2.892   4.678
 4825SOL    HW215375   1.556   2.937   4.527
 4826SOL     OW15376   5.735   0.774   0.071
 4826SOL    HW115377   5.684   0.771   0.157
 4826SOL    HW215378   5.710   0.696   0.014
 4827SOL     OW15379   6.162   1.521   0.778
 4827SOL    HW115380   6.179   1.554   0.870
 4827SOL    HW215381   6.132   1.426   0.782
 4828SOL     OW15382   4.860   1.533   1.028
 4828SOL    HW115383   4.772   1.533   0.980
 4828SOL    HW215384   4.856   1.598   1.104
 4829SOL     OW15385   3.853   0.226   5.198
 4829SOL    HW115386   3.759   0.206   5.226
 4829SOL    HW215387   3.912   0.228   5.279
 4830SOL     OW15388   3.804   5.990   4.627
 4830SOL    HW115389   3.894   5.946   4.628
 4830SOL    HW215390   3.739   5.934   4.576
 4831SOL     OW15391   0.881   4.611   5.630
 4831SOL    HW115392   0.948   4.539   5.651
 4831SOL    HW215393   0.911   4.697   5.671
 4832SOL     OW15394   3.465   4.175   3.568
 4832SOL    HW115395   3.495   4.199   3.660
 4832SOL    HW215396   3.544   4.152   3.512
 4833SOL     OW15397   6.345   1.273   2.911
 4833SOL    HW115398   6.336   1.258   2.813
 4833SOL    HW215399   6.438   1.250   2.940
 4834SOL     OW15400   2.581   5.879   1.840
 4834SOL    HW115401   2.660   5.831   1.801
 4834SOL    HW215402   2.561   5.960   1.785
 4835SOL     OW15403   5.403   2.245   6.256
 4835SOL    HW115404   5.395   2.249   6.356
 4835SOL    HW215405   5.412   2.337   6.219
 4836SOL     OW15406   5.116   2.156   5.085
 4836SOL    HW115407   5.063   2.134   5.167
 4836SOL    HW215408   5.056   2.200   5.018
 4837SOL     OW15409   6.983   3.740   2.634
 4837SOL    HW115410   6.902   3.788   2.602
 4837SOL    HW215411   6.955   3.665   2.695
 4838SOL     OW15412   2.375   5.688   0.082
 4838SOL    HW115413   2.435   5.640   0.018
 4838SOL    HW215414   2.306   5.624   0.117
 4839SOL     OW15415   1.140   3.973   0.759
 4839SOL    HW115416   1.084   3.891   0.753
 4839SOL    HW215417   1.113   4.027   0.839
 4840SOL     OW15418   6.470   4.737   6.256
 4840SOL    HW115419   6.453   4.687   6.172
 4840SOL    HW215420   6.477   4.835   6.236
 4841SOL     OW15421   2.606   5.256   3.255
 4841SOL    HW115422   2.513   5.277   3.224
 4841SOL    HW215423   2.671   5.280   3.183
 4842SOL     OW15424   3.179   4.895   3.168
 4842SOL    HW115425   3.256   4.914   3.106
 4842SOL    HW215426   3.093   4.905   3.117
 4843SOL     OW15427   6.121   2.866   0.981
 4843SOL    HW115428   6.070   2.852   0.896
 4843SOL    HW215429   6.216   2.839   0.968
 4844SOL     OW15430   0.042   3.500   6.076
 4844SOL    HW115431   0.100   3.568   6.031
 4844SOL    HW215432   0.020   3.428   6.011
 4845SOL     OW15433   4.942   5.055   6.451
 4845SOL    HW115434   4.846   5.046   6.426
 4845SOL    HW215435   4.962   4.998   6.531
 4846SOL     OW15436   0.323   2.570   3.810
 4846SOL    HW115437   0.243   2.601   3.758
 4846SOL    HW215438   0.313   2.599   3.905
 4847SOL     OW15439   2.238   1.047   6.319
 4847SOL    HW115440   2.278   1.129   6.277
 4847SOL    HW215441   2.141   1.063   6.337
 4848SOL     OW15442   2.262   0.560   4.916
 4848SOL    HW115443   2.318   0.530   4.839
 4848SOL    HW215444   2.322   0.587   4.992
 4849SOL     OW15445   1.823   5.605   0.605
 4849SOL    HW115446   1.895   5.625   0.671
 4849SOL    HW215447   1.771   5.525   0.636
 4850SOL     OW15448   4.443   1.130   1.442
 4850SOL    HW115449   4.413   1.039   1.470
 4850SOL    HW215450   4.369   1.176   1.393
 4851SOL     OW15451   3.417   5.938   5.610
 4851SOL    HW115452   3.505   5.895   5.592
 4851SOL    HW215453   3.373   5.893   5.687
 4852SOL     OW15454   1.957   5.704   4.727
 4852SOL    HW115455   1.934   5.776   4.662
 4852SOL    HW215456   1.981   5.621   4.677
 4853SOL     OW15457   3.961   1.104   3.708
 4853SOL    HW115458   3.976   1.063   3.798
 4853SOL    HW215459   4.032   1.074   3.645
 4854SOL     OW15460   4.514   6.825   1.883
 4854SOL    HW115461   4.467   6.821   1.795
 4854SOL    HW215462   4.458   6.876   1.949
 4855SOL     OW15463   5.874   2.335   5.247
 4855SOL    HW115464   5.900   2.241   5.271
 4855SOL    HW215465   5.903   2.398   5.319
 4856SOL     OW15466   1.739   3.374   2.940
 4856SOL    HW115467   1.651   3.335   2.913
 4856SOL    HW215468   1.792   3.397   2.858
 4857SOL     OW15469   3.057   2.097   3.437
 4857SOL    HW115470   3.106   2.096   3.525
 4857SOL    HW215471   2.961   2.119   3.453
 4858SOL     OW15472   6.965   6.272   5.010
 4858SOL    HW115473   7.008   6.195   4.964
 4858SOL    HW215474   6.908   6.239   5.085
 4859SOL     OW15475   0.332   4.891   2.311
 4859SOL    HW115476   0.373   4.966   2.363
 4859SOL    HW215477   0.346   4.805   2.360
 4860SOL     OW15478   4.444   3.869   0.164
 4860SOL    HW115479   4.514   3.877   0.092
 4860SOL    HW215480   4.384   3.949   0.161
 4861SOL     OW15481   6.078   5.362   6.461
 4861SOL    HW115482   6.023   5.438   6.495
 4861SOL    HW215483   6.136   5.328   6.535
 4862SOL     OW15484   2.161   4.471   4.745
 4862SOL    HW115485   2.244   4.521   4.723
 4862SOL    HW215486   2.098   4.474   4.668
 4863SOL     OW15487   5.330   3.208   2.385
 4863SOL    HW115488   5.356   3.117   2.353
 4863SOL    HW215489   5.270   3.251   2.318
 4864SOL     OW15490   2.854   1.165   1.998
 4864SOL    HW115491   2.854   1.262   1.974
 4864SOL    HW215492   2.789   1.149   2.072
 4865SOL     OW15493   1.897   5.909   4.550
 4865SOL    HW115494   1.809   5.939   4.514
 4865SOL    HW215495   1.970   5.931   4.485
 4866SOL     OW15496   5.741   4.809   1.451
 4866SOL    HW115497   5.720   4.852   1.363
 4866SOL    HW215498   5.823   4.852   1.491
 4867SOL     OW15499   5.202   5.784   3.222
 4867SOL    HW115500   5.292   5.748   3.199
 4867SOL    HW215501   5.149   5.715   3.270
 4868SOL     OW15502   6.952   5.423   1.526
 4868SOL    HW115503   0.024   5.417   1.572
 4868SOL    HW215504   6.904   5.336   1.535
 4869SOL     OW15505   6.676   2.179   1.631
 4869SOL    HW115506   6.770   2.184   1.666
 4869SOL    HW215507   6.620   2.126   1.695
 4870SOL     OW15508   5.670   5.531   1.784
 4870SOL    HW115509   5.731   5.516   1.707
 4870SOL    HW215510   5.577   5.507   1.758
 4871SOL     OW15511   0.303   1.132   4.724
 4871SOL    HW115512   0.326   1.046   4.768
 4871SOL    HW215513   0.378   1.197   4.735
 4872SOL     OW15514   0.389   6.090   3.972
 4872SOL    HW115515   0.433   6.001   3.985
 4872SOL    HW215516   0.396   6.144   4.056
 4873SOL     OW15517   6.740   4.852   3.848
 4873SOL    HW115518   6.756   4.941   3.890
 4873SOL    HW215519   6.823   4.823   3.800
 4874SOL     OW15520   6.032   4.134   2.656
 4874SOL    HW115521   6.118   4.140   2.604
 4874SOL    HW215522   6.013   4.222   2.699
 4875SOL     OW15523   4.969   2.304   0.677
 4875SOL    HW115524   5.019   2.225   0.641
 4875SOL    HW215525   4.874   2.279   0.695
 4876SOL     OW15526   6.162   0.950   4.963
 4876SOL    HW115527   6.185   0.886   5.036
 4876SOL    HW215528   6.241   1.007   4.942
 4877SOL     OW15529   6.365   1.730   0.702
 4877SOL    HW115530   6.436   1.672   0.742
 4877SOL    HW215531   6.283   1.675   0.685
 4878SOL     OW15532   6.725   1.645   2.460
 4878SOL    HW115533   6.770   1.732   2.438
 4878SOL    HW215534   6.710   1.593   2.376
 4879SOL     OW15535   4.343   5.053   3.613
 4879SOL    HW115536   4.338   4.968   3.666
 4879SOL    HW215537   4.418   5.046   3.547
 4880SOL     OW15538   6.301   3.384   6.625
 4880SOL    HW115539   6.399   3.363   6.622
 4880SOL    HW215540   6.285   3.454   6.694
 4881SOL     OW15541   2.362   6.448   6.644
 4881SOL    HW115542   2.287   6.440   6.579
 4881SOL    HW215543   2.327   6.437   6.737
 4882SOL     OW15544   5.882   1.426   3.996
 4882SOL    HW115545   5.812   1.356   4.007
 4882SOL    HW215546   5.931   1.411   3.910
 4883SOL     OW15547   5.050   4.821   2.271
 4883SOL    HW115548   5.095   4.774   2.346
 4883SOL    HW215549   5.118   4.857   2.207
 4884SOL     OW15550   4.359   0.130   0.866
 4884SOL    HW115551   4.433   0.070   0.833
 4884SOL    HW215552   4.285   0.075   0.903
 4885SOL     OW15553   2.837   6.437   2.134
 4885SOL    HW115554   2.756   6.457   2.080
 4885SOL    HW215555   2.811   6.384   2.215
 4886SOL     OW15556   0.113   5.633   5.863
 4886SOL    HW115557   0.121   5.721   5.910
 4886SOL    HW215558   0.165   5.635   5.778
 4887SOL     OW15559   0.344   1.317   2.879
 4887SOL    HW115560   0.275   1.252   2.850
 4887SOL    HW215561   0.427   1.304   2.826
 4888SOL     OW15562   1.821   6.532   4.031
 4888SOL    HW115563   1.853   6.438   4.042
 4888SOL    HW215564   1.887   6.594   4.073
 4889SOL     OW15565   6.777   1.534   6.637
 4889SOL    HW115566   6.853   1.564   6.579
 4889SOL    HW215567   6.707   1.606   6.640
 4890SOL     OW15568   0.637   2.162   5.434
 4890SOL    HW115569   0.684   2.208   5.358
 4890SOL    HW215570   0.674   2.070   5.445
 4891SOL     OW15571   1.424   5.938   0.695
 4891SOL    HW115572   1.343   5.882   0.677
 4891SOL    HW215573   1.413   6.028   0.654
 4892SOL     OW15574   2.431   6.080   2.502
 4892SOL    HW115575   2.388   5.992   2.487
 4892SOL    HW215576   2.490   6.075   2.582
 4893SOL     OW15577   6.469   4.508   0.226
 4893SOL    HW115578   6.499   4.586   0.171
 4893SOL    HW215579   6.437   4.435   0.165
 4894SOL     OW15580   2.683   1.321   1.619
 4894SOL    HW115581   2.735   1.244   1.654
 4894SOL    HW215582   2.673   1.312   1.520
 4895SOL     OW15583   0.216   5.002   1.758
 4895SOL    HW115584   0.307   4.987   1.718
 4895SOL    HW215585   0.151   4.939   1.717
 4896SOL     OW15586   2.491   5.246   2.651
 4896SOL    HW115587   2.433   5.250   2.570
 4896SOL    HW215588   2.573   5.192   2.632
 4897SOL     OW15589   2.383   5.560   6.243
 4897SOL    HW115590   2.363   5.549   6.146
 4897SOL    HW215591   2.447   5.489   6.273
 4898SOL     OW15592   5.897   1.801   5.136
 4898SOL    HW115593   5.818   1.847   5.097
 4898SOL    HW215594   5.904   1.709   5.097
 4899SOL     OW15595   6.266   4.719   3.193
 4899SOL    HW115596   6.241   4.622   3.206
 4899SOL    HW215597   6.352   4.724   3.143
 4900SOL     OW15598   2.054   6.037   5.454
 4900SOL    HW115599   2.065   6.130   5.489
 4900SOL    HW215600   2.100   6.030   5.365
 4901SOL     OW15601   3.000   6.873   5.305
 4901SOL    HW115602   2.966   6.825   5.224
 4901SOL    HW215603   3.079   6.929   5.280
 4902SOL     OW15604   2.770   1.923   4.911
 4902SOL    HW115605   2.866   1.941   4.891
 4902SOL    HW215606   2.718   2.008   4.902
 4903SOL     OW15607   3.224   6.713   6.513
 4903SOL    HW115608   3.291   6.767   6.564
 4903SOL    HW215609   3.199   6.632   6.565
 4904SOL     OW15610   1.354   0.341   3.784
 4904SOL    HW115611   1.254   0.342   3.783
 4904SOL    HW215612   1.388   0.344   3.690
 4905SOL     OW15613   4.582   1.837   2.286
 4905SOL    HW115614   4.508   1.771   2.272
 4905SOL    HW215615   4.547   1.930   2.274
 4906SOL     OW15616   3.282   1.078   6.425
 4906SOL    HW115617   3.231   1.011   6.372
 4906SOL    HW215618   3.220   1.149   6.458
 4907SOL     OW15619   4.896   6.418   2.140
 4907SOL    HW115620   4.863   6.459   2.055
 4907SOL    HW215621   4.996   6.424   2.143
 4908SOL     OW15622   4.501   5.032   0.064
 4908SOL    HW115623   4.543   5.026   6.990
 4908SOL    HW215624   4.408   5.066   0.056
 4909SOL     OW15625   6.241   0.202   5.887
 4909SOL    HW115626   6.185   0.234   5.810
 4909SOL    HW215627   6.195   0.126   5.932
 4910SOL     OW15628   5.743   6.579   4.563
 4910SOL    HW115629   5.687   6.601   4.483
 4910SOL    HW215630   5.709   6.628   4.643
 4911SOL     OW15631   6.775   2.499   5.931
 4911SOL    HW115632   6.795   2.597   5.920
 4911SOL    HW215633   6.837   2.460   5.999
 4912SOL     OW15634   5.468   2.274   1.346
 4912SOL    HW115635   5.418   2.246   1.428
 4912SOL    HW215636   5.458   2.373   1.333
 4913SOL     OW15637   3.913   3.062   3.606
 4913SOL    HW115638   3.842   3.076   3.537
 4913SOL    HW215639   3.943   3.150   3.643
 4914SOL     OW15640   3.618   0.310   4.613
 4914SOL    HW115641   3.533   0.351   4.582
 4914SOL    HW215642   3.687   0.317   4.541
 4915SOL     OW15643   4.895   0.353   4.770
 4915SOL    HW115644   4.819   0.296   4.800
 4915SOL    HW215645   4.968   0.350   4.839
 4916SOL     OW15646   2.116   1.293   3.361
 4916SOL    HW115647   2.085   1.205   3.326
 4916SOL    HW215648   2.216   1.298   3.356
 4917SOL     OW15649   1.484   4.485   0.922
 4917SOL    HW115650   1.514   4.534   0.840
 4917SOL    HW215651   1.523   4.529   1.003
 4918SOL     OW15652   3.205   6.979   2.643
 4918SOL    HW115653   3.220   6.962   2.740
 4918SOL    HW215654   3.216   6.894   2.591
 4919SOL     OW15655   2.291   1.864   1.292
 4919SOL    HW115656   2.225   1.802   1.335
 4919SOL    HW215657   2.382   1.849   1.332
 4920SOL     OW15658   4.410   0.113   6.292
 4920SOL    HW115659   4.466   0.103   6.209
 4920SOL    HW215660   4.456   0.176   6.355
 4921SOL     OW15661   1.711   4.179   1.333
 4921SOL    HW115662   1.811   4.179   1.338
 4921SOL    HW215663   1.683   4.173   1.237
 4922SOL     OW15664   1.579   3.631   4.834
 4922SOL    HW115665   1.647   3.667   4.898
 4922SOL    HW215666   1.500   3.692   4.833
 4923SOL     OW15667   4.216   1.242   1.349
 4923SOL    HW115668   4.146   1.270   1.414
 4923SOL    HW215669   4.173   1.217   1.262
 4924SOL     OW15670   2.278   2.774   6.038
 4924SOL    HW115671   2.190   2.730   6.057
 4924SOL    HW215672   2.297   2.842   6.108
 4925SOL     OW15673   6.462   6.494   0.726
 4925SOL    HW115674   6.403   6.575   0.736
 4925SOL    HW215675   6.549   6.511   0.773
 4926SOL     OW15676   4.797   2.606   1.294
 4926SOL    HW115677   4.842   2.572   1.377
 4926SOL    HW215678   4.807   2.539   1.220
 4927SOL     OW15679   4.115   3.759   4.113
 4927SOL    HW115680   4.126   3.660   4.123
 4927SOL    HW215681   4.069   3.795   4.195
 4928SOL     OW15682   0.195   0.030   6.670
 4928SOL    HW115683   0.167   6.950   6.668
 4928SOL    HW215684   0.276   0.041   6.727
 4929SOL     OW15685   1.286   3.876   5.086
 4929SOL    HW115686   1.187   3.888   5.086
 4929SOL    HW215687   1.310   3.796   5.141
 4930SOL     OW15688   6.347   0.646   1.606
 4930SOL    HW115689   6.418   0.698   1.559
 4930SOL    HW215690   6.361   0.651   1.705
 4931SOL     OW15691   0.198   6.800   0.686
 4931SOL    HW115692   0.157   6.816   0.596
 4931SOL    HW215693   0.132   6.824   0.757
 4932SOL     OW15694   2.158   3.332   1.696
 4932SOL    HW115695   2.149   3.392   1.775
 4932SOL    HW215696   2.246   3.285   1.700
 4933SOL     OW15697   2.873   6.786   4.721
 4933SOL    HW115698   2.911   6.805   4.811
 4933SOL    HW215699   2.903   6.856   4.656
 4934SOL     OW15700   1.827   5.058   3.008
 4934SOL    HW115701   1.747   5.000   3.025
 4934SOL    HW215702   1.822   5.139   3.067
 4935SOL     OW15703   0.805   1.562   0.026
 4935SOL    HW115704   0.731   1.570   6.976
 4935SOL    HW215705   0.891   1.542   6.994
 4936SOL     OW15706   1.853   4.915   2.114
 4936SOL    HW115707   1.935   4.920   2.057
 4936SOL    HW215708   1.776   4.955   2.064
 4937SOL     OW15709   0.235   3.461   6.316
 4937SOL    HW115710   0.316   3.402   6.312
 4937SOL    HW215711   0.177   3.444   6.237
 4938SOL     OW15712   3.048   5.161   1.239
 4938SOL    HW115713   3.026   5.122   1.329
 4938SOL    HW215714   3.069   5.088   1.175
 4939SOL     OW15715   1.098   2.073   3.476
 4939SOL    HW115716   1.051   2.052   3.390
 4939SOL    HW215717   1.057   2.020   3.550
 4940SOL     OW15718   0.709   1.723   5.693
 4940SOL    HW115719   0.714   1.783   5.613
 4940SOL    HW215720   0.616   1.689   5.703
 4941SOL     OW15721   4.065   2.813   5.267
 4941SOL    HW115722   3.988   2.773   5.318
 4941SOL    HW215723   4.118   2.740   5.224
 4942SOL     OW15724   5.356   3.124   4.714
 4942SOL    HW115725   5.424   3.159   4.779
 4942SOL    HW215726   5.265   3.128   4.755
 4943SOL     OW15727   4.987   3.922   5.928
 4943SOL    HW115728   5.038   3.912   5.842
 4943SOL    HW215729   4.922   3.997   5.920
 4944SOL     OW15730   2.436   4.267   1.643
 4944SOL    HW115731   2.352   4.214   1.638
 4944SOL    HW215732   2.500   4.235   1.573
 4945SOL     OW15733   1.081   7.007   5.270
 4945SOL    HW115734   1.019   0.062   5.239
 4945SOL    HW215735   1.173   0.028   5.281
 4946SOL     OW15736   0.907   5.370   6.987
 4946SOL    HW115737   0.953   5.446   0.017
 4946SOL    HW215738   0.948   5.355   6.897
 4947SOL     OW15739   2.429   0.841   0.951
 4947SOL    HW115740   2.516   0.824   0.904
 4947SOL    HW215741   2.447   0.880   1.041
 4948SOL     OW15742   2.349   2.725   2.848
 4948SOL    HW115743   2.365   2.707   2.945
 4948SOL    HW215744   2.390   2.651   2.793
 4949SOL     OW15745   0.031   3.890   4.667
 4949SOL    HW115746   0.106   3.940   4.624
 4949SOL    HW215747   0.062   3.797   4.689
 4950SOL     OW15748   2.090   4.385   5.583
 4950SOL    HW115749   2.182   4.362   5.613
 4950SOL    HW215750   2.063   4.325   5.507
 4951SOL     OW15751   6.489   0.169   4.759
 4951SOL    HW115752   6.460   0.168   4.664
 4951SOL    HW215753   6.436   0.103   4.812
 4952SOL     OW15754   0.459   6.684   6.173
 4952SOL    HW115755   0.528   6.756   6.172
 4952SOL    HW215756   0.370   6.723   6.148
 4953SOL     OW15757   1.449   6.755   2.960
 4953SOL    HW115758   1.471   6.842   2.915
 4953SOL    HW215759   1.481   6.758   3.055
 4954SOL     OW15760   3.040   3.491   0.102
 4954SOL    HW115761   3.119   3.514   0.158
 4954SOL    HW215762   3.064   3.497   0.005
 4955SOL     OW15763   2.770   6.312   6.978
 4955SOL    HW115764   2.848   6.273   6.929
 4955SOL    HW215765   2.696   6.245   6.981
 4956SOL     OW15766   3.088   0.490   5.004
 4956SOL    HW115767   3.157   0.454   4.942
 4956SOL    HW215768   2.998   0.487   4.959
 4957SOL     OW15769   5.283   2.757   0.923
 4957SOL    HW115770   5.226   2.768   1.005
 4957SOL    HW215771   5.224   2.754   0.842
 4958SOL     OW15772   1.344   5.426   6.135
 4958SOL    HW115773   1.353   5.374   6.050
 4958SOL    HW215774   1.428   5.479   6.151
 4959SOL     OW15775   5.936   1.397   1.117
 4959SOL    HW115776   5.917   1.317   1.173
 4959SOL    HW215777   5.988   1.370   1.036
 4960SOL     OW15778   4.306   4.756   4.366
 4960SOL    HW115779   4.343   4.663   4.367
 4960SOL    HW215780   4.233   4.764   4.434
 4961SOL     OW15781   3.334   0.241   6.341
 4961SOL    HW115782   3.285   0.257   6.255
 4961SOL    HW215783   3.273   0.196   6.406
 4962SOL     OW15784   5.872   2.562   0.275
 4962SOL    HW115785   5.928   2.550   0.358
 4962SOL    HW215786   5.897   2.492   0.208
 4963SOL     OW15787   0.721   5.806   0.780
 4963SOL    HW115788   0.665   5.738   0.733
 4963SOL    HW215789   0.769   5.762   0.856
 4964SOL     OW15790   1.939   0.188   4.514
 4964SOL    HW115791   1.966   0.111   4.456
 4964SOL    HW215792   2.013   0.210   4.577
 4965SOL     OW15793   0.802   6.438   2.143
 4965SOL    HW115794   0.845   6.349   2.133
 4965SOL    HW215795   0.710   6.436   2.104
 4966SOL     OW15796   3.136   0.114   4.892
 4966SOL    HW115797   3.143   0.111   4.992
 4966SOL    HW215798   3.219   0.078   4.851
 4967SOL     OW15799   3.323   4.835   5.881
 4967SOL    HW115800   3.265   4.804   5.806
 4967SOL    HW215801   3.297   4.788   5.965
 4968SOL     OW15802   0.267   1.293   3.164
 4968SOL    HW115803   0.320   1.304   3.080
 4968SOL    HW215804   0.178   1.252   3.141
 4969SOL     OW15805   2.194   6.107   2.724
 4969SOL    HW115806   2.268   6.171   2.748
 4969SOL    HW215807   2.116   6.122   2.784
 4970SOL     OW15808   2.294   1.538   1.339
 4970SOL    HW115809   2.200   1.507   1.325
 4970SOL    HW215810   2.333   1.493   1.420
 4971SOL     OW15811   6.327   5.767   2.847
 4971SOL    HW115812   6.286   5.837   2.905
 4971SOL    HW215813   6.399   5.719   2.899
 4972SOL     OW15814   0.417   3.902   1.137
 4972SOL    HW115815   0.386   3.987   1.180
 4972SOL    HW215816   0.466   3.847   1.204
 4973SOL     OW15817   0.911   6.685   1.618
 4973SOL    HW115818   0.846   6.760   1.610
 4973SOL    HW215819   1.002   6.716   1.594
 4974SOL     OW15820   6.009   5.088   0.781
 4974SOL    HW115821   5.934   5.114   0.721
 4974SOL    HW215822   5.999   5.136   0.868
 4975SOL     OW15823   5.890   3.943   6.413
 4975SOL    HW115824   5.936   3.932   6.324
 4975SOL    HW215825   5.954   3.921   6.486
 4976SOL     OW15826   2.196   1.958   4.355
 4976SOL    HW115827   2.147   1.872   4.340
 4976SOL    HW215828   2.280   1.940   4.407
 4977SOL     OW15829   4.713   5.141   0.489
 4977SOL    HW115830   4.656   5.198   0.429
 4977SOL    HW215831   4.657   5.106   0.564
 4978SOL     OW15832   5.892   4.532   4.691
 4978SOL    HW115833   5.849   4.479   4.618
 4978SOL    HW215834   5.830   4.604   4.721
 4979SOL     OW15835   6.590   6.799   6.116
 4979SOL    HW115836   6.562   6.895   6.123
 4979SOL    HW215837   6.687   6.795   6.093
 4980SOL     OW15838   5.177   5.413   3.687
 4980SOL    HW115839   5.104   5.412   3.619
 4980SOL    HW215840   5.150   5.357   3.766
 4981SOL     OW15841   4.083   5.017   1.452
 4981SOL    HW115842   4.085   5.080   1.374
 4981SOL    HW215843   4.113   5.065   1.534
 4982SOL     OW15844   3.278   1.985   5.928
 4982SOL    HW115845   3.221   2.050   5.879
 4982SOL    HW215846   3.374   2.010   5.919
 4983SOL     OW15847   5.394   3.798   5.612
 4983SOL    HW115848   5.399   3.719   5.673
 4983SOL    HW215849   5.466   3.793   5.543
 4984SOL     OW15850   5.103   3.592   3.049
 4984SOL    HW115851   5.150   3.644   3.120
 4984SOL    HW215852   5.144   3.613   2.960
 4985SOL     OW15853   6.139   6.869   3.267
 4985SOL    HW115854   6.044   6.846   3.243
 4985SOL    HW215855   6.172   6.807   3.338
 4986SOL     OW15856   6.541   4.951   0.403
 4986SOL    HW115857   6.506   4.987   0.489
 4986SOL    HW215858   6.517   4.855   0.394
 4987SOL     OW15859   0.825   6.500   2.563
 4987SOL    HW115860   0.827   6.547   2.475
 4987SOL    HW215861   0.884   6.548   2.628
 4988SOL     OW15862   5.052   0.908   2.546
 4988SOL    HW115863   5.092   0.982   2.600
 4988SOL    HW215864   5.117   0.833   2.539
 4989SOL     OW15865   5.562   6.628   1.015
 4989SOL    HW115866   5.625   6.594   0.945
 4989SOL    HW215867   5.608   6.699   1.070
 4990SOL     OW15868   2.800   1.954   6.038
 4990SOL    HW115869   2.771   1.927   6.130
 4990SOL    HW215870   2.898   1.937   6.028
 4991SOL     OW15871   6.074   5.606   4.146
 4991SOL    HW115872   6.074   5.594   4.245
 4991SOL    HW215873   6.091   5.517   4.102
 4992SOL     OW15874   4.844   0.150   2.022
 4992SOL    HW115875   4.824   0.174   2.117
 4992SOL    HW215876   4.942   0.136   2.011
 4993SOL     OW15877   3.545   6.336   5.378
 4993SOL    HW115878   3.613   6.271   5.344
 4993SOL    HW215879   3.552   6.421   5.326
 4994SOL     OW15880   1.697   0.127   4.379
 4994SOL    HW115881   1.776   0.168   4.425
 4994SOL    HW215882   1.657   0.058   4.439
 4995SOL     OW15883   1.050   2.183   4.905
 4995SOL    HW115884   1.085   2.276   4.913
 4995SOL    HW215885   0.972   2.182   4.842
 4996SOL     OW15886   0.037   1.268   3.399
 4996SOL    HW115887   0.100   1.307   3.466
 4996SOL    HW215888   6.961   1.299   3.418
 4997SOL     OW15889   4.563   2.498   2.323
 4997SOL    HW115890   4.537   2.521   2.230
 4997SOL    HW215891   4.638   2.432   2.321
 4998SOL     OW15892   2.022   3.336   4.605
 4998SOL    HW115893   2.069   3.364   4.689
 4998SOL    HW215894   2.049   3.395   4.530
 4999SOL     OW15895   6.582   3.601   4.926
 4999SOL    HW115896   6.575   3.537   4.849
 4999SOL    HW215897   6.670   3.647   4.923
 5000SOL     OW15898   3.461   0.486   3.173
 5000SOL    HW115899   3.452   0.585   3.165
 5000SOL    HW215900   3.539   0.454   3.119
 5001SOL     OW15901   1.424   5.241   1.852
 5001SOL    HW115902   1.361   5.177   1.808
 5001SOL    HW215903   1.448   5.314   1.789
 5002SOL     OW15904   0.960   3.621   2.399
 5002SOL    HW115905   0.988   3.716   2.379
 5002SOL    HW215906   0.861   3.617   2.411
 5003SOL     OW15907   3.710   5.727   2.999
 5003SOL    HW115908   3.649   5.674   2.941
 5003SOL    HW215909   3.728   5.678   3.084
 5004SOL     OW15910   2.249   4.774   5.031
 5004SOL    HW115911   2.181   4.847   5.033
 5004SOL    HW215912   2.336   4.809   4.997
 5005SOL     OW15913   3.304   2.848   0.308
 5005SOL    HW115914   3.331   2.774   0.247
 5005SOL    HW215915   3.358   2.844   0.392
 5006SOL     OW15916   5.292   0.973   1.810
 5006SOL    HW115917   5.255   0.909   1.743
 5006SOL    HW215918   5.311   0.924   1.895
 5007SOL     OW15919   0.070   6.632   1.104
 5007SOL    HW115920   0.040   6.719   1.065
 5007SOL    HW215921   0.161   6.610   1.069
 5008SOL     OW15922   5.369   6.463   1.958
 5008SOL    HW115923   5.346   6.486   1.863
 5008SOL    HW215924   5.430   6.384   1.959
 5009SOL     OW15925   0.019   1.948   0.678
 5009SOL    HW115926   0.034   1.933   0.580
 5009SOL    HW215927   6.953   2.005   0.691
 5010SOL     OW15928   4.191   3.136   1.566
 5010SOL    HW115929   4.123   3.200   1.602
 5010SOL    HW215930   4.264   3.124   1.633
 5011SOL     OW15931   1.530   4.775   2.311
 5011SOL    HW115932   1.483   4.690   2.334
 5011SOL    HW215933   1.471   4.853   2.332
 5012SOL     OW15934   5.248   3.257   5.119
 5012SOL    HW115935   5.207   3.182   5.172
 5012SOL    HW215936   5.286   3.325   5.182
 5013SOL     OW15937   5.226   1.632   6.738
 5013SOL    HW115938   5.157   1.645   6.808
 5013SOL    HW215939   5.292   1.563   6.767
 5014SOL     OW15940   5.588   4.687   1.064
 5014SOL    HW115941   5.637   4.680   1.151
 5014SOL    HW215942   5.584   4.783   1.036
 5015SOL     OW15943   5.146   1.813   5.022
 5015SOL    HW115944   5.162   1.804   4.924
 5015SOL    HW215945   5.057   1.857   5.037
 5016SOL     OW15946   2.151   2.836   5.714
 5016SOL    HW115947   2.232   2.893   5.699
 5016SOL    HW215948   2.098   2.874   5.790
 5017SOL     OW15949   2.428   2.202   1.221
 5017SOL    HW115950   2.389   2.180   1.131
 5017SOL    HW215951   2.512   2.148   1.234
 5018SOL     OW15952   1.396   4.670   2.921
 5018SOL    HW115953   1.359   4.607   2.852
 5018SOL    HW215954   1.327   4.688   2.990
 5019SOL     OW15955   0.890   5.390   5.839
 5019SOL    HW115956   0.886   5.408   5.741
 5019SOL    HW215957   0.865   5.295   5.857
 5020SOL     OW15958   5.214   0.050   6.557
 5020SOL    HW115959   5.219   0.147   6.580
 5020SOL    HW215960   5.230   7.012   6.639
 5021SOL     OW15961   0.577   1.547   6.873
 5021SOL    HW115962   0.603   1.612   6.802
 5021SOL    HW215963   0.477   1.540   6.876
 5022SOL     OW15964   2.039   1.480   1.229
 5022SOL    HW115965   1.982   1.406   1.264
 5022SOL    HW215966   2.076   1.455   1.140
 5023SOL     OW15967   0.018   3.240   1.524
 5023SOL    HW115968   0.116   3.262   1.521
 5023SOL    HW215969   6.981   3.325   1.529
 5024SOL     OW15970   5.918   5.228   1.673
 5024SOL    HW115971   5.943   5.211   1.578
 5024SOL    HW215972   5.833   5.180   1.694
 5025SOL     OW15973   4.119   1.827   3.334
 5025SOL    HW115974   4.112   1.832   3.433
 5025SOL    HW215975   4.215   1.839   3.306
 5026SOL     OW15976   6.261   6.215   5.238
 5026SOL    HW115977   6.190   6.155   5.201
 5026SOL    HW215978   6.224   6.269   5.313
 5027SOL     OW15979   6.847   6.384   1.718
 5027SOL    HW115980   6.835   6.417   1.624
 5027SOL    HW215981   6.943   6.363   1.735
 5028SOL     OW15982   0.337   2.559   2.336
 5028SOL    HW115983   0.237   2.567   2.333
 5028SOL    HW215984   0.373   2.622   2.404
 5029SOL     OW15985   6.429   2.214   2.293
 5029SOL    HW115986   6.525   2.227   2.269
 5029SOL    HW215987   6.401   2.121   2.270
 5030SOL     OW15988   0.212   6.079   6.643
 5030SOL    HW115989   0.215   6.178   6.658
 5030SOL    HW215990   0.117   6.050   6.627
 5031SOL     OW15991   6.288   0.888   6.278
 5031SOL    HW115992   6.235   0.970   6.255
 5031SOL    HW215993   6.385   0.911   6.280
 5032SOL     OW15994   2.083   2.620   6.510
 5032SOL    HW115995   2.152   2.590   6.445
 5032SOL    HW215996   2.125   2.677   6.580
 5033SOL     OW15997   2.324   6.856   5.520
 5033SOL    HW115998   2.235   6.826   5.484
 5033SOL    HW215999   2.355   6.792   5.589
 5034SOL     OW16000   6.001   0.052   3.635
 5034SOL    HW116001   5.926   0.027   3.574
 5034SOL    HW216002   5.978   0.025   3.729
 5035SOL     OW16003   0.422   3.903   6.018
 5035SOL    HW116004   0.474   3.844   5.956
 5035SOL    HW216005   0.334   3.860   6.039
 5036SOL     OW16006   0.677   4.741   6.884
 5036SOL    HW116007   0.640   4.673   6.821
 5036SOL    HW216008   0.628   4.828   6.871
 5037SOL     OW16009   5.591   4.038   1.779
 5037SOL    HW116010   5.542   4.119   1.746
 5037SOL    HW216011   5.668   4.018   1.719
 5038SOL     OW16012   3.742   3.525   5.699
 5038SOL    HW116013   3.806   3.512   5.775
 5038SOL    HW216014   3.653   3.550   5.735
 5039SOL     OW16015   2.600   4.429   6.147
 5039SOL    HW116016   2.519   4.373   6.133
 5039SOL    HW216017   2.592   4.479   6.233
 5040SOL     OW16018   1.639   6.543   5.685
 5040SOL    HW116019   1.558   6.530   5.627
 5040SOL    HW216020   1.652   6.462   5.742
 5041SOL     OW16021   1.771   1.725   2.670
 5041SOL    HW116022   1.732   1.669   2.743
 5041SOL    HW216023   1.732   1.697   2.583
 5042SOL     OW16024   6.205   2.973   0.068
 5042SOL    HW116025   6.284   2.944   0.122
 5042SOL    HW216026   6.138   3.018   0.128
 5043SOL     OW16027   3.431   7.004   6.218
 5043SOL    HW116028   3.378   0.045   6.281
 5043SOL    HW216029   3.523   6.989   6.256
 5044SOL     OW16030   0.830   6.458   0.092
 5044SOL    HW116031   0.928   6.447   0.105
 5044SOL    HW216032   0.797   6.393   0.024
 5045SOL     OW16033   5.552   0.093   6.298
 5045SOL    HW116034   5.565   7.011   6.313
 5045SOL    HW216035   5.595   0.144   6.373
 5046SOL     OW16036   3.463   4.163   2.805
 5046SOL    HW116037   3.513   4.248   2.820
 5046SOL    HW216038   3.443   4.120   2.893
 5047SOL     OW16039   0.691   4.088   2.919
 5047SOL    HW116040   0.788   4.110   2.918
 5047SOL    HW216041   0.651   4.119   3.006
 5048SOL     OW16042   1.011   1.189   2.966
 5048SOL    HW116043   0.998   1.249   3.045
 5048SOL    HW216044   0.928   1.133   2.952
 5049SOL     OW16045   5.237   1.854   6.255
 5049SOL    HW116046   5.258   1.804   6.171
 5049SOL    HW216047   5.252   1.795   6.334
 5050SOL     OW16048   2.254   0.825   1.534
 5050SOL    HW116049   2.239   0.886   1.612
 5050SOL    HW216050   2.351   0.802   1.528
 5051SOL     OW16051   4.138   4.443   0.987
 5051SOL    HW116052   4.130   4.345   0.971
 5051SOL    HW216053   4.141   4.461   1.085
 5052SOL     OW16054   2.616   0.906   6.058
 5052SOL    HW116055   2.632   0.915   6.156
 5052SOL    HW216056   2.546   0.971   6.029
 5053SOL     OW16057   2.121   3.817   3.891
 5053SOL    HW116058   2.100   3.892   3.954
 5053SOL    HW216059   2.054   3.816   3.817
 5054SOL     OW16060   3.413   4.942   4.714
 5054SOL    HW116061   3.429   5.037   4.688
 5054SOL    HW216062   3.492   4.886   4.687
 5055SOL     OW16063   2.014   2.366   5.534
 5055SOL    HW116064   1.962   2.304   5.474
 5055SOL    HW216065   1.989   2.461   5.513
 5056SOL     OW16066   5.642   4.350   6.660
 5056SOL    HW116067   5.591   4.404   6.592
 5056SOL    HW216068   5.603   4.258   6.666
 5057SOL     OW16069   6.505   5.960   3.722
 5057SOL    HW116070   6.500   5.961   3.822
 5057SOL    HW216071   6.452   6.036   3.685
 5058SOL     OW16072   3.323   3.963   5.532
 5058SOL    HW116073   3.269   3.988   5.451
 5058SOL    HW216074   3.382   3.885   5.509
 5059SOL     OW16075   6.524   1.041   3.181
 5059SOL    HW116076   6.530   1.139   3.165
 5059SOL    HW216077   6.461   0.999   3.116
 5060SOL     OW16078   0.798   2.331   5.638
 5060SOL    HW116079   0.772   2.276   5.559
 5060SOL    HW216080   0.896   2.322   5.654
 5061SOL     OW16081   4.377   2.769   1.599
 5061SOL    HW116082   4.285   2.804   1.616
 5061SOL    HW216083   4.395   2.691   1.659
 5062SOL     OW16084   5.987   0.769   3.154
 5062SOL    HW116085   5.980   0.680   3.109
 5062SOL    HW216086   5.960   0.841   3.090
 5063SOL     OW16087   0.669   6.684   1.886
 5063SOL    HW116088   0.731   6.759   1.910
 5063SOL    HW216089   0.588   6.687   1.945
 5064SOL     OW16090   5.034   3.609   1.646
 5064SOL    HW116091   5.079   3.613   1.557
 5064SOL    HW216092   5.065   3.528   1.696
 5065SOL     OW16093   2.108   0.705   3.396
 5065SOL    HW116094   2.188   0.696   3.336
 5065SOL    HW216095   2.098   0.801   3.423
 5066SOL     OW16096   4.757   4.958   2.420
 5066SOL    HW116097   4.743   5.057   2.430
 5066SOL    HW216098   4.685   4.909   2.470
 5067SOL     OW16099   5.016   1.295   2.067
 5067SOL    HW116100   5.064   1.381   2.049
 5067SOL    HW216101   5.021   1.236   1.987
 5068SOL     OW16102   3.617   4.505   1.155
 5068SOL    HW116103   3.549   4.442   1.117
 5068SOL    HW216104   3.652   4.565   1.082
 5069SOL     OW16105   2.135   3.959   5.894
 5069SOL    HW116106   2.160   3.893   5.965
 5069SOL    HW216107   2.173   3.929   5.806
 5070SOL     OW16108   5.044   4.221   4.388
 5070SOL    HW116109   4.992   4.290   4.438
 5070SOL    HW216110   5.010   4.130   4.410
 5071SOL     OW16111   4.178   2.240   3.649
 5071SOL    HW116112   4.236   2.319   3.671
 5071SOL    HW216113   4.226   2.182   3.583
 5072SOL     OW16114   1.245   0.203   1.101
 5072SOL    HW116115   1.208   0.278   1.047
 5072SOL    HW216116   1.174   0.169   1.163
 5073SOL     OW16117   0.116   5.701   2.204
 5073SOL    HW116118   0.138   5.746   2.291
 5073SOL    HW216119   0.194   5.644   2.176
 5074SOL     OW16120   3.291   3.029   0.991
 5074SOL    HW116121   3.248   3.056   1.077
 5074SOL    HW216122   3.328   2.936   0.999
 5075SOL     OW16123   1.174   2.343   6.848
 5075SOL    HW116124   1.208   2.357   6.941
 5075SOL    HW216125   1.095   2.281   6.851
 5076SOL     OW16126   3.682   1.400   0.993
 5076SOL    HW116127   3.678   1.301   0.997
 5076SOL    HW216128   3.777   1.430   1.008
 5077SOL     OW16129   1.014   4.263   5.369
 5077SOL    HW116130   1.040   4.219   5.454
 5077SOL    HW216131   1.077   4.338   5.349
 5078SOL     OW16132   2.228   1.491   3.655
 5078SOL    HW116133   2.264   1.436   3.730
 5078SOL    HW216134   2.128   1.496   3.663
 5079SOL     OW16135   2.699   3.444   5.919
 5079SOL    HW116136   2.696   3.405   5.827
 5079SOL    HW216137   2.724   3.541   5.913
 5080SOL     OW16138   6.229   6.328   6.010
 5080SOL    HW116139   6.291   6.370   6.077
 5080SOL    HW216140   6.181   6.400   5.960
 5081SOL     OW16141   3.501   2.954   4.525
 5081SOL    HW116142   3.415   2.936   4.573
 5081SOL    HW216143   3.578   2.946   4.590
 5082SOL     OW16144   4.776   5.863   6.729
 5082SOL    HW116145   4.793   5.946   6.782
 5082SOL    HW216146   4.856   5.802   6.736
 5083SOL     OW16147   2.446   6.905   3.090
 5083SOL    HW116148   2.529   6.952   3.119
 5083SOL    HW216149   2.471   6.821   3.042
 5084SOL     OW16150   0.274   4.812   4.161
 5084SOL    HW116151   0.228   4.727   4.185
 5084SOL    HW216152   0.207   4.880   4.133
 5085SOL     OW16153   4.840   3.603   6.474
 5085SOL    HW116154   4.750   3.627   6.437
 5085SOL    HW216155   4.911   3.627   6.409
 5086SOL     OW16156   0.134   5.167   3.283
 5086SOL    HW116157   0.116   5.160   3.381
 5086SOL    HW216158   0.088   5.247   3.246
 5087SOL     OW16159   0.541   5.042   2.526
 5087SOL    HW116160   0.495   4.992   2.599
 5087SOL    HW216161   0.632   5.004   2.512
 5088SOL     OW16162   6.523   1.285   5.152
 5088SOL    HW116163   6.521   1.373   5.105
 5088SOL    HW216164   6.510   1.212   5.085
 5089SOL     OW16165   5.163   3.052   3.854
 5089SOL    HW116166   5.235   3.080   3.918
 5089SOL    HW216167   5.074   3.071   3.894
 5090SOL     OW16168   1.662   3.930   2.854
 5090SOL    HW116169   1.667   3.973   2.763
 5090SOL    HW216170   1.730   3.857   2.860
 5091SOL     OW16171   0.717   6.903   2.085
 5091SOL    HW116172   0.647   6.891   2.156
 5091SOL    HW216173   0.807   6.912   2.128
 5092SOL     OW16174   3.588   2.946   1.409
 5092SOL    HW116175   3.687   2.935   1.404
 5092SOL    HW216176   3.564   3.042   1.394
 5093SOL     OW16177   2.420   1.625   1.117
 5093SOL    HW116178   2.438   1.534   1.080
 5093SOL    HW216179   2.371   1.617   1.203
 5094SOL     OW16180   1.823   5.863   5.355
 5094SOL    HW116181   1.743   5.922   5.356
 5094SOL    HW216182   1.906   5.918   5.361
 5095SOL     OW16183   0.088   2.854   4.567
 5095SOL    HW116184   0.072   2.882   4.662
 5095SOL    HW216185   0.002   2.854   4.516
 5096SOL     OW16186   4.479   3.968   0.844
 5096SOL    HW116187   4.509   3.926   0.758
 5096SOL    HW216188   4.559   4.000   0.895
 5097SOL     OW16189   1.072   0.714   6.840
 5097SOL    HW116190   1.064   0.694   6.743
 5097SOL    HW216191   1.008   0.787   6.865
 5098SOL     OW16192   1.470   0.929   1.467
 5098SOL    HW116193   1.449   0.891   1.557
 5098SOL    HW216194   1.458   1.029   1.469
 5099SOL     OW16195   0.699   6.243   6.972
 5099SOL    HW116196   0.704   6.258   6.874
 5099SOL    HW216197   0.750   6.161   6.997
 5100SOL     OW16198   4.113   5.826   5.312
 5100SOL    HW116199   4.129   5.908   5.258
 5100SOL    HW216200   4.048   5.846   5.385
 5101SOL     OW16201   4.485   6.730   0.442
 5101SOL    HW116202   4.433   6.808   0.408
 5101SOL    HW216203   4.451   6.703   0.532
 5102SOL     OW16204   6.071   1.046   4.701
 5102SOL    HW116205   6.022   0.983   4.640
 5102SOL    HW216206   6.075   1.007   4.793
 5103SOL     OW16207   0.600   1.208   4.305
 5103SOL    HW116208   0.619   1.188   4.209
 5103SOL    HW216209   0.614   1.125   4.360
 5104SOL     OW16210   1.970   6.585   2.620
 5104SOL    HW116211   1.884   6.545   2.587
 5104SOL    HW216212   1.951   6.665   2.676
 5105SOL     OW16213   3.413   2.549   0.236
 5105SOL    HW116214   3.346   2.517   0.168
 5105SOL    HW216215   3.409   2.489   0.316
 5106SOL     OW16216   3.280   0.925   0.887
 5106SOL    HW116217   3.227   0.948   0.805
 5106SOL    HW216218   3.249   0.981   0.964
 5107SOL     OW16219   3.929   0.928   0.464
 5107SOL    HW116220   3.889   0.858   0.404
 5107SOL    HW216221   3.993   0.884   0.528
 5108SOL     OW16222   2.904   3.581   4.276
 5108SOL    HW116223   2.929   3.671   4.241
 5108SOL    HW216224   2.896   3.585   4.375
 5109SOL     OW16225   1.326   1.256   0.915
 5109SOL    HW116226   1.391   1.234   0.988
 5109SOL    HW216227   1.265   1.330   0.945
 5110SOL     OW16228   0.385   0.482   6.354
 5110SOL    HW116229   0.319   0.513   6.286
 5110SOL    HW216230   0.381   0.382   6.361
 5111SOL     OW16231   2.309   1.081   5.629
 5111SOL    HW116232   2.394   1.131   5.643
 5111SOL    HW216233   2.326   0.998   5.576
 5112SOL     OW16234   0.286   6.854   2.414
 5112SOL    HW116235   0.264   6.841   2.511
 5112SOL    HW216236   0.210   6.821   2.358
 5113SOL     OW16237   2.425   0.075   1.980
 5113SOL    HW116238   2.368   0.003   1.940
 5113SOL    HW216239   2.521   0.047   1.979
 5114SOL     OW16240   3.007   2.334   0.271
 5114SOL    HW116241   2.923   2.280   0.274
 5114SOL    HW216242   3.072   2.290   0.209
 5115SOL     OW16243   1.995   5.109   4.765
 5115SOL    HW116244   1.895   5.119   4.768
 5115SOL    HW216245   2.035   5.156   4.844
 5116SOL     OW16246   5.912   6.526   6.552
 5116SOL    HW116247   5.938   6.429   6.552
 5116SOL    HW216248   5.934   6.566   6.641
 5117SOL     OW16249   2.511   4.881   4.675
 5117SOL    HW116250   2.513   4.782   4.670
 5117SOL    HW216251   2.514   4.919   4.582
 5118SOL     OW16252   4.691   0.242   0.434
 5118SOL    HW116253   4.603   0.214   0.396
 5118SOL    HW216254   4.685   0.338   0.463
 5119SOL     OW16255   5.634   1.136   1.798
 5119SOL    HW116256   5.534   1.135   1.791
 5119SOL    HW216257   5.670   1.046   1.774
 5120SOL     OW16258   4.643   1.367   3.907
 5120SOL    HW116259   4.659   1.347   3.810
 5120SOL    HW216260   4.550   1.399   3.919
 5121SOL     OW16261   1.937   2.651   0.454
 5121SOL    HW116262   2.030   2.647   0.418
 5121SOL    HW216263   1.918   2.567   0.505
 5122SOL     OW16264   2.819   0.312   3.879
 5122SOL    HW116265   2.868   0.397   3.859
 5122SOL    HW216266   2.833   0.247   3.804
 5123SOL     OW16267   5.963   2.071   5.275
 5123SOL    HW116268   5.939   2.070   5.372
 5123SOL    HW216269   6.024   1.995   5.254
 5124SOL     OW16270   3.082   5.280   4.950
 5124SOL    HW116271   3.087   5.380   4.950
 5124SOL    HW216272   3.023   5.250   4.876
 5125SOL     OW16273   6.039   2.901   3.965
 5125SOL    HW116274   6.090   2.846   3.899
 5125SOL    HW216275   5.982   2.840   4.021
 5126SOL     OW16276   6.298   5.169   5.929
 5126SOL    HW116277   6.318   5.091   5.870
 5126SOL    HW216278   6.381   5.223   5.943
 5127SOL     OW16279   6.750   4.099   0.390
 5127SOL    HW116280   6.771   4.092   0.487
 5127SOL    HW216281   6.708   4.188   0.371
 5128SOL     OW16282   0.244   6.972   6.383
 5128SOL    HW116283   0.272   6.886   6.426
 5128SOL    HW216284   0.145   6.973   6.372
 5129SOL     OW16285   4.683   0.075   2.861
 5129SOL    HW116286   4.677   7.009   2.804
 5129SOL    HW216287   4.613   0.141   2.831
 5130SOL     OW16288   1.404   5.885   4.348
 5130SOL    HW116289   1.340   5.846   4.282
 5130SOL    HW216290   1.484   5.825   4.355
 5131SOL     OW16291   3.069   4.826   3.815
 5131SOL    HW116292   2.983   4.873   3.794
 5131SOL    HW216293   3.067   4.734   3.778
 5132SOL     OW16294   3.384   1.252   6.106
 5132SOL    HW116295   3.451   1.291   6.169
 5132SOL    HW216296   3.304   1.311   6.102
 5133SOL     OW16297   2.336   5.250   6.447
 5133SOL    HW116298   2.390   5.242   6.363
 5133SOL    HW216299   2.241   5.225   6.429
 5134SOL     OW16300   6.575   0.613   2.314
 5134SOL    HW116301   6.518   0.556   2.255
 5134SOL    HW216302   6.579   0.573   2.406
 5135SOL     OW16303   5.274   3.356   3.982
 5135SOL    HW116304   5.236   3.337   4.073
 5135SOL    HW216305   5.205   3.338   3.913
 5136SOL     OW16306   5.413   0.872   5.983
 5136SOL    HW116307   5.334   0.816   5.959
 5136SOL    HW216308   5.383   0.965   6.003
 5137SOL     OW16309   5.285   3.462   4.930
 5137SOL    HW116310   5.285   3.389   4.998
 5137SOL    HW216311   5.222   3.535   4.959
 5138SOL     OW16312   3.269   4.103   4.307
 5138SOL    HW116313   3.282   4.009   4.276
 5138SOL    HW216314   3.177   4.135   4.283
 5139SOL     OW16315   0.803   0.112   4.392
 5139SOL    HW116316   0.746   0.123   4.473
 5139SOL    HW216317   0.865   0.190   4.383
 5140SOL     OW16318   3.685   2.003   5.682
 5140SOL    HW116319   3.770   1.959   5.711
 5140SOL    HW216320   3.681   2.007   5.582
 5141SOL     OW16321   6.739   3.655   1.256
 5141SOL    HW116322   6.665   3.588   1.254
 5141SOL    HW216323   6.802   3.639   1.179
 5142SOL     OW16324   5.477   7.011   4.765
 5142SOL    HW116325   5.390   0.034   4.794
 5142SOL    HW216326   5.525   6.975   4.845
 5143SOL     OW16327   0.622   4.268   4.613
 5143SOL    HW116328   0.721   4.260   4.611
 5143SOL    HW216329   0.590   4.270   4.708
 5144SOL     OW16330   2.092   4.457   6.284
 5144SOL    HW116331   2.121   4.448   6.189
 5144SOL    HW216332   2.100   4.369   6.330
 5145SOL     OW16333   4.232   5.858   5.844
 5145SOL    HW116334   4.134   5.836   5.849
 5145SOL    HW216335   4.244   5.957   5.853
 5146SOL     OW16336   3.550   4.122   5.163
 5146SOL    HW116337   3.606   4.043   5.185
 5146SOL    HW216338   3.553   4.139   5.065
 5147SOL     OW16339   6.047   5.175   3.821
 5147SOL    HW116340   5.983   5.125   3.880
 5147SOL    HW216341   6.083   5.112   3.753
 5148SOL     OW16342   0.382   1.354   2.140
 5148SOL    HW116343   0.354   1.418   2.212
 5148SOL    HW216344   0.300   1.322   2.092
 5149SOL     OW16345   5.996   5.423   4.816
 5149SOL    HW116346   5.931   5.377   4.755
 5149SOL    HW216347   6.087   5.383   4.804
 5150SOL     OW16348   1.783   4.266   3.965
 5150SOL    HW116349   1.781   4.360   3.931
 5150SOL    HW216350   1.784   4.267   4.065
 5151SOL     OW16351   6.768   4.497   2.197
 5151SOL    HW116352   6.797   4.592   2.197
 5151SOL    HW216353   6.723   4.476   2.110
 5152SOL     OW16354   2.378   5.339   6.948
 5152SOL    HW116355   2.380   5.414   6.883
 5152SOL    HW216356   2.370   5.252   6.899
 5153SOL     OW16357   0.457   2.171   0.611
 5153SOL    HW116358   0.427   2.078   0.631
 5153SOL    HW216359   0.386   2.218   0.557
 5154SOL     OW16360   1.242   2.894   5.496
 5154SOL    HW116361   1.324   2.878   5.550
 5154SOL    HW216362   1.190   2.970   5.536
 5155SOL     OW16363   3.836   0.452   2.017
 5155SOL    HW116364   3.752   0.483   2.063
 5155SOL    HW216365   3.874   0.373   2.066
 5156SOL     OW16366   5.793   4.721   5.421
 5156SOL    HW116367   5.871   4.692   5.365
 5156SOL    HW216368   5.826   4.761   5.506
 5157SOL     OW16369   3.160   2.135   2.393
 5157SOL    HW116370   3.198   2.055   2.346
 5157SOL    HW216371   3.078   2.166   2.346
 5158SOL     OW16372   4.384   2.488   0.817
 5158SOL    HW116373   4.381   2.564   0.882
 5158SOL    HW216374   4.299   2.435   0.823
 5159SOL     OW16375   5.992   3.094   5.738
 5159SOL    HW116376   6.060   3.053   5.797
 5159SOL    HW216377   5.900   3.071   5.771
 5160SOL     OW16378   6.757   4.889   3.230
 5160SOL    HW116379   6.776   4.812   3.168
 5160SOL    HW216380   6.750   4.973   3.177
 5161SOL     OW16381   1.258   3.837   0.164
 5161SOL    HW116382   1.240   3.935   0.168
 5161SOL    HW216383   1.311   3.810   0.245
 5162SOL     OW16384   0.984   5.374   2.694
 5162SOL    HW116385   0.946   5.300   2.639
 5162SOL    HW216386   1.078   5.393   2.666
 5163SOL     OW16387   3.815   6.203   0.274
 5163SOL    HW116388   3.823   6.293   0.316
 5163SOL    HW216389   3.733   6.201   0.216
 5164SOL     OW16390   3.096   2.975   0.165
 5164SOL    HW116391   3.174   2.934   0.212
 5164SOL    HW216392   3.054   3.044   0.224
 5165SOL     OW16393   0.287   4.084   5.773
 5165SOL    HW116394   0.329   4.026   5.844
 5165SOL    HW216395   0.277   4.031   5.689
 5166SOL     OW16396   2.483   4.970   2.824
 5166SOL    HW116397   2.489   5.062   2.785
 5166SOL    HW216398   2.411   4.969   2.894
 5167SOL     OW16399   6.341   4.401   5.037
 5167SOL    HW116400   6.295   4.467   4.978
 5167SOL    HW216401   6.289   4.389   5.122
 5168SOL     OW16402   5.278   3.308   3.114
 5168SOL    HW116403   5.239   3.397   3.136
 5168SOL    HW216404   5.239   3.275   3.028
 5169SOL     OW16405   4.238   2.344   3.387
 5169SOL    HW116406   4.167   2.367   3.454
 5169SOL    HW216407   4.199   2.288   3.314
 5170SOL     OW16408   1.377   3.640   5.224
 5170SOL    HW116409   1.397   3.564   5.286
 5170SOL    HW216410   1.461   3.668   5.177
 5171SOL     OW16411   6.763   4.362   5.767
 5171SOL    HW116412   6.786   4.267   5.789
 5171SOL    HW216413   6.845   4.419   5.775
 5172SOL     OW16414   1.504   4.097   2.979
 5172SOL    HW116415   1.568   4.040   2.926
 5172SOL    HW216416   1.428   4.040   3.010
 5173SOL     OW16417   4.618   5.591   5.172
 5173SOL    HW116418   4.522   5.610   5.192
 5173SOL    HW216419   4.666   5.569   5.256
 5174SOL     OW16420   2.366   4.995   3.700
 5174SOL    HW116421   2.436   4.983   3.629
 5174SOL    HW216422   2.400   4.960   3.787
 5175SOL     OW16423   2.252   3.813   6.913
 5175SOL    HW116424   2.172   3.851   6.867
 5175SOL    HW216425   2.293   3.883   6.972
 5176SOL     OW16426   4.784   4.354   6.077
 5176SOL    HW116427   4.750   4.361   5.984
 5176SOL    HW216428   4.881   4.329   6.075
 5177SOL     OW16429   5.166   6.841   1.037
 5177SOL    HW116430   5.101   6.775   0.999
 5177SOL    HW216431   5.252   6.837   0.986
 5178SOL     OW16432   1.306   4.599   1.950
 5178SOL    HW116433   1.241   4.607   2.025
 5178SOL    HW216434   1.383   4.660   1.965
 5179SOL     OW16435   4.969   4.635   4.236
 5179SOL    HW116436   4.881   4.634   4.189
 5179SOL    HW216437   5.006   4.728   4.235
 5180SOL     OW16438   3.514   0.993   1.634
 5180SOL    HW116439   3.510   0.925   1.561
 5180SOL    HW216440   3.575   1.068   1.607
 5181SOL     OW16441   6.197   0.617   1.963
 5181SOL    HW116442   6.157   0.640   2.052
 5181SOL    HW216443   6.152   0.535   1.926
 5182SOL     OW16444   4.452   4.609   2.298
 5182SOL    HW116445   4.527   4.649   2.245
 5182SOL    HW216446   4.365   4.647   2.267
 5183SOL     OW16447   3.766   1.803   2.966
 5183SOL    HW116448   3.701   1.877   2.981
 5183SOL    HW216449   3.847   1.817   3.024
 5184SOL     OW16450   2.137   2.069   3.545
 5184SOL    HW116451   2.073   2.040   3.616
 5184SOL    HW216452   2.205   1.997   3.530
 5185SOL     OW16453   4.911   0.864   3.075
 5185SOL    HW116454   4.958   0.890   3.160
 5185SOL    HW216455   4.866   0.776   3.088
 5186SOL     OW16456   5.931   2.431   6.371
 5186SOL    HW116457   6.012   2.489   6.365
 5186SOL    HW216458   5.852   2.486   6.398
 5187SOL     OW16459   1.184   5.811   5.498
 5187SOL    HW116460   1.187   5.861   5.412
 5187SOL    HW216461   1.203   5.874   5.574
 5188SOL     OW16462   6.248   6.038   1.589
 5188SOL    HW116463   6.181   6.100   1.548
 5188SOL    HW216464   6.226   6.024   1.686
 5189SOL     OW16465   4.735   6.212   0.213
 5189SOL    HW116466   4.676   6.256   0.147
 5189SOL    HW216467   4.688   6.205   0.301
 5190SOL     OW16468   0.691   3.602   3.702
 5190SOL    HW116469   0.654   3.692   3.675
 5190SOL    HW216470   0.782   3.591   3.664
 5191SOL     OW16471   3.163   6.238   2.088
 5191SOL    HW116472   3.234   6.308   2.078
 5191SOL    HW216473   3.171   6.195   2.178
 5192SOL     OW16474   1.679   6.140   1.215
 5192SOL    HW116475   1.676   6.137   1.115
 5192SOL    HW216476   1.749   6.206   1.244
 5193SOL     OW16477   5.115   5.982   5.589
 5193SOL    HW116478   5.105   6.032   5.503
 5193SOL    HW216479   5.042   5.914   5.596
 5194SOL     OW16480   3.712   2.652   6.556
 5194SOL    HW116481   3.793   2.597   6.577
 5194SOL    HW216482   3.699   2.721   6.627
 5195SOL     OW16483   0.379   0.453   4.215
 5195SOL    HW116484   0.311   0.448   4.288
 5195SOL    HW216485   0.395   0.549   4.191
 5196SOL     OW16486   5.086   6.870   2.404
 5196SOL    HW116487   5.084   6.958   2.356
 5196SOL    HW216488   4.993   6.841   2.425
 5197SOL     OW16489   2.052   3.952   6.801
 5197SOL    HW116490   1.964   3.941   6.755
 5197SOL    HW216491   2.044   4.022   6.872
 5198SOL     OW16492   4.860   5.906   2.947
 5198SOL    HW116493   4.773   5.943   2.914
 5198SOL    HW216494   4.851   5.880   3.043
 5199SOL     OW16495   0.984   6.124   0.771
 5199SOL    HW116496   0.997   6.223   0.761
 5199SOL    HW216497   1.001   6.098   0.866
 5200SOL     OW16498   6.785   3.802   4.893
 5200SOL    HW116499   6.752   3.789   4.799
 5200SOL    HW216500   6.779   3.899   4.917
 5201SOL     OW16501   0.756   6.451   2.941
 5201SOL    HW116502   0.759   6.534   2.885
 5201SOL    HW216503   0.804   6.377   2.894
 5202SOL     OW16504   4.760   2.686   6.487
 5202SOL    HW116505   4.791   2.757   6.424
 5202SOL    HW216506   4.829   2.672   6.558
 5203SOL     OW16507   2.192   1.787   6.470
 5203SOL    HW116508   2.168   1.882   6.489
 5203SOL    HW216509   2.149   1.758   6.385
 5204SOL     OW16510   3.484   5.042   0.341
 5204SOL    HW116511   3.401   4.997   0.309
 5204SOL    HW216512   3.462   5.103   0.418
 5205SOL     OW16513   1.280   6.538   0.397
 5205SOL    HW116514   1.295   6.630   0.362
 5205SOL    HW216515   1.203   6.539   0.461
 5206SOL     OW16516   0.555   4.695   4.719
 5206SOL    HW116517   0.538   4.615   4.662
 5206SOL    HW216518   0.549   4.778   4.662
 5207SOL     OW16519   1.103   6.005   3.637
 5207SOL    HW116520   1.125   6.030   3.542
 5207SOL    HW216521   1.051   6.079   3.680
 5208SOL     OW16522   3.611   1.992   6.502
 5208SOL    HW116523   3.669   2.026   6.576
 5208SOL    HW216524   3.659   2.004   6.414
 5209SOL     OW16525   5.646   5.842   3.356
 5209SOL    HW116526   5.721   5.785   3.323
 5209SOL    HW216527   5.614   5.901   3.282
 5210SOL     OW16528   5.438   2.452   5.683
 5210SOL    HW116529   5.500   2.500   5.620
 5210SOL    HW216530   5.343   2.477   5.661
 5211SOL     OW16531   3.756   3.296   4.960
 5211SOL    HW116532   3.825   3.365   4.983
 5211SOL    HW216533   3.754   3.226   5.032
 5212SOL     OW16534   6.277   1.455   0.509
 5212SOL    HW116535   6.235   1.462   0.600
 5212SOL    HW216536   6.205   1.445   0.440
 5213SOL     OW16537   4.681   4.075   6.753
 5213SOL    HW116538   4.716   4.149   6.811
 5213SOL    HW216539   4.750   4.002   6.748
 5214SOL     OW16540   4.923   1.598   6.155
 5214SOL    HW116541   4.858   1.578   6.082
 5214SOL    HW216542   4.935   1.516   6.212
 5215SOL     OW16543   5.739   4.849   3.486
 5215SOL    HW116544   5.740   4.920   3.556
 5215SOL    HW216545   5.646   4.812   3.477
 5216SOL     OW16546   4.217   5.491   1.701
 5216SOL    HW116547   4.145   5.483   1.771
 5216SOL    HW216548   4.295   5.541   1.739
 5217SOL     OW16549   3.456   5.350   4.317
 5217SOL    HW116550   3.419   5.439   4.345
 5217SOL    HW216551   3.382   5.282   4.316
 5218SOL     OW16552   0.963   1.014   3.237
 5218SOL    HW116553   1.060   1.035   3.223
 5218SOL    HW216554   0.954   0.921   3.272
 5219SOL     OW16555   3.927   0.574   5.665
 5219SOL    HW116556   3.880   0.488   5.684
 5219SOL    HW216557   3.925   0.592   5.567
 5220SOL     OW16558   1.442   6.223   2.541
 5220SOL    HW116559   1.517   6.176   2.493
 5220SOL    HW216560   1.354   6.190   2.506
 5221SOL     OW16561   5.549   1.906   3.820
 5221SOL    HW116562   5.645   1.922   3.796
 5221SOL    HW216563   5.492   1.976   3.777
 5222SOL     OW16564   2.853   6.693   3.439
 5222SOL    HW116565   2.803   6.615   3.478
 5222SOL    HW216566   2.788   6.762   3.407
 5223SOL     OW16567   5.287   0.993   1.149
 5223SOL    HW116568   5.369   0.993   1.092
 5223SOL    HW216569   5.207   1.016   1.093
 5224SOL     OW16570   0.120   2.388   3.924
 5224SOL    HW116571   0.081   2.342   4.005
 5224SOL    HW216572   0.166   2.473   3.953
 5225SOL     OW16573   0.254   7.000   3.327
 5225SOL    HW116574   0.325   0.022   3.386
 5225SOL    HW216575   0.296   6.939   3.259
 5226SOL     OW16576   0.437   5.462   4.782
 5226SOL    HW116577   0.374   5.539   4.770
 5226SOL    HW216578   0.502   5.484   4.855
 5227SOL     OW16579   1.925   4.624   4.022
 5227SOL    HW116580   1.888   4.582   3.940
 5227SOL    HW216581   1.849   4.651   4.082
 5228SOL     OW16582   6.419   2.244   0.990
 5228SOL    HW116583   6.494   2.247   0.924
 5228SOL    HW216584   6.429   2.318   1.056
 5229SOL     OW16585   1.834   4.342   0.214
 5229SOL    HW116586   1.908   4.325   0.149
 5229SOL    HW216587   1.872   4.365   0.303
 5230SOL     OW16588   0.384   6.660   1.097
 5230SOL    HW116589   0.389   6.599   1.176
 5230SOL    HW216590   0.472   6.705   1.083
 5231SOL     OW16591   4.047   3.737   5.041
 5231SOL    HW116592   4.054   3.788   4.956
 5231SOL    HW216593   4.025   3.800   5.116
 5232SOL     OW16594   3.306   1.735   5.818
 5232SOL    HW116595   3.216   1.693   5.811
 5232SOL    HW216596   3.299   1.821   5.869
 5233SOL     OW16597   5.520   0.415   1.666
 5233SOL    HW116598   5.472   0.502   1.677
 5233SOL    HW216599   5.611   0.432   1.628
 5234SOL     OW16600   2.028   0.392   6.955
 5234SOL    HW116601   2.021   0.432   6.864
 5234SOL    HW216602   2.059   0.462   0.004
 5235SOL     OW16603   1.758   3.026   1.267
 5235SOL    HW116604   1.808   3.045   1.351
 5235SOL    HW216605   1.797   3.080   1.192
 5236SOL     OW16606   6.021   3.632   2.287
 5236SOL    HW116607   6.067   3.714   2.321
 5236SOL    HW216608   6.014   3.565   2.361
 5237SOL     OW16609   2.340   0.892   5.442
 5237SOL    HW116610   2.354   0.793   5.441
 5237SOL    HW216611   2.424   0.938   5.415
 5238SOL     OW16612   1.470   4.723   0.501
 5238SOL    HW116613   1.463   4.823   0.506
 5238SOL    HW216614   1.379   4.684   0.489
 5239SOL     OW16615   3.994   3.837   4.361
 5239SOL    HW116616   4.014   3.918   4.417
 5239SOL    HW216617   3.897   3.837   4.336
 5240SOL     OW16618   2.973   1.864   6.450
 5240SOL    HW116619   3.043   1.887   6.382
 5240SOL    HW216620   3.013   1.805   6.520
 5241SOL     OW16621   0.943   5.119   6.170
 5241SOL    HW116622   0.845   5.128   6.187
 5241SOL    HW216623   0.985   5.210   6.169
 5242SOL     OW16624   0.392   6.362   5.537
 5242SOL    HW116625   0.301   6.390   5.568
 5242SOL    HW216626   0.456   6.437   5.549
 5243SOL     OW16627   1.265   5.741   1.969
 5243SOL    HW116628   1.243   5.837   1.950
 5243SOL    HW216629   1.334   5.709   1.904
 5244SOL     OW16630   3.322   4.044   5.964
 5244SOL    HW116631   3.279   3.955   5.976
 5244SOL    HW216632   3.267   4.114   6.010
 5245SOL     OW16633   4.868   4.447   0.088
 5245SOL    HW116634   4.890   4.431   7.008
 5245SOL    HW216635   4.862   4.546   0.106
 5246SOL     OW16636   5.685   4.655   2.477
 5246SOL    HW116637   5.628   4.574   2.468
 5246SOL    HW216638   5.776   4.636   2.439
 5247SOL     OW16639   1.331   6.451   0.770
 5247SOL    HW116640   1.273   6.511   0.825
 5247SOL    HW216641   1.398   6.505   0.719
 5248SOL     OW16642   6.043   0.117   4.790
 5248SOL    HW116643   6.064   0.044   4.855
 5248SOL    HW216644   6.010   0.077   4.704
 5249SOL     OW16645   0.477   4.896   4.531
 5249SOL    HW116646   0.450   4.840   4.453
 5249SOL    HW216647   0.395   4.933   4.576
 5250SOL     OW16648   0.825   0.870   5.553
 5250SOL    HW116649   0.748   0.811   5.579
 5250SOL    HW216650   0.789   0.949   5.503
 5251SOL     OW16651   0.617   3.207   0.818
 5251SOL    HW116652   0.677   3.210   0.897
 5251SOL    HW216653   0.654   3.142   0.751
 5252SOL     OW16654   1.786   5.825   1.211
 5252SOL    HW116655   1.773   5.924   1.218
 5252SOL    HW216656   1.733   5.780   1.283
 5253SOL     OW16657   5.999   3.865   4.418
 5253SOL    HW116658   6.071   3.862   4.487
 5253SOL    HW216659   5.971   3.960   4.404
 5254SOL     OW16660   5.458   0.800   2.979
 5254SOL    HW116661   5.468   0.727   3.046
 5254SOL    HW216662   5.535   0.862   2.985
 5255SOL     OW16663   4.525   0.047   6.042
 5255SOL    HW116664   4.606   7.009   6.062
 5255SOL    HW216665   4.534   0.089   5.952
 5256SOL     OW16666   4.520   0.385   3.366
 5256SOL    HW116667   4.522   0.479   3.402
 5256SOL    HW216668   4.609   0.341   3.383
 5257SOL     OW16669   4.623   6.936   2.547
 5257SOL    HW116670   4.578   0.009   2.549
 5257SOL    HW216671   4.603   6.886   2.632
 5258SOL     OW16672   5.151   3.154   1.122
 5258SOL    HW116673   5.057   3.126   1.101
 5258SOL    HW216674   5.149   3.236   1.179
 5259SOL     OW16675   4.194   5.965   1.205
 5259SOL    HW116676   4.194   5.865   1.209
 5259SOL    HW216677   4.136   5.996   1.130
 5260SOL     OW16678   5.471   3.717   1.196
 5260SOL    HW116679   5.381   3.729   1.155
 5260SOL    HW216680   5.505   3.625   1.175
 5261SOL     OW16681   1.792   3.259   6.694
 5261SOL    HW116682   1.832   3.277   6.604
 5261SOL    HW216683   1.781   3.160   6.706
 5262SOL     OW16684   2.897   7.013   2.693
 5262SOL    HW116685   2.877   0.095   2.699
 5262SOL    HW216686   2.968   6.998   2.624
 5263SOL     OW16687   1.263   0.842   5.326
 5263SOL    HW116688   1.255   0.922   5.385
 5263SOL    HW216689   1.176   0.793   5.323
 5264SOL     OW16690   6.602   0.756   2.829
 5264SOL    HW116691   6.578   0.770   2.733
 5264SOL    HW216692   6.702   0.750   2.838
 5265SOL     OW16693   4.979   4.632   3.199
 5265SOL    HW116694   4.975   4.721   3.245
 5265SOL    HW216695   5.071   4.593   3.210
 5266SOL     OW16696   2.494   0.358   2.186
 5266SOL    HW116697   2.421   0.369   2.119
 5266SOL    HW216698   2.455   0.364   2.278
 5267SOL     OW16699   4.827   4.900   6.081
 5267SOL    HW116700   4.887   4.980   6.083
 5267SOL    HW216701   4.749   4.919   6.022
 5268SOL     OW16702   6.109   6.515   5.830
 5268SOL    HW116703   6.145   6.564   5.750
 5268SOL    HW216704   6.104   6.578   5.908
 5269SOL     OW16705   1.982   6.983   4.356
 5269SOL    HW116706   1.984   6.883   4.360
 5269SOL    HW216707   1.962   7.011   4.262
 5270SOL     OW16708   5.171   1.601   2.341
 5270SOL    HW116709   5.164   1.696   2.313
 5270SOL    HW216710   5.080   1.561   2.346
 5271SOL     OW16711   4.924   5.125   4.884
 5271SOL    HW116712   4.885   5.053   4.942
 5271SOL    HW216713   4.996   5.086   4.827
 5272SOL     OW16714   1.920   6.091   2.657
 5272SOL    HW116715   1.944   6.131   2.746
 5272SOL    HW216716   1.821   6.092   2.646
 5273SOL     OW16717   0.043   3.279   3.119
 5273SOL    HW116718   6.960   3.291   3.125
 5273SOL    HW216719   0.063   3.190   3.077
 5274SOL     OW16720   6.300   5.721   2.552
 5274SOL    HW116721   6.203   5.704   2.537
 5274SOL    HW216722   6.315   5.754   2.645
 5275SOL     OW16723   3.818   1.656   6.165
 5275SOL    HW116724   3.763   1.573   6.179
 5275SOL    HW216725   3.761   1.727   6.123
 5276SOL     OW16726   1.477   0.245   1.232
 5276SOL    HW116727   1.398   0.215   1.179
 5276SOL    HW216728   1.552   0.268   1.169
 5277SOL     OW16729   1.970   2.871   3.033
 5277SOL    HW116730   1.901   2.834   3.096
 5277SOL    HW216731   2.048   2.905   3.086
 5278SOL     OW16732   5.282   0.074   4.412
 5278SOL    HW116733   5.331   0.118   4.487
 5278SOL    HW216734   5.348   0.043   4.343
 5279SOL     OW16735   1.728   5.152   6.520
 5279SOL    HW116736   1.816   5.123   6.484
 5279SOL    HW216737   1.681   5.075   6.562
 5280SOL     OW16738   3.087   6.207   5.666
 5280SOL    HW116739   3.147   6.286   5.653
 5280SOL    HW216740   3.025   6.225   5.743
 5281SOL     OW16741   0.884   1.773   3.296
 5281SOL    HW116742   0.850   1.835   3.366
 5281SOL    HW216743   0.982   1.786   3.284
 5282SOL     OW16744   1.992   1.051   2.807
 5282SOL    HW116745   1.946   1.102   2.733
 5282SOL    HW216746   1.972   1.095   2.894
 5283SOL     OW16747   2.844   0.465   2.091
 5283SOL    HW116748   2.895   0.435   2.010
 5283SOL    HW216749   2.748   0.442   2.081
 5284SOL     OW16750   5.052   2.954   2.717
 5284SOL    HW116751   4.960   2.956   2.678
 5284SOL    HW216752   5.120   2.950   2.644
 5285SOL     OW16753   1.321   4.425   4.339
 5285SOL    HW116754   1.265   4.474   4.272
 5285SOL    HW216755   1.365   4.347   4.295
 5286SOL     OW16756   0.244   3.974   1.417
 5286SOL    HW116757   0.196   3.886   1.425
 5286SOL    HW216758   0.194   4.044   1.467
 5287SOL     OW16759   1.560   5.928   1.412
 5287SOL    HW116760   1.524   5.998   1.351
 5287SOL    HW216761   1.615   5.971   1.484
 5288SOL     OW16762   4.160   1.035   2.137
 5288SOL    HW116763   4.074   0.986   2.149
 5288SOL    HW216764   4.208   1.039   2.225
 5289SOL     OW16765   1.749   4.931   6.251
 5289SOL    HW116766   1.780   4.929   6.156
 5289SOL    HW216767   1.687   5.009   6.265
 5290SOL     OW16768   1.853   3.954   5.927
 5290SOL    HW116769   1.821   3.874   5.977
 5290SOL    HW216770   1.952   3.946   5.909
 5291SOL     OW16771   2.924   4.770   6.034
 5291SOL    HW116772   2.917   4.737   6.128
 5291SOL    HW216773   2.866   4.851   6.023
 5292SOL     OW16774   6.310   4.766   6.535
 5292SOL    HW116775   6.391   4.824   6.539
 5292SOL    HW216776   6.301   4.728   6.443
 5293SOL     OW16777   1.006   0.300   4.350
 5293SOL    HW116778   1.050   0.367   4.409
 5293SOL    HW216779   1.074   0.233   4.319
 5294SOL     OW16780   6.119   2.822   4.612
 5294SOL    HW116781   6.088   2.800   4.520
 5294SOL    HW216782   6.066   2.770   4.679
 5295SOL     OW16783   4.280   1.139   2.395
 5295SOL    HW116784   4.316   1.231   2.379
 5295SOL    HW216785   4.332   1.095   2.469
 5296SOL     OW16786   3.001   5.133   6.631
 5296SOL    HW116787   3.050   5.189   6.564
 5296SOL    HW216788   2.992   5.184   6.716
 5297SOL     OW16789   2.634   2.562   0.625
 5297SOL    HW116790   2.567   2.511   0.679
 5297SOL    HW216791   2.725   2.551   0.665
 5298SOL     OW16792   0.939   5.701   0.446
 5298SOL    HW116793   1.035   5.693   0.422
 5298SOL    HW216794   0.899   5.610   0.453
 5299SOL     OW16795   2.015   3.016   0.862
 5299SOL    HW116796   2.018   3.053   0.955
 5299SOL    HW216797   2.044   3.086   0.797
 5300SOL     OW16798   0.853   6.345   1.154
 5300SOL    HW116799   0.945   6.309   1.168
 5300SOL    HW216800   0.786   6.286   1.199
 5301SOL     OW16801   3.369   2.532   6.478
 5301SOL    HW116802   3.402   2.586   6.400
 5301SOL    HW216803   3.270   2.540   6.485
 5302SOL     OW16804   5.753   5.491   3.923
 5302SOL    HW116805   5.783   5.453   4.011
 5302SOL    HW216806   5.678   5.556   3.939
 5303SOL     OW16807   6.709   5.569   3.205
 5303SOL    HW116808   6.721   5.513   3.123
 5303SOL    HW216809   6.765   5.652   3.197
 5304SOL     OW16810   5.290   1.046   6.820
 5304SOL    HW116811   5.223   0.985   6.777
 5304SOL    HW216812   5.275   1.047   6.919
 5305SOL     OW16813   0.880   5.363   2.938
 5305SOL    HW116814   0.797   5.309   2.924
 5305SOL    HW216815   0.934   5.364   2.854
 5306SOL     OW16816   0.850   4.112   4.624
 5306SOL    HW116817   0.880   4.074   4.712
 5306SOL    HW216818   0.772   4.059   4.590
 5307SOL     OW16819   4.719   1.773   0.209
 5307SOL    HW116820   4.638   1.778   0.151
 5307SOL    HW216821   4.712   1.839   0.283
 5308SOL     OW16822   0.733   5.784   3.513
 5308SOL    HW116823   0.757   5.842   3.592
 5308SOL    HW216824   0.634   5.787   3.498
 5309SOL     OW16825   4.359   4.456   1.430
 5309SOL    HW116826   4.282   4.468   1.367
 5309SOL    HW216827   4.391   4.546   1.461
 5310SOL     OW16828   6.360   3.796   2.706
 5310SOL    HW116829   6.260   3.805   2.706
 5310SOL    HW216830   6.399   3.867   2.647
 5311SOL     OW16831   6.241   5.614   0.039
 5311SOL    HW116832   6.190   5.622   6.970
 5311SOL    HW216833   6.297   5.532   0.038
 5312SOL     OW16834   0.245   5.254   1.871
 5312SOL    HW116835   0.205   5.262   1.962
 5312SOL    HW216836   0.235   5.160   1.838
 5313SOL     OW16837   1.479   3.896   6.571
 5313SOL    HW116838   1.564   3.869   6.526
 5313SOL    HW216839   1.476   3.857   6.663
 5314SOL     OW16840   3.203   6.572   0.448
 5314SOL    HW116841   3.185   6.474   0.461
 5314SOL    HW216842   3.214   6.615   0.537
 5315SOL     OW16843   4.788   3.193   1.714
 5315SOL    HW116844   4.740   3.156   1.793
 5315SOL    HW216845   4.757   3.286   1.696
 5316SOL     OW16846   0.986   3.942   5.081
 5316SOL    HW116847   0.954   3.848   5.064
 5316SOL    HW216848   0.991   3.991   4.994
 5317SOL     OW16849   6.655   6.621   4.942
 5317SOL    HW116850   6.644   6.538   4.888
 5317SOL    HW216851   6.680   6.697   4.882
 5318SOL     OW16852   0.100   2.451   6.552
 5318SOL    HW116853   0.036   2.516   6.511
 5318SOL    HW216854   0.175   2.501   6.596
 5319SOL     OW16855   3.571   6.666   0.124
 5319SOL    HW116856   3.501   6.737   0.110
 5319SOL    HW216857   3.650   6.685   0.066
 5320SOL     OW16858   6.066   4.971   0.001
 5320SOL    HW116859   6.084   5.026   0.082
 5320SOL    HW216860   6.151   4.929   6.985
 5321SOL     OW16861   1.263   4.653   3.748
 5321SOL    HW116862   1.341   4.658   3.810
 5321SOL    HW216863   1.270   4.570   3.692
 5322SOL     OW16864   4.461   6.188   6.676
 5322SOL    HW116865   4.501   6.270   6.717
 5322SOL    HW216866   4.496   6.177   6.583
 5323SOL     OW16867   3.783   1.989   0.050
 5323SOL    HW116868   3.770   2.073   7.012
 5323SOL    HW216869   3.806   1.913   7.004
 5324SOL     OW16870   4.339   2.197   0.927
 5324SOL    HW116871   4.376   2.258   0.998
 5324SOL    HW216872   4.246   2.171   0.952
 5325SOL     OW16873   4.769   0.862   4.451
 5325SOL    HW116874   4.848   0.916   4.480
 5325SOL    HW216875   4.796   0.766   4.443
 5326SOL     OW16876   0.610   5.125   3.425
 5326SOL    HW116877   0.676   5.200   3.422
 5326SOL    HW216878   0.619   5.069   3.343
 5327SOL     OW16879   5.784   2.927   5.362
 5327SOL    HW116880   5.881   2.929   5.387
 5327SOL    HW216881   5.772   2.878   5.275
 5328SOL     OW16882   4.563   2.685   5.128
 5328SOL    HW116883   4.613   2.763   5.166
 5328SOL    HW216884   4.555   2.697   5.029
 5329SOL     OW16885   6.718   5.035   6.575
 5329SOL    HW116886   6.741   5.132   6.570
 5329SOL    HW216887   6.752   4.988   6.494
 5330SOL     OW16888   3.342   4.145   5.712
 5330SOL    HW116889   3.371   4.110   5.800
 5330SOL    HW216890   3.310   4.070   5.654
 5331SOL     OW16891   5.017   1.115   0.712
 5331SOL    HW116892   5.099   1.172   0.713
 5331SOL    HW216893   4.943   1.163   0.665
 5332SOL     OW16894   0.546   3.628   1.541
 5332SOL    HW116895   0.639   3.646   1.575
 5332SOL    HW216896   0.484   3.698   1.576
 5333SOL     OW16897   1.238   0.820   3.626
 5333SOL    HW116898   1.309   0.842   3.559
 5333SOL    HW216899   1.280   0.789   3.711
 5334SOL     OW16900   4.194   0.217   4.209
 5334SOL    HW116901   4.124   0.282   4.236
 5334SOL    HW216902   4.151   0.131   4.182
 5335SOL     OW16903   5.957   5.596   2.314
 5335SOL    HW116904   5.876   5.609   2.256
 5335SOL    HW216905   5.946   5.513   2.367
 5336SOL     OW16906   2.854   1.819   3.160
 5336SOL    HW116907   2.874   1.755   3.086
 5336SOL    HW216908   2.929   1.819   3.225
 5337SOL     OW16909   5.334   3.916   1.719
 5337SOL    HW116910   5.326   4.003   1.671
 5337SOL    HW216911   5.416   3.918   1.777
 5338SOL     OW16912   5.745   1.108   5.790
 5338SOL    HW116913   5.831   1.073   5.754
 5338SOL    HW216914   5.752   1.118   5.889
 5339SOL     OW16915   6.718   2.257   3.985
 5339SOL    HW116916   6.619   2.253   3.992
 5339SOL    HW216917   6.753   2.325   4.049
 5340SOL     OW16918   5.466   2.404   0.809
 5340SOL    HW116919   5.436   2.462   0.885
 5340SOL    HW216920   5.458   2.308   0.836
 5341SOL     OW16921   3.687   4.443   6.473
 5341SOL    HW116922   3.666   4.408   6.382
 5341SOL    HW216923   3.754   4.383   6.517
 5342SOL     OW16924   3.860   0.126   3.517
 5342SOL    HW116925   3.780   0.068   3.504
 5342SOL    HW216926   3.927   0.109   3.445
 5343SOL     OW16927   3.776   3.455   4.722
 5343SOL    HW116928   3.790   3.385   4.792
 5343SOL    HW216929   3.754   3.411   4.635
 5344SOL     OW16930   2.089   2.105   2.154
 5344SOL    HW116931   2.115   2.164   2.078
 5344SOL    HW216932   2.028   2.155   2.215
 5345SOL     OW16933   3.260   6.630   0.699
 5345SOL    HW116934   3.321   6.709   0.704
 5345SOL    HW216935   3.165   6.662   0.709
 5346SOL     OW16936   3.478   5.875   4.555
 5346SOL    HW116937   3.494   5.950   4.491
 5346SOL    HW216938   3.408   5.901   4.621
 5347SOL     OW16939   6.738   2.697   1.726
 5347SOL    HW116940   6.654   2.649   1.700
 5347SOL    HW216941   6.806   2.685   1.653
 5348SOL     OW16942   6.570   1.986   0.970
 5348SOL    HW116943   6.611   2.025   1.052
 5348SOL    HW216944   6.481   2.030   0.954
 5349SOL     OW16945   1.786   2.719   0.253
 5349SOL    HW116946   1.692   2.691   0.268
 5349SOL    HW216947   1.844   2.685   0.328
 5350SOL     OW16948   1.616   6.816   5.269
 5350SOL    HW116949   1.642   6.753   5.196
 5350SOL    HW216950   1.678   6.804   5.347
 5351SOL     OW16951   6.575   4.893   2.256
 5351SOL    HW116952   6.501   4.960   2.259
 5351SOL    HW216953   6.539   4.803   2.232
 5352SOL     OW16954   2.267   4.976   3.294
 5352SOL    HW116955   2.241   4.889   3.336
 5352SOL    HW216956   2.195   5.044   3.310
 5353SOL     OW16957   3.883   4.936   4.252
 5353SOL    HW116958   3.805   4.926   4.313
 5353SOL    HW216959   3.902   5.033   4.238
 5354SOL     OW16960   2.555   5.159   2.084
 5354SOL    HW116961   2.584   5.086   2.146
 5354SOL    HW216962   2.628   5.226   2.075
 5355SOL     OW16963   0.057   4.289   4.216
 5355SOL    HW116964   0.120   4.260   4.288
 5355SOL    HW216965   6.983   4.305   4.255
 5356SOL     OW16966   5.918   4.562   2.352
 5356SOL    HW116967   5.917   4.464   2.371
 5356SOL    HW216968   5.900   4.578   2.255
 5357SOL     OW16969   3.219   6.048   0.533
 5357SOL    HW116970   3.259   5.986   0.465
 5357SOL    HW216971   3.228   6.009   0.624
 5358SOL     OW16972   4.867   1.334   6.974
 5358SOL    HW116973   4.803   1.259   6.957
 5358SOL    HW216974   4.961   1.300   6.963
 5359SOL     OW16975   1.189   1.261   5.360
 5359SOL    HW116976   1.263   1.328   5.350
 5359SOL    HW216977   1.103   1.302   5.330
 5360SOL     OW16978   4.007   6.294   4.380
 5360SOL    HW116979   4.053   6.370   4.427
 5360SOL    HW216980   4.074   6.243   4.326
 5361SOL     OW16981   2.598   0.903   5.313
 5361SOL    HW116982   2.693   0.890   5.339
 5361SOL    HW216983   2.581   1.000   5.295
 5362SOL     OW16984   6.954   6.274   3.095
 5362SOL    HW116985   6.914   6.211   3.028
 5362SOL    HW216986   0.022   6.314   3.057
 5363SOL     OW16987   6.917   0.414   5.795
 5363SOL    HW116988   6.984   0.391   5.724
 5363SOL    HW216989   6.937   0.504   5.833
 5364SOL     OW16990   6.730   6.513   2.581
 5364SOL    HW116991   6.778   6.590   2.538
 5364SOL    HW216992   6.795   6.457   2.632
 5365SOL     OW16993   3.856   2.698   0.171
 5365SOL    HW116994   3.866   2.798   0.170
 5365SOL    HW216995   3.912   2.660   0.245
 5366SOL     OW16996   5.704   5.916   1.542
 5366SOL    HW116997   5.737   5.984   1.607
 5366SOL    HW216998   5.782   5.869   1.501
 5367SOL     OW16999   0.456   6.723   0.764
 5367SOL    HW117000   0.462   6.626   0.787
 5367SOL    HW217001   0.364   6.744   0.732
 5368SOL     OW17002   5.722   0.601   2.704
 5368SOL    HW117003   5.733   0.633   2.798
 5368SOL    HW217004   5.733   0.501   2.701
 5369SOL     OW17005   2.783   6.648   1.618
 5369SOL    HW117006   2.806   6.550   1.620
 5369SOL    HW217007   2.862   6.700   1.586
 5370SOL     OW17008   4.404   2.533   1.724
 5370SOL    HW117009   4.399   2.484   1.637
 5370SOL    HW217010   4.386   2.468   1.799
 5371SOL     OW17011   0.654   3.719   5.097
 5371SOL    HW117012   0.627   3.708   5.001
 5371SOL    HW217013   0.640   3.813   5.125
 5372SOL     OW17014   1.810   6.108   3.477
 5372SOL    HW117015   1.803   6.130   3.379
 5372SOL    HW217016   1.775   6.015   3.492
 5373SOL     OW17017   3.866   6.825   4.489
 5373SOL    HW117018   3.849   6.741   4.539
 5373SOL    HW217019   3.958   6.822   4.449
 5374SOL     OW17020   1.942   4.339   0.478
 5374SOL    HW117021   1.991   4.252   0.464
 5374SOL    HW217022   1.965   4.376   0.568
 5375SOL     OW17023   0.786   5.431   4.547
 5375SOL    HW117024   0.786   5.347   4.493
 5375SOL    HW217025   0.794   5.510   4.487
 5376SOL     OW17026   1.732   2.974   0.812
 5376SOL    HW117027   1.684   2.918   0.880
 5376SOL    HW217028   1.823   2.998   0.846
 5377SOL     OW17029   6.826   6.736   2.451
 5377SOL    HW117030   6.873   6.801   2.510
 5377SOL    HW217031   6.743   6.778   2.414
 5378SOL     OW17032   0.029   0.575   2.375
 5378SOL    HW117033   6.971   0.600   2.312
 5378SOL    HW217034   0.045   0.650   2.438
 5379SOL     OW17035   1.256   4.621   4.787
 5379SOL    HW117036   1.293   4.600   4.696
 5379SOL    HW217037   1.206   4.707   4.783
 5380SOL     OW17038   2.737   1.402   2.552
 5380SOL    HW117039   2.819   1.345   2.546
 5380SOL    HW217040   2.688   1.399   2.465
 5381SOL     OW17041   6.413   4.678   2.200
 5381SOL    HW117042   6.352   4.609   2.239
 5381SOL    HW217043   6.472   4.636   2.131
 5382SOL     OW17044   2.799   1.098   1.714
 5382SOL    HW117045   2.892   1.102   1.677
 5382SOL    HW217046   2.803   1.108   1.814
 5383SOL     OW17047   2.275   2.163   4.915
 5383SOL    HW117048   2.283   2.230   4.989
 5383SOL    HW217049   2.255   2.073   4.953
 5384SOL     OW17050   6.211   6.639   5.604
 5384SOL    HW117051   6.264   6.654   5.521
 5384SOL    HW217052   6.116   6.666   5.588
 5385SOL     OW17053   3.437   3.202   4.077
 5385SOL    HW117054   3.382   3.282   4.103
 5385SOL    HW217055   3.420   3.127   4.140
 5386SOL     OW17056   5.321   1.642   4.218
 5386SOL    HW117057   5.385   1.600   4.282
 5386SOL    HW217058   5.341   1.739   4.210
 5387SOL     OW17059   2.240   0.481   3.510
 5387SOL    HW117060   2.182   0.401   3.494
 5387SOL    HW217061   2.195   0.563   3.475
 5388SOL     OW17062   0.355   1.874   3.870
 5388SOL    HW117063   0.365   1.896   3.773
 5388SOL    HW217064   0.323   1.780   3.880
 5389SOL     OW17065   4.196   1.031   3.568
 5389SOL    HW117066   4.249   0.998   3.645
 5389SOL    HW217067   4.185   0.958   3.501
 5390SOL     OW17068   4.891   3.795   3.718
 5390SOL    HW117069   4.896   3.696   3.732
 5390SOL    HW217070   4.882   3.815   3.621
 5391SOL     OW17071   2.323   1.718   0.862
 5391SOL    HW117072   2.273   1.796   0.900
 5391SOL    HW217073   2.359   1.663   0.938
 5392SOL     OW17074   5.238   3.438   1.499
 5392SOL    HW117075   5.225   3.416   1.596
 5392SOL    HW217076   5.316   3.499   1.488
 5393SOL     OW17077   4.821   6.858   5.549
 5393SOL    HW117078   4.805   6.763   5.577
 5393SOL    HW217079   4.774   6.875   5.462
 5394SOL     OW17080   0.313   5.392   0.580
 5394SOL    HW117081   0.378   5.321   0.610
 5394SOL    HW217082   0.229   5.384   0.633
 5395SOL     OW17083   4.245   0.977   1.176
 5395SOL    HW117084   4.192   1.050   1.133
 5395SOL    HW217085   4.183   0.911   1.218
 5396SOL     OW17086   5.296   4.147   1.611
 5396SOL    HW117087   5.240   4.218   1.569
 5396SOL    HW217088   5.387   4.147   1.569
 5397SOL     OW17089   0.201   2.953   1.299
 5397SOL    HW117090   0.135   2.905   1.241
 5397SOL    HW217091   0.266   2.887   1.337
 5398SOL     OW17092   3.619   1.939   3.204
 5398SOL    HW117093   3.577   1.947   3.295
 5398SOL    HW217094   3.602   1.848   3.167
 5399SOL     OW17095   2.907   6.228   1.143
 5399SOL    HW117096   2.943   6.203   1.233
 5399SOL    HW217097   2.961   6.183   1.072
 5400SOL     OW17098   3.153   3.547   6.871
 5400SOL    HW117099   3.104   3.630   6.845
 5400SOL    HW217100   3.118   3.470   6.819
 5401SOL     OW17101   5.816   3.928   1.626
 5401SOL    HW117102   5.769   3.841   1.608
 5401SOL    HW217103   5.870   3.953   1.545
 5402SOL     OW17104   2.606   5.384   1.873
 5402SOL    HW117105   2.641   5.409   1.963
 5402SOL    HW217106   2.512   5.419   1.863
 5403SOL     OW17107   5.669   2.502   5.872
 5403SOL    HW117108   5.597   2.446   5.832
 5403SOL    HW217109   5.628   2.570   5.933
 5404SOL     OW17110   0.932   0.438   2.403
 5404SOL    HW117111   0.946   0.339   2.405
 5404SOL    HW217112   0.922   0.468   2.308
 5405SOL     OW17113   6.013   6.344   0.116
 5405SOL    HW117114   6.106   6.311   0.097
 5405SOL    HW217115   5.966   6.281   0.177
 5406SOL     OW17116   2.230   0.299   5.971
 5406SOL    HW117117   2.245   0.354   5.888
 5406SOL    HW217118   2.182   0.215   5.947
 5407SOL     OW17119   3.851   1.940   1.643
 5407SOL    HW117120   3.865   1.887   1.560
 5407SOL    HW217121   3.939   1.967   1.681
 5408SOL     OW17122   3.317   1.043   5.266
 5408SOL    HW117123   3.255   1.072   5.192
 5408SOL    HW217124   3.266   0.986   5.331
 5409SOL     OW17125   6.807   1.574   3.415
 5409SOL    HW117126   6.816   1.672   3.431
 5409SOL    HW217127   6.770   1.558   3.324
 5410SOL     OW17128   0.760   2.821   6.832
 5410SOL    HW117129   0.828   2.863   6.771
 5410SOL    HW217130   0.741   2.727   6.801
 5411SOL     OW17131   5.955   4.797   5.097
 5411SOL    HW117132   5.974   4.735   5.174
 5411SOL    HW217133   6.016   4.876   5.102
 5412SOL     OW17134   3.899   0.677   6.934
 5412SOL    HW117135   3.874   0.585   6.903
 5412SOL    HW217136   3.897   0.681   0.017
 5413SOL     OW17137   0.697   0.305   1.441
 5413SOL    HW117138   0.704   0.207   1.421
 5413SOL    HW217139   0.679   0.317   1.539
 5414SOL     OW17140   6.954   3.256   5.416
 5414SOL    HW117141   0.024   3.223   5.377
 5414SOL    HW217142   6.883   3.258   5.345
 5415SOL     OW17143   1.258   5.995   1.865
 5415SOL    HW117144   1.256   6.094   1.882
 5415SOL    HW217145   1.316   5.976   1.787
 5416SOL     OW17146   3.665   5.093   6.381
 5416SOL    HW117147   3.603   5.097   6.303
 5416SOL    HW217148   3.759   5.105   6.349
 5417SOL     OW17149   4.509   6.959   4.451
 5417SOL    HW117150   4.505   7.012   4.537
 5417SOL    HW217151   4.513   0.006   4.374
 5418SOL     OW17152   5.383   0.772   4.167
 5418SOL    HW117153   5.477   0.781   4.202
 5418SOL    HW217154   5.319   0.814   4.231
 5419SOL     OW17155   3.104   5.536   0.513
 5419SOL    HW117156   3.136   5.621   0.472
 5419SOL    HW217157   3.172   5.502   0.578
 5420SOL     OW17158   1.814   2.797   1.883
 5420SOL    HW117159   1.861   2.885   1.871
 5420SOL    HW217160   1.876   2.723   1.859
 5421SOL     OW17161   2.431   4.392   3.248
 5421SOL    HW117162   2.399   4.298   3.244
 5421SOL    HW217163   2.359   4.453   3.215
 5422SOL     OW17164   1.267   6.006   5.677
 5422SOL    HW117165   1.216   6.052   5.750
 5422SOL    HW217166   1.365   6.016   5.693
 5423SOL     OW17167   5.445   3.479   6.524
 5423SOL    HW117168   5.511   3.509   6.593
 5423SOL    HW217169   5.475   3.508   6.434
 5424SOL     OW17170   6.053   3.400   4.389
 5424SOL    HW117171   6.097   3.489   4.406
 5424SOL    HW217172   5.957   3.415   4.365
 5425SOL     OW17173   5.292   1.415   4.100
 5425SOL    HW117174   5.222   1.420   4.030
 5425SOL    HW217175   5.302   1.503   4.145
 5426SOL     OW17176   6.621   5.201   3.880
 5426SOL    HW117177   6.621   5.299   3.897
 5426SOL    HW217178   6.637   5.185   3.782
 5427SOL     OW17179   5.176   5.043   0.796
 5427SOL    HW117180   5.220   4.974   0.854
 5427SOL    HW217181   5.078   5.028   0.795
 5428SOL     OW17182   6.492   0.090   2.316
 5428SOL    HW117183   6.422   0.074   2.385
 5428SOL    HW217184   6.451   0.135   2.237
 5429SOL     OW17185   1.462   0.820   5.094
 5429SOL    HW117186   1.408   0.881   5.152
 5429SOL    HW217187   1.485   0.738   5.145
 5430SOL     OW17188   2.501   2.792   5.906
 5430SOL    HW117189   2.552   2.758   5.986
 5430SOL    HW217190   2.404   2.795   5.927
 5431SOL     OW17191   3.521   4.946   6.872
 5431SOL    HW117192   3.568   4.857   6.873
 5431SOL    HW217193   3.514   4.979   6.778
 5432SOL     OW17194   3.929   6.050   5.711
 5432SOL    HW117195   4.010   6.009   5.753
 5432SOL    HW217196   3.856   6.059   5.779
 5433SOL     OW17197   0.311   1.752   2.701
 5433SOL    HW117198   0.365   1.690   2.644
 5433SOL    HW217199   0.341   1.745   2.796
 5434SOL     OW17200   4.409   1.515   4.971
 5434SOL    HW117201   4.321   1.502   4.925
 5434SOL    HW217202   4.483   1.507   4.904
 5435SOL     OW17203   6.052   2.104   1.330
 5435SOL    HW117204   5.977   2.124   1.267
 5435SOL    HW217205   6.139   2.130   1.289
 5436SOL     OW17206   5.534   4.630   4.465
 5436SOL    HW117207   5.471   4.607   4.391
 5436SOL    HW217208   5.591   4.550   4.485
 5437SOL     OW17209   2.636   5.182   5.531
 5437SOL    HW117210   2.607   5.088   5.545
 5437SOL    HW217211   2.721   5.199   5.580
 5438SOL     OW17212   5.721   3.880   2.519
 5438SOL    HW117213   5.765   3.892   2.608
 5438SOL    HW217214   5.760   3.800   2.473
 5439SOL     OW17215   6.845   1.977   0.334
 5439SOL    HW117216   6.834   2.072   0.364
 5439SOL    HW217217   6.778   1.957   0.262
 5440SOL     OW17218   6.876   0.123   2.911
 5440SOL    HW117219   6.941   0.076   2.971
 5440SOL    HW217220   6.799   0.063   2.891
 5441SOL     OW17221   4.854   2.764   3.633
 5441SOL    HW117222   4.771   2.730   3.588
 5441SOL    HW217223   4.872   2.709   3.714
 5442SOL     OW17224   3.033   6.864   3.399
 5442SOL    HW117225   2.959   6.800   3.418
 5442SOL    HW217226   3.068   6.901   3.485
 5443SOL     OW17227   3.172   6.197   4.186
 5443SOL    HW117228   3.188   6.099   4.169
 5443SOL    HW217229   3.133   6.238   4.104
 5444SOL     OW17230   0.483   0.831   2.983
 5444SOL    HW117231   0.453   0.757   2.923
 5444SOL    HW217232   0.405   0.861   3.040
 5445SOL     OW17233   6.492   4.255   3.759
 5445SOL    HW117234   6.562   4.251   3.687
 5445SOL    HW217235   6.413   4.201   3.732
 5446SOL     OW17236   5.715   5.245   4.660
 5446SOL    HW117237   5.637   5.181   4.660
 5446SOL    HW217238   5.699   5.317   4.727
 5447SOL     OW17239   1.156   2.219   0.959
 5447SOL    HW117240   1.194   2.229   1.051
 5447SOL    HW217241   1.134   2.122   0.943
 5448SOL     OW17242   6.349   4.350   4.444
 5448SOL    HW117243   6.290   4.429   4.430
 5448SOL    HW217244   6.299   4.266   4.421
 5449SOL     OW17245   1.678   1.632   0.537
 5449SOL    HW117246   1.691   1.695   0.613
 5449SOL    HW217247   1.724   1.545   0.558
 5450SOL     OW17248   2.680   6.805   1.369
 5450SOL    HW117249   2.687   6.802   1.468
 5450SOL    HW217250   2.689   6.899   1.337
 5451SOL     OW17251   1.736   5.862   3.531
 5451SOL    HW117252   1.746   5.765   3.507
 5451SOL    HW217253   1.656   5.873   3.591
 5452SOL     OW17254   2.465   4.195   0.624
 5452SOL    HW117255   2.477   4.116   0.684
 5452SOL    HW217256   2.555   4.228   0.593
 5453SOL     OW17257   5.619   4.198   1.274
 5453SOL    HW117258   5.648   4.127   1.209
 5453SOL    HW217259   5.538   4.245   1.238
 5454SOL     OW17260   5.847   5.114   5.496
 5454SOL    HW117261   5.882   5.026   5.528
 5454SOL    HW217262   5.922   5.167   5.454
 5455SOL     OW17263   6.567   2.433   2.508
 5455SOL    HW117264   6.494   2.405   2.571
 5455SOL    HW217265   6.635   2.360   2.502
 5456SOL     OW17266   2.636   0.291   0.463
 5456SOL    HW117267   2.639   0.206   0.410
 5456SOL    HW217268   2.598   0.273   0.553
 5457SOL     OW17269   0.054   2.359   1.247
 5457SOL    HW117270   6.982   2.379   1.206
 5457SOL    HW217271   0.082   2.436   1.306
 5458SOL     OW17272   0.498   4.971   0.581
 5458SOL    HW117273   0.490   4.907   0.657
 5458SOL    HW217274   0.542   4.925   0.503
 5459SOL     OW17275   3.034   3.341   6.713
 5459SOL    HW117276   2.982   3.307   6.634
 5459SOL    HW217277   2.988   3.316   6.797
 5460SOL     OW17278   3.908   6.904   3.032
 5460SOL    HW117279   3.930   6.855   2.947
 5460SOL    HW217280   3.825   6.958   3.018
 5461SOL     OW17281   0.650   0.318   5.971
 5461SOL    HW117282   0.617   0.394   6.028
 5461SOL    HW217283   0.573   0.258   5.949
 5462SOL     OW17284   6.368   6.798   1.298
 5462SOL    HW117285   6.276   6.758   1.297
 5462SOL    HW217286   6.361   6.897   1.285
 5463SOL     OW17287   0.233   1.513   0.145
 5463SOL    HW117288   0.284   1.564   0.215
 5463SOL    HW217289   0.216   1.420   0.176
 5464SOL     OW17290   6.572   0.496   4.719
 5464SOL    HW117291   6.555   0.420   4.781
 5464SOL    HW217292   6.564   0.465   4.625
 5465SOL     OW17293   4.997   1.173   4.646
 5465SOL    HW117294   5.038   1.086   4.618
 5465SOL    HW217295   4.962   1.164   4.739
 5466SOL     OW17296   5.561   2.887   4.802
 5466SOL    HW117297   5.579   2.790   4.815
 5466SOL    HW217298   5.467   2.900   4.770
 5467SOL     OW17299   4.836   4.075   3.530
 5467SOL    HW117300   4.827   3.977   3.509
 5467SOL    HW217301   4.897   4.087   3.609
 5468SOL     OW17302   6.680   2.550   4.080
 5468SOL    HW117303   6.585   2.551   4.110
 5468SOL    HW217304   6.686   2.583   3.986
 5469SOL     OW17305   3.050   6.139   5.394
 5469SOL    HW117306   3.150   6.125   5.393
 5469SOL    HW217307   3.020   6.156   5.487
 5470SOL     OW17308   3.910   5.363   3.089
 5470SOL    HW117309   3.924   5.286   3.152
 5470SOL    HW217310   3.998   5.397   3.058
 5471SOL     OW17311   5.900   6.779   3.180
 5471SOL    HW117312   5.822   6.840   3.195
 5471SOL    HW217313   5.869   6.684   3.179
 5472SOL     OW17314   2.401   4.262   6.925
 5472SOL    HW117315   2.309   4.236   6.897
 5472SOL    HW217316   2.416   4.236   0.004
 5473SOL     OW17317   1.041   3.625   1.976
 5473SOL    HW117318   1.089   3.540   1.953
 5473SOL    HW217319   0.943   3.606   1.984
 5474SOL     OW17320   0.944   4.419   3.780
 5474SOL    HW117321   1.034   4.428   3.737
 5474SOL    HW217322   0.931   4.325   3.810
 5475SOL     OW17323   2.274   2.732   1.063
 5475SOL    HW117324   2.175   2.741   1.067
 5475SOL    HW217325   2.304   2.735   0.968
 5476SOL     OW17326   2.499   4.579   5.320
 5476SOL    HW117327   2.419   4.636   5.340
 5476SOL    HW217328   2.473   4.505   5.258
 5477SOL     OW17329   2.356   4.697   2.249
 5477SOL    HW117330   2.306   4.612   2.263
 5477SOL    HW217331   2.454   4.679   2.258
 5478SOL     OW17332   2.729   6.315   4.261
 5478SOL    HW117333   2.665   6.243   4.237
 5478SOL    HW217334   2.812   6.275   4.299
 5479SOL     OW17335   5.322   0.983   6.462
 5479SOL    HW117336   5.349   1.080   6.465
 5479SOL    HW217337   5.247   0.968   6.526
 5480SOL     OW17338   5.579   5.443   4.349
 5480SOL    HW117339   5.523   5.363   4.368
 5480SOL    HW217340   5.527   5.507   4.292
 5481SOL     OW17341   4.599   1.474   4.786
 5481SOL    HW117342   4.663   1.452   4.860
 5481SOL    HW217343   4.612   1.410   4.711
 5482SOL     OW17344   3.647   4.223   1.806
 5482SOL    HW117345   3.664   4.313   1.765
 5482SOL    HW217346   3.734   4.175   1.816
 5483SOL     OW17347   6.850   2.224   5.395
 5483SOL    HW117348   6.800   2.299   5.350
 5483SOL    HW217349   6.941   2.216   5.355
 5484SOL     OW17350   4.320   1.044   4.190
 5484SOL    HW117351   4.383   1.018   4.263
 5484SOL    HW217352   4.326   1.143   4.175
 5485SOL     OW17353   4.094   0.440   4.661
 5485SOL    HW117354   4.169   0.374   4.669
 5485SOL    HW217355   4.060   0.441   4.567
 5486SOL     OW17356   2.551   6.368   5.353
 5486SOL    HW117357   2.565   6.463   5.383
 5486SOL    HW217358   2.640   6.328   5.329
 5487SOL     OW17359   5.425   2.740   6.752
 5487SOL    HW117360   5.340   2.763   6.704
 5487SOL    HW217361   5.503   2.759   6.693
 5488SOL     OW17362   5.864   0.329   1.224
 5488SOL    HW117363   5.955   0.369   1.213
 5488SOL    HW217364   5.864   0.268   1.303
 5489SOL     OW17365   0.078   4.160   1.869
 5489SOL    HW117366   0.078   4.257   1.890
 5489SOL    HW217367   0.089   4.107   1.953
 5490SOL     OW17368   3.024   0.463   1.829
 5490SOL    HW117369   3.117   0.468   1.866
 5490SOL    HW217370   3.014   0.379   1.776
 5491SOL     OW17371   0.852   3.970   0.506
 5491SOL    HW117372   0.809   3.899   0.450
 5491SOL    HW217373   0.854   3.940   0.601
 5492SOL     OW17374   0.675   3.600   6.428
 5492SOL    HW117375   0.654   3.650   6.344
 5492SOL    HW217376   0.642   3.652   6.507
 5493SOL     OW17377   3.000   3.863   4.245
 5493SOL    HW117378   3.029   3.876   4.340
 5493SOL    HW217379   2.919   3.918   4.226
 5494SOL     OW17380   0.587   3.253   6.104
 5494SOL    HW117381   0.582   3.156   6.083
 5494SOL    HW217382   0.590   3.266   6.203
 5495SOL     OW17383   4.633   1.313   1.151
 5495SOL    HW117384   4.555   1.368   1.181
 5495SOL    HW217385   4.609   1.216   1.155
 5496SOL     OW17386   4.017   0.936   3.167
 5496SOL    HW117387   3.972   1.021   3.194
 5496SOL    HW217388   3.952   0.879   3.116
 5497SOL     OW17389   6.997   1.125   5.054
 5497SOL    HW117390   6.984   1.033   5.018
 5497SOL    HW217391   6.999   1.190   4.978
 5498SOL     OW17392   6.409   6.203   1.184
 5498SOL    HW117393   6.392   6.259   1.103
 5498SOL    HW217394   6.401   6.107   1.160
 5499SOL     OW17395   0.353   0.571   4.699
 5499SOL    HW117396   0.302   0.573   4.785
 5499SOL    HW217397   0.423   0.642   4.701
 5500SOL     OW17398   0.919   0.453   0.293
 5500SOL    HW117399   0.875   0.535   0.256
 5500SOL    HW217400   0.910   0.378   0.228
 5501SOL     OW17401   3.232   1.498   0.186
 5501SOL    HW117402   3.254   1.496   0.089
 5501SOL    HW217403   3.293   1.435   0.235
 5502SOL     OW17404   4.973   3.645   0.230
 5502SOL    HW117405   5.067   3.618   0.250
 5502SOL    HW217406   4.911   3.603   0.297
 5503SOL     OW17407   6.787   4.396   1.728
 5503SOL    HW117408   6.740   4.379   1.641
 5503SOL    HW217409   6.881   4.425   1.709
 5504SOL     OW17410   4.779   1.527   5.671
 5504SOL    HW117411   4.717   1.604   5.688
 5504SOL    HW217412   4.727   1.447   5.644
 5505SOL     OW17413   2.194   5.246   4.280
 5505SOL    HW117414   2.151   5.333   4.304
 5505SOL    HW217415   2.163   5.217   4.190
 5506SOL     OW17416   0.411   3.561   0.599
 5506SOL    HW117417   0.412   3.461   0.607
 5506SOL    HW217418   0.498   3.593   0.563
 5507SOL     OW17419   4.617   1.309   4.594
 5507SOL    HW117420   4.666   1.342   4.514
 5507SOL    HW217421   4.537   1.256   4.565
 5508SOL     OW17422   1.242   1.293   0.154
 5508SOL    HW117423   1.263   1.337   0.241
 5508SOL    HW217424   1.152   1.249   0.159
 5509SOL     OW17425   0.678   6.270   6.683
 5509SOL    HW117426   0.587   6.278   6.640
 5509SOL    HW217427   0.736   6.213   6.626
 5510SOL     OW17428   4.526   5.433   0.436
 5510SOL    HW117429   4.549   5.524   0.472
 5510SOL    HW217430   4.591   5.409   0.363
 5511SOL     OW17431   1.444   0.856   3.445
 5511SOL    HW117432   1.534   0.864   3.487
 5511SOL    HW217433   1.445   0.779   3.381
 5512SOL     OW17434   5.111   2.351   0.964
 5512SOL    HW117435   5.037   2.336   0.899
 5512SOL    HW217436   5.142   2.263   1.001
 5513SOL     OW17437   3.650   4.539   6.085
 5513SOL    HW117438   3.603   4.603   6.025
 5513SOL    HW217439   3.743   4.523   6.050
 5514SOL     OW17440   4.017   0.408   4.279
 5514SOL    HW117441   4.001   0.490   4.225
 5514SOL    HW217442   3.933   0.352   4.280
 5515SOL     OW17443   0.644   5.640   2.165
 5515SOL    HW117444   0.671   5.683   2.079
 5515SOL    HW217445   0.685   5.549   2.170
 5516SOL     OW17446   1.743   3.722   6.030
 5516SOL    HW117447   1.703   3.631   6.031
 5516SOL    HW217448   1.686   3.785   6.083
 5517SOL     OW17449   2.109   3.227   1.992
 5517SOL    HW117450   2.023   3.246   2.040
 5517SOL    HW217451   2.165   3.310   1.990
 5518SOL     OW17452   5.954   6.146   6.945
 5518SOL    HW117453   5.963   6.234   6.991
 5518SOL    HW217454   6.044   6.104   6.936
 5519SOL     OW17455   5.714   3.777   3.029
 5519SOL    HW117456   5.678   3.778   3.122
 5519SOL    HW217457   5.783   3.705   3.020
 5520SOL     OW17458   6.351   6.877   2.560
 5520SOL    HW117459   6.410   6.797   2.570
 5520SOL    HW217460   6.327   6.888   2.463
 5521SOL     OW17461   5.270   6.695   2.319
 5521SOL    HW117462   5.342   6.763   2.301
 5521SOL    HW217463   5.200   6.736   2.377
 5522SOL     OW17464   5.827   5.294   0.716
 5522SOL    HW117465   5.833   5.316   0.813
 5522SOL    HW217466   5.876   5.363   0.662
 5523SOL     OW17467   3.717   1.222   1.907
 5523SOL    HW117468   3.715   1.251   2.003
 5523SOL    HW217469   3.725   1.302   1.848
 5524SOL     OW17470   4.730   0.633   4.155
 5524SOL    HW117471   4.636   0.666   4.164
 5524SOL    HW217472   4.769   0.618   4.247
 5525SOL     OW17473   0.372   2.142   0.041
 5525SOL    HW117474   0.339   2.184   6.973
 5525SOL    HW217475   0.331   2.052   0.053
 5526SOL     OW17476   4.669   5.305   3.218
 5526SOL    HW117477   4.673   5.395   3.174
 5526SOL    HW217478   4.652   5.235   3.148
 5527SOL     OW17479   4.938   3.380   4.265
 5527SOL    HW117480   4.922   3.405   4.361
 5527SOL    HW217481   5.032   3.348   4.254
 5528SOL     OW17482   1.089   0.871   0.317
 5528SOL    HW117483   1.004   0.820   0.310
 5528SOL    HW217484   1.166   0.807   0.320
 5529SOL     OW17485   3.826   0.029   4.301
 5529SOL    HW117486   3.805   6.988   4.380
 5529SOL    HW217487   3.920   0.012   4.270
 5530SOL     OW17488   5.460   2.148   0.871
 5530SOL    HW117489   5.437   2.073   0.809
 5530SOL    HW217490   5.402   2.143   0.952
 5531SOL     OW17491   3.629   3.392   2.060
 5531SOL    HW117492   3.722   3.426   2.070
 5531SOL    HW217493   3.565   3.456   2.102
 5532SOL     OW17494   0.982   3.465   0.960
 5532SOL    HW117495   0.985   3.538   0.892
 5532SOL    HW217496   0.893   3.418   0.954
 5533SOL     OW17497   3.994   2.133   2.909
 5533SOL    HW117498   4.052   2.052   2.910
 5533SOL    HW217499   3.908   2.113   2.956
 5534SOL     OW17500   0.720   1.751   6.662
 5534SOL    HW117501   0.766   1.684   6.603
 5534SOL    HW217502   0.622   1.750   6.642
 5535SOL     OW17503   0.242   2.230   3.731
 5535SOL    HW117504   0.339   2.250   3.744
 5535SOL    HW217505   0.189   2.268   3.807
 5536SOL     OW17506   3.495   1.348   3.983
 5536SOL    HW117507   3.403   1.309   3.983
 5536SOL    HW217508   3.494   1.437   4.028
 5537SOL     OW17509   2.671   1.192   2.186
 5537SOL    HW117510   2.656   1.282   2.227
 5537SOL    HW217511   2.582   1.150   2.166
 5538SOL     OW17512   2.762   5.584   5.469
 5538SOL    HW117513   2.674   5.628   5.450
 5538SOL    HW217514   2.781   5.588   5.567
 5539SOL     OW17515   0.901   3.747   1.517
 5539SOL    HW117516   0.827   3.814   1.521
 5539SOL    HW217517   0.942   3.736   1.607
 5540SOL     OW17518   4.612   4.365   4.176
 5540SOL    HW117519   4.573   4.390   4.087
 5540SOL    HW217520   4.561   4.410   4.249
 5541SOL     OW17521   5.324   6.853   6.393
 5541SOL    HW117522   5.263   6.835   6.316
 5541SOL    HW217523   5.305   6.944   6.431
 5542SOL     OW17524   4.684   3.488   6.169
 5542SOL    HW117525   4.637   3.530   6.091
 5542SOL    HW217526   4.619   3.432   6.221
 5543SOL     OW17527   3.542   4.052   6.308
 5543SOL    HW117528   3.565   3.981   6.241
 5543SOL    HW217529   3.537   4.140   6.263
 5544SOL     OW17530   5.106   5.472   6.928
 5544SOL    HW117531   5.050   5.490   7.009
 5544SOL    HW217532   5.086   5.539   6.857
 5545SOL     OW17533   4.602   1.212   2.306
 5545SOL    HW117534   4.599   1.113   2.292
 5545SOL    HW217535   4.686   1.236   2.355
 5546SOL     OW17536   0.488   4.520   4.513
 5546SOL    HW117537   0.481   4.572   4.428
 5546SOL    HW217538   0.544   4.439   4.498
 5547SOL     OW17539   3.048   6.866   4.969
 5547SOL    HW117540   3.071   6.947   5.023
 5547SOL    HW217541   2.997   6.801   5.025
 5548SOL     OW17542   6.100   2.232   5.497
 5548SOL    HW117543   6.171   2.186   5.443
 5548SOL    HW217544   6.085   2.181   5.582
 5549SOL     OW17545   4.977   4.855   6.647
 5549SOL    HW117546   4.961   4.832   6.743
 5549SOL    HW217547   4.910   4.806   6.590
 5550SOL     OW17548   3.190   5.201   2.615
 5550SOL    HW117549   3.267   5.198   2.552
 5550SOL    HW217550   3.147   5.111   2.621
 5551SOL     OW17551   2.574   0.993   2.477
 5551SOL    HW117552   2.536   0.980   2.386
 5551SOL    HW217553   2.556   1.087   2.507
 5552SOL     OW17554   6.880   0.634   6.940
 5552SOL    HW117555   6.882   0.679   0.014
 5552SOL    HW217556   6.819   0.555   6.944
 5553SOL     OW17557   3.838   6.537   0.252
 5553SOL    HW117558   3.778   6.602   0.206
 5553SOL    HW217559   3.933   6.556   0.228
 5554SOL     OW17560   3.091   1.716   5.013
 5554SOL    HW117561   3.161   1.649   5.034
 5554SOL    HW217562   3.111   1.801   5.061
 5555SOL     OW17563   0.521   4.378   3.788
 5555SOL    HW117564   0.480   4.302   3.739
 5555SOL    HW217565   0.463   4.459   3.779
 5556SOL     OW17566   0.123   2.356   4.188
 5556SOL    HW117567   0.091   2.321   4.276
 5556SOL    HW217568   0.222   2.348   4.183
 5557SOL     OW17569   3.895   4.885   3.089
 5557SOL    HW117570   3.937   4.904   3.001
 5557SOL    HW217571   3.955   4.828   3.144
 5558SOL     OW17572   4.967   3.238   5.915
 5558SOL    HW117573   5.035   3.190   5.860
 5558SOL    HW217574   4.879   3.191   5.909
 5559SOL     OW17575   2.424   6.920   2.387
 5559SOL    HW117576   2.497   6.935   2.321
 5559SOL    HW217577   2.447   6.966   2.473
 5560SOL     OW17578   0.545   6.644   3.583
 5560SOL    HW117579   0.495   6.587   3.518
 5560SOL    HW217580   0.497   6.731   3.595
 5561SOL     OW17581   2.241   1.488   4.183
 5561SOL    HW117582   2.178   1.526   4.115
 5561SOL    HW217583   2.334   1.491   4.147
 5562SOL     OW17584   2.150   2.485   0.038
 5562SOL    HW117585   2.245   2.490   0.072
 5562SOL    HW217586   2.137   2.398   7.007
 5563SOL     OW17587   4.747   6.314   2.380
 5563SOL    HW117588   4.773   6.355   2.292
 5563SOL    HW217589   4.671   6.366   2.420
 5564SOL     OW17590   4.729   2.107   1.298
 5564SOL    HW117591   4.733   2.136   1.394
 5564SOL    HW217592   4.650   2.048   1.285
 5565SOL     OW17593   4.416   1.529   5.910
 5565SOL    HW117594   4.406   1.586   5.991
 5565SOL    HW217595   4.378   1.577   5.830
 5566SOL     OW17596   1.726   5.364   1.097
 5566SOL    HW117597   1.749   5.277   1.141
 5566SOL    HW217598   1.798   5.390   1.034
 5567SOL     OW17599   0.754   4.816   1.187
 5567SOL    HW117600   0.734   4.742   1.251
 5567SOL    HW217601   0.715   4.901   1.222
 5568SOL     OW17602   5.189   2.601   2.283
 5568SOL    HW117603   5.247   2.655   2.222
 5568SOL    HW217604   5.220   2.613   2.378
 5569SOL     OW17605   3.608   1.906   1.725
 5569SOL    HW117606   3.558   1.929   1.641
 5569SOL    HW217607   3.706   1.911   1.708
 5570SOL     OW17608   6.112   4.698   4.605
 5570SOL    HW117609   6.055   4.619   4.629
 5570SOL    HW217610   6.132   4.751   4.688
 5571SOL     OW17611   0.187   6.476   6.968
 5571SOL    HW117612   0.196   6.449   0.047
 5571SOL    HW217613   0.253   6.548   6.947
 5572SOL     OW17614   2.288   2.955   6.243
 5572SOL    HW117615   2.384   2.951   6.271
 5572SOL    HW217616   2.229   2.958   6.323
 5573SOL     OW17617   0.650   2.881   0.211
 5573SOL    HW117618   0.730   2.913   0.161
 5573SOL    HW217619   0.586   2.958   0.223
 5574SOL     OW17620   0.140   1.416   4.294
 5574SOL    HW117621   0.213   1.413   4.225
 5574SOL    HW217622   0.173   1.376   4.379
 5575SOL     OW17623   1.506   0.927   1.863
 5575SOL    HW117624   1.583   0.879   1.823
 5575SOL    HW217625   1.421   0.895   1.822
 5576SOL     OW17626   6.358   5.775   1.670
 5576SOL    HW117627   6.368   5.826   1.584
 5576SOL    HW217628   6.262   5.775   1.697
 5577SOL     OW17629   2.609   2.886   5.654
 5577SOL    HW117630   2.597   2.885   5.754
 5577SOL    HW217631   2.567   2.805   5.615
 5578SOL     OW17632   3.965   2.943   1.024
 5578SOL    HW117633   3.968   2.956   1.123
 5578SOL    HW217634   3.938   2.850   1.002
 5579SOL     OW17635   6.380   3.678   6.030
 5579SOL    HW117636   6.476   3.697   6.052
 5579SOL    HW217637   6.358   3.583   6.053
 5580SOL     OW17638   4.963   1.817   0.077
 5580SOL    HW117639   4.951   1.795   6.996
 5580SOL    HW217640   4.873   1.829   0.119
 5581SOL     OW17641   2.677   0.056   1.321
 5581SOL    HW117642   2.624   0.105   1.252
 5581SOL    HW217643   2.681   0.110   1.405
 5582SOL     OW17644   3.278   3.257   3.778
 5582SOL    HW117645   3.182   3.231   3.790
 5582SOL    HW217646   3.307   3.311   3.857
 5583SOL     OW17647   4.130   0.124   2.418
 5583SOL    HW117648   4.150   0.040   2.368
 5583SOL    HW217649   4.032   0.130   2.437
 5584SOL     OW17650   5.371   4.130   4.197
 5584SOL    HW117651   5.383   4.207   4.259
 5584SOL    HW217652   5.277   4.130   4.162
 5585SOL     OW17653   5.410   0.541   4.040
 5585SOL    HW117654   5.422   0.626   4.091
 5585SOL    HW217655   5.484   0.478   4.064
 5586SOL     OW17656   1.136   2.606   6.706
 5586SOL    HW117657   1.126   2.616   6.607
 5586SOL    HW217658   1.125   2.510   6.730
 5587SOL     OW17659   4.066   6.684   2.461
 5587SOL    HW117660   4.129   6.657   2.534
 5587SOL    HW217661   4.117   6.715   2.382
 5588SOL     OW17662   1.502   6.672   4.306
 5588SOL    HW117663   1.516   6.650   4.403
 5588SOL    HW217664   1.575   6.733   4.275
 5589SOL     OW17665   4.817   3.005   6.573
 5589SOL    HW117666   4.750   3.017   6.646
 5589SOL    HW217667   4.772   3.014   6.484
 5590SOL     OW17668   6.719   5.402   2.990
 5590SOL    HW117669   6.746   5.428   2.897
 5590SOL    HW217670   6.621   5.417   3.001
 5591SOL     OW17671   5.863   0.208   6.830
 5591SOL    HW117672   5.829   0.132   6.774
 5591SOL    HW217673   5.954   0.235   6.797
 5592SOL     OW17674   2.128   3.795   2.824
 5592SOL    HW117675   2.108   3.697   2.825
 5592SOL    HW217676   2.209   3.813   2.880
 5593SOL     OW17677   6.865   2.746   5.907
 5593SOL    HW117678   6.887   2.813   5.978
 5593SOL    HW217679   6.931   2.754   5.832
 5594SOL     OW17680   2.213   1.596   6.693
 5594SOL    HW117681   2.244   1.650   6.615
 5594SOL    HW217682   2.289   1.580   6.756
 5595SOL     OW17683   6.487   0.530   5.367
 5595SOL    HW117684   6.449   0.527   5.275
 5595SOL    HW217685   6.503   0.437   5.400
 5596SOL     OW17686   5.635   6.913   3.223
 5596SOL    HW117687   5.611   6.869   3.309
 5596SOL    HW217688   5.554   6.957   3.184
 5597SOL     OW17689   5.289   2.995   5.423
 5597SOL    HW117690   5.265   3.086   5.458
 5597SOL    HW217691   5.248   2.925   5.481
 5598SOL     OW17692   5.152   2.475   3.661
 5598SOL    HW117693   5.058   2.440   3.653
 5598SOL    HW217694   5.183   2.466   3.755
 5599SOL     OW17695   5.564   4.044   2.065
 5599SOL    HW117696   5.577   4.023   1.968
 5599SOL    HW217697   5.468   4.035   2.088
 5600SOL     OW17698   2.511   0.139   2.560
 5600SOL    HW117699   2.443   0.198   2.517
 5600SOL    HW217700   2.466   0.074   2.621
 5601SOL     OW17701   4.471   2.688   5.803
 5601SOL    HW117702   4.463   2.683   5.703
 5601SOL    HW217703   4.560   2.652   5.831
 5602SOL     OW17704   0.250   1.567   3.353
 5602SOL    HW117705   0.341   1.606   3.363
 5602SOL    HW217706   0.255   1.485   3.296
 5603SOL     OW17707   4.482   2.419   5.142
 5603SOL    HW117708   4.499   2.517   5.134
 5603SOL    HW217709   4.462   2.381   5.052
 5604SOL     OW17710   0.976   1.476   4.294
 5604SOL    HW117711   0.922   1.419   4.356
 5604SOL    HW217712   0.929   1.483   4.206
 5605SOL     OW17713   0.937   0.518   5.324
 5605SOL    HW117714   0.854   0.497   5.376
 5605SOL    HW217715   0.964   0.437   5.271
 5606SOL     OW17716   4.336   1.578   0.317
 5606SOL    HW117717   4.307   1.482   0.315
 5606SOL    HW217718   4.265   1.633   0.362
 5607SOL     OW17719   5.923   2.137   3.001
 5607SOL    HW117720   5.971   2.080   2.934
 5607SOL    HW217721   5.989   2.184   3.059
 5608SOL     OW17722   6.368   0.884   2.886
 5608SOL    HW117723   6.461   0.846   2.885
 5608SOL    HW217724   6.306   0.821   2.839
 5609SOL     OW17725   4.948   6.478   0.574
 5609SOL    HW117726   4.863   6.512   0.534
 5609SOL    HW217727   4.927   6.430   0.659
 5610SOL     OW17728   5.532   4.085   0.410
 5610SOL    HW117729   5.522   3.997   0.362
 5610SOL    HW217730   5.617   4.128   0.381
 5611SOL     OW17731   0.270   4.890   2.040
 5611SOL    HW117732   0.346   4.854   1.986
 5611SOL    HW217733   0.282   4.864   2.136
 5612SOL     OW17734   2.954   2.870   0.968
 5612SOL    HW117735   3.023   2.935   1.000
 5612SOL    HW217736   2.879   2.866   1.033
 5613SOL     OW17737   6.856   4.429   4.644
 5613SOL    HW117738   6.858   4.377   4.730
 5613SOL    HW217739   6.874   4.525   4.663
 5614SOL     OW17740   6.539   2.022   4.425
 5614SOL    HW117741   6.551   1.931   4.465
 5614SOL    HW217742   6.627   2.070   4.424
 5615SOL     OW17743   0.281   1.802   2.048
 5615SOL    HW117744   0.281   1.895   2.013
 5615SOL    HW217745   0.348   1.747   1.997
 5616SOL     OW17746   2.347   1.594   5.121
 5616SOL    HW117747   2.401   1.662   5.170
 5616SOL    HW217748   2.293   1.639   5.050
 5617SOL     OW17749   1.346   5.095   4.348
 5617SOL    HW117750   1.334   5.165   4.278
 5617SOL    HW217751   1.428   5.114   4.401
 5618SOL     OW17752   6.130   5.064   3.232
 5618SOL    HW117753   6.108   5.159   3.208
 5618SOL    HW217754   6.093   5.042   3.322
 5619SOL     OW17755   3.504   2.837   3.727
 5619SOL    HW117756   3.509   2.836   3.627
 5619SOL    HW217757   3.588   2.877   3.764
 5620SOL     OW17758   4.465   4.311   5.755
 5620SOL    HW117759   4.416   4.397   5.769
 5620SOL    HW217760   4.426   4.240   5.814
 5621SOL     OW17761   1.492   3.085   6.516
 5621SOL    HW117762   1.526   3.166   6.468
 5621SOL    HW217763   1.535   3.003   6.478
 5622SOL     OW17764   4.170   6.062   5.167
 5622SOL    HW117765   4.212   6.153   5.162
 5622SOL    HW217766   4.080   6.066   5.124
 5623SOL     OW17767   4.851   6.797   4.743
 5623SOL    HW117768   4.845   6.820   4.841
 5623SOL    HW217769   4.907   6.865   4.697
 5624SOL     OW17770   1.047   5.258   3.152
 5624SOL    HW117771   1.034   5.296   3.061
 5624SOL    HW217772   0.959   5.226   3.187
 5625SOL     OW17773   1.298   5.277   4.645
 5625SOL    HW117774   1.353   5.282   4.561
 5625SOL    HW217775   1.286   5.369   4.682
 5626SOL     OW17776   2.034   4.576   4.522
 5626SOL    HW117777   2.103   4.648   4.515
 5626SOL    HW217778   2.037   4.518   4.440
 5627SOL     OW17779   0.343   5.603   6.067
 5627SOL    HW117780   0.339   5.573   6.162
 5627SOL    HW217781   0.272   5.672   6.051
 5628SOL     OW17782   2.788   3.012   0.746
 5628SOL    HW117783   2.706   2.967   0.711
 5628SOL    HW217784   2.813   2.974   0.835
 5629SOL     OW17785   3.713   3.141   1.147
 5629SOL    HW117786   3.801   3.157   1.191
 5629SOL    HW217787   3.640   3.179   1.203
 5630SOL     OW17788   1.413   3.804   6.006
 5630SOL    HW117789   1.418   3.902   6.025
 5630SOL    HW217790   1.443   3.753   6.087
 5631SOL     OW17791   5.365   1.473   2.134
 5631SOL    HW117792   5.386   1.558   2.085
 5631SOL    HW217793   5.293   1.490   2.201
 5632SOL     OW17794   4.993   1.296   6.162
 5632SOL    HW117795   5.034   1.212   6.197
 5632SOL    HW217796   4.895   1.296   6.183
 5633SOL     OW17797   0.208   5.426   4.262
 5633SOL    HW117798   0.135   5.367   4.295
 5633SOL    HW217799   0.274   5.442   4.336
 5634SOL     OW17800   2.214   5.283   4.709
 5634SOL    HW117801   2.129   5.250   4.669
 5634SOL    HW217802   2.240   5.223   4.785
 5635SOL     OW17803   2.918   6.383   6.633
 5635SOL    HW117804   2.829   6.397   6.677
 5635SOL    HW217805   2.913   6.416   6.538
 5636SOL     OW17806   6.092   1.450   5.262
 5636SOL    HW117807   6.015   1.390   5.287
 5636SOL    HW217808   6.092   1.530   5.322
 5637SOL     OW17809   5.585   6.645   4.336
 5637SOL    HW117810   5.561   6.742   4.346
 5637SOL    HW217811   5.613   6.627   4.242
 5638SOL     OW17812   5.428   5.911   1.307
 5638SOL    HW117813   5.468   5.972   1.239
 5638SOL    HW217814   5.343   5.873   1.273
 5639SOL     OW17815   1.326   0.806   1.675
 5639SOL    HW117816   1.256   0.738   1.696
 5639SOL    HW217817   1.282   0.894   1.655
 5640SOL     OW17818   2.618   6.713   2.538
 5640SOL    HW117819   2.557   6.635   2.525
 5640SOL    HW217820   2.672   6.728   2.456
 5641SOL     OW17821   0.663   4.955   5.716
 5641SOL    HW117822   0.592   4.885   5.718
 5641SOL    HW217823   0.747   4.918   5.677
 5642SOL     OW17824   1.069   5.142   5.858
 5642SOL    HW117825   0.975   5.169   5.878
 5642SOL    HW217826   1.085   5.048   5.889
 5643SOL     OW17827   3.235   0.876   4.482
 5643SOL    HW117828   3.309   0.926   4.527
 5643SOL    HW217829   3.149   0.923   4.498
 5644SOL     OW17830   5.227   0.746   3.876
 5644SOL    HW117831   5.278   0.721   3.959
 5644SOL    HW217832   5.129   0.731   3.892
 5645SOL     OW17833   6.238   4.624   2.634
 5645SOL    HW117834   6.238   4.682   2.716
 5645SOL    HW217835   6.230   4.682   2.552
 5646SOL     OW17836   1.830   5.373   3.546
 5646SOL    HW117837   1.778   5.293   3.515
 5646SOL    HW217838   1.766   5.446   3.572
 5647SOL     OW17839   6.465   6.222   6.864
 5647SOL    HW117840   6.392   6.267   6.813
 5647SOL    HW217841   6.549   6.277   6.857
 5648SOL     OW17842   2.194   0.897   2.701
 5648SOL    HW117843   2.111   0.948   2.724
 5648SOL    HW217844   2.273   0.957   2.711
 5649SOL     OW17845   1.412   6.321   5.738
 5649SOL    HW117846   1.445   6.266   5.661
 5649SOL    HW217847   1.481   6.323   5.810
 5650SOL     OW17848   0.508   5.237   1.247
 5650SOL    HW117849   0.451   5.177   1.303
 5650SOL    HW217850   0.461   5.258   1.162
 5651SOL     OW17851   6.988   1.606   1.431
 5651SOL    HW117852   6.978   1.511   1.401
 5651SOL    HW217853   6.932   1.665   1.373
 5652SOL     OW17854   5.185   6.508   2.154
 5652SOL    HW117855   5.210   6.581   2.218
 5652SOL    HW217856   5.255   6.501   2.083
 5653SOL     OW17857   0.434   6.305   6.584
 5653SOL    HW117858   0.337   6.307   6.606
 5653SOL    HW217859   0.455   6.381   6.522
 5654SOL     OW17860   0.077   6.533   6.041
 5654SOL    HW117861   0.092   6.460   5.974
 5654SOL    HW217862   0.090   6.497   6.133
 5655SOL     OW17863   1.034   3.348   4.352
 5655SOL    HW117864   1.078   3.375   4.438
 5655SOL    HW217865   0.939   3.378   4.351
 5656SOL     OW17866   2.466   4.540   0.338
 5656SOL    HW117867   2.564   4.559   0.349
 5656SOL    HW217868   2.423   4.534   0.428
 5657SOL     OW17869   5.150   6.940   1.297
 5657SOL    HW117870   5.137   0.022   1.279
 5657SOL    HW217871   5.157   6.891   1.210
 5658SOL     OW17872   3.417   6.165   5.753
 5658SOL    HW117873   3.358   6.140   5.830
 5658SOL    HW217874   3.419   6.089   5.687
 5659SOL     OW17875   3.003   3.896   3.098
 5659SOL    HW117876   3.080   3.833   3.094
 5659SOL    HW217877   2.981   3.930   3.007
 5660SOL     OW17878   5.230   0.721   5.571
 5660SOL    HW117879   5.261   0.801   5.622
 5660SOL    HW217880   5.130   0.722   5.565
 5661SOL     OW17881   6.826   4.920   6.320
 5661SOL    HW117882   6.849   5.009   6.280
 5661SOL    HW217883   6.773   4.867   6.254
 5662SOL     OW17884   2.945   4.866   4.196
 5662SOL    HW117885   2.966   4.862   4.294
 5662SOL    HW217886   3.022   4.908   4.148
 5663SOL     OW17887   1.201   4.322   0.030
 5663SOL    HW117888   1.277   4.288   0.086
 5663SOL    HW217889   1.116   4.278   0.059
 5664SOL     OW17890   6.960   3.821   3.984
 5664SOL    HW117891   6.906   3.801   3.902
 5664SOL    HW217892   0.041   3.811   3.963
 5665SOL     OW17893   1.736   1.699   6.544
 5665SOL    HW117894   1.664   1.631   6.529
 5665SOL    HW217895   1.752   1.749   6.459
 5666SOL     OW17896   5.125   5.987   0.684
 5666SOL    HW117897   5.104   5.918   0.754
 5666SOL    HW217898   5.040   6.026   0.649
 5667SOL     OW17899   0.903   4.953   3.710
 5667SOL    HW117900   0.810   4.974   3.739
 5667SOL    HW217901   0.926   4.860   3.739
 5668SOL     OW17902   4.994   2.287   6.205
 5668SOL    HW117903   4.897   2.282   6.232
 5668SOL    HW217904   5.004   2.355   6.132
 5669SOL     OW17905   0.348   3.245   6.526
 5669SOL    HW117906   0.295   3.329   6.533
 5669SOL    HW217907   0.430   3.262   6.472
 5670SOL     OW17908   0.341   2.838   3.451
 5670SOL    HW117909   0.377   2.831   3.358
 5670SOL    HW217910   0.354   2.931   3.485
 5671SOL     OW17911   1.084   6.233   6.549
 5671SOL    HW117912   1.030   6.182   6.616
 5671SOL    HW217913   1.064   6.330   6.556
 5672SOL     OW17914   4.306   5.148   6.788
 5672SOL    HW117915   4.321   5.240   6.751
 5672SOL    HW217916   4.224   5.148   6.845
 5673SOL     OW17917   1.295   6.319   1.818
 5673SOL    HW117918   1.200   6.321   1.786
 5673SOL    HW217919   1.353   6.370   1.755
 5674SOL     OW17920   6.917   3.904   3.270
 5674SOL    HW117921   6.976   3.973   3.228
 5674SOL    HW217922   6.932   3.904   3.369
 5675SOL     OW17923   4.286   1.875   6.257
 5675SOL    HW117924   4.296   1.972   6.237
 5675SOL    HW217925   4.256   1.827   6.175
 5676SOL     OW17926   1.723   1.629   1.594
 5676SOL    HW117927   1.803   1.609   1.537
 5676SOL    HW217928   1.729   1.723   1.627
 5677SOL     OW17929   0.457   2.256   2.696
 5677SOL    HW117930   0.485   2.214   2.782
 5677SOL    HW217931   0.442   2.354   2.710
 5678SOL     OW17932   2.846   6.762   3.094
 5678SOL    HW117933   2.868   6.824   3.019
 5678SOL    HW217934   2.774   6.801   3.151
 5679SOL     OW17935   1.159   0.693   3.038
 5679SOL    HW117936   1.097   0.718   2.964
 5679SOL    HW217937   1.123   0.614   3.088
 5680SOL     OW17938   1.421   5.320   1.034
 5680SOL    HW117939   1.367   5.263   1.096
 5680SOL    HW217940   1.500   5.356   1.082
 5681SOL     OW17941   0.586   3.749   6.681
 5681SOL    HW117942   0.583   3.847   6.664
 5681SOL    HW217943   0.671   3.726   6.729
 5682SOL     OW17944   1.982   4.692   5.184
 5682SOL    HW117945   1.953   4.651   5.271
 5682SOL    HW217946   2.013   4.620   5.122
 5683SOL     OW17947   4.330   1.956   6.678
 5683SOL    HW117948   4.281   1.927   6.760
 5683SOL    HW217949   4.343   1.878   6.618
 5684SOL     OW17950   3.916   2.990   4.811
 5684SOL    HW117951   3.964   2.954   4.890
 5684SOL    HW217952   3.912   3.090   4.817
 5685SOL     OW17953   1.025   4.321   2.058
 5685SOL    HW117954   1.021   4.419   2.081
 5685SOL    HW217955   1.092   4.308   1.984
 5686SOL     OW17956   3.144   0.325   6.755
 5686SOL    HW117957   3.109   0.417   6.738
 5686SOL    HW217958   3.153   0.276   6.668
 5687SOL     OW17959   6.867   4.117   4.706
 5687SOL    HW117960   6.905   4.132   4.614
 5687SOL    HW217961   6.927   4.055   4.756
 5688SOL     OW17962   6.681   1.670   6.914
 5688SOL    HW117963   6.594   1.628   6.942
 5688SOL    HW217964   6.738   1.601   6.868
 5689SOL     OW17965   4.269   0.976   0.195
 5689SOL    HW117966   4.172   0.990   0.175
 5689SOL    HW217967   4.312   1.064   0.214
 5690SOL     OW17968   2.351   6.111   0.754
 5690SOL    HW117969   2.386   6.130   0.845
 5690SOL    HW217970   2.305   6.021   0.754
 5691SOL     OW17971   2.634   6.114   1.999
 5691SOL    HW117972   2.702   6.171   1.953
 5691SOL    HW217973   2.616   6.033   1.942
 5692SOL     OW17974   6.695   3.096   5.936
 5692SOL    HW117975   6.789   3.060   5.938
 5692SOL    HW217976   6.686   3.161   5.860
 5693SOL     OW17977   5.841   3.136   2.261
 5693SOL    HW117978   5.771   3.148   2.191
 5693SOL    HW217979   5.810   3.176   2.347
 5694SOL     OW17980   0.583   1.511   4.155
 5694SOL    HW117981   0.646   1.465   4.216
 5694SOL    HW217982   0.627   1.593   4.117
 5695SOL     OW17983   0.585   2.632   2.982
 5695SOL    HW117984   0.598   2.642   3.080
 5695SOL    HW217985   0.657   2.573   2.944
 5696SOL     OW17986   1.592   6.971   3.063
 5696SOL    HW117987   1.537   7.007   3.139
 5696SOL    HW217988   1.687   7.000   3.075
 5697SOL     OW17989   5.670   1.957   0.817
 5697SOL    HW117990   5.641   2.006   0.899
 5697SOL    HW217991   5.768   1.942   0.819
 5698SOL     OW17992   0.247   2.815   1.699
 5698SOL    HW117993   0.335   2.834   1.657
 5698SOL    HW217994   0.246   2.848   1.793
 5699SOL     OW17995   6.306   2.313   2.995
 5699SOL    HW117996   6.216   2.294   2.955
 5699SOL    HW217997   6.318   2.412   3.004
 5700SOL     OW17998   6.806   6.423   4.461
 5700SOL    HW117999   6.851   6.450   4.376
 5700SOL    HW218000   6.758   6.336   4.447
 5701SOL     OW18001   1.347   5.882   3.326
 5701SOL    HW118002   1.275   5.943   3.358
 5701SOL    HW218003   1.392   5.923   3.246
 5702SOL     OW18004   1.545   0.597   5.237
 5702SOL    HW118005   1.563   0.594   5.335
 5702SOL    HW218006   1.627   0.567   5.187
 5703SOL     OW18007   5.026   4.233   0.818
 5703SOL    HW118008   5.090   4.268   0.886
 5703SOL    HW218009   5.066   4.242   0.727
 5704SOL     OW18010   4.099   5.421   2.344
 5704SOL    HW118011   4.140   5.508   2.373
 5704SOL    HW218012   4.101   5.415   2.244
 5705SOL     OW18013   5.292   1.092   0.506
 5705SOL    HW118014   5.297   1.009   0.562
 5705SOL    HW218015   5.264   1.169   0.563
 5706SOL     OW18016   0.844   2.230   0.527
 5706SOL    HW118017   0.823   2.222   0.429
 5706SOL    HW218018   0.868   2.325   0.548
 5707SOL     OW18019   0.803   6.702   7.011
 5707SOL    HW118020   0.869   6.763   0.038
 5707SOL    HW218021   0.812   6.610   0.033
 5708SOL     OW18022   5.159   6.213   1.195
 5708SOL    HW118023   5.204   6.299   1.169
 5708SOL    HW218024   5.180   6.192   1.291
 5709SOL     OW18025   1.238   0.041   3.557
 5709SOL    HW118026   1.224   6.961   3.580
 5709SOL    HW218027   1.334   0.057   3.537
 5710SOL     OW18028   3.008   3.328   5.831
 5710SOL    HW118029   2.917   3.315   5.792
 5710SOL    HW218030   3.075   3.338   5.757
 5711SOL     OW18031   4.812   0.279   3.089
 5711SOL    HW118032   4.852   0.311   3.003
 5711SOL    HW218033   4.712   0.282   3.082
 5712SOL     OW18034   0.824   5.918   5.970
 5712SOL    HW118035   0.911   5.869   5.974
 5712SOL    HW218036   0.750   5.860   6.005
 5713SOL     OW18037   1.133   2.503   1.307
 5713SOL    HW118038   1.150   2.575   1.240
 5713SOL    HW218039   1.141   2.541   1.399
 5714SOL     OW18040   1.273   5.948   0.033
 5714SOL    HW118041   1.353   5.889   0.040
 5714SOL    HW218042   1.297   6.040   0.066
 5715SOL     OW18043   1.357   6.305   3.143
 5715SOL    HW118044   1.282   6.330   3.204
 5715SOL    HW218045   1.352   6.362   3.060
 5716SOL     OW18046   0.983   4.159   5.864
 5716SOL    HW118047   1.076   4.162   5.901
 5716SOL    HW218048   0.959   4.065   5.841
 5717SOL     OW18049   1.912   5.598   0.346
 5717SOL    HW118050   1.848   5.653   0.292
 5717SOL    HW218051   1.885   5.601   0.443
 5718SOL     OW18052   1.032   4.018   6.382
 5718SOL    HW118053   0.996   4.086   6.318
 5718SOL    HW218054   1.124   4.044   6.410
 5719SOL     OW18055   2.401   1.269   6.279
 5719SOL    HW118056   2.394   1.366   6.306
 5719SOL    HW218057   2.442   1.217   6.354
 5720SOL     OW18058   1.052   4.739   3.982
 5720SOL    HW118059   1.093   4.667   3.926
 5720SOL    HW218060   0.963   4.707   4.017
 5721SOL     OW18061   6.845   3.611   0.994
 5721SOL    HW118062   6.885   3.520   1.006
 5721SOL    HW218063   6.783   3.610   0.915
 5722SOL     OW18064   5.585   2.103   5.243
 5722SOL    HW118065   5.648   2.147   5.180
 5722SOL    HW218066   5.531   2.034   5.194
 5723SOL     OW18067   4.124   3.658   0.052
 5723SOL    HW118068   4.053   3.588   0.044
 5723SOL    HW218069   4.150   3.667   0.148
 5724SOL     OW18070   4.000   2.415   5.382
 5724SOL    HW118071   3.966   2.466   5.462
 5724SOL    HW218072   4.051   2.477   5.323
 5725SOL     OW18073   6.008   5.477   3.454
 5725SOL    HW118074   6.089   5.533   3.472
 5725SOL    HW218075   5.975   5.439   3.541
 5726SOL     OW18076   6.136   3.517   3.787
 5726SOL    HW118077   6.129   3.514   3.887
 5726SOL    HW218078   6.052   3.480   3.748
 5727SOL     OW18079   0.609   2.559   4.170
 5727SOL    HW118080   0.652   2.562   4.079
 5727SOL    HW218081   0.589   2.653   4.199
 5728SOL     OW18082   4.269   1.363   6.528
 5728SOL    HW118083   4.236   1.270   6.511
 5728SOL    HW218084   4.314   1.367   6.617
 5729SOL     OW18085   1.022   1.542   0.312
 5729SOL    HW118086   1.097   1.587   0.264
 5729SOL    HW218087   0.946   1.606   0.322
 5730SOL     OW18088   3.565   5.106   5.863
 5730SOL    HW118089   3.649   5.052   5.863
 5730SOL    HW218090   3.587   5.203   5.851
 5731SOL     OW18091   1.952   6.439   3.746
 5731SOL    HW118092   1.958   6.408   3.841
 5731SOL    HW218093   1.884   6.383   3.698
 5732SOL     OW18094   6.613   4.534   5.057
 5732SOL    HW118095   6.635   4.530   5.154
 5732SOL    HW218096   6.539   4.470   5.037
 5733SOL     OW18097   3.272   0.577   5.708
 5733SOL    HW118098   3.318   0.662   5.684
 5733SOL    HW218099   3.212   0.549   5.633
 5734SOL     OW18100   1.721   6.149   6.300
 5734SOL    HW118101   1.744   6.088   6.377
 5734SOL    HW218102   1.622   6.150   6.287
 5735SOL     OW18103   4.078   1.259   3.026
 5735SOL    HW118104   4.011   1.246   3.100
 5735SOL    HW218105   4.170   1.257   3.064
 5736SOL     OW18106   5.583   4.581   0.257
 5736SOL    HW118107   5.535   4.662   0.292
 5736SOL    HW218108   5.588   4.512   0.330
 5737SOL     OW18109   5.741   5.990   0.007
 5737SOL    HW118110   5.781   5.908   0.048
 5737SOL    HW218111   5.812   6.040   6.973
 5738SOL     OW18112   3.576   2.290   6.867
 5738SOL    HW118113   3.674   2.271   6.863
 5738SOL    HW218114   3.557   2.379   6.825
 5739SOL     OW18115   1.049   6.162   5.567
 5739SOL    HW118116   1.047   6.246   5.621
 5739SOL    HW218117   1.127   6.106   5.595
 5740SOL     OW18118   4.697   4.026   1.000
 5740SOL    HW118119   4.787   4.064   1.022
 5740SOL    HW218120   4.684   3.940   1.049
 5741SOL     OW18121   0.196   4.307   3.972
 5741SOL    HW118122   0.122   4.292   4.038
 5741SOL    HW218123   0.161   4.294   3.879
 5742SOL     OW18124   4.543   6.055   2.374
 5742SOL    HW118125   4.529   5.968   2.327
 5742SOL    HW218126   4.639   6.081   2.369
 5743SOL     OW18127   2.135   5.954   5.167
 5743SOL    HW118128   2.090   5.929   5.082
 5743SOL    HW218129   2.155   6.053   5.167
 5744SOL     OW18130   5.334   1.080   2.175
 5744SOL    HW118131   5.282   1.130   2.244
 5744SOL    HW218132   5.338   1.133   2.091
 5745SOL     OW18133   2.068   0.771   3.734
 5745SOL    HW118134   2.066   0.828   3.652
 5745SOL    HW218135   2.152   0.788   3.785
 5746SOL     OW18136   4.845   6.536   1.611
 5746SOL    HW118137   4.852   6.631   1.579
 5746SOL    HW218138   4.937   6.498   1.621
 5747SOL     OW18139   1.142   4.916   1.865
 5747SOL    HW118140   1.210   4.989   1.855
 5747SOL    HW218141   1.089   4.932   1.949
 5748SOL     OW18142   1.237   0.036   1.512
 5748SOL    HW118143   1.178   0.093   1.454
 5748SOL    HW218144   1.225   0.063   1.607
 5749SOL     OW18145   1.747   6.633   5.097
 5749SOL    HW118146   1.798   6.547   5.101
 5749SOL    HW218147   1.779   6.688   5.019
 5750SOL     OW18148   5.957   6.411   5.143
 5750SOL    HW118149   5.934   6.455   5.057
 5750SOL    HW218150   5.980   6.315   5.127
 5751SOL     OW18151   2.495   2.618   4.848
 5751SOL    HW118152   2.584   2.643   4.809
 5751SOL    HW218153   2.435   2.697   4.846
 5752SOL     OW18154   5.593   0.129   0.211
 5752SOL    HW118155   5.685   0.093   0.195
 5752SOL    HW218156   5.591   0.177   0.298
 5753SOL     OW18157   3.381   3.880   4.671
 5753SOL    HW118158   3.378   3.807   4.603
 5753SOL    HW218159   3.369   3.969   4.626
 5754SOL     OW18160   0.456   4.919   1.656
 5754SOL    HW118161   0.498   4.838   1.616
 5754SOL    HW218162   0.508   4.947   1.736
 5755SOL     OW18163   1.534   2.112   6.184
 5755SOL    HW118164   1.589   2.129   6.266
 5755SOL    HW218165   1.573   2.162   6.107
 5756SOL     OW18166   0.410   0.600   2.835
 5756SOL    HW118167   0.319   0.563   2.813
 5756SOL    HW218168   0.470   0.588   2.756
 5757SOL     OW18169   0.664   5.003   3.810
 5757SOL    HW118170   0.643   5.001   3.908
 5757SOL    HW218171   0.605   5.069   3.765
 5758SOL     OW18172   2.346   1.119   2.722
 5758SOL    HW118173   2.296   1.153   2.643
 5758SOL    HW218174   2.329   1.179   2.801
 5759SOL     OW18175   4.936   0.505   6.886
 5759SOL    HW118176   4.924   0.443   6.808
 5759SOL    HW218177   5.012   0.472   6.943
 5760SOL     OW18178   5.994   2.015   0.695
 5760SOL    HW118179   5.996   1.942   0.627
 5760SOL    HW218180   6.072   2.075   0.682
 5761SOL     OW18181   6.168   4.528   6.003
 5761SOL    HW118182   6.083   4.571   6.032
 5761SOL    HW218183   6.162   4.429   6.018
 5762SOL     OW18184   4.976   4.265   1.236
 5762SOL    HW118185   4.898   4.204   1.222
 5762SOL    HW218186   4.990   4.280   1.334
 5763SOL     OW18187   5.985   5.725   0.814
 5763SOL    HW118188   5.900   5.672   0.813
 5763SOL    HW218189   6.004   5.759   0.722
 5764SOL     OW18190   4.893   4.673   5.026
 5764SOL    HW118191   4.837   4.590   5.015
 5764SOL    HW218192   4.844   4.751   4.987
 5765SOL     OW18193   6.501   3.231   0.360
 5765SOL    HW118194   6.590   3.255   0.400
 5765SOL    HW218195   6.428   3.279   0.408
 5766SOL     OW18196   1.509   1.937   5.548
 5766SOL    HW118197   1.463   2.001   5.486
 5766SOL    HW218198   1.571   1.879   5.496
 5767SOL     OW18199   2.073   0.414   0.937
 5767SOL    HW118200   2.074   0.345   0.865
 5767SOL    HW218201   2.146   0.481   0.921
 5768SOL     OW18202   0.842   6.777   4.301
 5768SOL    HW118203   0.935   6.813   4.295
 5768SOL    HW218204   0.786   6.818   4.229
 5769SOL     OW18205   2.468   5.536   4.129
 5769SOL    HW118206   2.567   5.546   4.125
 5769SOL    HW218207   2.439   5.463   4.067
 5770SOL     OW18208   6.772   6.092   6.139
 5770SOL    HW118209   6.694   6.074   6.080
 5770SOL    HW218210   6.743   6.088   6.235
 5771SOL     OW18211   1.433   6.906   4.606
 5771SOL    HW118212   1.419   6.855   4.691
 5771SOL    HW218213   1.529   6.933   4.598
 5772SOL     OW18214   5.457   1.052   1.589
 5772SOL    HW118215   5.432   1.125   1.526
 5772SOL    HW218216   5.392   1.049   1.664
 5773SOL     OW18217   4.468   0.480   2.944
 5773SOL    HW118218   4.486   0.406   3.009
 5773SOL    HW218219   4.370   0.499   2.942
 5774SOL     OW18220   3.013   6.555   4.102
 5774SOL    HW118221   3.107   6.591   4.095
 5774SOL    HW218222   2.984   6.558   4.197
 5775SOL     OW18223   1.346   0.244   2.623
 5775SOL    HW118224   1.316   0.310   2.554
 5775SOL    HW218225   1.421   0.189   2.587
 5776SOL     OW18226   0.450   0.906   3.853
 5776SOL    HW118227   0.464   0.891   3.755
 5776SOL    HW218228   0.513   0.847   3.904
 5777SOL     OW18229   6.808   0.235   4.977
 5777SOL    HW118230   6.729   0.191   5.019
 5777SOL    HW218231   6.834   0.315   5.031
 5778SOL     OW18232   1.524   0.311   0.375
 5778SOL    HW118233   1.524   0.271   0.467
 5778SOL    HW218234   1.447   0.375   0.367
 5779SOL     OW18235   4.455   2.386   1.111
 5779SOL    HW118236   4.374   2.429   1.070
 5779SOL    HW218237   4.502   2.452   1.168
 5780SOL     OW18238   6.443   6.465   3.925
 5780SOL    HW118239   6.503   6.400   3.972
 5780SOL    HW218240   6.480   6.485   3.835
 5781SOL     OW18241   6.963   5.208   4.187
 5781SOL    HW118242   6.985   5.225   4.284
 5781SOL    HW218243   6.864   5.195   4.177
 5782SOL     OW18244   1.431   1.602   1.198
 5782SOL    HW118245   1.437   1.698   1.225
 5782SOL    HW218246   1.457   1.592   1.102
 5783SOL     OW18247   1.158   0.597   1.714
 5783SOL    HW118248   1.070   0.644   1.700
 5783SOL    HW218249   1.148   0.500   1.692
 5784SOL     OW18250   0.175   6.021   5.781
 5784SOL    HW118251   0.245   6.024   5.710
 5784SOL    HW218252   0.088   6.053   5.744
 5785SOL     OW18253   2.297   1.972   0.274
 5785SOL    HW118254   2.334   2.048   0.219
 5785SOL    HW218255   2.226   1.925   0.221
 5786SOL     OW18256   0.612   4.372   0.852
 5786SOL    HW118257   0.657   4.438   0.913
 5786SOL    HW218258   0.626   4.279   0.887
 5787SOL     OW18259   3.353   1.892   4.716
 5787SOL    HW118260   3.391   1.978   4.680
 5787SOL    HW218261   3.279   1.861   4.657
 5788SOL     OW18262   2.755   1.622   1.203
 5788SOL    HW118263   2.702   1.537   1.204
 5788SOL    HW218264   2.701   1.696   1.243
 5789SOL     OW18265   3.040   4.372   0.123
 5789SOL    HW118266   2.997   4.391   0.035
 5789SOL    HW218267   3.110   4.302   0.111
 5790SOL     OW18268   1.384   4.120   5.052
 5790SOL    HW118269   1.409   4.176   5.132
 5790SOL    HW218270   1.330   4.042   5.082
 5791SOL     OW18271   3.592   1.890   2.370
 5791SOL    HW118272   3.538   1.961   2.414
 5791SOL    HW218273   3.620   1.921   2.279
 5792SOL     OW18274   6.375   3.528   2.760
 5792SOL    HW118275   6.386   3.626   2.743
 5792SOL    HW218276   6.284   3.500   2.730
 5793SOL     OW18277   4.979   1.137   3.874
 5793SOL    HW118278   5.066   1.161   3.830
 5793SOL    HW218279   4.997   1.094   3.963
 5794SOL     OW18280   2.325   1.140   0.582
 5794SOL    HW118281   2.321   1.061   0.643
 5794SOL    HW218282   2.233   1.176   0.567
 5795SOL     OW18283   6.228   0.484   6.830
 5795SOL    HW118284   6.240   0.509   6.926
 5795SOL    HW218285   6.311   0.506   6.779
 5796SOL     OW18286   4.712   1.271   6.208
 5796SOL    HW118287   4.686   1.351   6.262
 5796SOL    HW218288   4.670   1.189   6.247
 5797SOL     OW18289   4.509   2.745   6.239
 5797SOL    HW118290   4.482   2.677   6.307
 5797SOL    HW218291   4.435   2.757   6.172
 5798SOL     OW18292   0.696   4.749   5.105
 5798SOL    HW118293   0.703   4.793   5.194
 5798SOL    HW218294   0.733   4.656   5.111
 5799SOL     OW18295   0.588   0.237   3.332
 5799SOL    HW118296   0.669   0.250   3.275
 5799SOL    HW218297   0.509   0.277   3.287
 5800SOL     OW18298   6.201   6.133   1.858
 5800SOL    HW118299   6.166   6.207   1.916
 5800SOL    HW218300   6.293   6.109   1.888
 5801SOL     OW18301   2.359   2.284   3.396
 5801SOL    HW118302   2.374   2.377   3.429
 5801SOL    HW218303   2.447   2.237   3.389
 5802SOL     OW18304   0.825   3.994   2.348
 5802SOL    HW118305   0.881   4.074   2.369
 5802SOL    HW218306   0.883   3.922   2.309
 5803SOL     OW18307   2.742   5.121   2.380
 5803SOL    HW118308   2.729   5.097   2.476
 5803SOL    HW218309   2.719   5.041   2.323
 5804SOL     OW18310   0.450   5.631   3.623
 5804SOL    HW118311   0.518   5.622   3.696
 5804SOL    HW218312   0.475   5.708   3.564
 5805SOL     OW18313   2.618   3.545   6.929
 5805SOL    HW118314   2.624   3.627   6.873
 5805SOL    HW218315   2.570   3.566   7.015
 5806SOL     OW18316   6.858   5.406   4.787
 5806SOL    HW118317   6.931   5.363   4.840
 5806SOL    HW218318   6.771   5.395   4.834
 5807SOL     OW18319   0.367   3.997   2.165
 5807SOL    HW118320   0.359   4.056   2.245
 5807SOL    HW218321   0.276   3.966   2.137
 5808SOL     OW18322   6.024   5.702   4.798
 5808SOL    HW118323   6.030   5.603   4.805
 5808SOL    HW218324   5.958   5.726   4.727
 5809SOL     OW18325   5.613   1.959   4.147
 5809SOL    HW118326   5.607   1.890   4.220
 5809SOL    HW218327   5.585   1.917   4.061
 5810SOL     OW18328   3.893   1.598   4.868
 5810SOL    HW118329   3.898   1.691   4.906
 5810SOL    HW218330   3.801   1.562   4.881
 5811SOL     OW18331   3.143   1.140   5.080
 5811SOL    HW118332   3.055   1.094   5.096
 5811SOL    HW218333   3.133   1.206   5.005
 5812SOL     OW18334   6.418   2.566   4.161
 5812SOL    HW118335   6.436   2.546   4.257
 5812SOL    HW218336   6.323   2.543   4.140
 5813SOL     OW18337   1.896   2.248   0.989
 5813SOL    HW118338   1.945   2.179   0.934
 5813SOL    HW218339   1.900   2.223   1.085
 5814SOL     OW18340   6.582   4.644   1.448
 5814SOL    HW118341   6.528   4.702   1.508
 5814SOL    HW218342   6.665   4.615   1.495
 5815SOL     OW18343   3.742   1.939   4.182
 5815SOL    HW118344   3.661   1.958   4.237
 5815SOL    HW218345   3.763   2.018   4.124
 5816SOL     OW18346   4.684   5.255   0.252
 5816SOL    HW118347   4.781   5.247   0.230
 5816SOL    HW218348   4.632   5.187   0.200
 5817SOL     OW18349   5.486   3.451   5.961
 5817SOL    HW118350   5.393   3.416   5.945
 5817SOL    HW218351   5.488   3.500   6.048
 5818SOL     OW18352   6.465   6.160   4.538
 5818SOL    HW118353   6.520   6.083   4.506
 5818SOL    HW218354   6.489   6.181   4.633
 5819SOL     OW18355   3.715   6.460   6.818
 5819SOL    HW118356   3.654   6.409   6.879
 5819SOL    HW218357   3.809   6.451   6.850
 5820SOL     OW18358   4.214   5.543   3.865
 5820SOL    HW118359   4.139   5.609   3.870
 5820SOL    HW218360   4.230   5.518   3.769
 5821SOL     OW18361   0.232   6.996   1.167
 5821SOL    HW118362   0.158   6.963   1.107
 5821SOL    HW218363   0.320   6.984   1.120
 5822SOL     OW18364   1.519   2.426   1.753
 5822SOL    HW118365   1.542   2.456   1.845
 5822SOL    HW218366   1.596   2.445   1.692
 5823SOL     OW18367   1.728   0.990   5.790
 5823SOL    HW118368   1.732   1.089   5.809
 5823SOL    HW218369   1.644   0.969   5.739
 5824SOL     OW18370   6.460   5.634   2.069
 5824SOL    HW118371   6.512   5.700   2.014
 5824SOL    HW218372   6.402   5.684   2.134
 5825SOL     OW18373   1.302   1.607   5.619
 5825SOL    HW118374   1.369   1.552   5.668
 5825SOL    HW218375   1.220   1.552   5.603
 5826SOL     OW18376   6.911   5.001   5.342
 5826SOL    HW118377   6.831   5.055   5.317
 5826SOL    HW218378   6.954   4.963   5.260
 5827SOL     OW18379   2.211   4.502   5.182
 5827SOL    HW118380   2.224   4.575   5.114
 5827SOL    HW218381   2.236   4.414   5.142
 5828SOL     OW18382   6.316   2.103   1.229
 5828SOL    HW118383   6.359   2.133   1.144
 5828SOL    HW218384   6.379   2.117   1.305
 5829SOL     OW18385   1.766   0.825   3.190
 5829SOL    HW118386   1.732   0.867   3.105
 5829SOL    HW218387   1.831   0.753   3.168
 5830SOL     OW18388   5.035   6.607   5.512
 5830SOL    HW118389   4.937   6.588   5.524
 5830SOL    HW218390   5.049   6.653   5.425
 5831SOL     OW18391   0.982   1.027   5.113
 5831SOL    HW118392   1.007   0.933   5.139
 5831SOL    HW218393   1.063   1.085   5.118
 5832SOL     OW18394   2.987   4.615   6.672
 5832SOL    HW118395   2.908   4.605   6.611
 5832SOL    HW218396   2.990   4.709   6.707
 5833SOL     OW18397   3.425   3.479   4.503
 5833SOL    HW118398   3.423   3.498   4.601
 5833SOL    HW218399   3.518   3.491   4.469
 5834SOL     OW18400   0.154   3.212   0.071
 5834SOL    HW118401   0.190   3.123   0.101
 5834SOL    HW218402   0.055   3.206   0.062
 5835SOL     OW18403   5.140   2.765   3.923
 5835SOL    HW118404   5.135   2.777   4.022
 5835SOL    HW218405   5.154   2.854   3.879
 5836SOL     OW18406   2.780   6.691   2.329
 5836SOL    HW118407   2.786   6.602   2.284
 5836SOL    HW218408   2.742   6.758   2.265
 5837SOL     OW18409   4.071   4.003   6.093
 5837SOL    HW118410   4.003   3.964   6.155
 5837SOL    HW218411   4.095   3.936   6.023
 5838SOL     OW18412   2.860   2.559   0.304
 5838SOL    HW118413   2.927   2.620   0.347
 5838SOL    HW218414   2.877   2.465   0.333
 5839SOL     OW18415   0.785   1.816   2.339
 5839SOL    HW118416   0.824   1.908   2.334
 5839SOL    HW218417   0.844   1.752   2.291
 5840SOL     OW18418   0.381   5.345   6.639
 5840SOL    HW118419   0.383   5.411   6.714
 5840SOL    HW218420   0.474   5.315   6.618
 5841SOL     OW18421   5.334   2.169   2.397
 5841SOL    HW118422   5.273   2.099   2.433
 5841SOL    HW218423   5.409   2.184   2.462
 5842SOL     OW18424   4.636   3.048   1.451
 5842SOL    HW118425   4.635   2.953   1.422
 5842SOL    HW218426   4.721   3.068   1.499
 5843SOL     OW18427   1.935   3.886   3.031
 5843SOL    HW118428   1.967   3.926   2.946
 5843SOL    HW218429   1.960   3.789   3.034
 5844SOL     OW18430   2.013   6.386   6.050
 5844SOL    HW118431   1.974   6.390   6.142
 5844SOL    HW218432   1.960   6.443   5.988
 5845SOL     OW18433   0.053   1.020   2.362
 5845SOL    HW118434   0.055   1.062   2.271
 5845SOL    HW218435   0.141   0.976   2.380
 5846SOL     OW18436   0.279   2.685   4.537
 5846SOL    HW118437   0.241   2.594   4.519
 5846SOL    HW218438   0.205   2.752   4.540
 5847SOL     OW18439   2.535   2.431   1.959
 5847SOL    HW118440   2.445   2.471   1.943
 5847SOL    HW218441   2.601   2.471   1.895
 5848SOL     OW18442   2.216   5.971   3.465
 5848SOL    HW118443   2.174   6.048   3.416
 5848SOL    HW218444   2.311   5.962   3.437
 5849SOL     OW18445   0.177   0.343   5.976
 5849SOL    HW118446   0.149   0.348   6.072
 5849SOL    HW218447   0.101   0.307   5.921
 5850SOL     OW18448   6.868   2.588   1.966
 5850SOL    HW118449   6.855   2.619   1.872
 5850SOL    HW218450   6.792   2.621   2.022
 5851SOL     OW18451   4.918   3.770   3.428
 5851SOL    HW118452   4.887   3.794   3.336
 5851SOL    HW218453   4.963   3.680   3.426
 5852SOL     OW18454   6.670   5.770   2.951
 5852SOL    HW118455   6.741   5.718   2.903
 5852SOL    HW218456   6.658   5.859   2.907
 5853SOL     OW18457   3.548   6.075   4.393
 5853SOL    HW118458   3.604   6.146   4.435
 5853SOL    HW218459   3.506   6.111   4.309
 5854SOL     OW18460   5.208   4.761   5.805
 5854SOL    HW118461   5.144   4.699   5.851
 5854SOL    HW218462   5.280   4.708   5.761
 5855SOL     OW18463   0.226   0.884   5.035
 5855SOL    HW118464   0.222   0.802   5.092
 5855SOL    HW218465   0.239   0.964   5.093
 5856SOL     OW18466   1.675   5.568   3.623
 5856SOL    HW118467   1.575   5.572   3.618
 5856SOL    HW218468   1.708   5.641   3.683
 5857SOL     OW18469   6.740   1.854   6.111
 5857SOL    HW118470   6.706   1.854   6.205
 5857SOL    HW218471   6.677   1.904   6.052
 5858SOL     OW18472   2.506   2.119   2.358
 5858SOL    HW118473   2.480   2.033   2.315
 5858SOL    HW218474   2.568   2.169   2.297
 5859SOL     OW18475   5.960   6.277   1.135
 5859SOL    HW118476   5.899   6.295   1.211
 5859SOL    HW218477   5.911   6.229   1.062
 5860SOL     OW18478   1.032   3.841   2.209
 5860SOL    HW118479   1.023   3.912   2.138
 5860SOL    HW218480   1.056   3.754   2.166
 5861SOL     OW18481   4.510   1.848   4.343
 5861SOL    HW118482   4.451   1.842   4.262
 5861SOL    HW218483   4.556   1.761   4.358
 5862SOL     OW18484   5.372   5.121   1.600
 5862SOL    HW118485   5.293   5.108   1.659
 5862SOL    HW218486   5.343   5.123   1.504
 5863SOL     OW18487   3.099   1.396   4.918
 5863SOL    HW118488   3.180   1.448   4.944
 5863SOL    HW218489   3.017   1.451   4.935
 5864SOL     OW18490   3.974   3.443   1.864
 5864SOL    HW118491   4.032   3.366   1.891
 5864SOL    HW218492   3.952   3.498   1.945
 5865SOL     OW18493   5.863   0.462   5.254
 5865SOL    HW118494   5.854   0.493   5.159
 5865SOL    HW218495   5.939   0.510   5.297
 5866SOL     OW18496   4.129   4.222   0.408
 5866SOL    HW118497   4.118   4.187   0.501
 5866SOL    HW218498   4.135   4.321   0.410
 5867SOL     OW18499   0.940   3.789   0.730
 5867SOL    HW118500   0.845   3.796   0.757
 5867SOL    HW218501   0.974   3.696   0.749
 5868SOL     OW18502   1.060   1.397   5.655
 5868SOL    HW118503   1.089   1.318   5.601
 5868SOL    HW218504   0.988   1.446   5.607
 5869SOL     OW18505   1.749   6.291   3.657
 5869SOL    HW118506   1.760   6.219   3.588
 5869SOL    HW218507   1.687   6.259   3.729
 5870SOL     OW18508   5.308   5.970   4.629
 5870SOL    HW118509   5.250   5.888   4.628
 5870SOL    HW218510   5.305   6.014   4.539
 5871SOL     OW18511   3.927   2.676   1.237
 5871SOL    HW118512   3.942   2.616   1.158
 5871SOL    HW218513   3.853   2.639   1.294
 5872SOL     OW18514   3.861   6.356   1.128
 5872SOL    HW118515   3.850   6.369   1.030
 5872SOL    HW218516   3.834   6.263   1.153
 5873SOL     OW18517   2.728   2.184   1.544
 5873SOL    HW118518   2.704   2.093   1.577
 5873SOL    HW218519   2.813   2.214   1.588
 5874SOL     OW18520   2.821   3.977   7.005
 5874SOL    HW118521   2.795   3.961   0.084
 5874SOL    HW218522   2.754   4.038   6.963
 5875SOL     OW18523   4.353   0.887   6.225
 5875SOL    HW118524   4.265   0.924   6.197
 5875SOL    HW218525   4.388   0.827   6.153
 5876SOL     OW18526   3.068   3.876   0.813
 5876SOL    HW118527   3.093   3.948   0.747
 5876SOL    HW218528   3.035   3.796   0.763
 5877SOL     OW18529   0.312   0.494   0.841
 5877SOL    HW118530   0.367   0.573   0.816
 5877SOL    HW218531   0.235   0.485   0.776
 5878SOL     OW18532   6.026   5.232   4.309
 5878SOL    HW118533   6.114   5.185   4.315
 5878SOL    HW218534   5.960   5.186   4.368
 5879SOL     OW18535   1.653   3.619   0.222
 5879SOL    HW118536   1.585   3.559   0.180
 5879SOL    HW218537   1.734   3.623   0.164
 5880SOL     OW18538   5.442   4.613   6.797
 5880SOL    HW118539   5.495   4.648   6.720
 5880SOL    HW218540   5.504   4.582   6.869
 5881SOL     OW18541   0.919   0.033   1.750
 5881SOL    HW118542   0.978   6.971   1.727
 5881SOL    HW218543   0.825   0.001   1.761
 5882SOL     OW18544   0.803   5.567   6.489
 5882SOL    HW118545   0.902   5.577   6.500
 5882SOL    HW218546   0.775   5.602   6.400
 5883SOL     OW18547   0.443   1.760   6.607
 5883SOL    HW118548   0.375   1.688   6.595
 5883SOL    HW218549   0.399   1.849   6.594
 5884SOL     OW18550   4.572   1.007   4.312
 5884SOL    HW118551   4.588   1.004   4.213
 5884SOL    HW218552   4.634   0.945   4.358
 5885SOL     OW18553   0.411   5.577   2.508
 5885SOL    HW118554   0.424   5.529   2.422
 5885SOL    HW218555   0.472   5.656   2.512
 5886SOL     OW18556   1.014   1.875   3.719
 5886SOL    HW118557   0.946   1.938   3.757
 5886SOL    HW218558   1.089   1.864   3.783
 5887SOL     OW18559   2.227   2.180   1.559
 5887SOL    HW118560   2.313   2.143   1.524
 5887SOL    HW218561   2.237   2.278   1.578
 5888SOL     OW18562   2.017   6.917   1.100
 5888SOL    HW118563   2.002   7.013   1.126
 5888SOL    HW218564   2.041   6.912   1.003
 5889SOL     OW18565   6.558   1.866   6.304
 5889SOL    HW118566   6.583   1.943   6.363
 5889SOL    HW218567   6.515   1.795   6.360
 5890SOL     OW18568   2.420   0.754   2.535
 5890SOL    HW118569   2.446   0.710   2.621
 5890SOL    HW218570   2.479   0.833   2.518
 5891SOL     OW18571   2.706   3.920   0.229
 5891SOL    HW118572   2.667   3.956   0.314
 5891SOL    HW218573   2.752   3.833   0.248
 5892SOL     OW18574   1.102   5.246   2.127
 5892SOL    HW118575   1.061   5.166   2.084
 5892SOL    HW218576   1.046   5.274   2.205
 5893SOL     OW18577   2.204   4.387   1.972
 5893SOL    HW118578   2.190   4.292   1.945
 5893SOL    HW218579   2.243   4.389   2.064
 5894SOL     OW18580   0.877   5.790   4.779
 5894SOL    HW118581   0.917   5.729   4.710
 5894SOL    HW218582   0.801   5.841   4.740
 5895SOL     OW18583   5.613   3.636   3.661
 5895SOL    HW118584   5.565   3.718   3.629
 5895SOL    HW218585   5.583   3.615   3.754
 5896SOL     OW18586   4.547   1.549   1.420
 5896SOL    HW118587   4.640   1.551   1.383
 5896SOL    HW218588   4.550   1.524   1.517
 5897SOL     OW18589   3.709   0.812   1.817
 5897SOL    HW118590   3.758   0.899   1.810
 5897SOL    HW218591   3.694   0.790   1.914
 5898SOL     OW18592   2.571   0.568   4.794
 5898SOL    HW118593   2.669   0.567   4.774
 5898SOL    HW218594   2.520   0.577   4.708
 5899SOL     OW18595   6.311   6.026   6.980
 5899SOL    HW118596   6.254   6.021   6.898
 5899SOL    HW218597   6.358   6.115   6.982
 5900SOL     OW18598   6.890   4.716   3.079
 5900SOL    HW118599   6.974   4.770   3.083
 5900SOL    HW218600   6.908   4.622   3.109
 5901SOL     OW18601   3.534   0.364   0.935
 5901SOL    HW118602   3.479   0.448   0.933
 5901SOL    HW218603   3.473   0.286   0.951
 5902SOL     OW18604   5.870   3.366   5.588
 5902SOL    HW118605   5.901   3.431   5.518
 5902SOL    HW218606   5.949   3.312   5.620
 5903SOL     OW18607   4.436   4.126   5.947
 5903SOL    HW118608   4.524   4.096   5.984
 5903SOL    HW218609   4.383   4.171   6.019
 5904SOL     OW18610   0.798   4.129   1.126
 5904SOL    HW118611   0.724   4.165   1.183
 5904SOL    HW218612   0.869   4.199   1.117
 5905SOL     OW18613   6.699   0.426   3.411
 5905SOL    HW118614   6.694   0.492   3.337
 5905SOL    HW218615   6.609   0.413   3.451
 5906SOL     OW18616   4.545   1.708   4.055
 5906SOL    HW118617   4.564   1.698   3.957
 5906SOL    HW218618   4.506   1.798   4.073
 5907SOL     OW18619   0.757   6.127   0.561
 5907SOL    HW118620   0.788   6.053   0.502
 5907SOL    HW218621   0.806   6.125   0.647
 5908SOL     OW18622   6.314   3.864   0.161
 5908SOL    HW118623   6.274   3.956   0.169
 5908SOL    HW218624   6.294   3.811   0.243
 5909SOL     OW18625   6.507   5.019   6.185
 5909SOL    HW118626   6.427   5.062   6.227
 5909SOL    HW218627   6.578   5.088   6.171
 5910SOL     OW18628   0.348   4.419   1.600
 5910SOL    HW118629   0.332   4.510   1.637
 5910SOL    HW218630   0.444   4.408   1.575
 5911SOL     OW18631   6.581   4.548   6.661
 5911SOL    HW118632   6.643   4.625   6.645
 5911SOL    HW218633   6.524   4.533   6.581
 5912SOL     OW18634   5.917   2.861   6.897
 5912SOL    HW118635   5.863   2.909   6.966
 5912SOL    HW218636   5.928   2.920   6.817
 5913SOL     OW18637   3.283   2.923   6.257
 5913SOL    HW118638   3.262   3.020   6.258
 5913SOL    HW218639   3.212   2.874   6.207
 5914SOL     OW18640   2.619   5.871   6.062
 5914SOL    HW118641   2.650   5.866   5.967
 5914SOL    HW218642   2.534   5.818   6.072
 5915SOL     OW18643   5.596   4.437   1.683
 5915SOL    HW118644   5.570   4.484   1.598
 5915SOL    HW218645   5.519   4.440   1.747
 5916SOL     OW18646   4.455   5.932   5.608
 5916SOL    HW118647   4.465   5.880   5.523
 5916SOL    HW218648   4.412   6.020   5.588
 5917SOL     OW18649   3.842   3.658   3.910
 5917SOL    HW118650   3.833   3.558   3.904
 5917SOL    HW218651   3.939   3.682   3.917
 5918SOL     OW18652   2.074   3.359   5.408
 5918SOL    HW118653   2.152   3.379   5.350
 5918SOL    HW218654   1.998   3.418   5.384
 5919SOL     OW18655   3.939   2.499   1.000
 5919SOL    HW118656   3.923   2.574   0.935
 5919SOL    HW218657   3.921   2.412   0.955
 5920SOL     OW18658   3.813   0.081   0.343
 5920SOL    HW118659   3.749   0.109   0.415
 5920SOL    HW218660   3.764   0.031   0.273
 5921SOL     OW18661   3.160   5.079   5.835
 5921SOL    HW118662   3.220   5.142   5.788
 5921SOL    HW218663   3.210   4.995   5.857
 5922SOL     OW18664   6.791   5.356   3.347
 5922SOL    HW118665   6.768   5.274   3.296
 5922SOL    HW218666   6.760   5.437   3.296
 5923SOL     OW18667   5.566   0.675   0.831
 5923SOL    HW118668   5.504   0.606   0.793
 5923SOL    HW218669   5.629   0.631   0.895
 5924SOL     OW18670   6.864   1.688   4.554
 5924SOL    HW118671   6.886   1.757   4.485
 5924SOL    HW218672   6.943   1.630   4.570
 5925SOL     OW18673   4.463   5.689   2.798
 5925SOL    HW118674   4.458   5.680   2.897
 5925SOL    HW218675   4.399   5.760   2.768
 5926SOL     OW18676   3.924   5.000   1.885
 5926SOL    HW118677   3.904   4.976   1.980
 5926SOL    HW218678   3.872   4.941   1.824
 5927SOL     OW18679   1.734   4.254   3.146
 5927SOL    HW118680   1.716   4.330   3.209
 5927SOL    HW218681   1.649   4.204   3.129
 5928SOL     OW18682   3.439   0.467   1.291
 5928SOL    HW118683   3.506   0.433   1.357
 5928SOL    HW218684   3.367   0.516   1.339
 5929SOL     OW18685   0.763   6.181   6.029
 5929SOL    HW118686   0.682   6.211   6.078
 5929SOL    HW218687   0.754   6.084   6.005
 5930SOL     OW18688   6.723   2.120   3.456
 5930SOL    HW118689   6.689   2.151   3.545
 5930SOL    HW218690   6.652   2.065   3.411
 5931SOL     OW18691   6.105   5.349   3.236
 5931SOL    HW118692   6.204   5.361   3.249
 5931SOL    HW218693   6.057   5.387   3.315
 5932SOL     OW18694   2.391   6.851   1.023
 5932SOL    HW118695   2.477   6.847   0.973
 5932SOL    HW218696   2.379   6.942   1.063
 5933SOL     OW18697   0.555   5.885   3.240
 5933SOL    HW118698   0.522   5.932   3.158
 5933SOL    HW218699   0.635   5.830   3.217
 5934SOL     OW18700   3.565   4.166   3.825
 5934SOL    HW118701   3.588   4.234   3.895
 5934SOL    HW218702   3.493   4.106   3.860
 5935SOL     OW18703   4.144   3.337   5.786
 5935SOL    HW118704   4.156   3.339   5.687
 5935SOL    HW218705   4.088   3.258   5.812
 5936SOL     OW18706   4.263   3.697   0.599
 5936SOL    HW118707   4.337   3.634   0.577
 5936SOL    HW218708   4.273   3.731   0.692
 5937SOL     OW18709   0.635   4.681   2.639
 5937SOL    HW118710   0.618   4.755   2.704
 5937SOL    HW218711   0.644   4.595   2.690
 5938SOL     OW18712   1.072   5.035   3.942
 5938SOL    HW118713   1.083   4.951   3.995
 5938SOL    HW218714   1.036   5.012   3.852
 5939SOL     OW18715   3.236   0.189   3.410
 5939SOL    HW118716   3.242   0.094   3.440
 5939SOL    HW218717   3.309   0.209   3.345
 5940SOL     OW18718   4.409   5.618   1.316
 5940SOL    HW118719   4.471   5.658   1.249
 5940SOL    HW218720   4.314   5.634   1.288
 5941SOL     OW18721   6.333   3.349   1.710
 5941SOL    HW118722   6.269   3.394   1.772
 5941SOL    HW218723   6.422   3.343   1.754
 5942SOL     OW18724   4.624   2.739   6.979
 5942SOL    HW118725   4.666   2.705   6.895
 5942SOL    HW218726   4.540   2.687   6.998
 5943SOL     OW18727   3.270   5.458   0.703
 5943SOL    HW118728   3.226   5.413   0.781
 5943SOL    HW218729   3.334   5.527   0.736
 5944SOL     OW18730   5.669   2.828   1.167
 5944SOL    HW118731   5.632   2.861   1.080
 5944SOL    HW218732   5.765   2.855   1.176
 5945SOL     OW18733   6.262   5.160   5.522
 5945SOL    HW118734   6.328   5.216   5.572
 5945SOL    HW218735   6.226   5.089   5.583
 5946SOL     OW18736   3.264   3.672   5.714
 5946SOL    HW118737   3.176   3.668   5.762
 5946SOL    HW218738   3.250   3.703   5.620
 5947SOL     OW18739   3.942   3.004   2.136
 5947SOL    HW118740   3.981   3.080   2.189
 5947SOL    HW218741   3.971   3.012   2.040
 5948SOL     OW18742   4.193   4.991   3.156
 5948SOL    HW118743   4.148   5.063   3.103
 5948SOL    HW218744   4.128   4.952   3.222
 5949SOL     OW18745   3.926   3.217   1.269
 5949SOL    HW118746   3.955   3.131   1.313
 5949SOL    HW218747   4.006   3.276   1.257
 5950SOL     OW18748   4.815   2.583   5.534
 5950SOL    HW118749   4.811   2.551   5.629
 5950SOL    HW218750   4.774   2.515   5.474
 5951SOL     OW18751   0.027   5.672   4.556
 5951SOL    HW118752   7.001   5.582   4.543
 5951SOL    HW218753   0.057   5.708   4.468
 5952SOL     OW18754   5.447   5.120   4.028
 5952SOL    HW118755   5.510   5.177   3.975
 5952SOL    HW218756   5.434   5.032   3.982
 5953SOL     OW18757   6.522   2.748   5.083
 5953SOL    HW118758   6.424   2.763   5.075
 5953SOL    HW218759   6.564   2.827   5.127
 5954SOL     OW18760   6.998   4.478   5.782
 5954SOL    HW118761   0.027   4.391   5.800
 5954SOL    HW218762   0.050   4.551   5.778
 5955SOL     OW18763   5.173   5.605   2.781
 5955SOL    HW118764   5.105   5.612   2.854
 5955SOL    HW218765   5.131   5.635   2.695
 5956SOL     OW18766   3.495   1.189   5.730
 5956SOL    HW118767   3.424   1.256   5.753
 5956SOL    HW218768   3.583   1.218   5.768
 5957SOL     OW18769   4.108   0.633   5.883
 5957SOL    HW118770   4.193   0.671   5.846
 5957SOL    HW218771   4.043   0.618   5.809
 5958SOL     OW18772   6.076   6.046   2.350
 5958SOL    HW118773   6.019   6.000   2.282
 5958SOL    HW218774   6.168   6.060   2.313
 5959SOL     OW18775   3.538   2.061   5.891
 5959SOL    HW118776   3.579   2.029   5.806
 5959SOL    HW218777   3.608   2.067   5.962
 5960SOL     OW18778   4.310   6.143   4.724
 5960SOL    HW118779   4.232   6.096   4.683
 5960SOL    HW218780   4.288   6.171   4.817
 5961SOL     OW18781   4.906   1.384   3.112
 5961SOL    HW118782   4.846   1.381   3.032
 5961SOL    HW218783   4.967   1.463   3.104
 5962SOL     OW18784   4.599   6.024   1.166
 5962SOL    HW118785   4.513   6.066   1.195
 5962SOL    HW218786   4.605   6.027   1.067
 5963SOL     OW18787   3.540   2.858   4.968
 5963SOL    HW118788   3.454   2.853   4.916
 5963SOL    HW218789   3.617   2.836   4.908
 5964SOL     OW18790   0.095   5.369   5.600
 5964SOL    HW118791   0.148   5.293   5.563
 5964SOL    HW218792   0.068   5.348   5.694
 5965SOL     OW18793   1.274   2.529   0.038
 5965SOL    HW118794   1.200   2.551   0.101
 5965SOL    HW218795   1.307   2.612   7.010
 5966SOL     OW18796   2.284   5.986   4.853
 5966SOL    HW118797   2.185   5.986   4.860
 5966SOL    HW218798   2.322   6.059   4.910
 5967SOL     OW18799   4.050   5.928   0.256
 5967SOL    HW118800   4.053   6.027   0.240
 5967SOL    HW218801   4.023   5.881   0.171
 5968SOL     OW18802   4.844   0.982   1.671
 5968SOL    HW118803   4.765   1.043   1.680
 5968SOL    HW218804   4.816   0.897   1.625
 5969SOL     OW18805   6.919   0.740   6.377
 5969SOL    HW118806   6.929   0.839   6.379
 5969SOL    HW218807   6.823   0.716   6.395
 5970SOL     OW18808   0.584   4.132   2.640
 5970SOL    HW118809   0.598   4.125   2.739
 5970SOL    HW218810   0.624   4.052   2.595
 5971SOL     OW18811   1.346   1.314   3.292
 5971SOL    HW118812   1.310   1.225   3.320
 5971SOL    HW218813   1.275   1.363   3.241
 5972SOL     OW18814   5.335   6.441   6.741
 5972SOL    HW118815   5.310   6.347   6.759
 5972SOL    HW218816   5.406   6.443   6.670
 5973SOL     OW18817   1.844   3.751   2.333
 5973SOL    HW118818   1.909   3.775   2.261
 5973SOL    HW218819   1.759   3.720   2.291
 5974SOL     OW18820   5.552   4.695   6.571
 5974SOL    HW118821   5.510   4.657   6.489
 5974SOL    HW218822   5.644   4.728   6.549
 5975SOL     OW18823   3.357   1.914   0.866
 5975SOL    HW118824   3.454   1.893   0.854
 5975SOL    HW218825   3.328   1.976   0.793
 5976SOL     OW18826   3.103   3.911   4.929
 5976SOL    HW118827   3.201   3.915   4.951
 5976SOL    HW218828   3.079   3.818   4.900
 5977SOL     OW18829   2.273   4.794   1.369
 5977SOL    HW118830   2.215   4.783   1.450
 5977SOL    HW218831   2.349   4.854   1.390
 5978SOL     OW18832   5.068   5.873   3.479
 5978SOL    HW118833   5.063   5.900   3.382
 5978SOL    HW218834   5.084   5.955   3.535
 5979SOL     OW18835   6.415   0.012   2.798
 5979SOL    HW118836   6.387   7.006   2.705
 5979SOL    HW218837   6.379   6.959   2.861
 5980SOL     OW18838   3.673   3.530   0.253
 5980SOL    HW118839   3.747   3.556   0.315
 5980SOL    HW218840   3.621   3.612   0.226
 5981SOL     OW18841   6.182   0.977   2.177
 5981SOL    HW118842   6.145   1.046   2.239
 5981SOL    HW218843   6.148   0.993   2.085
 5982SOL     OW18844   6.755   2.615   1.226
 5982SOL    HW118845   6.807   2.700   1.227
 5982SOL    HW218846   6.657   2.635   1.231
 5983SOL     OW18847   1.672   1.038   4.532
 5983SOL    HW118848   1.752   0.990   4.495
 5983SOL    HW218849   1.604   0.971   4.561
 5984SOL     OW18850   6.460   6.782   5.076
 5984SOL    HW118851   6.373   6.736   5.060
 5984SOL    HW218852   6.532   6.736   5.025
 5985SOL     OW18853   6.502   3.294   4.134
 5985SOL    HW118854   6.475   3.379   4.181
 5985SOL    HW218855   6.529   3.226   4.202
 5986SOL     OW18856   3.304   3.562   4.279
 5986SOL    HW118857   3.349   3.536   4.193
 5986SOL    HW218858   3.360   3.532   4.356
 5987SOL     OW18859   4.535   0.667   4.859
 5987SOL    HW118860   4.554   0.574   4.891
 5987SOL    HW218861   4.551   0.672   4.761
 5988SOL     OW18862   5.238   7.006   5.811
 5988SOL    HW118863   5.302   6.952   5.867
 5988SOL    HW218864   5.258   0.087   5.822
 5989SOL     OW18865   2.895   5.996   0.587
 5989SOL    HW118866   2.890   5.970   0.491
 5989SOL    HW218867   2.977   6.050   0.603
 5990SOL     OW18868   3.905   4.455   0.622
 5990SOL    HW118869   3.989   4.500   0.654
 5990SOL    HW218870   3.842   4.524   0.587
 5991SOL     OW18871   3.656   5.367   5.881
 5991SOL    HW118872   3.720   5.392   5.954
 5991SOL    HW218873   3.652   5.440   5.814
 5992SOL     OW18874   3.397   0.775   3.157
 5992SOL    HW118875   3.313   0.830   3.166
 5992SOL    HW218876   3.477   0.833   3.172
 5993SOL     OW18877   3.489   5.785   5.854
 5993SOL    HW118878   3.555   5.855   5.879
 5993SOL    HW218879   3.416   5.780   5.923
 5994SOL     OW18880   6.666   2.295   2.200
 5994SOL    HW118881   6.708   2.305   2.290
 5994SOL    HW218882   6.639   2.385   2.165
 5995SOL     OW18883   5.751   5.290   2.554
 5995SOL    HW118884   5.819   5.292   2.481
 5995SOL    HW218885   5.785   5.234   2.629
 5996SOL     OW18886   1.074   5.883   0.660
 5996SOL    HW118887   1.001   5.816   0.650
 5996SOL    HW218888   1.042   5.958   0.719
 5997SOL     OW18889   1.094   5.898   2.720
 5997SOL    HW118890   1.002   5.861   2.710
 5997SOL    HW218891   1.114   5.912   2.817
 5998SOL     OW18892   6.524   2.233   1.877
 5998SOL    HW118893   6.443   2.212   1.931
 5998SOL    HW218894   6.604   2.190   1.918
 5999SOL     OW18895   1.581   1.619   2.484
 5999SOL    HW118896   1.572   1.637   2.386
 5999SOL    HW218897   1.530   1.688   2.536
 6000SOL     OW18898   3.988   7.000   1.838
 6000SOL    HW118899   3.892   6.977   1.818
 6000SOL    HW218900   4.011   0.071   1.795
 6001SOL     OW18901   0.172   3.798   6.046
 6001SOL    HW118902   0.085   3.827   6.005
 6001SOL    HW218903   0.177   3.832   6.140
 6002SOL     OW18904   6.563   0.337   1.222
 6002SOL    HW118905   6.620   0.400   1.274
 6002SOL    HW218906   6.608   0.315   1.135
 6003SOL     OW18907   0.413   2.245   4.027
 6003SOL    HW118908   0.320   2.209   4.022
 6003SOL    HW218909   0.414   2.326   4.085
 6004SOL     OW18910   0.385   4.542   3.338
 6004SOL    HW118911   0.308   4.507   3.390
 6004SOL    HW218912   0.380   4.642   3.334
 6005SOL     OW18913   4.698   5.264   4.498
 6005SOL    HW118914   4.670   5.334   4.432
 6005SOL    HW218915   4.729   5.308   4.582
 6006SOL     OW18916   2.378   0.854   6.673
 6006SOL    HW118917   2.412   0.862   6.767
 6006SOL    HW218918   2.433   0.912   6.613
 6007SOL     OW18919   5.093   3.638   5.019
 6007SOL    HW118920   5.134   3.724   4.989
 6007SOL    HW218921   4.995   3.638   4.996
 6008SOL     OW18922   1.754   4.788   5.538
 6008SOL    HW118923   1.689   4.823   5.470
 6008SOL    HW218924   1.762   4.689   5.528
 6009SOL     OW18925   4.135   1.046   4.505
 6009SOL    HW118926   4.041   1.077   4.514
 6009SOL    HW218927   4.179   1.046   4.595
 6010SOL     OW18928   1.345   3.797   3.554
 6010SOL    HW118929   1.263   3.756   3.514
 6010SOL    HW218930   1.321   3.883   3.600
 6011SOL     OW18931   4.801   2.879   3.051
 6011SOL    HW118932   4.848   2.966   3.037
 6011SOL    HW218933   4.785   2.865   3.149
 6012SOL     OW18934   5.350   0.973   0.264
 6012SOL    HW118935   5.337   1.012   0.355
 6012SOL    HW218936   5.430   0.913   0.265
 6013SOL     OW18937   6.112   2.853   2.484
 6013SOL    HW118938   6.081   2.925   2.547
 6013SOL    HW218939   6.083   2.876   2.391
 6014SOL     OW18940   4.290   3.039   0.587
 6014SOL    HW118941   4.291   2.997   0.496
 6014SOL    HW218942   4.382   3.036   0.626
 6015SOL     OW18943   5.583   2.335   4.899
 6015SOL    HW118944   5.570   2.249   4.850
 6015SOL    HW218945   5.674   2.337   4.940
 6016SOL     OW18946   6.980   1.599   6.036
 6016SOL    HW118947   6.944   1.573   5.946
 6016SOL    HW218948   7.005   1.516   6.086
 6017SOL     OW18949   0.188   4.520   2.809
 6017SOL    HW118950   0.088   4.527   2.801
 6017SOL    HW218951   0.222   4.452   2.744
 6018SOL     OW18952   3.164   0.972   6.905
 6018SOL    HW118953   3.207   0.949   6.818
 6018SOL    HW218954   3.196   0.910   6.977
 6019SOL     OW18955   6.276   1.870   4.167
 6019SOL    HW118956   6.327   1.910   4.091
 6019SOL    HW218957   6.320   1.786   4.198
 6020SOL     OW18958   2.197   5.060   1.773
 6020SOL    HW118959   2.181   5.136   1.710
 6020SOL    HW218960   2.295   5.055   1.793
 6021SOL     OW18961   4.203   1.290   2.099
 6021SOL    HW118962   4.272   1.314   2.167
 6021SOL    HW218963   4.191   1.191   2.097
 6022SOL     OW18964   4.902   1.843   4.807
 6022SOL    HW118965   4.859   1.831   4.718
 6022SOL    HW218966   4.867   1.925   4.852
 6023SOL     OW18967   5.813   1.175   2.090
 6023SOL    HW118968   5.878   1.248   2.114
 6023SOL    HW218969   5.797   1.176   1.991
 6024SOL     OW18970   0.562   4.528   3.095
 6024SOL    HW118971   0.495   4.589   3.137
 6024SOL    HW218972   0.626   4.582   3.039
 6025SOL     OW18973   3.692   1.608   2.367
 6025SOL    HW118974   3.656   1.699   2.385
 6025SOL    HW218975   3.773   1.591   2.424
 6026SOL     OW18976   0.096   4.284   4.536
 6026SOL    HW118977   0.142   4.369   4.563
 6026SOL    HW218978   7.014   4.292   4.552
 6027SOL     OW18979   1.213   3.568   6.277
 6027SOL    HW118980   1.150   3.542   6.204
 6027SOL    HW218981   1.172   3.642   6.331
 6028SOL     OW18982   0.789   4.482   0.416
 6028SOL    HW118983   0.771   4.502   0.513
 6028SOL    HW218984   0.776   4.384   0.400
 6029SOL     OW18985   2.117   6.406   5.002
 6029SOL    HW118986   2.158   6.414   4.911
 6029SOL    HW218987   2.158   6.473   5.063
 6030SOL     OW18988   4.222   6.445   2.991
 6030SOL    HW118989   4.210   6.437   2.892
 6030SOL    HW218990   4.304   6.500   3.010
 6031SOL     OW18991   3.904   5.107   3.225
 6031SOL    HW118992   3.827   5.096   3.288
 6031SOL    HW218993   3.912   5.025   3.167
 6032SOL     OW18994   2.304   4.161   3.226
 6032SOL    HW118995   2.231   4.096   3.245
 6032SOL    HW218996   2.313   4.174   3.128
 6033SOL     OW18997   3.009   1.751   2.168
 6033SOL    HW118998   2.997   1.662   2.213
 6033SOL    HW218999   2.975   1.745   2.074
 6034SOL     OW19000   1.434   5.504   4.490
 6034SOL    HW119001   1.480   5.568   4.429
 6034SOL    HW219002   1.462   5.522   4.585
 6035SOL     OW19003   0.203   0.435   2.596
 6035SOL    HW119004   0.131   0.395   2.653
 6035SOL    HW219005   0.163   0.467   2.510
 6036SOL     OW19006   6.606   6.266   4.090
 6036SOL    HW119007   6.699   6.237   4.112
 6036SOL    HW219008   6.549   6.186   4.074
 6037SOL     OW19009   4.146   5.176   5.930
 6037SOL    HW119010   4.152   5.271   5.959
 6037SOL    HW219011   4.239   5.139   5.918
 6038SOL     OW19012   1.235   3.021   6.251
 6038SOL    HW119013   1.288   2.982   6.176
 6038SOL    HW219014   1.263   3.116   6.267
 6039SOL     OW19015   3.160   3.005   2.741
 6039SOL    HW119016   3.153   3.059   2.657
 6039SOL    HW219017   3.069   2.990   2.779
 6040SOL     OW19018   0.476   2.133   6.604
 6040SOL    HW119019   0.470   2.154   6.506
 6040SOL    HW219020   0.565   2.161   6.639
 6041SOL     OW19021   2.246   0.296   5.097
 6041SOL    HW119022   2.258   0.323   5.193
 6041SOL    HW219023   2.323   0.329   5.043
 6042SOL     OW19024   5.181   5.724   2.302
 6042SOL    HW119025   5.203   5.821   2.310
 6042SOL    HW219026   5.168   5.701   2.205
 6043SOL     OW19027   0.847   4.503   5.362
 6043SOL    HW119028   0.892   4.415   5.381
 6043SOL    HW219029   0.859   4.564   5.440
 6044SOL     OW19030   1.640   2.064   1.392
 6044SOL    HW119031   1.731   2.040   1.426
 6044SOL    HW219032   1.630   2.163   1.392
 6045SOL     OW19033   6.460   5.075   0.647
 6045SOL    HW119034   6.388   5.005   0.649
 6045SOL    HW219035   6.418   5.166   0.646
 6046SOL     OW19036   3.046   1.752   0.123
 6046SOL    HW119037   3.066   1.806   0.205
 6046SOL    HW219038   3.123   1.691   0.104
 6047SOL     OW19039   6.124   2.469   2.123
 6047SOL    HW119040   6.207   2.460   2.178
 6047SOL    HW219041   6.148   2.463   2.026
 6048SOL     OW19042   4.582   6.470   4.045
 6048SOL    HW119043   4.670   6.493   4.086
 6048SOL    HW219044   4.550   6.382   4.082
 6049SOL     OW19045   6.088   3.456   5.892
 6049SOL    HW119046   6.009   3.397   5.912
 6049SOL    HW219047   6.130   3.427   5.806
 6050SOL     OW19048   2.823   4.956   5.249
 6050SOL    HW119049   2.829   5.026   5.178
 6050SOL    HW219050   2.828   4.866   5.208
 6051SOL     OW19051   2.084   1.702   4.328
 6051SOL    HW119052   2.137   1.641   4.387
 6051SOL    HW219053   2.080   1.664   4.236
 6052SOL     OW19054   6.220   6.555   0.449
 6052SOL    HW119055   6.205   6.611   0.530
 6052SOL    HW219056   6.136   6.552   0.395
 6053SOL     OW19057   3.127   0.927   6.243
 6053SOL    HW119058   3.125   0.999   6.173
 6053SOL    HW219059   3.135   0.838   6.200
 6054SOL     OW19060   2.689   3.843   0.514
 6054SOL    HW119061   2.786   3.859   0.529
 6054SOL    HW219062   2.642   3.834   0.602
 6055SOL     OW19063   5.231   1.246   5.788
 6055SOL    HW119064   5.290   1.304   5.844
 6055SOL    HW219065   5.137   1.253   5.820
 6056SOL     OW19066   5.003   2.941   4.597
 6056SOL    HW119067   4.950   2.872   4.647
 6056SOL    HW219068   4.951   3.026   4.593
 6057SOL     OW19069   5.275   2.878   4.725
 6057SOL    HW119070   5.315   2.968   4.710
 6057SOL    HW219071   5.186   2.872   4.679
 6058SOL     OW19072   5.002   2.586   1.738
 6058SOL    HW119073   5.061   2.575   1.818
 6058SOL    HW219074   4.988   2.683   1.721
 6059SOL     OW19075   4.782   5.601   4.785
 6059SOL    HW119076   4.816   5.648   4.866
 6059SOL    HW219077   4.792   5.502   4.797
 6060SOL     OW19078   3.304   4.264   6.690
 6060SOL    HW119079   3.394   4.233   6.659
 6060SOL    HW219080   3.237   4.191   6.675
 6061SOL     OW19081   3.909   2.340   1.262
 6061SOL    HW119082   3.943   2.319   1.354
 6061SOL    HW219083   3.849   2.420   1.266
 6062SOL     OW19084   1.504   1.551   5.022
 6062SOL    HW119085   1.571   1.478   5.018
 6062SOL    HW219086   1.548   1.638   5.001
 6063SOL     OW19087   3.390   1.392   6.470
 6063SOL    HW119088   3.314   1.383   6.404
 6063SOL    HW219089   3.353   1.407   6.561
 6064SOL     OW19090   2.651   6.134   1.708
 6064SOL    HW119091   2.693   6.223   1.723
 6064SOL    HW219092   2.683   6.096   1.621
 6065SOL     OW19093   5.972   6.897   2.073
 6065SOL    HW119094   5.941   6.803   2.068
 6065SOL    HW219095   6.057   6.902   2.127
 6066SOL     OW19096   4.714   1.812   6.482
 6066SOL    HW119097   4.763   1.846   6.401
 6066SOL    HW219098   4.749   1.857   6.564
 6067SOL     OW19099   5.381   1.402   5.959
 6067SOL    HW119100   5.465   1.452   5.940
 6067SOL    HW219101   5.344   1.432   6.047
 6068SOL     OW19102   5.672   2.636   4.836
 6068SOL    HW119103   5.628   2.571   4.774
 6068SOL    HW219104   5.769   2.643   4.812
 6069SOL     OW19105   6.718   3.257   5.198
 6069SOL    HW119106   6.689   3.267   5.103
 6069SOL    HW219107   6.642   3.278   5.259
 6070SOL     OW19108   2.714   2.060   6.739
 6070SOL    HW119109   2.806   2.020   6.735
 6070SOL    HW219110   2.721   2.157   6.760
 6071SOL     OW19111   5.875   4.839   4.543
 6071SOL    HW119112   5.815   4.794   4.609
 6071SOL    HW219113   5.970   4.813   4.562
 6072SOL     OW19114   6.874   0.026   2.311
 6072SOL    HW119115   6.831   0.116   2.321
 6072SOL    HW219116   6.806   6.976   2.278
 6073SOL     OW19117   6.264   4.095   0.575
 6073SOL    HW119118   6.258   4.191   0.551
 6073SOL    HW219119   6.348   4.056   0.536
 6074SOL     OW19120   1.220   6.485   4.273
 6074SOL    HW119121   1.212   6.518   4.367
 6074SOL    HW219122   1.156   6.536   4.215
 6075SOL     OW19123   6.954   2.016   6.993
 6075SOL    HW119124   7.010   1.971   0.046
 6075SOL    HW219125   6.858   1.993   7.008
 6076SOL     OW19126   2.239   5.909   4.210
 6076SOL    HW119127   2.312   5.907   4.143
 6076SOL    HW219128   2.231   5.819   4.254
 6077SOL     OW19129   5.004   5.868   1.901
 6077SOL    HW119130   5.064   5.939   1.865
 6077SOL    HW219131   4.920   5.866   1.848
 6078SOL     OW19132   3.957   4.784   1.562
 6078SOL    HW119133   3.999   4.849   1.499
 6078SOL    HW219134   3.901   4.832   1.629
 6079SOL     OW19135   3.056   2.802   6.165
 6079SOL    HW119136   3.021   2.870   6.100
 6079SOL    HW219137   3.054   2.711   6.122
 6080SOL     OW19138   6.761   1.006   1.735
 6080SOL    HW119139   6.690   1.000   1.665
 6080SOL    HW219140   6.723   1.051   1.816
 6081SOL     OW19141   6.077   3.265   5.037
 6081SOL    HW119142   6.140   3.213   5.095
 6081SOL    HW219143   5.983   3.242   5.063
 6082SOL     OW19144   2.553   1.701   3.192
 6082SOL    HW119145   2.642   1.657   3.190
 6082SOL    HW219146   2.490   1.647   3.250
 6083SOL     OW19147   0.211   5.119   6.734
 6083SOL    HW119148   0.245   5.169   6.814
 6083SOL    HW219149   0.285   5.111   6.667
 6084SOL     OW19150   0.091   5.664   3.462
 6084SOL    HW119151   0.042   5.580   3.482
 6084SOL    HW219152   0.170   5.645   3.404
 6085SOL     OW19153   0.389   4.404   0.375
 6085SOL    HW119154   0.450   4.345   0.428
 6085SOL    HW219155   0.442   4.453   0.305
 6086SOL     OW19156   2.878   1.502   5.311
 6086SOL    HW119157   2.949   1.441   5.276
 6086SOL    HW219158   2.833   1.548   5.235
 6087SOL     OW19159   4.201   5.508   0.425
 6087SOL    HW119160   4.300   5.495   0.432
 6087SOL    HW219161   4.174   5.511   0.329
 6088SOL     OW19162   5.837   6.547   4.910
 6088SOL    HW119163   5.787   6.464   4.885
 6088SOL    HW219164   5.771   6.620   4.930
 6089SOL     OW19165   6.899   3.088   1.213
 6089SOL    HW119166   6.804   3.092   1.245
 6089SOL    HW219167   6.959   3.061   1.288
 6090SOL     OW19168   2.114   6.606   5.604
 6090SOL    HW119169   2.057   6.686   5.620
 6090SOL    HW219170   2.148   6.571   5.692
 6091SOL     OW19171   2.171   1.859   2.160
 6091SOL    HW119172   2.161   1.956   2.139
 6091SOL    HW219173   2.151   1.842   2.256
 6092SOL     OW19174   3.090   0.393   3.258
 6092SOL    HW119175   3.175   0.341   3.267
 6092SOL    HW219176   3.054   0.414   3.349
 6093SOL     OW19177   0.809   3.013   3.000
 6093SOL    HW119178   0.769   3.034   3.089
 6093SOL    HW219179   0.750   2.950   2.950
 6094SOL     OW19180   4.248   0.911   1.510
 6094SOL    HW119181   4.316   0.838   1.501
 6094SOL    HW219182   4.157   0.871   1.518
 6095SOL     OW19183   4.367   3.952   6.883
 6095SOL    HW119184   4.387   4.050   6.875
 6095SOL    HW219185   4.453   3.902   6.894
 6096SOL     OW19186   5.855   0.485   4.335
 6096SOL    HW119187   5.927   0.526   4.278
 6096SOL    HW219188   5.819   0.553   4.397
 6097SOL     OW19189   1.667   0.232   2.057
 6097SOL    HW119190   1.674   0.326   2.090
 6097SOL    HW219191   1.753   0.206   2.012
 6098SOL     OW19192   1.422   2.348   6.696
 6098SOL    HW119193   1.426   2.272   6.630
 6098SOL    HW219194   1.327   2.379   6.705
 6099SOL     OW19195   0.217   6.030   0.469
 6099SOL    HW119196   0.145   6.061   0.407
 6099SOL    HW219197   0.304   6.072   0.443
 6100SOL     OW19198   4.696   3.365   0.200
 6100SOL    HW119199   4.780   3.321   0.231
 6100SOL    HW219200   4.667   3.433   0.268
 6101SOL     OW19201   6.519   2.003   4.773
 6101SOL    HW119202   6.526   1.933   4.702
 6101SOL    HW219203   6.423   2.021   4.792
 6102SOL     OW19204   3.647   0.454   3.502
 6102SOL    HW119205   3.547   0.452   3.493
 6102SOL    HW219206   3.672   0.425   3.594
 6103SOL     OW19207   0.580   2.423   2.419
 6103SOL    HW119208   0.611   2.350   2.358
 6103SOL    HW219209   0.506   2.474   2.376
 6104SOL     OW19210   6.131   1.643   5.444
 6104SOL    HW119211   6.052   1.647   5.505
 6104SOL    HW219212   6.215   1.641   5.497
 6105SOL     OW19213   1.767   0.863   5.419
 6105SOL    HW119214   1.725   0.773   5.414
 6105SOL    HW219215   1.845   0.861   5.482
 6106SOL     OW19216   1.599   3.801   5.767
 6106SOL    HW119217   1.675   3.776   5.827
 6106SOL    HW219218   1.512   3.785   5.814
 6107SOL     OW19219   2.715   4.656   4.209
 6107SOL    HW119220   2.791   4.717   4.185
 6107SOL    HW219221   2.752   4.572   4.248
 6108SOL     OW19222   0.793   2.709   2.059
 6108SOL    HW119223   0.751   2.620   2.043
 6108SOL    HW219224   0.749   2.753   2.137
 6109SOL     OW19225   5.030   3.052   6.339
 6109SOL    HW119226   5.021   2.955   6.314
 6109SOL    HW219227   4.985   3.108   6.269
 6110SOL     OW19228   3.568   2.753   0.112
 6110SOL    HW119229   3.509   2.678   0.141
 6110SOL    HW219230   3.663   2.724   0.114
 6111SOL     OW19231   2.317   4.359   2.236
 6111SOL    HW119232   2.334   4.358   2.334
 6111SOL    HW219233   2.277   4.271   2.208
 6112SOL     OW19234   3.364   0.513   3.465
 6112SOL    HW119235   3.385   0.503   3.368
 6112SOL    HW219236   3.377   0.608   3.493
 6113SOL     OW19237   0.958   1.173   6.118
 6113SOL    HW119238   0.972   1.076   6.137
 6113SOL    HW219239   0.937   1.221   6.203
 6114SOL     OW19240   4.919   4.977   0.851
 6114SOL    HW119241   4.867   5.026   0.922
 6114SOL    HW219242   4.857   4.919   0.798
 6115SOL     OW19243   5.460   6.585   3.254
 6115SOL    HW119244   5.540   6.528   3.272
 6115SOL    HW219245   5.410   6.600   3.339
 6116SOL     OW19246   2.459   1.025   0.322
 6116SOL    HW119247   2.527   1.098   0.326
 6116SOL    HW219248   2.367   1.064   0.328
 6117SOL     OW19249   6.767   0.632   5.927
 6117SOL    HW119250   6.860   0.659   5.952
 6117SOL    HW219251   6.724   0.586   6.004
 6118SOL     OW19252   6.516   0.761   1.430
 6118SOL    HW119253   6.510   0.757   1.331
 6118SOL    HW219254   6.606   0.728   1.460
 6119SOL     OW19255   0.284   3.576   5.014
 6119SOL    HW119256   0.323   3.665   4.991
 6119SOL    HW219257   0.356   3.507   5.015
 6120SOL     OW19258   4.227   6.977   3.817
 6120SOL    HW119259   4.309   0.015   3.797
 6120SOL    HW219260   4.155   0.021   3.851
 6121SOL     OW19261   0.101   3.172   4.609
 6121SOL    HW119262   0.039   3.152   4.533
 6121SOL    HW219263   0.051   3.168   4.695
 6122SOL     OW19264   3.713   6.963   1.749
 6122SOL    HW119265   3.628   7.014   1.750
 6122SOL    HW219266   3.767   6.990   1.669
 6123SOL     OW19267   6.768   0.408   6.635
 6123SOL    HW119268   6.844   0.343   6.630
 6123SOL    HW219269   6.688   0.363   6.674
 6124SOL     OW19270   2.029   1.135   6.956
 6124SOL    HW119271   2.105   1.155   0.001
 6124SOL    HW219272   1.947   1.183   6.988
 6125SOL     OW19273   2.849   5.673   0.036
 6125SOL    HW119274   2.895   5.762   0.039
 6125SOL    HW219275   2.917   5.600   0.048
 6126SOL     OW19276   6.759   6.546   4.007
 6126SOL    HW119277   6.833   6.481   4.025
 6126SOL    HW219278   6.759   6.570   3.910
 6127SOL     OW19279   2.771   0.153   2.447
 6127SOL    HW119280   2.816   0.164   2.536
 6127SOL    HW219281   2.672   0.144   2.461
 6128SOL     OW19282   6.294   3.690   0.365
 6128SOL    HW119283   6.228   3.655   0.432
 6128SOL    HW219284   6.304   3.625   0.290
 6129SOL     OW19285   6.307   3.898   3.157
 6129SOL    HW119286   6.275   3.967   3.222
 6129SOL    HW219287   6.333   3.942   3.071
 6130SOL     OW19288   5.989   1.876   4.196
 6130SOL    HW119289   6.088   1.889   4.183
 6130SOL    HW219290   5.953   1.823   4.120
 6131SOL     OW19291   6.754   1.453   5.098
 6131SOL    HW119292   6.734   1.422   5.191
 6131SOL    HW219293   6.676   1.504   5.062
 6132SOL     OW19294   5.049   1.247   0.304
 6132SOL    HW119295   5.142   1.214   0.284
 6132SOL    HW219296   5.038   1.338   0.265
 6133SOL     OW19297   0.790   2.400   2.611
 6133SOL    HW119298   0.742   2.418   2.524
 6133SOL    HW219299   0.740   2.443   2.686
 6134SOL     OW19300   4.165   4.459   0.081
 6134SOL    HW119301   4.180   4.422   7.006
 6134SOL    HW219302   4.196   4.554   0.084
 6135SOL     OW19303   0.073   0.025   1.514
 6135SOL    HW119304   0.019   0.081   1.577
 6135SOL    HW219305   0.168   0.057   1.515
 6136SOL     OW19306   1.065   2.562   1.868
 6136SOL    HW119307   1.032   2.520   1.783
 6136SOL    HW219308   1.030   2.511   1.946
 6137SOL     OW19309   5.721   2.193   4.068
 6137SOL    HW119310   5.684   2.104   4.093
 6137SOL    HW219311   5.733   2.249   4.150
 6138SOL     OW19312   4.370   6.269   1.942
 6138SOL    HW119313   4.460   6.228   1.944
 6138SOL    HW219314   4.378   6.366   1.918
 6139SOL     OW19315   2.133   2.168   5.698
 6139SOL    HW119316   2.123   2.267   5.686
 6139SOL    HW219317   2.043   2.125   5.689
 6140SOL     OW19318   0.227   6.158   1.848
 6140SOL    HW119319   0.162   6.085   1.872
 6140SOL    HW219320   0.317   6.118   1.834
 6141SOL     OW19321   5.932   5.884   6.093
 6141SOL    HW119322   5.995   5.950   6.134
 6141SOL    HW219323   5.904   5.917   6.002
 6142SOL     OW19324   6.889   5.023   0.841
 6142SOL    HW119325   6.881   5.111   0.793
 6142SOL    HW219326   6.814   4.963   0.813
 6143SOL     OW19327   6.065   4.900   0.478
 6143SOL    HW119328   6.096   4.937   0.565
 6143SOL    HW219329   6.070   4.971   0.408
 6144SOL     OW19330   5.914   4.917   2.704
 6144SOL    HW119331   5.950   4.838   2.754
 6144SOL    HW219332   5.970   4.933   2.623
 6145SOL     OW19333   4.737   5.546   4.277
 6145SOL    HW119334   4.820   5.563   4.330
 6145SOL    HW219335   4.680   5.628   4.276
 6146SOL     OW19336   3.649   0.663   3.303
 6146SOL    HW119337   3.653   0.605   3.384
 6146SOL    HW219338   3.616   0.754   3.329
 6147SOL     OW19339   1.408   3.987   3.947
 6147SOL    HW119340   1.441   3.895   3.969
 6147SOL    HW219341   1.481   4.039   3.904
 6148SOL     OW19342   0.297   6.814   4.860
 6148SOL    HW119343   0.345   6.887   4.909
 6148SOL    HW219344   0.255   6.851   4.778
 6149SOL     OW19345   3.526   5.219   1.991
 6149SOL    HW119346   3.556   5.231   1.897
 6149SOL    HW219347   3.491   5.306   2.026
 6150SOL     OW19348   3.914   4.858   6.419
 6150SOL    HW119349   3.821   4.833   6.389
 6150SOL    HW219350   3.920   4.847   6.518
 6151SOL     OW19351   6.056   3.692   5.403
 6151SOL    HW119352   6.121   3.764   5.429
 6151SOL    HW219353   6.097   3.635   5.331
 6152SOL     OW19354   5.991   5.650   5.225
 6152SOL    HW119355   5.940   5.727   5.264
 6152SOL    HW219356   6.041   5.603   5.298
 6153SOL     OW19357   4.692   3.505   1.777
 6153SOL    HW119358   4.598   3.472   1.776
 6153SOL    HW219359   4.700   3.586   1.720
 6154SOL     OW19360   5.685   1.684   2.645
 6154SOL    HW119361   5.625   1.748   2.598
 6154SOL    HW219362   5.769   1.730   2.671
 6155SOL     OW19363   2.045   2.106   4.547
 6155SOL    HW119364   2.109   2.038   4.513
 6155SOL    HW219365   2.017   2.166   4.473
 6156SOL     OW19366   4.613   4.805   2.599
 6156SOL    HW119367   4.694   4.759   2.633
 6156SOL    HW219368   4.536   4.742   2.599
 6157SOL     OW19369   1.340   1.515   4.353
 6157SOL    HW119370   1.416   1.558   4.305
 6157SOL    HW219371   1.259   1.574   4.348
 6158SOL     OW19372   4.125   0.977   5.715
 6158SOL    HW119373   4.144   0.977   5.617
 6158SOL    HW219374   4.211   0.970   5.766
 6159SOL     OW19375   4.770   2.235   1.544
 6159SOL    HW119376   4.693   2.262   1.602
 6159SOL    HW219377   4.818   2.317   1.513
 6160SOL     OW19378   4.458   6.532   6.540
 6160SOL    HW119379   4.537   6.484   6.501
 6160SOL    HW219380   4.489   6.589   6.617
 6161SOL     OW19381   6.346   1.762   5.132
 6161SOL    HW119382   6.394   1.720   5.209
 6161SOL    HW219383   6.261   1.804   5.165
 6162SOL     OW19384   1.156   6.072   3.356
 6162SOL    HW119385   1.089   6.046   3.286
 6162SOL    HW219386   1.181   6.168   3.345
 6163SOL     OW19387   5.628   6.206   1.347
 6163SOL    HW119388   5.612   6.186   1.250
 6163SOL    HW219389   5.650   6.122   1.395
 6164SOL     OW19390   2.872   3.066   1.462
 6164SOL    HW119391   2.877   2.969   1.486
 6164SOL    HW219392   2.964   3.106   1.464
 6165SOL     OW19393   4.796   0.096   6.569
 6165SOL    HW119394   4.847   0.024   6.521
 6165SOL    HW219395   4.799   0.078   6.667
 6166SOL     OW19396   3.923   0.735   6.132
 6166SOL    HW119397   3.996   0.695   6.077
 6166SOL    HW219398   3.948   0.732   6.228
 6167SOL     OW19399   0.955   4.109   2.899
 6167SOL    HW119400   1.018   4.164   2.953
 6167SOL    HW219401   0.988   4.015   2.895
 6168SOL     OW19402   0.666   3.447   1.310
 6168SOL    HW119403   0.575   3.407   1.318
 6168SOL    HW219404   0.669   3.508   1.231
 6169SOL     OW19405   1.558   3.179   1.505
 6169SOL    HW119406   1.641   3.131   1.478
 6169SOL    HW219407   1.511   3.127   1.576
 6170SOL     OW19408   1.077   3.707   5.430
 6170SOL    HW119409   1.072   3.639   5.357
 6170SOL    HW219410   0.984   3.734   5.457
 6171SOL     OW19411   0.715   2.542   0.301
 6171SOL    HW119412   0.748   2.586   0.385
 6171SOL    HW219413   0.716   2.443   0.312
 6172SOL     OW19414   1.376   3.074   2.632
 6172SOL    HW119415   1.372   3.170   2.605
 6172SOL    HW219416   1.344   3.017   2.556
 6173SOL     OW19417   6.496   5.034   2.696
 6173SOL    HW119418   6.401   5.019   2.723
 6173SOL    HW219419   6.507   5.127   2.661
 6174SOL     OW19420   5.358   5.833   3.825
 6174SOL    HW119421   5.307   5.915   3.854
 6174SOL    HW219422   5.299   5.775   3.770
 6175SOL     OW19423   4.278   0.498   4.144
 6175SOL    HW119424   4.198   0.515   4.085
 6175SOL    HW219425   4.287   0.399   4.159
 6176SOL     OW19426   5.393   3.752   6.091
 6176SOL    HW119427   5.492   3.755   6.079
 6176SOL    HW219428   5.372   3.736   6.188
 6177SOL     OW19429   6.007   1.746   2.021
 6177SOL    HW119430   6.042   1.773   1.931
 6177SOL    HW219431   5.936   1.676   2.009
 6178SOL     OW19432   5.183   4.925   2.049
 6178SOL    HW119433   5.271   4.971   2.058
 6178SOL    HW219434   5.185   4.865   1.969
 6179SOL     OW19435   6.928   4.639   2.817
 6179SOL    HW119436   6.930   4.687   2.905
 6179SOL    HW219437   6.961   4.700   2.745
 6180SOL     OW19438   2.671   4.807   1.152
 6180SOL    HW119439   2.679   4.907   1.151
 6180SOL    HW219440   2.676   4.774   1.246
 6181SOL     OW19441   5.140   6.619   6.189
 6181SOL    HW119442   5.177   6.576   6.107
 6181SOL    HW219443   5.132   6.718   6.174
 6182SOL     OW19444   4.277   3.085   6.564
 6182SOL    HW119445   4.272   3.068   6.465
 6182SOL    HW219446   4.354   3.145   6.583
 6183SOL     OW19447   1.734   2.548   2.776
 6183SOL    HW119448   1.815   2.602   2.796
 6183SOL    HW219449   1.761   2.456   2.748
 6184SOL     OW19450   3.137   6.589   6.286
 6184SOL    HW119451   3.167   6.645   6.364
 6184SOL    HW219452   3.080   6.644   6.225
 6185SOL     OW19453   0.611   3.860   6.215
 6185SOL    HW119454   0.563   3.871   6.128
 6185SOL    HW219455   0.551   3.885   6.291
 6186SOL     OW19456   5.781   1.047   0.898
 6186SOL    HW119457   5.748   1.134   0.860
 6186SOL    HW219458   5.819   1.063   0.989
 6187SOL     OW19459   4.707   2.699   4.093
 6187SOL    HW119460   4.773   2.762   4.133
 6187SOL    HW219461   4.653   2.656   4.166
 6188SOL     OW19462   1.542   1.743   6.204
 6188SOL    HW119463   1.509   1.669   6.146
 6188SOL    HW219464   1.488   1.748   6.288
 6189SOL     OW19465   4.392   4.862   2.949
 6189SOL    HW119466   4.317   4.891   3.008
 6189SOL    HW219467   4.436   4.781   2.988
 6190SOL     OW19468   6.995   3.935   5.159
 6190SOL    HW119469   7.006   4.021   5.108
 6190SOL    HW219470   6.932   3.875   5.109
 6191SOL     OW19471   2.992   2.992   5.966
 6191SOL    HW119472   2.926   2.991   5.891
 6191SOL    HW219473   2.987   3.080   6.013
 6192SOL     OW19474   2.749   2.171   6.384
 6192SOL    HW119475   2.737   2.075   6.359
 6192SOL    HW219476   2.824   2.180   6.450
 6193SOL     OW19477   4.380   6.138   1.321
 6193SOL    HW119478   4.306   6.078   1.291
 6193SOL    HW219479   4.347   6.196   1.395
 6194SOL     OW19480   6.698   0.406   6.370
 6194SOL    HW119481   6.737   0.398   6.462
 6194SOL    HW219482   6.707   0.318   6.322
 6195SOL     OW19483   5.224   6.058   3.895
 6195SOL    HW119484   5.297   6.123   3.915
 6195SOL    HW219485   5.146   6.077   3.955
 6196SOL     OW19486   4.870   3.717   2.568
 6196SOL    HW119487   4.921   3.798   2.537
 6196SOL    HW219488   4.894   3.639   2.510
 6197SOL     OW19489   2.353   5.486   1.895
 6197SOL    HW119490   2.368   5.400   1.944
 6197SOL    HW219491   2.256   5.496   1.873
 6198SOL     OW19492   4.250   6.875   0.737
 6198SOL    HW119493   4.207   6.916   0.657
 6198SOL    HW219494   4.227   6.928   0.819
 6199SOL     OW19495   0.566   0.783   0.290
 6199SOL    HW119496   0.609   0.785   0.380
 6199SOL    HW219497   0.486   0.842   0.290
 6200SOL     OW19498   0.693   1.837   5.239
 6200SOL    HW119499   0.763   1.776   5.200
 6200SOL    HW219500   0.696   1.925   5.193
 6201SOL     OW19501   0.499   3.390   5.012
 6201SOL    HW119502   0.564   3.412   4.940
 6201SOL    HW219503   0.544   3.400   5.101
 6202SOL     OW19504   5.201   1.200   2.366
 6202SOL    HW119505   5.211   1.189   2.464
 6202SOL    HW219506   5.129   1.267   2.347
 6203SOL     OW19507   5.714   5.998   1.963
 6203SOL    HW119508   5.713   6.061   2.040
 6203SOL    HW219509   5.781   6.029   1.895
 6204SOL     OW19510   0.969   5.524   4.960
 6204SOL    HW119511   0.979   5.605   4.902
 6204SOL    HW219512   0.926   5.451   4.907
 6205SOL     OW19513   6.124   4.948   1.115
 6205SOL    HW119514   6.195   4.940   1.186
 6205SOL    HW219515   6.076   4.861   1.106
 6206SOL     OW19516   5.940   1.365   2.292
 6206SOL    HW119517   5.876   1.430   2.335
 6206SOL    HW219518   6.011   1.416   2.243
 6207SOL     OW19519   2.274   6.565   5.375
 6207SOL    HW119520   2.221   6.517   5.305
 6207SOL    HW219521   2.213   6.596   5.448
 6208SOL     OW19522   3.599   2.301   5.384
 6208SOL    HW119523   3.627   2.271   5.292
 6208SOL    HW219524   3.654   2.380   5.411
 6209SOL     OW19525   3.329   5.613   0.079
 6209SOL    HW119526   3.376   5.526   0.092
 6209SOL    HW219527   3.285   5.615   7.005
 6210SOL     OW19528   4.868   3.834   3.147
 6210SOL    HW119529   4.877   3.748   3.096
 6210SOL    HW219530   4.807   3.895   3.097
 6211SOL     OW19531   3.362   6.783   5.456
 6211SOL    HW119532   3.438   6.719   5.464
 6211SOL    HW219533   3.276   6.733   5.459
 6212SOL     OW19534   2.510   4.744   4.355
 6212SOL    HW119535   2.509   4.843   4.364
 6212SOL    HW219536   2.588   4.717   4.298
 6213SOL     OW19537   4.295   6.776   0.124
 6213SOL    HW119538   4.370   6.800   0.061
 6213SOL    HW219539   4.292   6.842   0.199
 6214SOL     OW19540   5.634   5.967   5.385
 6214SOL    HW119541   5.551   6.022   5.393
 6214SOL    HW219542   5.616   5.887   5.328
 6215SOL     OW19543   3.264   2.516   0.019
 6215SOL    HW119544   3.167   2.508   7.012
 6215SOL    HW219545   3.313   2.555   6.957
 6216SOL     OW19546   6.333   1.973   2.167
 6216SOL    HW119547   6.259   2.009   2.224
 6216SOL    HW219548   6.330   2.016   2.077
 6217SOL     OW19549   0.753   4.311   3.120
 6217SOL    HW119550   0.839   4.362   3.129
 6217SOL    HW219551   0.676   4.375   3.126
 6218SOL     OW19552   3.686   0.018   0.011
 6218SOL    HW119553   3.655   6.953   6.979
 6218SOL    HW219554   3.767   0.056   6.981
 6219SOL     OW19555   1.558   1.038   4.930
 6219SOL    HW119556   1.463   1.005   4.928
 6219SOL    HW219557   1.610   0.987   4.998
 6220SOL     OW19558   3.283   1.405   5.505
 6220SOL    HW119559   3.323   1.474   5.445
 6220SOL    HW219560   3.315   1.420   5.599
 6221SOL     OW19561   6.333   6.897   0.257
 6221SOL    HW119562   6.336   6.964   0.182
 6221SOL    HW219563   6.413   6.910   0.316
 6222SOL     OW19564   0.638   0.486   2.482
 6222SOL    HW119565   0.704   0.411   2.478
 6222SOL    HW219566   0.628   0.515   2.577
 6223SOL     OW19567   1.778   5.248   3.201
 6223SOL    HW119568   1.732   5.226   3.287
 6223SOL    HW219569   1.845   5.321   3.217
 6224SOL     OW19570   3.729   1.304   5.780
 6224SOL    HW119571   3.695   1.397   5.794
 6224SOL    HW219572   3.801   1.306   5.710
 6225SOL     OW19573   4.087   2.600   6.614
 6225SOL    HW119574   4.155   2.568   6.680
 6225SOL    HW219575   4.040   2.521   6.574
 6226SOL     OW19576   1.075   1.391   3.862
 6226SOL    HW119577   1.161   1.442   3.850
 6226SOL    HW219578   1.093   1.309   3.916
 6227SOL     OW19579   3.273   5.191   5.400
 6227SOL    HW119580   3.305   5.176   5.493
 6227SOL    HW219581   3.226   5.110   5.366
 6228SOL     OW19582   0.394   2.521   2.778
 6228SOL    HW119583   0.340   2.451   2.825
 6228SOL    HW219584   0.437   2.581   2.846
 6229SOL     OW19585   0.560   3.050   4.968
 6229SOL    HW119586   0.646   3.098   4.986
 6229SOL    HW219587   0.494   3.115   4.931
 6230SOL     OW19588   0.923   2.080   3.257
 6230SOL    HW119589   0.829   2.101   3.232
 6230SOL    HW219590   0.984   2.149   3.217
 6231SOL     OW19591   5.802   5.468   0.222
 6231SOL    HW119592   5.705   5.473   0.248
 6231SOL    HW219593   5.845   5.557   0.240
 6232SOL     OW19594   6.557   1.141   0.559
 6232SOL    HW119595   6.536   1.232   0.524
 6232SOL    HW219596   6.533   1.073   0.491
 6233SOL     OW19597   6.258   2.790   1.952
 6233SOL    HW119598   6.324   2.803   1.878
 6233SOL    HW219599   6.216   2.878   1.975
 6234SOL     OW19600   0.057   6.892   5.234
 6234SOL    HW119601   0.034   6.989   5.232
 6234SOL    HW219602   7.007   6.840   5.179
 6235SOL     OW19603   0.071   0.740   1.935
 6235SOL    HW119604   0.120   0.675   1.875
 6235SOL    HW219605   0.131   0.767   2.010
 6236SOL     OW19606   6.969   5.130   0.478
 6236SOL    HW119607   6.881   5.164   0.513
 6236SOL    HW219608   0.001   5.083   0.551
 6237SOL     OW19609   3.611   0.317   6.849
 6237SOL    HW119610   3.705   0.341   6.873
 6237SOL    HW219611   3.557   0.304   6.933
 6238SOL     OW19612   4.609   6.534   3.388
 6238SOL    HW119613   4.708   6.546   3.381
 6238SOL    HW219614   4.583   6.522   3.483
 6239SOL     OW19615   4.037   0.801   1.072
 6239SOL    HW119616   4.099   0.818   0.996
 6239SOL    HW219617   3.943   0.812   1.042
 6240SOL     OW19618   3.512   3.669   5.472
 6240SOL    HW119619   3.568   3.728   5.530
 6240SOL    HW219620   3.542   3.677   5.377
 6241SOL     OW19621   4.066   0.539   3.338
 6241SOL    HW119622   4.095   0.634   3.353
 6241SOL    HW219623   4.139   0.477   3.367
 6242SOL     OW19624   3.080   0.611   2.991
 6242SOL    HW119625   3.178   0.598   3.001
 6242SOL    HW219626   3.050   0.688   3.047
 6243SOL     OW19627   6.792   7.007   5.865
 6243SOL    HW119628   6.701   0.030   5.877
 6243SOL    HW219629   6.784   6.911   5.837
 6244SOL     OW19630   5.275   3.627   3.553
 6244SOL    HW119631   5.293   3.684   3.473
 6244SOL    HW219632   5.262   3.684   3.633
 6245SOL     OW19633   0.723   4.421   2.207
 6245SOL    HW119634   0.685   4.348   2.264
 6245SOL    HW219635   0.767   4.381   2.127
 6246SOL     OW19636   0.993   0.860   4.805
 6246SOL    HW119637   0.977   0.894   4.712
 6246SOL    HW219638   1.079   0.898   4.840
 6247SOL     OW19639   1.578   6.435   3.479
 6247SOL    HW119640   1.646   6.438   3.553
 6247SOL    HW219641   1.623   6.449   3.391
 6248SOL     OW19642   3.251   4.053   0.210
 6248SOL    HW119643   3.202   4.000   0.140
 6248SOL    HW219644   3.332   4.094   0.169
 6249SOL     OW19645   6.767   2.493   0.734
 6249SOL    HW119646   6.793   2.478   0.639
 6249SOL    HW219647   6.791   2.586   0.760
 6250SOL     OW19648   6.643   6.865   0.711
 6250SOL    HW119649   6.683   6.773   0.715
 6250SOL    HW219650   6.713   6.930   0.681
 6251SOL     OW19651   3.638   6.172   4.811
 6251SOL    HW119652   3.577   6.223   4.751
 6251SOL    HW219653   3.667   6.088   4.765
 6252SOL     OW19654   2.397   4.503   0.078
 6252SOL    HW119655   2.450   4.419   0.068
 6252SOL    HW219656   2.376   4.518   0.175
 6253SOL     OW19657   2.358   5.123   4.462
 6253SOL    HW119658   2.307   5.118   4.547
 6253SOL    HW219659   2.303   5.171   4.393
 6254SOL     OW19660   6.715   0.314   0.590
 6254SOL    HW119661   6.683   0.275   0.676
 6254SOL    HW219662   6.673   0.264   0.513
 6255SOL     OW19663   2.459   1.555   0.677
 6255SOL    HW119664   2.406   1.598   0.749
 6255SOL    HW219665   2.448   1.607   0.592
 6256SOL     OW19666   4.331   4.947   2.677
 6256SOL    HW119667   4.313   4.850   2.659
 6256SOL    HW219668   4.391   4.955   2.756
 6257SOL     OW19669   3.875   2.980   0.218
 6257SOL    HW119670   3.970   3.010   0.222
 6257SOL    HW219671   3.817   3.055   0.188
 6258SOL     OW19672   3.528   6.940   4.562
 6258SOL    HW119673   3.619   6.932   4.602
 6258SOL    HW219674   3.498   6.850   4.529
 6259SOL     OW19675   1.869   0.832   6.617
 6259SOL    HW119676   1.963   0.848   6.647
 6259SOL    HW219677   1.853   0.876   6.529
 6260SOL     OW19678   3.361   0.273   0.631
 6260SOL    HW119679   3.279   0.218   0.650
 6260SOL    HW219680   3.367   0.347   0.698
 6261SOL     OW19681   4.511   6.417   0.736
 6261SOL    HW119682   4.524   6.373   0.825
 6261SOL    HW219683   4.593   6.406   0.681
 6262SOL     OW19684   1.719   5.884   2.177
 6262SOL    HW119685   1.724   5.862   2.275
 6262SOL    HW219686   1.624   5.878   2.147
 6263SOL     OW19687   0.955   6.653   5.347
 6263SOL    HW119688   0.942   6.662   5.445
 6263SOL    HW219689   0.868   6.671   5.300
 6264SOL     OW19690   1.784   0.150   1.718
 6264SOL    HW119691   1.746   0.094   1.792
 6264SOL    HW219692   1.798   0.093   1.637
 6265SOL     OW19693   4.334   3.432   1.022
 6265SOL    HW119694   4.383   3.516   1.000
 6265SOL    HW219695   4.338   3.370   0.944
 6266SOL     OW19696   4.430   6.603   3.039
 6266SOL    HW119697   4.514   6.549   3.049
 6266SOL    HW219698   4.449   6.699   3.059
 6267SOL     OW19699   1.705   6.958   4.598
 6267SOL    HW119700   1.708   0.035   4.633
 6267SOL    HW219701   1.780   6.905   4.638
 6268SOL     OW19702   2.896   0.859   1.944
 6268SOL    HW119703   2.944   0.823   2.023
 6268SOL    HW219704   2.875   0.956   1.959
 6269SOL     OW19705   5.947   6.953   1.815
 6269SOL    HW119706   5.945   6.938   1.913
 6269SOL    HW219707   6.030   7.002   1.790
 6270SOL     OW19708   0.639   0.072   6.964
 6270SOL    HW119709   0.604   7.010   0.001
 6270SOL    HW219710   0.732   0.052   6.932
 6271SOL     OW19711   6.433   2.543   6.538
 6271SOL    HW119712   6.525   2.536   6.574
 6271SOL    HW219713   6.367   2.534   6.613
 6272SOL     OW19714   0.695   1.420   0.310
 6272SOL    HW119715   0.732   1.507   0.345
 6272SOL    HW219716   0.761   1.379   0.247
 6273SOL     OW19717   0.570   5.392   3.120
 6273SOL    HW119718   0.536   5.485   3.109
 6273SOL    HW219719   0.519   5.347   3.193
 6274SOL     OW19720   3.143   0.240   4.640
 6274SOL    HW119721   3.179   0.299   4.712
 6274SOL    HW219722   3.100   0.159   4.680
 6275SOL     OW19723   2.458   5.917   0.475
 6275SOL    HW119724   2.416   5.878   0.557
 6275SOL    HW219725   2.524   5.853   0.438
 6276SOL     OW19726   3.536   5.522   3.370
 6276SOL    HW119727   3.479   5.604   3.362
 6276SOL    HW219728   3.581   5.522   3.460
 6277SOL     OW19729   4.728   1.884   1.046
 6277SOL    HW119730   4.640   1.842   1.026
 6277SOL    HW219731   4.718   1.983   1.053
 6278SOL     OW19732   4.193   0.768   4.910
 6278SOL    HW119733   4.118   0.705   4.889
 6278SOL    HW219734   4.262   0.763   4.839
 6279SOL     OW19735   3.991   6.141   0.679
 6279SOL    HW119736   3.967   6.047   0.657
 6279SOL    HW219737   4.090   6.148   0.693
 6280SOL     OW19738   6.847   1.280   6.471
 6280SOL    HW119739   6.819   1.359   6.526
 6280SOL    HW219740   6.854   1.307   6.375
 6281SOL     OW19741   6.637   4.433   3.902
 6281SOL    HW119742   6.665   4.496   3.830
 6281SOL    HW219743   6.573   4.365   3.864
 6282SOL     OW19744   5.895   2.990   4.929
 6282SOL    HW119745   5.892   3.050   4.849
 6282SOL    HW219746   5.865   3.042   5.010
 6283SOL     OW19747   0.967   4.245   4.023
 6283SOL    HW119748   0.900   4.292   4.080
 6283SOL    HW219749   1.006   4.168   4.074
 6284SOL     OW19750   1.433   5.445   6.497
 6284SOL    HW119751   1.455   5.542   6.506
 6284SOL    HW219752   1.500   5.402   6.437
 6285SOL     OW19753   1.475   3.248   3.606
 6285SOL    HW119754   1.400   3.235   3.670
 6285SOL    HW219755   1.459   3.194   3.523
 6286SOL     OW19756   0.186   3.713   4.172
 6286SOL    HW119757   0.262   3.771   4.141
 6286SOL    HW219758   0.145   3.752   4.254
 6287SOL     OW19759   4.062   5.039   5.453
 6287SOL    HW119760   4.018   4.965   5.401
 6287SOL    HW219761   3.993   5.105   5.482
 6288SOL     OW19762   5.164   4.432   1.584
 6288SOL    HW119763   5.124   4.342   1.569
 6288SOL    HW219764   5.095   4.502   1.571
 6289SOL     OW19765   2.547   4.616   6.651
 6289SOL    HW119766   2.577   4.634   6.745
 6289SOL    HW219767   2.451   4.586   6.653
 6290SOL     OW19768   6.031   5.119   6.319
 6290SOL    HW119769   5.954   5.128   6.255
 6290SOL    HW219770   6.028   5.194   6.384
 6291SOL     OW19771   3.576   3.666   3.359
 6291SOL    HW119772   3.661   3.686   3.408
 6291SOL    HW219773   3.539   3.579   3.390
 6292SOL     OW19774   2.584   1.760   5.027
 6292SOL    HW119775   2.662   1.810   4.991
 6292SOL    HW219776   2.616   1.690   5.091
 6293SOL     OW19777   4.524   1.557   0.542
 6293SOL    HW119778   4.481   1.481   0.591
 6293SOL    HW219779   4.479   1.570   0.454
 6294SOL     OW19780   4.363   0.073   3.133
 6294SOL    HW119781   4.323   0.055   3.223
 6294SOL    HW219782   4.300   0.043   3.062
 6295SOL     OW19783   5.364   4.914   4.833
 6295SOL    HW119784   5.365   4.837   4.896
 6295SOL    HW219785   5.368   5.000   4.884
 6296SOL     OW19786   0.429   4.451   5.406
 6296SOL    HW119787   0.494   4.451   5.481
 6296SOL    HW219788   0.339   4.420   5.439
 6297SOL     OW19789   5.966   0.180   5.702
 6297SOL    HW119790   5.938   0.220   5.789
 6297SOL    HW219791   6.038   0.236   5.661
 6298SOL     OW19792   6.651   3.870   6.350
 6298SOL    HW119793   6.645   3.929   6.270
 6298SOL    HW219794   6.604   3.783   6.332
 6299SOL     OW19795   6.009   2.652   1.607
 6299SOL    HW119796   5.975   2.721   1.670
 6299SOL    HW219797   5.933   2.614   1.555
 6300SOL     OW19798   5.777   0.535   6.448
 6300SOL    HW119799   5.692   0.490   6.476
 6300SOL    HW219800   5.854   0.474   6.466
 6301SOL     OW19801   3.273   6.365   6.183
 6301SOL    HW119802   3.241   6.456   6.207
 6301SOL    HW219803   3.290   6.361   6.084
 6302SOL     OW19804   2.242   1.416   5.349
 6302SOL    HW119805   2.280   1.459   5.267
 6302SOL    HW219806   2.299   1.437   5.428
 6303SOL     OW19807   0.633   6.529   6.069
 6303SOL    HW119808   0.622   6.441   6.116
 6303SOL    HW219809   0.569   6.595   6.107
 6304SOL     OW19810   4.126   1.401   3.533
 6304SOL    HW119811   4.075   1.324   3.571
 6304SOL    HW219812   4.085   1.487   3.565
 6305SOL     OW19813   6.100   6.027   0.259
 6305SOL    HW119814   6.158   5.949   0.236
 6305SOL    HW219815   6.157   6.102   0.293
 6306SOL     OW19816   0.401   3.866   4.074
 6306SOL    HW119817   0.375   3.958   4.103
 6306SOL    HW219818   0.383   3.856   3.976
 6307SOL     OW19819   3.209   2.971   3.989
 6307SOL    HW119820   3.133   3.024   4.026
 6307SOL    HW219821   3.263   2.934   4.065
 6308SOL     OW19822   1.066   2.234   5.717
 6308SOL    HW119823   1.105   2.174   5.787
 6308SOL    HW219824   1.050   2.182   5.633
 6309SOL     OW19825   6.998   0.351   3.951
 6309SOL    HW119826   6.914   0.297   3.940
 6309SOL    HW219827   7.015   0.403   3.868
 6310SOL     OW19828   2.367   6.313   2.797
 6310SOL    HW119829   2.300   6.379   2.764
 6310SOL    HW219830   2.457   6.356   2.803
 6311SOL     OW19831   4.864   1.859   6.249
 6311SOL    HW119832   4.892   1.768   6.219
 6311SOL    HW219833   4.945   1.912   6.277
 6312SOL     OW19834   1.083   6.502   6.492
 6312SOL    HW119835   1.136   6.586   6.489
 6312SOL    HW219836   1.022   6.504   6.572
 6313SOL     OW19837   6.353   6.848   3.017
 6313SOL    HW119838   6.352   6.776   3.087
 6313SOL    HW219839   6.316   6.932   3.056
 6314SOL     OW19840   3.300   0.448   2.421
 6314SOL    HW119841   3.278   0.445   2.519
 6314SOL    HW219842   3.253   0.374   2.374
 6315SOL     OW19843   2.380   1.505   4.669
 6315SOL    HW119844   2.316   1.527   4.743
 6315SOL    HW219845   2.338   1.438   4.608
 6316SOL     OW19846   4.680   1.904   5.240
 6316SOL    HW119847   4.738   1.826   5.263
 6316SOL    HW219848   4.607   1.913   5.308
 6317SOL     OW19849   4.977   3.529   2.401
 6317SOL    HW119850   4.964   3.430   2.393
 6317SOL    HW219851   4.988   3.569   2.310
 6318SOL     OW19852   4.583   6.974   6.802
 6318SOL    HW119853   4.517   6.993   6.729
 6318SOL    HW219854   4.675   7.001   6.771
 6319SOL     OW19855   6.986   2.146   5.075
 6319SOL    HW119856   0.040   2.190   5.132
 6319SOL    HW219857   6.998   2.047   5.077
 6320SOL     OW19858   6.984   6.517   4.689
 6320SOL    HW119859   6.928   6.494   4.609
 6320SOL    HW219860   0.045   6.454   4.694
 6321SOL     OW19861   4.657   2.961   0.486
 6321SOL    HW119862   4.630   2.865   0.483
 6321SOL    HW219863   4.610   3.011   0.413
 6322SOL     OW19864   3.315   1.658   0.624
 6322SOL    HW119865   3.331   1.719   0.702
 6322SOL    HW219866   3.371   1.576   0.634
 6323SOL     OW19867   1.278   1.928   1.450
 6323SOL    HW119868   1.342   1.962   1.519
 6323SOL    HW219869   1.329   1.900   1.369
 6324SOL     OW19870   4.170   1.977   0.704
 6324SOL    HW119871   4.116   2.057   0.682
 6324SOL    HW219872   4.163   1.910   0.630
 6325SOL     OW19873   2.161   2.959   3.190
 6325SOL    HW119874   2.174   2.965   3.289
 6325SOL    HW219875   2.243   2.920   3.149
 6326SOL     OW19876   5.461   5.433   6.187
 6326SOL    HW119877   5.380   5.385   6.152
 6326SOL    HW219878   5.506   5.482   6.112
 6327SOL     OW19879   0.322   1.615   3.911
 6327SOL    HW119880   0.381   1.535   3.903
 6327SOL    HW219881   0.238   1.590   3.958
 6328SOL     OW19882   4.264   3.579   6.821
 6328SOL    HW119883   4.251   3.628   6.907
 6328SOL    HW219884   4.205   3.619   6.751
 6329SOL     OW19885   1.001   3.267   5.215
 6329SOL    HW119886   1.086   3.254   5.267
 6329SOL    HW219887   0.926   3.221   5.262
 6330SOL     OW19888   5.998   6.624   1.684
 6330SOL    HW119889   5.928   6.679   1.729
 6330SOL    HW219890   5.999   6.645   1.586
 6331SOL     OW19891   6.496   3.477   4.643
 6331SOL    HW119892   6.514   3.571   4.616
 6331SOL    HW219893   6.477   3.422   4.562
 6332SOL     OW19894   0.795   2.805   1.238
 6332SOL    HW119895   0.736   2.876   1.278
 6332SOL    HW219896   0.876   2.847   1.198
 6333SOL     OW19897   4.726   0.323   5.949
 6333SOL    HW119898   4.728   0.289   6.043
 6333SOL    HW219899   4.671   0.261   5.893
 6334SOL     OW19900   2.869   1.423   2.097
 6334SOL    HW119901   2.807   1.498   2.119
 6334SOL    HW219902   2.959   1.441   2.137
 6335SOL     OW19903   4.646   0.799   0.026
 6335SOL    HW119904   4.546   0.802   0.025
 6335SOL    HW219905   4.676   0.707   0.052
 6336SOL     OW19906   0.426   3.087   6.279
 6336SOL    HW119907   0.404   3.015   6.212
 6336SOL    HW219908   0.351   3.096   6.344
 6337SOL     OW19909   3.851   5.730   4.831
 6337SOL    HW119910   3.814   5.784   4.907
 6337SOL    HW219911   3.777   5.675   4.791
 6338SOL     OW19912   3.205   2.034   4.311
 6338SOL    HW119913   3.274   1.980   4.359
 6338SOL    HW219914   3.114   2.002   4.337
 6339SOL     OW19915   0.934   3.686   3.579
 6339SOL    HW119916   1.022   3.672   3.533
 6339SOL    HW219917   0.950   3.717   3.673
 6340SOL     OW19918   2.155   4.001   1.105
 6340SOL    HW119919   2.193   4.058   1.032
 6340SOL    HW219920   2.085   3.940   1.066
 6341SOL     OW19921   0.539   3.855   3.646
 6341SOL    HW119922   0.626   3.890   3.614
 6341SOL    HW219923   0.471   3.862   3.573
 6342SOL     OW19924   3.522   1.586   0.858
 6342SOL    HW119925   3.575   1.525   0.917
 6342SOL    HW219926   3.516   1.548   0.766
 6343SOL     OW19927   4.137   6.921   6.910
 6343SOL    HW119928   4.113   6.877   6.996
 6343SOL    HW219929   4.230   6.957   6.915
 6344SOL     OW19930   5.807   1.881   3.733
 6344SOL    HW119931   5.872   1.812   3.764
 6344SOL    HW219932   5.791   1.871   3.635
 6345SOL     OW19933   4.648   2.804   1.679
 6345SOL    HW119934   4.552   2.809   1.654
 6345SOL    HW219935   4.666   2.863   1.758
 6346SOL     OW19936   0.065   4.795   4.720
 6346SOL    HW119937   6.997   4.742   4.732
 6346SOL    HW219938   0.090   4.836   4.808
 6347SOL     OW19939   1.728   1.380   1.109
 6347SOL    HW119940   1.789   1.357   1.033
 6347SOL    HW219941   1.663   1.451   1.080
 6348SOL     OW19942   1.183   2.598   5.964
 6348SOL    HW119943   1.153   2.632   5.875
 6348SOL    HW219944   1.202   2.500   5.959
 6349SOL     OW19945   1.435   0.691   0.700
 6349SOL    HW119946   1.415   0.789   0.703
 6349SOL    HW219947   1.360   0.640   0.740
 6350SOL     OW19948   1.021   5.075   3.425
 6350SOL    HW119949   1.015   5.042   3.519
 6350SOL    HW219950   1.021   4.997   3.362
 6351SOL     OW19951   6.438   3.430   3.489
 6351SOL    HW119952   6.398   3.374   3.561
 6351SOL    HW219953   6.421   3.388   3.400
 6352SOL     OW19954   2.372   0.411   4.650
 6352SOL    HW119955   2.353   0.482   4.582
 6352SOL    HW219956   2.452   0.358   4.622
 6353SOL     OW19957   2.234   6.096   0.030
 6353SOL    HW119958   2.307   6.031   0.052
 6353SOL    HW219959   2.248   6.181   0.081
 6354SOL     OW19960   3.826   6.002   3.351
 6354SOL    HW119961   3.799   6.098   3.359
 6354SOL    HW219962   3.925   5.994   3.365
 6355SOL     OW19963   2.624   5.739   6.938
 6355SOL    HW119964   2.716   5.713   6.969
 6355SOL    HW219965   2.595   5.821   6.987
 6356SOL     OW19966   5.556   5.308   0.489
 6356SOL    HW119967   5.534   5.334   0.583
 6356SOL    HW219968   5.586   5.388   0.438
 6357SOL     OW19969   6.271   2.694   2.270
 6357SOL    HW119970   6.262   2.723   2.175
 6357SOL    HW219971   6.181   2.672   2.307
 6358SOL     OW19972   0.195   1.834   6.627
 6358SOL    HW119973   0.194   1.830   6.528
 6358SOL    HW219974   0.157   1.922   6.658
 6359SOL     OW19975   6.454   6.261   0.553
 6359SOL    HW119976   6.430   6.345   0.602
 6359SOL    HW219977   6.544   6.230   0.581
 6360SOL     OW19978   0.586   3.656   4.093
 6360SOL    HW119979   0.598   3.620   4.185
 6360SOL    HW219980   0.508   3.719   4.092
 6361SOL     OW19981   0.982   0.939   0.949
 6361SOL    HW119982   1.076   0.906   0.945
 6361SOL    HW219983   0.927   0.892   0.880
 6362SOL     OW19984   1.727   5.930   6.563
 6362SOL    HW119985   1.811   5.937   6.616
 6362SOL    HW219986   1.707   5.834   6.544
 6363SOL     OW19987   3.188   5.232   4.603
 6363SOL    HW119988   3.286   5.215   4.590
 6363SOL    HW219989   3.147   5.153   4.649
 6364SOL     OW19990   2.820   2.686   5.427
 6364SOL    HW119991   2.723   2.698   5.450
 6364SOL    HW219992   2.829   2.608   5.365
 6365SOL     OW19993   5.749   6.331   4.434
 6365SOL    HW119994   5.803   6.255   4.469
 6365SOL    HW219995   5.746   6.404   4.502
 6366SOL     OW19996   0.655   6.055   4.975
 6366SOL    HW119997   0.695   5.981   4.921
 6366SOL    HW219998   0.555   6.054   4.963
 6367SOL     OW19999   3.017   2.145   2.634
 6367SOL    HW120000   3.078   2.157   2.556
 6367SOL    HW220001   2.931   2.104   2.603
 6368SOL     OW20002   4.036   4.809   4.491
 6368SOL    HW120003   3.965   4.842   4.428
 6368SOL    HW220004   4.023   4.851   4.581
 6369SOL     OW20005   1.964   0.411   4.349
 6369SOL    HW120006   1.914   0.344   4.404
 6369SOL    HW220007   1.969   0.381   4.254
 6370SOL     OW20008   5.740   4.244   3.669
 6370SOL    HW120009   5.698   4.208   3.752
 6370SOL    HW220010   5.833   4.208   3.660
 6371SOL     OW20011   5.330   4.081   2.296
 6371SOL    HW120012   5.243   4.127   2.318
 6371SOL    HW220013   5.347   4.010   2.364
 6372SOL     OW20014   1.138   1.747   2.057
 6372SOL    HW120015   1.097   1.716   2.143
 6372SOL    HW220016   1.189   1.832   2.073
 6373SOL     OW20017   5.623   4.368   2.451
 6373SOL    HW120018   5.655   4.292   2.394
 6373SOL    HW220019   5.688   4.384   2.525
 6374SOL     OW20020   4.971   3.559   0.851
 6374SOL    HW120021   4.871   3.549   0.851
 6374SOL    HW220022   5.013   3.468   0.846
 6375SOL     OW20023   0.515   2.290   1.382
 6375SOL    HW120024   0.514   2.350   1.302
 6375SOL    HW220025   0.513   2.195   1.352
 6376SOL     OW20026   4.035   1.698   5.862
 6376SOL    HW120027   4.065   1.674   5.954
 6376SOL    HW220028   4.011   1.614   5.812
 6377SOL     OW20029   0.008   1.615   5.396
 6377SOL    HW120030   6.958   1.540   5.398
 6377SOL    HW220031   6.976   1.702   5.404
 6378SOL     OW20032   5.255   5.365   3.282
 6378SOL    HW120033   5.242   5.286   3.342
 6378SOL    HW220034   5.314   5.339   3.205
 6379SOL     OW20035   0.504   5.177   5.674
 6379SOL    HW120036   0.467   5.249   5.733
 6379SOL    HW220037   0.568   5.122   5.726
 6380SOL     OW20038   6.876   2.680   4.400
 6380SOL    HW120039   6.914   2.642   4.316
 6380SOL    HW220040   6.782   2.647   4.412
 6381SOL     OW20041   4.273   2.629   0.518
 6381SOL    HW120042   4.362   2.617   0.474
 6381SOL    HW220043   4.276   2.590   0.610
 6382SOL     OW20044   3.367   1.729   1.109
 6382SOL    HW120045   3.272   1.754   1.128
 6382SOL    HW220046   3.379   1.716   1.010
 6383SOL     OW20047   1.955   2.989   2.380
 6383SOL    HW120048   1.905   2.908   2.410
 6383SOL    HW220049   2.007   2.967   2.297
 6384SOL     OW20050   6.002   3.248   2.014
 6384SOL    HW120051   5.952   3.207   2.090
 6384SOL    HW220052   5.954   3.330   1.983
 6385SOL     OW20053   6.499   4.067   1.909
 6385SOL    HW120054   6.496   3.983   1.855
 6385SOL    HW220055   6.592   4.102   1.912
 6386SOL     OW20056   1.783   3.538   6.834
 6386SOL    HW120057   1.831   3.575   6.913
 6386SOL    HW220058   1.699   3.494   6.863
 6387SOL     OW20059   6.045   1.373   0.376
 6387SOL    HW120060   6.050   1.299   0.309
 6387SOL    HW220061   5.953   1.377   0.414
 6388SOL     OW20062   6.108   5.274   1.874
 6388SOL    HW120063   6.043   5.261   1.799
 6388SOL    HW220064   6.073   5.345   1.936
 6389SOL     OW20065   0.993   0.147   1.236
 6389SOL    HW120066   0.978   0.231   1.287
 6389SOL    HW220067   0.971   0.068   1.293
 6390SOL     OW20068   6.511   0.034   5.828
 6390SOL    HW120069   6.503   0.124   5.785
 6390SOL    HW220070   6.513   6.979   5.758
 6391SOL     OW20071   1.476   1.071   5.977
 6391SOL    HW120072   1.513   1.160   6.003
 6391SOL    HW220073   1.414   1.039   6.049
 6392SOL     OW20074   3.160   6.015   3.577
 6392SOL    HW120075   3.125   6.021   3.670
 6392SOL    HW220076   3.147   6.102   3.530
 6393SOL     OW20077   6.016   5.970   1.773
 6393SOL    HW120078   6.078   6.030   1.824
 6393SOL    HW220079   6.016   5.879   1.815
 6394SOL     OW20080   2.249   5.270   1.187
 6394SOL    HW120081   2.285   5.288   1.096
 6394SOL    HW220082   2.238   5.171   1.200
 6395SOL     OW20083   0.034   3.060   1.935
 6395SOL    HW120084   0.042   3.159   1.928
 6395SOL    HW220085   0.017   3.021   1.845
 6396SOL     OW20086   6.446   4.185   5.883
 6396SOL    HW120087   6.450   4.240   5.966
 6396SOL    HW220088   6.350   4.170   5.858
 6397SOL     OW20089   6.586   1.325   2.522
 6397SOL    HW120090   6.657   1.343   2.453
 6397SOL    HW220091   6.602   1.383   2.602
 6398SOL     OW20092   2.194   6.739   2.016
 6398SOL    HW120093   2.170   6.814   1.955
 6398SOL    HW220094   2.198   6.653   1.964
 6399SOL     OW20095   1.537   0.383   6.595
 6399SOL    HW120096   1.457   0.344   6.640
 6399SOL    HW220097   1.507   0.444   6.521
 6400SOL     OW20098   2.071   4.952   2.354
 6400SOL    HW120099   1.972   4.944   2.349
 6400SOL    HW220100   2.103   5.021   2.289
 6401SOL     OW20101   5.486   5.054   3.222
 6401SOL    HW120102   5.487   5.126   3.153
 6401SOL    HW220103   5.570   5.000   3.216
 6402SOL     OW20104   2.210   2.994   3.931
 6402SOL    HW120105   2.215   2.994   4.031
 6402SOL    HW220106   2.172   3.082   3.900
 6403SOL     OW20107   6.246   5.959   6.280
 6403SOL    HW120108   6.343   5.973   6.303
 6403SOL    HW220109   6.231   5.987   6.185
 6404SOL     OW20110   4.051   1.561   2.692
 6404SOL    HW120111   3.980   1.632   2.688
 6404SOL    HW220112   4.106   1.574   2.775
 6405SOL     OW20113   4.381   1.199   4.477
 6405SOL    HW120114   4.307   1.134   4.497
 6405SOL    HW220115   4.454   1.151   4.428
 6406SOL     OW20116   1.715   3.200   1.835
 6406SOL    HW120117   1.702   3.290   1.877
 6406SOL    HW220118   1.666   3.196   1.748
 6407SOL     OW20119   2.268   0.116   3.502
 6407SOL    HW120120   2.307   0.114   3.594
 6407SOL    HW220121   2.294   0.033   3.453
 6408SOL     OW20122   5.687   0.502   0.497
 6408SOL    HW120123   5.713   0.423   0.554
 6408SOL    HW220124   5.744   0.580   0.521
 6409SOL     OW20125   0.022   4.843   2.682
 6409SOL    HW120126   0.115   4.855   2.717
 6409SOL    HW220127   6.989   4.930   2.688
 6410SOL     OW20128   2.064   1.231   6.512
 6410SOL    HW120129   2.051   1.319   6.559
 6410SOL    HW220130   2.082   1.160   6.580
 6411SOL     OW20131   1.243   2.900   2.451
 6411SOL    HW120132   1.246   2.909   2.352
 6411SOL    HW220133   1.192   2.818   2.476
 6412SOL     OW20134   2.361   0.547   6.828
 6412SOL    HW120135   2.293   0.563   6.756
 6412SOL    HW220136   2.452   0.565   6.792
 6413SOL     OW20137   3.657   4.962   4.468
 6413SOL    HW120138   3.665   5.061   4.475
 6413SOL    HW220139   3.562   4.937   4.449
 6414SOL     OW20140   6.278   0.031   0.026
 6414SOL    HW120141   6.282   0.067   6.949
 6414SOL    HW220142   6.277   0.107   0.091
 6415SOL     OW20143   1.828   3.301   4.175
 6415SOL    HW120144   1.836   3.207   4.208
 6415SOL    HW220145   1.733   3.331   4.184
 6416SOL     OW20146   2.379   6.753   6.280
 6416SOL    HW120147   2.295   6.719   6.322
 6416SOL    HW220148   2.455   6.743   6.345
 6417SOL     OW20149   4.916   3.031   0.561
 6417SOL    HW120150   4.910   3.081   0.648
 6417SOL    HW220151   4.831   2.980   0.546
 6418SOL     OW20152   5.295   4.309   2.986
 6418SOL    HW120153   5.294   4.233   3.050
 6418SOL    HW220154   5.268   4.393   3.033
 6419SOL     OW20155   1.337   5.073   3.913
 6419SOL    HW120156   1.368   5.051   3.821
 6419SOL    HW220157   1.237   5.074   3.916
 6420SOL     OW20158   1.955   1.385   3.585
 6420SOL    HW120159   1.896   1.452   3.541
 6420SOL    HW220160   2.006   1.335   3.515
 6421SOL     OW20161   4.304   0.648   1.169
 6421SOL    HW120162   4.356   0.716   1.222
 6421SOL    HW220163   4.223   0.693   1.130
 6422SOL     OW20164   6.928   1.791   5.013
 6422SOL    HW120165   6.962   1.699   5.028
 6422SOL    HW220166   6.840   1.803   5.058
 6423SOL     OW20167   4.588   5.611   4.628
 6423SOL    HW120168   4.534   5.527   4.627
 6423SOL    HW220169   4.652   5.609   4.704
 6424SOL     OW20170   1.647   3.978   5.059
 6424SOL    HW120171   1.559   4.025   5.049
 6424SOL    HW220172   1.711   4.011   4.989
 6425SOL     OW20173   6.994   5.653   2.999
 6425SOL    HW120174   6.934   5.631   2.923
 6425SOL    HW220175   0.065   5.686   2.964
 6426SOL     OW20176   5.638   5.230   3.839
 6426SOL    HW120177   5.688   5.292   3.900
 6426SOL    HW220178   5.570   5.282   3.787
 6427SOL     OW20179   2.978   3.719   3.348
 6427SOL    HW120180   2.942   3.693   3.438
 6427SOL    HW220181   3.000   3.816   3.347
 6428SOL     OW20182   5.214   3.508   0.251
 6428SOL    HW120183   5.200   3.411   0.229
 6428SOL    HW220184   5.237   3.516   0.348
 6429SOL     OW20185   0.646   0.777   6.086
 6429SOL    HW120186   0.733   0.776   6.136
 6429SOL    HW220187   0.661   0.809   5.993
 6430SOL     OW20188   6.606   0.634   4.318
 6430SOL    HW120189   6.601   0.554   4.377
 6430SOL    HW220190   6.514   0.671   4.304
 6431SOL     OW20191   4.735   5.593   2.799
 6431SOL    HW120192   4.811   5.654   2.779
 6431SOL    HW220193   4.648   5.641   2.783
 6432SOL     OW20194   3.995   4.283   5.971
 6432SOL    HW120195   4.007   4.328   6.059
 6432SOL    HW220196   4.002   4.184   5.983
 6433SOL     OW20197   3.209   4.966   0.239
 6433SOL    HW120198   3.155   4.932   0.316
 6433SOL    HW220199   3.201   4.904   0.162
 6434SOL     OW20200   2.884   0.079   6.332
 6434SOL    HW120201   2.925   0.044   6.249
 6434SOL    HW220202   2.889   0.179   6.333
 6435SOL     OW20203   6.118   0.140   0.772
 6435SOL    HW120204   6.018   0.135   0.762
 6435SOL    HW220205   6.141   0.213   0.836
 6436SOL     OW20206   1.153   3.648   3.425
 6436SOL    HW120207   1.212   3.568   3.436
 6436SOL    HW220208   1.080   3.627   3.360
 6437SOL     OW20209   1.388   2.724   6.687
 6437SOL    HW120210   1.456   2.683   6.626
 6437SOL    HW220211   1.308   2.663   6.692
 6438SOL     OW20212   0.631   4.880   6.105
 6438SOL    HW120213   0.633   4.840   6.013
 6438SOL    HW220214   0.640   4.979   6.098
 6439SOL     OW20215   5.061   0.910   2.831
 6439SOL    HW120216   5.058   0.842   2.758
 6439SOL    HW220217   5.012   0.875   2.911
 6440SOL     OW20218   2.861   0.467   6.092
 6440SOL    HW120219   2.939   0.421   6.050
 6440SOL    HW220220   2.781   0.458   6.033
 6441SOL     OW20221   0.913   0.858   1.505
 6441SOL    HW120222   0.826   0.826   1.466
 6441SOL    HW220223   0.960   0.916   1.438
 6442SOL     OW20224   2.816   1.480   4.797
 6442SOL    HW120225   2.878   1.456   4.723
 6442SOL    HW220226   2.740   1.534   4.760
 6443SOL     OW20227   3.548   2.304   6.163
 6443SOL    HW120228   3.503   2.293   6.252
 6443SOL    HW220229   3.480   2.293   6.090
 6444SOL     OW20230   6.222   2.369   4.531
 6444SOL    HW120231   6.181   2.439   4.589
 6444SOL    HW220232   6.154   2.299   4.511
 6445SOL     OW20233   3.807   3.336   3.269
 6445SOL    HW120234   3.740   3.372   3.205
 6445SOL    HW220235   3.769   3.257   3.316
 6446SOL     OW20236   0.111   1.968   0.418
 6446SOL    HW120237   0.184   1.910   0.382
 6446SOL    HW220238   0.025   1.946   0.371
 6447SOL     OW20239   6.144   4.325   1.553
 6447SOL    HW120240   6.066   4.352   1.610
 6447SOL    HW220241   6.197   4.406   1.529
 6448SOL     OW20242   5.255   4.742   1.543
 6448SOL    HW120243   5.163   4.722   1.509
 6448SOL    HW220244   5.251   4.765   1.640
 6449SOL     OW20245   2.881   5.264   1.757
 6449SOL    HW120246   2.798   5.305   1.797
 6449SOL    HW220247   2.856   5.181   1.709
 6450SOL     OW20248   0.732   4.232   0.382
 6450SOL    HW120249   0.655   4.179   0.345
 6450SOL    HW220250   0.804   4.169   0.410
 6451SOL     OW20251   2.643   1.184   5.836
 6451SOL    HW120252   2.703   1.106   5.855
 6451SOL    HW220253   2.593   1.209   5.919
 6452SOL     OW20254   4.730   4.194   2.414
 6452SOL    HW120255   4.667   4.250   2.361
 6452SOL    HW220256   4.777   4.130   2.352
 6453SOL     OW20257   2.466   0.289   1.706
 6453SOL    HW120258   2.390   0.317   1.648
 6453SOL    HW220259   2.447   0.313   1.801
 6454SOL     OW20260   0.743   1.432   2.871
 6454SOL    HW120261   0.753   1.353   2.812
 6454SOL    HW220262   0.679   1.411   2.945
 6455SOL     OW20263   6.448   2.733   3.684
 6455SOL    HW120264   6.519   2.680   3.730
 6455SOL    HW220265   6.373   2.750   3.747
 6456SOL     OW20266   1.547   0.757   2.764
 6456SOL    HW120267   1.633   0.763   2.712
 6456SOL    HW220268   1.476   0.810   2.718
 6457SOL     OW20269   5.448   6.595   1.289
 6457SOL    HW120270   5.352   6.569   1.301
 6457SOL    HW220271   5.468   6.606   1.192
 6458SOL     OW20272   1.658   5.232   4.770
 6458SOL    HW120273   1.663   5.133   4.786
 6458SOL    HW220274   1.729   5.278   4.823
 6459SOL     OW20275   6.399   2.837   2.659
 6459SOL    HW120276   6.325   2.843   2.592
 6459SOL    HW220277   6.455   2.757   2.639
 6460SOL     OW20278   5.519   5.611   5.700
 6460SOL    HW120279   5.600   5.664   5.677
 6460SOL    HW220280   5.437   5.667   5.686
 6461SOL     OW20281   2.664   4.269   0.261
 6461SOL    HW120282   2.690   4.230   0.349
 6461SOL    HW220283   2.656   4.369   0.269
 6462SOL     OW20284   0.652   3.090   4.460
 6462SOL    HW120285   0.570   3.090   4.403
 6462SOL    HW220286   0.679   2.995   4.479
 6463SOL     OW20287   5.200   6.409   0.796
 6463SOL    HW120288   5.151   6.497   0.800
 6463SOL    HW220289   5.276   6.410   0.860
 6464SOL     OW20290   1.635   5.868   4.992
 6464SOL    HW120291   1.674   5.960   4.992
 6464SOL    HW220292   1.593   5.851   5.081
 6465SOL     OW20293   6.747   3.047   2.713
 6465SOL    HW120294   6.733   2.998   2.627
 6465SOL    HW220295   6.739   2.983   2.790
 6466SOL     OW20296   6.403   1.790   6.839
 6466SOL    HW120297   6.315   1.836   6.825
 6466SOL    HW220298   6.402   1.742   6.926
 6467SOL     OW20299   4.000   0.341   0.898
 6467SOL    HW120300   4.058   0.393   0.836
 6467SOL    HW220301   4.031   0.353   0.992
 6468SOL     OW20302   3.177   6.642   1.636
 6468SOL    HW120303   3.255   6.580   1.642
 6468SOL    HW220304   3.108   6.617   1.703
 6469SOL     OW20305   3.913   2.035   3.669
 6469SOL    HW120306   3.889   2.124   3.631
 6469SOL    HW220307   3.879   2.028   3.763
 6470SOL     OW20308   5.795   2.600   0.832
 6470SOL    HW120309   5.752   2.602   0.921
 6470SOL    HW220310   5.843   2.687   0.816
 6471SOL     OW20311   1.006   6.355   5.803
 6471SOL    HW120312   1.084   6.412   5.829
 6471SOL    HW220313   0.981   6.296   5.880
 6472SOL     OW20314   6.635   5.794   2.569
 6472SOL    HW120315   6.543   5.815   2.603
 6472SOL    HW220316   6.637   5.808   2.470
 6473SOL     OW20317   1.662   1.498   5.552
 6473SOL    HW120318   1.664   1.597   5.534
 6473SOL    HW220319   1.671   1.449   5.466
 6474SOL     OW20320   3.573   5.572   5.711
 6474SOL    HW120321   3.547   5.661   5.748
 6474SOL    HW220322   3.493   5.511   5.713
 6475SOL     OW20323   5.967   4.372   3.909
 6475SOL    HW120324   5.912   4.413   3.836
 6475SOL    HW220325   6.053   4.339   3.872
 6476SOL     OW20326   4.591   3.056   6.872
 6476SOL    HW120327   4.590   2.980   6.807
 6476SOL    HW220328   4.686   3.080   6.893
 6477SOL     OW20329   5.858   5.330   1.004
 6477SOL    HW120330   5.838   5.237   1.035
 6477SOL    HW220331   5.789   5.392   1.041
 6478SOL     OW20332   3.557   6.706   2.567
 6478SOL    HW120333   3.653   6.702   2.539
 6478SOL    HW220334   3.540   6.791   2.617
 6479SOL     OW20335   3.456   5.219   4.643
 6479SOL    HW120336   3.535   5.217   4.582
 6479SOL    HW220337   3.429   5.314   4.659
 6480SOL     OW20338   1.987   1.460   6.710
 6480SOL    HW120339   1.915   1.514   6.752
 6480SOL    HW220340   2.074   1.510   6.714
 6481SOL     OW20341   3.367   2.524   1.754
 6481SOL    HW120342   3.367   2.453   1.684
 6481SOL    HW220343   3.388   2.483   1.843
 6482SOL     OW20344   6.372   2.364   6.993
 6482SOL    HW120345   6.333   2.320   6.912
 6482SOL    HW220346   6.395   2.459   6.971
 6483SOL     OW20347   0.504   6.411   3.981
 6483SOL    HW120348   0.411   6.448   3.975
 6483SOL    HW220349   0.508   6.344   4.055
 6484SOL     OW20350   3.313   1.182   2.520
 6484SOL    HW120351   3.265   1.134   2.594
 6484SOL    HW220352   3.254   1.253   2.483
 6485SOL     OW20353   1.817   5.743   3.775
 6485SOL    HW120354   1.812   5.770   3.871
 6485SOL    HW220355   1.850   5.820   3.720
 6486SOL     OW20356   0.912   5.306   2.316
 6486SOL    HW120357   0.843   5.270   2.379
 6486SOL    HW220358   0.868   5.336   2.232
 6487SOL     OW20359   1.233   6.474   5.859
 6487SOL    HW120360   1.259   6.570   5.869
 6487SOL    HW220361   1.309   6.424   5.817
 6488SOL     OW20362   4.117   5.856   4.833
 6488SOL    HW120363   4.213   5.828   4.826
 6488SOL    HW220364   4.059   5.784   4.795
 6489SOL     OW20365   3.347   3.199   6.274
 6489SOL    HW120366   3.396   3.191   6.188
 6489SOL    HW220367   3.272   3.264   6.265
 6490SOL     OW20368   2.658   1.035   6.294
 6490SOL    HW120369   2.742   0.986   6.318
 6490SOL    HW220370   2.680   1.132   6.281
 6491SOL     OW20371   3.058   0.732   1.777
 6491SOL    HW120372   2.992   0.783   1.833
 6491SOL    HW220373   3.052   0.635   1.797
 6492SOL     OW20374   3.817   3.733   4.778
 6492SOL    HW120375   3.914   3.758   4.772
 6492SOL    HW220376   3.804   3.642   4.738
 6493SOL     OW20377   1.134   4.452   6.245
 6493SOL    HW120378   1.223   4.487   6.274
 6493SOL    HW220379   1.129   4.451   6.145
 6494SOL     OW20380   6.894   6.431   2.809
 6494SOL    HW120381   6.973   6.457   2.754
 6494SOL    HW220382   6.901   6.473   2.899
 6495SOL     OW20383   6.987   1.056   4.464
 6495SOL    HW120384   6.917   1.065   4.392
 6495SOL    HW220385   0.057   1.025   4.423
 6496SOL     OW20386   5.950   0.307   1.932
 6496SOL    HW120387   5.890   0.235   1.970
 6496SOL    HW220388   5.921   0.396   1.968
 6497SOL     OW20389   1.226   0.632   1.349
 6497SOL    HW120390   1.306   0.575   1.333
 6497SOL    HW220391   1.175   0.598   1.428
 6498SOL     OW20392   0.678   3.934   4.541
 6498SOL    HW120393   0.720   3.848   4.513
 6498SOL    HW220394   0.588   3.916   4.580
 6499SOL     OW20395   5.674   3.918   4.883
 6499SOL    HW120396   5.727   3.994   4.844
 6499SOL    HW220397   5.613   3.953   4.954
 6500SOL     OW20398   0.261   4.020   2.635
 6500SOL    HW120399   0.271   4.006   2.733
 6500SOL    HW220400   0.342   4.066   2.600
 6501SOL     OW20401   0.156   0.760   0.741
 6501SOL    HW120402   0.214   0.842   0.741
 6501SOL    HW220403   0.060   0.787   0.741
 6502SOL     OW20404   0.486   3.489   1.796
 6502SOL    HW120405   0.495   3.453   1.889
 6502SOL    HW220406   0.540   3.573   1.788
 6503SOL     OW20407   5.683   0.939   3.623
 6503SOL    HW120408   5.584   0.949   3.612
 6503SOL    HW220409   5.727   1.025   3.598
 6504SOL     OW20410   3.538   6.320   6.260
 6504SOL    HW120411   3.442   6.338   6.235
 6504SOL    HW220412   3.544   6.301   6.358
 6505SOL     OW20413   4.842   6.165   6.175
 6505SOL    HW120414   4.791   6.088   6.136
 6505SOL    HW220415   4.785   6.247   6.171
 6506SOL     OW20416   6.783   2.518   3.454
 6506SOL    HW120417   6.851   2.451   3.486
 6506SOL    HW220418   6.790   2.601   3.508
 6507SOL     OW20419   2.731   5.997   5.771
 6507SOL    HW120420   2.695   5.915   5.727
 6507SOL    HW220421   2.717   6.076   5.712
 6508SOL     OW20422   1.766   0.297   2.933
 6508SOL    HW120423   1.862   0.284   2.958
 6508SOL    HW220424   1.735   0.220   2.878
 6509SOL     OW20425   4.807   1.867   4.565
 6509SOL    HW120426   4.729   1.807   4.582
 6509SOL    HW220427   4.840   1.854   4.472
 6510SOL     OW20428   5.339   5.086   6.698
 6510SOL    HW120429   5.435   5.063   6.684
 6510SOL    HW220430   5.332   5.177   6.740
 6511SOL     OW20431   4.888   1.381   5.260
 6511SOL    HW120432   4.977   1.424   5.275
 6511SOL    HW220433   4.891   1.286   5.291
 6512SOL     OW20434   3.263   6.623   2.648
 6512SOL    HW120435   3.207   6.611   2.566
 6512SOL    HW220436   3.350   6.666   2.622
 6513SOL     OW20437   1.503   5.879   3.688
 6513SOL    HW120438   1.454   5.878   3.775
 6513SOL    HW220439   1.458   5.943   3.626
 6514SOL     OW20440   6.109   1.496   4.393
 6514SOL    HW120441   6.066   1.431   4.456
 6514SOL    HW220442   6.119   1.453   4.304
 6515SOL     OW20443   1.721   3.587   3.108
 6515SOL    HW120444   1.722   3.505   3.050
 6515SOL    HW220445   1.771   3.569   3.192
 6516SOL     OW20446   6.679   2.882   1.346
 6516SOL    HW120447   6.775   2.855   1.351
 6516SOL    HW220448   6.647   2.873   1.251
 6517SOL     OW20449   6.867   1.797   1.271
 6517SOL    HW120450   6.822   1.768   1.187
 6517SOL    HW220451   6.925   1.877   1.252
 6518SOL     OW20452   0.486   0.769   2.067
 6518SOL    HW120453   0.542   0.700   2.113
 6518SOL    HW220454   0.545   0.835   2.021
 6519SOL     OW20455   0.342   1.998   2.820
 6519SOL    HW120456   0.442   1.998   2.822
 6519SOL    HW220457   0.310   1.933   2.752
 6520SOL     OW20458   0.347   5.531   6.847
 6520SOL    HW120459   0.265   5.488   6.886
 6520SOL    HW220460   0.368   5.615   6.897
 6521SOL     OW20461   1.965   2.527   4.101
 6521SOL    HW120462   1.900   2.462   4.142
 6521SOL    HW220463   2.037   2.548   4.167
 6522SOL     OW20464   2.499   4.537   4.788
 6522SOL    HW120465   2.572   4.511   4.851
 6522SOL    HW220466   2.535   4.546   4.696
 6523SOL     OW20467   3.757   0.633   6.503
 6523SOL    HW120468   3.743   0.731   6.487
 6523SOL    HW220469   3.692   0.601   6.572
 6524SOL     OW20470   2.840   2.781   1.564
 6524SOL    HW120471   2.851   2.729   1.479
 6524SOL    HW220472   2.905   2.747   1.632
 6525SOL     OW20473   2.036   4.877   2.999
 6525SOL    HW120474   1.976   4.802   3.026
 6525SOL    HW220475   1.985   4.963   3.004
 6526SOL     OW20476   0.983   0.389   1.375
 6526SOL    HW120477   0.888   0.400   1.404
 6526SOL    HW220478   1.042   0.387   1.456
 6527SOL     OW20479   6.607   1.879   0.203
 6527SOL    HW120480   6.645   1.925   0.123
 6527SOL    HW220481   6.529   1.932   0.238
 6528SOL     OW20482   6.471   1.586   5.319
 6528SOL    HW120483   6.567   1.559   5.318
 6528SOL    HW220484   6.442   1.604   5.413
 6529SOL     OW20485   1.200   0.056   2.449
 6529SOL    HW120486   1.269   7.003   2.427
 6529SOL    HW220487   1.224   0.102   2.534
 6530SOL     OW20488   0.115   1.598   1.000
 6530SOL    HW120489   0.057   1.658   0.945
 6530SOL    HW220490   0.202   1.644   1.020
 6531SOL     OW20491   4.901   3.340   5.006
 6531SOL    HW120492   4.877   3.327   4.910
 6531SOL    HW220493   4.822   3.376   5.056
 6532SOL     OW20494   1.395   1.368   1.314
 6532SOL    HW120495   1.416   1.295   1.249
 6532SOL    HW220496   1.418   1.456   1.273
 6533SOL     OW20497   4.136   5.789   0.456
 6533SOL    HW120498   4.104   5.823   0.368
 6533SOL    HW220499   4.169   5.695   0.446
 6534SOL     OW20500   4.918   5.074   1.587
 6534SOL    HW120501   4.899   5.173   1.583
 6534SOL    HW220502   5.011   5.060   1.620
 6535SOL     OW20503   6.183   4.559   4.381
 6535SOL    HW120504   6.166   4.611   4.298
 6535SOL    HW220505   6.159   4.614   4.461
 6536SOL     OW20506   0.452   1.554   5.015
 6536SOL    HW120507   0.439   1.637   5.070
 6536SOL    HW220508   0.483   1.579   4.924
 6537SOL     OW20509   6.716   4.511   5.362
 6537SOL    HW120510   6.628   4.524   5.408
 6537SOL    HW220511   6.779   4.583   5.392
 6538SOL     OW20512   1.601   3.497   6.043
 6538SOL    HW120513   1.515   3.485   5.993
 6538SOL    HW220514   1.664   3.423   6.019
 6539SOL     OW20515   5.183   0.315   6.717
 6539SOL    HW120516   5.255   0.311   6.648
 6539SOL    HW220517   5.204   0.386   6.783
 6540SOL     OW20518   3.585   3.010   6.191
 6540SOL    HW120519   3.623   2.949   6.261
 6540SOL    HW220520   3.486   2.995   6.184
 6541SOL     OW20521   5.408   1.906   5.416
 6541SOL    HW120522   5.447   1.962   5.343
 6541SOL    HW220523   5.311   1.890   5.397
 6542SOL     OW20524   1.084   3.152   3.928
 6542SOL    HW120525   1.039   3.210   3.997
 6542SOL    HW220526   1.079   3.057   3.957
 6543SOL     OW20527   4.491   2.408   5.650
 6543SOL    HW120528   4.439   2.422   5.566
 6543SOL    HW220529   4.545   2.323   5.643
 6544SOL     OW20530   1.413   6.712   3.262
 6544SOL    HW120531   1.366   6.800   3.263
 6544SOL    HW220532   1.360   6.645   3.314
 6545SOL     OW20533   4.328   0.668   0.340
 6545SOL    HW120534   4.400   0.627   0.285
 6545SOL    HW220535   4.319   0.765   0.317
 6546SOL     OW20536   3.039   3.971   6.221
 6546SOL    HW120537   2.975   4.041   6.189
 6546SOL    HW220538   3.063   3.990   6.317
 6547SOL     OW20539   4.876   0.609   6.507
 6547SOL    HW120540   4.864   0.513   6.532
 6547SOL    HW220541   4.812   0.665   6.559
 6548SOL     OW20542   1.241   3.349   0.854
 6548SOL    HW120543   1.158   3.400   0.875
 6548SOL    HW220544   1.228   3.253   0.877
 6549SOL     OW20545   4.370   0.393   2.268
 6549SOL    HW120546   4.350   0.401   2.170
 6549SOL    HW220547   4.284   0.394   2.319
 6550SOL     OW20548   0.546   6.997   4.360
 6550SOL    HW120549   0.626   6.945   4.330
 6550SOL    HW220550   0.563   0.078   4.344
 6551SOL     OW20551   2.117   3.666   1.856
 6551SOL    HW120552   2.019   3.665   1.873
 6551SOL    HW220553   2.158   3.581   1.887
 6552SOL     OW20554   2.041   6.494   0.127
 6552SOL    HW120555   1.960   6.546   0.101
 6552SOL    HW220556   2.020   6.437   0.207
 6553SOL     OW20557   0.649   2.651   3.256
 6553SOL    HW120558   0.656   2.564   3.305
 6553SOL    HW220559   0.607   2.719   3.315
 6554SOL     OW20560   1.377   0.293   4.547
 6554SOL    HW120561   1.356   0.209   4.498
 6554SOL    HW220562   1.429   0.355   4.488
 6555SOL     OW20563   5.777   1.990   3.158
 6555SOL    HW120564   5.811   2.061   3.096
 6555SOL    HW220565   5.722   2.033   3.231
 6556SOL     OW20566   5.925   3.897   3.287
 6556SOL    HW120567   5.843   3.865   3.334
 6556SOL    HW220568   5.923   3.865   3.192
 6557SOL     OW20569   2.599   0.583   3.191
 6557SOL    HW120570   2.619   0.672   3.232
 6557SOL    HW220571   2.684   0.543   3.157
 6558SOL     OW20572   6.058   5.438   6.851
 6558SOL    HW120573   5.982   5.501   6.860
 6558SOL    HW220574   6.024   5.344   6.853
 6559SOL     OW20575   0.259   4.395   6.757
 6559SOL    HW120576   0.279   4.360   6.666
 6559SOL    HW220577   0.171   4.359   6.788
 6560SOL     OW20578   3.900   4.534   1.461
 6560SOL    HW120579   3.916   4.627   1.493
 6560SOL    HW220580   3.838   4.487   1.524
 6561SOL     OW20581   3.287   4.167   1.334
 6561SOL    HW120582   3.212   4.101   1.321
 6561SOL    HW220583   3.308   4.210   1.246
 6562SOL     OW20584   5.471   2.034   1.176
 6562SOL    HW120585   5.561   1.990   1.176
 6562SOL    HW220586   5.475   2.118   1.230
 6563SOL     OW20587   5.229   5.953   5.988
 6563SOL    HW120588   5.162   5.896   5.941
 6563SOL    HW220589   5.321   5.933   5.953
 6564SOL     OW20590   6.527   3.788   2.074
 6564SOL    HW120591   6.436   3.808   2.037
 6564SOL    HW220592   6.578   3.734   2.006
 6565SOL     OW20593   6.277   0.703   3.216
 6565SOL    HW120594   6.190   0.739   3.181
 6565SOL    HW220595   6.349   0.718   3.148
 6566SOL     OW20596   3.647   6.723   2.896
 6566SOL    HW120597   3.629   6.645   2.956
 6566SOL    HW220598   3.745   6.728   2.877
 6567SOL     OW20599   4.941   0.435   1.892
 6567SOL    HW120600   4.925   0.475   1.982
 6567SOL    HW220601   4.993   0.499   1.836
 6568SOL     OW20602   3.764   1.837   3.544
 6568SOL    HW120603   3.701   1.912   3.525
 6568SOL    HW220604   3.856   1.873   3.556
 6569SOL     OW20605   2.761   3.144   0.144
 6569SOL    HW120606   2.806   3.176   0.061
 6569SOL    HW220607   2.788   3.049   0.162
 6570SOL     OW20608   3.495   1.070   1.982
 6570SOL    HW120609   3.566   1.121   1.933
 6570SOL    HW220610   3.518   0.972   1.980
 6571SOL     OW20611   3.074   4.967   2.634
 6571SOL    HW120612   3.007   4.909   2.680
 6571SOL    HW220613   3.078   4.942   2.537
 6572SOL     OW20614   7.005   4.262   3.767
 6572SOL    HW120615   0.055   4.189   3.783
 6572SOL    HW220616   6.963   4.289   3.854
 6573SOL     OW20617   0.581   2.062   2.478
 6573SOL    HW120618   0.602   2.129   2.407
 6573SOL    HW220619   0.562   2.109   2.564
 6574SOL     OW20620   2.592   5.915   3.172
 6574SOL    HW120621   2.558   5.824   3.192
 6574SOL    HW220622   2.539   5.954   3.096
 6575SOL     OW20623   0.850   0.088   3.986
 6575SOL    HW120624   0.947   0.070   3.999
 6575SOL    HW220625   0.834   0.123   3.894
 6576SOL     OW20626   3.126   6.305   0.490
 6576SOL    HW120627   3.144   6.207   0.492
 6576SOL    HW220628   3.059   6.328   0.561
 6577SOL     OW20629   1.186   1.812   3.331
 6577SOL    HW120630   1.232   1.807   3.242
 6577SOL    HW220631   1.219   1.892   3.381
 6578SOL     OW20632   0.921   6.120   2.143
 6578SOL    HW120633   0.892   6.073   2.226
 6578SOL    HW220634   1.021   6.119   2.138
 6579SOL     OW20635   6.496   2.422   3.615
 6579SOL    HW120636   6.582   2.377   3.640
 6579SOL    HW220637   6.440   2.437   3.696
 6580SOL     OW20638   0.692   2.110   0.726
 6580SOL    HW120639   0.606   2.134   0.680
 6580SOL    HW220640   0.769   2.143   0.671
 6581SOL     OW20641   2.237   0.639   0.902
 6581SOL    HW120642   2.282   0.706   0.961
 6581SOL    HW220643   2.167   0.684   0.847
 6582SOL     OW20644   0.160   1.008   3.384
 6582SOL    HW120645   0.119   0.932   3.434
 6582SOL    HW220646   0.093   1.081   3.374
 6583SOL     OW20647   4.753   6.576   5.556
 6583SOL    HW120648   4.720   6.518   5.481
 6583SOL    HW220649   4.752   6.523   5.641
 6584SOL     OW20650   4.236   1.881   6.918
 6584SOL    HW120651   4.162   1.925   6.969
 6584SOL    HW220652   4.221   1.783   6.915
 6585SOL     OW20653   6.199   5.772   0.279
 6585SOL    HW120654   6.229   5.721   0.198
 6585SOL    HW220655   6.224   5.721   0.361
 6586SOL     OW20656   6.277   1.284   5.799
 6586SOL    HW120657   6.313   1.243   5.883
 6586SOL    HW220658   6.205   1.349   5.822
 6587SOL     OW20659   1.106   4.739   6.242
 6587SOL    HW120660   1.091   4.810   6.311
 6587SOL    HW220661   1.073   4.651   6.276
 6588SOL     OW20662   0.455   2.868   1.395
 6588SOL    HW120663   0.454   2.812   1.478
 6588SOL    HW220664   0.512   2.949   1.411
 6589SOL     OW20665   4.601   0.291   1.984
 6589SOL    HW120666   4.690   0.251   1.960
 6589SOL    HW220667   4.605   0.390   1.975
 6590SOL     OW20668   0.157   1.089   6.383
 6590SOL    HW120669   0.202   1.039   6.308
 6590SOL    HW220670   0.064   1.055   6.394
 6591SOL     OW20671   5.172   5.685   3.665
 6591SOL    HW120672   5.185   5.593   3.629
 6591SOL    HW220673   5.139   5.745   3.593
 6592SOL     OW20674   5.422   6.487   2.883
 6592SOL    HW120675   5.500   6.517   2.938
 6592SOL    HW220676   5.342   6.476   2.943
 6593SOL     OW20677   2.545   2.403   2.461
 6593SOL    HW120678   2.615   2.380   2.529
 6593SOL    HW220679   2.578   2.380   2.370
 6594SOL     OW20680   3.694   1.261   5.173
 6594SOL    HW120681   3.777   1.260   5.229
 6594SOL    HW220682   3.647   1.348   5.183
 6595SOL     OW20683   0.928   4.221   6.221
 6595SOL    HW120684   0.985   4.304   6.220
 6595SOL    HW220685   0.858   4.229   6.150
 6596SOL     OW20686   3.499   0.351   4.293
 6596SOL    HW120687   3.447   0.373   4.210
 6596SOL    HW220688   3.442   0.295   4.354
 6597SOL     OW20689   1.669   5.096   1.679
 6597SOL    HW120690   1.741   5.029   1.663
 6597SOL    HW220691   1.581   5.058   1.650
 6598SOL     OW20692   1.919   4.709   3.686
 6598SOL    HW120693   1.959   4.685   3.598
 6598SOL    HW220694   1.971   4.783   3.728
 6599SOL     OW20695   4.116   6.404   6.202
 6599SOL    HW120696   4.148   6.309   6.210
 6599SOL    HW220697   4.190   6.460   6.164
 6600SOL     OW20698   3.638   6.582   5.253
 6600SOL    HW120699   3.622   6.622   5.343
 6600SOL    HW220700   3.626   6.652   5.182
 6601SOL     OW20701   0.975   2.505   4.493
 6601SOL    HW120702   0.973   2.488   4.394
 6601SOL    HW220703   0.890   2.552   4.520
 6602SOL     OW20704   1.715   0.461   1.374
 6602SOL    HW120705   1.805   0.418   1.364
 6602SOL    HW220706   1.656   0.401   1.429
 6603SOL     OW20707   0.879   2.875   3.755
 6603SOL    HW120708   0.961   2.869   3.812
 6603SOL    HW220709   0.899   2.838   3.664
 6604SOL     OW20710   1.603   6.696   1.518
 6604SOL    HW120711   1.670   6.754   1.471
 6604SOL    HW220712   1.587   6.732   1.610
 6605SOL     OW20713   5.401   5.308   2.243
 6605SOL    HW120714   5.308   5.328   2.273
 6605SOL    HW220715   5.455   5.275   2.321
 6606SOL     OW20716   6.599   5.443   2.229
 6606SOL    HW120717   6.686   5.432   2.182
 6606SOL    HW220718   6.547   5.517   2.187
 6607SOL     OW20719   1.344   4.569   3.421
 6607SOL    HW120720   1.344   4.669   3.419
 6607SOL    HW220721   1.402   4.534   3.348
 6608SOL     OW20722   0.009   6.564   6.789
 6608SOL    HW120723   0.069   6.533   6.863
 6608SOL    HW220724   6.930   6.559   6.819
 6609SOL     OW20725   5.576   0.582   6.944
 6609SOL    HW120726   5.595   0.484   6.937
 6609SOL    HW220727   5.482   0.595   6.977
 6610SOL     OW20728   2.429   6.474   0.002
 6610SOL    HW120729   2.408   6.557   6.967
 6610SOL    HW220730   2.528   6.460   0.004
 6611SOL     OW20731   4.751   2.813   3.313
 6611SOL    HW120732   4.777   2.730   3.362
 6611SOL    HW220733   4.682   2.862   3.366
 6612SOL     OW20734   6.594   2.325   6.470
 6612SOL    HW120735   6.578   2.295   6.376
 6612SOL    HW220736   6.626   2.419   6.470
 6613SOL     OW20737   6.613   6.469   5.441
 6613SOL    HW120738   6.648   6.495   5.351
 6613SOL    HW220739   6.618   6.369   5.451
 6614SOL     OW20740   4.249   6.345   7.007
 6614SOL    HW120741   4.298   6.426   6.975
 6614SOL    HW220742   4.247   6.276   6.935
 6615SOL     OW20743   1.117   5.907   1.206
 6615SOL    HW120744   1.134   5.908   1.304
 6615SOL    HW220745   1.191   5.859   1.159
 6616SOL     OW20746   4.472   0.359   6.868
 6616SOL    HW120747   4.568   0.340   6.887
 6616SOL    HW220748   4.465   0.415   6.785
 6617SOL     OW20749   4.440   5.664   3.563
 6617SOL    HW120750   4.450   5.743   3.503
 6617SOL    HW220751   4.529   5.635   3.597
 6618SOL     OW20752   2.057   1.767   2.680
 6618SOL    HW120753   2.075   1.687   2.622
 6618SOL    HW220754   1.959   1.774   2.697
 6619SOL     OW20755   5.513   6.949   4.292
 6619SOL    HW120756   5.565   6.984   4.214
 6619SOL    HW220757   5.554   6.981   4.377
 6620SOL     OW20758   2.033   3.037   5.436
 6620SOL    HW120759   2.132   3.025   5.424
 6620SOL    HW220760   2.016   3.084   5.522
 6621SOL     OW20761   3.663   3.086   5.725
 6621SOL    HW120762   3.689   3.117   5.633
 6621SOL    HW220763   3.737   3.107   5.789
 6622SOL     OW20764   5.712   5.885   2.284
 6622SOL    HW120765   5.699   5.966   2.226
 6622SOL    HW220766   5.642   5.882   2.355
 6623SOL     OW20767   3.934   3.011   5.111
 6623SOL    HW120768   3.835   3.003   5.121
 6623SOL    HW220769   3.980   2.948   5.174
 6624SOL     OW20770   0.589   4.497   5.664
 6624SOL    HW120771   0.685   4.519   5.680
 6624SOL    HW220772   0.570   4.405   5.700
 6625SOL     OW20773   5.078   2.065   5.332
 6625SOL    HW120774   5.093   1.967   5.350
 6625SOL    HW220775   5.130   2.119   5.398
 6626SOL     OW20776   2.900   0.049   5.698
 6626SOL    HW120777   2.960   0.019   5.624
 6626SOL    HW220778   2.879   6.989   5.758
 6627SOL     OW20779   1.650   6.657   3.700
 6627SOL    HW120780   1.598   6.645   3.785
 6627SOL    HW220781   1.744   6.684   3.721
 6628SOL     OW20782   5.824   5.109   4.472
 6628SOL    HW120783   5.843   5.017   4.506
 6628SOL    HW220784   5.778   5.162   4.544
 6629SOL     OW20785   4.570   6.113   6.427
 6629SOL    HW120786   4.541   6.018   6.417
 6629SOL    HW220787   4.670   6.117   6.419
 6630SOL     OW20788   3.900   1.581   1.737
 6630SOL    HW120789   3.885   1.622   1.647
 6630SOL    HW220790   3.949   1.495   1.726
 6631SOL     OW20791   2.045   6.051   3.985
 6631SOL    HW120792   2.142   6.028   3.996
 6631SOL    HW220793   2.020   6.046   3.889
 6632SOL     OW20794   0.735   0.556   0.908
 6632SOL    HW120795   0.818   0.523   0.953
 6632SOL    HW220796   0.742   0.543   0.809
 6633SOL     OW20797   2.070   5.159   6.200
 6633SOL    HW120798   2.112   5.179   6.111
 6633SOL    HW220799   2.014   5.077   6.193
 6634SOL     OW20800   5.611   1.443   5.436
 6634SOL    HW120801   5.655   1.363   5.397
 6634SOL    HW220802   5.589   1.426   5.532
 6635SOL     OW20803   4.794   4.431   3.708
 6635SOL    HW120804   4.763   4.355   3.765
 6635SOL    HW220805   4.728   4.507   3.716
 6636SOL     OW20806   4.775   1.465   0.216
 6636SOL    HW120807   4.746   1.560   0.223
 6636SOL    HW220808   4.828   1.452   0.132
 6637SOL     OW20809   1.555   6.810   6.702
 6637SOL    HW120810   1.517   6.900   6.678
 6637SOL    HW220811   1.487   6.740   6.684
 6638SOL     OW20812   2.891   3.630   3.121
 6638SOL    HW120813   2.914   3.661   3.213
 6638SOL    HW220814   2.898   3.706   3.057
 6639SOL     OW20815   4.537   4.494   6.939
 6639SOL    HW120816   4.480   4.516   6.860
 6639SOL    HW220817   4.515   4.403   6.973
 6640SOL     OW20818   6.525   1.933   5.488
 6640SOL    HW120819   6.572   1.924   5.400
 6640SOL    HW220820   6.487   1.844   5.514
 6641SOL     OW20821   3.087   1.492   6.697
 6641SOL    HW120822   3.000   1.528   6.662
 6641SOL    HW220823   3.079   1.395   6.716
 6642SOL     OW20824   2.636   5.975   6.312
 6642SOL    HW120825   2.657   5.943   6.220
 6642SOL    HW220826   2.623   5.896   6.372
 6643SOL     OW20827   5.574   6.012   6.747
 6643SOL    HW120828   5.552   6.036   6.842
 6643SOL    HW220829   5.526   6.074   6.685
 6644SOL     OW20830   2.373   5.883   1.515
 6644SOL    HW120831   2.277   5.897   1.490
 6644SOL    HW220832   2.381   5.798   1.567
 6645SOL     OW20833   5.345   3.822   0.916
 6645SOL    HW120834   5.294   3.867   0.844
 6645SOL    HW220835   5.302   3.735   0.939
 6646SOL     OW20836   4.788   1.370   4.994
 6646SOL    HW120837   4.855   1.319   4.940
 6646SOL    HW220838   4.827   1.393   5.083
 6647SOL     OW20839   4.346   6.952   0.331
 6647SOL    HW120840   4.382   0.026   0.353
 6647SOL    HW220841   4.255   6.941   0.371
 6648SOL     OW20842   3.490   6.816   4.206
 6648SOL    HW120843   3.520   6.787   4.115
 6648SOL    HW220844   3.569   6.829   4.265
 6649SOL     OW20845   5.956   1.873   6.024
 6649SOL    HW120846   6.046   1.835   6.006
 6649SOL    HW220847   5.944   1.957   5.971
 6650SOL     OW20848   4.148   1.480   5.445
 6650SOL    HW120849   4.070   1.494   5.384
 6650SOL    HW220850   4.116   1.441   5.531
 6651SOL     OW20851   1.533   0.822   5.951
 6651SOL    HW120852   1.617   0.782   5.987
 6651SOL    HW220853   1.540   0.922   5.953
 6652SOL     OW20854   0.305   4.621   6.969
 6652SOL    HW120855   0.257   4.702   6.936
 6652SOL    HW220856   0.280   4.542   6.912
 6653SOL     OW20857   4.151   3.430   1.238
 6653SOL    HW120858   4.217   3.424   1.313
 6653SOL    HW220859   4.200   3.425   1.151
 6654SOL     OW20860   1.374   5.459   1.686
 6654SOL    HW120861   1.375   5.459   1.586
 6654SOL    HW220862   1.279   5.464   1.719
 6655SOL     OW20863   0.024   6.622   3.323
 6655SOL    HW120864   0.119   6.592   3.339
 6655SOL    HW220865   0.001   6.608   3.227
 6656SOL     OW20866   6.113   1.997   2.345
 6656SOL    HW120867   6.113   2.086   2.392
 6656SOL    HW220868   6.036   1.993   2.282
 6657SOL     OW20869   6.172   3.867   4.641
 6657SOL    HW120870   6.262   3.855   4.682
 6657SOL    HW220871   6.101   3.854   4.710
 6658SOL     OW20872   5.353   1.041   5.333
 6658SOL    HW120873   5.343   1.040   5.433
 6658SOL    HW220874   5.363   1.135   5.302
 6659SOL     OW20875   1.965   2.874   1.623
 6659SOL    HW120876   1.937   2.929   1.702
 6659SOL    HW220877   2.054   2.905   1.591
 6660SOL     OW20878   1.626   5.301   1.484
 6660SOL    HW120879   1.659   5.236   1.415
 6660SOL    HW220880   1.640   5.263   1.575
 6661SOL     OW20881   2.275   0.319   5.358
 6661SOL    HW120882   2.315   0.235   5.395
 6661SOL    HW220883   2.280   0.392   5.426
 6662SOL     OW20884   1.375   0.923   0.552
 6662SOL    HW120885   1.324   0.995   0.504
 6662SOL    HW220886   1.422   0.865   0.486
 6663SOL     OW20887   6.794   6.348   4.793
 6663SOL    HW120888   6.842   6.315   4.874
 6663SOL    HW220889   6.856   6.406   4.739
 6664SOL     OW20890   1.895   6.946   0.621
 6664SOL    HW120891   1.978   6.960   0.566
 6664SOL    HW220892   1.842   0.015   0.623
 6665SOL     OW20893   1.466   6.405   4.475
 6665SOL    HW120894   1.424   6.328   4.426
 6665SOL    HW220895   1.395   6.452   4.528
 6666SOL     OW20896   6.863   6.007   5.682
 6666SOL    HW120897   6.826   6.069   5.751
 6666SOL    HW220898   6.862   5.914   5.717
 6667SOL     OW20899   0.127   6.444   5.573
 6667SOL    HW120900   0.057   6.394   5.522
 6667SOL    HW220901   0.137   6.536   5.535
 6668SOL     OW20902   6.584   5.779   1.044
 6668SOL    HW120903   6.672   5.818   1.016
 6668SOL    HW220904   6.594   5.680   1.057
 6669SOL     OW20905   2.677   2.212   1.908
 6669SOL    HW120906   2.754   2.255   1.956
 6669SOL    HW220907   2.597   2.272   1.913
 6670SOL     OW20908   3.061   1.151   5.537
 6670SOL    HW120909   3.130   1.079   5.540
 6670SOL    HW220910   3.094   1.227   5.482
 6671SOL     OW20911   4.109   0.066   0.632
 6671SOL    HW120912   4.108   0.073   0.532
 6671SOL    HW220913   4.093   0.156   0.672
 6672SOL     OW20914   6.421   1.874   0.482
 6672SOL    HW120915   6.405   1.818   0.563
 6672SOL    HW220916   6.518   1.900   0.479
 6673SOL     OW20917   4.639   4.219   3.854
 6673SOL    HW120918   4.543   4.221   3.827
 6673SOL    HW220919   4.667   4.125   3.872
 6674SOL     OW20920   0.031   4.109   0.277
 6674SOL    HW120921   6.972   4.147   0.332
 6674SOL    HW220922   0.003   4.021   0.239
 6675SOL     OW20923   6.039   3.100   0.230
 6675SOL    HW120924   5.999   3.008   0.237
 6675SOL    HW220925   5.966   3.168   0.220
 6676SOL     OW20926   0.367   3.803   4.991
 6676SOL    HW120927   0.322   3.891   5.008
 6676SOL    HW220928   0.421   3.810   4.907
 6677SOL     OW20929   0.738   1.530   6.516
 6677SOL    HW120930   0.826   1.554   6.476
 6677SOL    HW220931   0.676   1.498   6.444
 6678SOL     OW20932   3.063   4.116   0.618
 6678SOL    HW120933   3.014   4.039   0.576
 6678SOL    HW220934   3.142   4.140   0.561
 6679SOL     OW20935   3.727   0.396   3.941
 6679SOL    HW120936   3.731   0.310   3.992
 6679SOL    HW220937   3.791   0.392   3.864
 6680SOL     OW20938   4.268   6.934   6.456
 6680SOL    HW120939   4.231   6.860   6.401
 6680SOL    HW220940   4.322   6.995   6.398
 6681SOL     OW20941   4.226   6.067   0.455
 6681SOL    HW120942   4.171   5.986   0.434
 6681SOL    HW220943   4.274   6.097   0.372
 6682SOL     OW20944   2.110   4.807   0.113
 6682SOL    HW120945   2.115   4.876   0.186
 6682SOL    HW220946   2.199   4.802   0.067
 6683SOL     OW20947   6.139   3.304   5.457
 6683SOL    HW120948   6.123   3.206   5.464
 6683SOL    HW220949   6.123   3.334   5.363
 6684SOL     OW20950   3.942   6.396   2.538
 6684SOL    HW120951   3.977   6.308   2.507
 6684SOL    HW220952   3.932   6.458   2.460
 6685SOL     OW20953   4.467   3.286   6.506
 6685SOL    HW120954   4.503   3.291   6.599
 6685SOL    HW220955   4.537   3.247   6.446
 6686SOL     OW20956   5.137   5.934   4.259
 6686SOL    HW120957   5.083   5.851   4.246
 6686SOL    HW220958   5.101   6.007   4.202
 6687SOL     OW20959   0.766   3.021   2.219
 6687SOL    HW120960   0.737   3.026   2.123
 6687SOL    HW220961   0.720   3.093   2.271
 6688SOL     OW20962   5.008   4.648   1.513
 6688SOL    HW120963   4.968   4.631   1.422
 6688SOL    HW220964   4.937   4.684   1.574
 6689SOL     OW20965   4.706   3.856   5.615
 6689SOL    HW120966   4.718   3.770   5.665
 6689SOL    HW220967   4.674   3.837   5.522
 6690SOL     OW20968   0.617   0.144   0.364
 6690SOL    HW120969   0.607   0.155   0.463
 6690SOL    HW220970   0.536   0.181   0.318
 6691SOL     OW20971   1.975   0.065   2.414
 6691SOL    HW120972   2.025   0.037   2.332
 6691SOL    HW220973   2.025   0.036   2.496
 6692SOL     OW20974   3.842   3.652   3.596
 6692SOL    HW120975   3.881   3.662   3.688
 6692SOL    HW220976   3.743   3.639   3.603
 6693SOL     OW20977   4.254   2.328   5.505
 6693SOL    HW120978   4.159   2.357   5.502
 6693SOL    HW220979   4.268   2.267   5.583
 6694SOL     OW20980   3.743   5.961   1.447
 6694SOL    HW120981   3.728   5.869   1.482
 6694SOL    HW220982   3.830   5.996   1.480
 6695SOL     OW20983   2.688   2.518   6.538
 6695SOL    HW120984   2.613   2.487   6.596
 6695SOL    HW220985   2.654   2.533   6.445
 6696SOL     OW20986   3.773   2.982   4.376
 6696SOL    HW120987   3.701   3.008   4.439
 6696SOL    HW220988   3.859   3.025   4.404
 6697SOL     OW20989   4.867   1.704   2.907
 6697SOL    HW120990   4.914   1.756   2.978
 6697SOL    HW220991   4.890   1.742   2.817
 6698SOL     OW20992   3.166   2.688   0.804
 6698SOL    HW120993   3.100   2.722   0.872
 6698SOL    HW220994   3.229   2.625   0.849
 6699SOL     OW20995   2.334   6.196   5.364
 6699SOL    HW120996   2.337   6.166   5.460
 6699SOL    HW220997   2.404   6.266   5.349
 6700SOL     OW20998   0.370   1.488   1.323
 6700SOL    HW120999   0.409   1.510   1.234
 6700SOL    HW221000   0.309   1.561   1.352
 6701SOL     OW21001   5.657   5.205   1.963
 6701SOL    HW121002   5.638   5.170   2.054
 6701SOL    HW221003   5.701   5.134   1.908
 6702SOL     OW21004   1.895   2.206   1.243
 6702SOL    HW121005   1.955   2.269   1.293
 6702SOL    HW221006   1.800   2.231   1.258
 6703SOL     OW21007   6.605   0.175   0.831
 6703SOL    HW121008   6.593   0.086   0.875
 6703SOL    HW221009   6.645   0.239   0.896
 6704SOL     OW21010   4.213   2.296   2.864
 6704SOL    HW121011   4.119   2.263   2.858
 6704SOL    HW221012   4.264   2.269   2.782
 6705SOL     OW21013   6.268   3.351   0.766
 6705SOL    HW121014   6.182   3.364   0.816
 6705SOL    HW221015   6.255   3.281   0.696
 6706SOL     OW21016   0.728   5.678   1.353
 6706SOL    HW121017   0.806   5.646   1.300
 6706SOL    HW221018   0.647   5.625   1.328
 6707SOL     OW21019   5.840   6.975   3.425
 6707SOL    HW121020   5.740   6.972   3.419
 6707SOL    HW221021   5.874   6.885   3.454
 6708SOL     OW21022   5.398   5.474   0.728
 6708SOL    HW121023   5.424   5.440   0.819
 6708SOL    HW221024   5.331   5.412   0.687
 6709SOL     OW21025   1.386   6.041   3.088
 6709SOL    HW121026   1.369   6.137   3.108
 6709SOL    HW221027   1.438   6.033   3.003
 6710SOL     OW21028   3.603   0.831   5.830
 6710SOL    HW121029   3.653   0.779   5.900
 6710SOL    HW221030   3.554   0.907   5.874
 6711SOL     OW21031   5.725   6.770   5.675
 6711SOL    HW121032   5.785   6.777   5.755
 6711SOL    HW221033   5.691   6.861   5.651
 6712SOL     OW21034   5.656   3.523   0.826
 6712SOL    HW121035   5.754   3.501   0.832
 6712SOL    HW221036   5.624   3.503   0.733
 6713SOL     OW21037   1.912   0.637   3.053
 6713SOL    HW121038   1.857   0.666   2.974
 6713SOL    HW221039   1.997   0.595   3.022
 6714SOL     OW21040   6.127   1.134   6.688
 6714SOL    HW121041   6.134   1.058   6.752
 6714SOL    HW221042   6.182   1.115   6.606
 6715SOL     OW21043   1.081   0.547   0.795
 6715SOL    HW121044   1.164   0.555   0.850
 6715SOL    HW221045   1.098   0.485   0.718
 6716SOL     OW21046   0.041   5.669   1.780
 6716SOL    HW121047   0.118   5.726   1.809
 6716SOL    HW221048   0.074   5.579   1.752
 6717SOL     OW21049   2.699   2.995   6.448
 6717SOL    HW121050   2.765   2.992   6.523
 6717SOL    HW221051   2.732   3.059   6.378
 6718SOL     OW21052   5.045   0.174   0.889
 6718SOL    HW121053   5.018   0.080   0.867
 6718SOL    HW221054   4.988   0.238   0.837
 6719SOL     OW21055   3.252   6.599   6.923
 6719SOL    HW121056   3.184   6.579   6.994
 6719SOL    HW221057   3.221   6.560   6.836
 6720SOL     OW21058   1.848   0.345   3.402
 6720SOL    HW121059   1.928   0.306   3.355
 6720SOL    HW221060   1.856   0.444   3.405
 6721SOL     OW21061   6.917   6.503   0.090
 6721SOL    HW121062   6.873   6.421   0.054
 6721SOL    HW221063   6.854   6.551   0.151
 6722SOL     OW21064   6.192   2.570   0.899
 6722SOL    HW121065   6.160   2.548   0.991
 6722SOL    HW221066   6.291   2.586   0.902
 6723SOL     OW21067   1.313   0.209   4.803
 6723SOL    HW121068   1.331   0.258   4.718
 6723SOL    HW221069   1.221   0.169   4.799
 6724SOL     OW21070   2.560   3.528   6.402
 6724SOL    HW121071   2.487   3.470   6.437
 6724SOL    HW221072   2.581   3.502   6.307
 6725SOL     OW21073   6.509   2.938   2.164
 6725SOL    HW121074   6.430   2.990   2.196
 6725SOL    HW221075   6.537   2.974   2.075
 6726SOL     OW21076   1.077   3.089   4.243
 6726SOL    HW121077   1.005   3.026   4.270
 6726SOL    HW221078   1.068   3.174   4.295
 6727SOL     OW21079   0.079   5.017   5.784
 6727SOL    HW121080   0.101   5.077   5.861
 6727SOL    HW221081   0.005   4.955   5.810
 6728SOL     OW21082   4.090   2.112   2.440
 6728SOL    HW121083   4.161   2.174   2.472
 6728SOL    HW221084   4.127   2.020   2.431
 6729SOL     OW21085   6.770   0.573   0.669
 6729SOL    HW121086   6.753   0.494   0.609
 6729SOL    HW221087   6.833   0.547   0.742
 6730SOL     OW21088   1.551   6.794   1.752
 6730SOL    HW121089   1.613   6.863   1.788
 6730SOL    HW221090   1.528   6.728   1.824
 6731SOL     OW21091   1.410   6.836   1.400
 6731SOL    HW121092   1.472   6.785   1.460
 6731SOL    HW221093   1.357   6.901   1.454
 6732SOL     OW21094   6.188   4.182   4.325
 6732SOL    HW121095   6.241   4.218   4.248
 6732SOL    HW221096   6.152   4.092   4.300
 6733SOL     OW21097   3.500   5.671   6.570
 6733SOL    HW121098   3.575   5.719   6.524
 6733SOL    HW221099   3.418   5.729   6.568
 6734SOL     OW21100   6.186   2.034   4.548
 6734SOL    HW121101   6.213   2.071   4.637
 6734SOL    HW221102   6.269   2.009   4.497
 6735SOL     OW21103   6.669   3.898   4.432
 6735SOL    HW121104   6.587   3.956   4.431
 6735SOL    HW221105   6.724   3.915   4.350
 6736SOL     OW21106   2.529   3.292   6.854
 6736SOL    HW121107   2.534   3.275   6.756
 6736SOL    HW221108   2.580   3.375   6.876
 6737SOL     OW21109   1.803   3.308   0.942
 6737SOL    HW121110   1.707   3.288   0.958
 6737SOL    HW221111   1.816   3.337   0.846
 6738SOL     OW21112   1.510   5.628   3.342
 6738SOL    HW121113   1.482   5.589   3.429
 6738SOL    HW221114   1.487   5.726   3.340
 6739SOL     OW21115   4.812   6.180   4.062
 6739SOL    HW121116   4.794   6.227   3.976
 6739SOL    HW221117   4.769   6.230   4.137
 6740SOL     OW21118   6.870   6.807   5.468
 6740SOL    HW121119   6.961   6.764   5.469
 6740SOL    HW221120   6.832   6.802   5.376
 6741SOL     OW21121   3.839   2.476   5.884
 6741SOL    HW121122   3.767   2.440   5.943
 6741SOL    HW221123   3.859   2.571   5.909
 6742SOL     OW21124   5.993   5.330   2.992
 6742SOL    HW121125   6.016   5.329   3.090
 6742SOL    HW221126   6.035   5.409   2.949
 6743SOL     OW21127   3.986   4.482   6.185
 6743SOL    HW121128   4.029   4.563   6.146
 6743SOL    HW221129   4.016   4.470   6.280
 6744SOL     OW21130   6.296   4.303   5.588
 6744SOL    HW121131   6.386   4.262   5.583
 6744SOL    HW221132   6.244   4.261   5.663
 6745SOL     OW21133   0.416   6.893   3.641
 6745SOL    HW121134   0.334   6.900   3.698
 6745SOL    HW221135   0.428   6.979   3.590
 6746SOL     OW21136   0.720   1.162   4.060
 6746SOL    HW121137   0.735   1.252   4.019
 6746SOL    HW221138   0.806   1.111   4.060
 6747SOL     OW21139   5.613   1.542   5.911
 6747SOL    HW121140   5.648   1.572   6.000
 6747SOL    HW221141   5.641   1.608   5.841
 6748SOL     OW21142   3.383   1.768   2.862
 6748SOL    HW121143   3.291   1.792   2.893
 6748SOL    HW221144   3.440   1.851   2.860
 6749SOL     OW21145   3.782   4.033   0.729
 6749SOL    HW121146   3.752   3.943   0.761
 6749SOL    HW221147   3.740   4.104   0.785
 6750SOL     OW21148   3.517   2.046   4.322
 6750SOL    HW121149   3.426   2.084   4.305
 6750SOL    HW221150   3.544   2.066   4.416
 6751SOL     OW21151   5.630   0.169   2.869
 6751SOL    HW121152   5.552   0.136   2.921
 6751SOL    HW221153   5.607   0.174   2.772
 6752SOL     OW21154   2.013   0.013   3.223
 6752SOL    HW121155   1.925   0.028   3.269
 6752SOL    HW221156   2.087   0.024   3.289
 6753SOL     OW21157   3.051   1.209   5.803
 6753SOL    HW121158   3.032   1.230   5.707
 6753SOL    HW221159   3.090   1.117   5.810
 6754SOL     OW21160   6.973   1.038   1.182
 6754SOL    HW121161   6.906   1.068   1.114
 6754SOL    HW221162   0.039   1.095   1.175
 6755SOL     OW21163   4.422   1.609   2.175
 6755SOL    HW121164   4.469   1.583   2.090
 6755SOL    HW221165   4.362   1.688   2.157
 6756SOL     OW21166   3.964   6.043   4.978
 6756SOL    HW121167   4.010   6.016   4.893
 6756SOL    HW221168   3.925   5.963   5.022
 6757SOL     OW21169   3.241   2.507   0.546
 6757SOL    HW121170   3.240   2.583   0.611
 6757SOL    HW221171   3.148   2.481   0.523
 6758SOL     OW21172   5.890   2.311   1.638
 6758SOL    HW121173   5.903   2.355   1.549
 6758SOL    HW221174   5.970   2.256   1.660
 6759SOL     OW21175   1.625   3.761   3.589
 6759SOL    HW121176   1.650   3.733   3.682
 6759SOL    HW221177   1.526   3.776   3.584
 6760SOL     OW21178   6.666   3.862   2.748
 6760SOL    HW121179   6.684   3.899   2.657
 6760SOL    HW221180   6.598   3.789   2.742
 6761SOL     OW21181   7.002   2.134   5.774
 6761SOL    HW121182   6.910   2.173   5.769
 6761SOL    HW221183   7.007   2.069   5.850
 6762SOL     OW21184   0.941   4.443   4.705
 6762SOL    HW121185   0.879   4.514   4.673
 6762SOL    HW221186   0.999   4.412   4.630
 6763SOL     OW21187   6.218   5.615   3.537
 6763SOL    HW121188   6.307   5.593   3.496
 6763SOL    HW221189   6.232   5.676   3.615
 6764SOL     OW21190   1.896   5.412   0.897
 6764SOL    HW121191   1.968   5.346   0.878
 6764SOL    HW221192   1.933   5.505   0.892
 6765SOL     OW21193   5.500   4.907   3.898
 6765SOL    HW121194   5.587   4.948   3.870
 6765SOL    HW221195   5.500   4.810   3.874
 6766SOL     OW21196   5.280   6.761   5.579
 6766SOL    HW121197   5.184   6.735   5.593
 6766SOL    HW221198   5.291   6.859   5.593
 6767SOL     OW21199   1.867   1.078   0.987
 6767SOL    HW121200   1.884   1.168   0.946
 6767SOL    HW221201   1.877   1.007   0.918
 6768SOL     OW21202   1.313   6.545   4.714
 6768SOL    HW121203   1.395   6.595   4.741
 6768SOL    HW221204   1.277   6.494   4.792
 6769SOL     OW21205   2.605   0.559   6.697
 6769SOL    HW121206   2.671   0.484   6.709
 6769SOL    HW221207   2.620   0.602   6.609
 6770SOL     OW21208   6.211   1.499   3.014
 6770SOL    HW121209   6.252   1.414   2.981
 6770SOL    HW221210   6.222   1.571   2.945
 6771SOL     OW21211   4.507   1.605   3.395
 6771SOL    HW121212   4.457   1.633   3.476
 6771SOL    HW221213   4.485   1.510   3.373
 6772SOL     OW21214   4.513   2.141   2.568
 6772SOL    HW121215   4.425   2.112   2.605
 6772SOL    HW221216   4.553   2.210   2.629
 6773SOL     OW21217   6.562   5.825   1.928
 6773SOL    HW121218   6.657   5.801   1.947
 6773SOL    HW221219   6.553   5.855   1.834
 6774SOL     OW21220   0.944   3.672   5.009
 6774SOL    HW121221   0.983   3.609   5.076
 6774SOL    HW221222   0.846   3.681   5.025
 6775SOL     OW21223   2.638   2.298   2.190
 6775SOL    HW121224   2.574   2.338   2.125
 6775SOL    HW221225   2.732   2.322   2.164
 6776SOL     OW21226   5.141   4.058   0.148
 6776SOL    HW121227   5.063   4.096   0.097
 6776SOL    HW221228   5.225   4.102   0.119
 6777SOL     OW21229   5.040   4.702   0.815
 6777SOL    HW121230   5.037   4.802   0.823
 6777SOL    HW221231   5.117   4.667   0.869
 6778SOL     OW21232   5.519   5.473   2.055
 6778SOL    HW121233   5.487   5.419   2.133
 6778SOL    HW221234   5.579   5.416   1.998
 6779SOL     OW21235   5.706   5.759   6.430
 6779SOL    HW121236   5.686   5.709   6.346
 6779SOL    HW221237   5.695   5.857   6.414
 6780SOL     OW21238   1.661   2.563   2.298
 6780SOL    HW121239   1.742   2.527   2.344
 6780SOL    HW221240   1.688   2.608   2.213
 6781SOL     OW21241   6.940   2.100   3.932
 6781SOL    HW121242   6.951   2.042   3.851
 6781SOL    HW221243   6.848   2.138   3.934
 6782SOL     OW21244   0.672   0.883   2.636
 6782SOL    HW121245   0.599   0.924   2.581
 6782SOL    HW221246   0.645   0.791   2.664
 6783SOL     OW21247   6.332   1.293   5.374
 6783SOL    HW121248   6.386   1.351   5.314
 6783SOL    HW221249   6.235   1.306   5.354
 6784SOL     OW21250   1.503   3.092   0.726
 6784SOL    HW121251   1.464   3.100   0.817
 6784SOL    HW221252   1.600   3.066   0.734
 6785SOL     OW21253   6.143   5.466   4.388
 6785SOL    HW121254   6.077   5.527   4.432
 6785SOL    HW221255   6.098   5.380   4.365
 6786SOL     OW21256   1.659   2.440   0.140
 6786SOL    HW121257   1.606   2.510   0.188
 6786SOL    HW221258   1.720   2.484   0.075
 6787SOL     OW21259   2.347   2.963   6.998
 6787SOL    HW121260   2.381   3.047   0.025
 6787SOL    HW221261   2.256   2.941   0.018
 6788SOL     OW21262   1.073   4.424   1.640
 6788SOL    HW121263   1.131   4.502   1.665
 6788SOL    HW221264   1.125   4.360   1.584
 6789SOL     OW21265   0.281   5.173   2.735
 6789SOL    HW121266   0.195   5.222   2.747
 6789SOL    HW221267   0.357   5.237   2.736
 6790SOL     OW21268   0.258   3.556   0.999
 6790SOL    HW121269   0.315   3.475   1.014
 6790SOL    HW221270   0.214   3.582   1.086
 6791SOL     OW21271   3.613   1.784   1.984
 6791SOL    HW121272   3.682   1.712   1.978
 6791SOL    HW221273   3.602   1.827   1.894
 6792SOL     OW21274   6.109   6.920   4.954
 6792SOL    HW121275   6.022   6.900   4.998
 6792SOL    HW221276   6.130   6.849   4.887
 6793SOL     OW21277   1.768   1.809   0.999
 6793SOL    HW121278   1.825   1.858   1.065
 6793SOL    HW221279   1.826   1.769   0.927
 6794SOL     OW21280   4.402   0.806   5.301
 6794SOL    HW121281   4.475   0.829   5.365
 6794SOL    HW221282   4.384   0.885   5.242
 6795SOL     OW21283   2.244   6.213   0.520
 6795SOL    HW121284   2.289   6.300   0.501
 6795SOL    HW221285   2.296   6.163   0.589
 6796SOL     OW21286   6.522   0.522   2.949
 6796SOL    HW121287   6.557   0.610   2.917
 6796SOL    HW221288   6.538   0.515   3.047
 6797SOL     OW21289   6.621   1.924   1.742
 6797SOL    HW121290   6.629   1.903   1.645
 6797SOL    HW221291   6.685   1.868   1.794
 6798SOL     OW21292   5.349   0.003   2.146
 6798SOL    HW121293   5.364   6.959   2.223
 6798SOL    HW221294   5.252   0.003   2.121
 6799SOL     OW21295   0.002   6.851   1.878
 6799SOL    HW121296   0.049   6.939   1.877
 6799SOL    HW221297   6.927   6.862   1.918
 6800SOL     OW21298   2.066   3.533   2.145
 6800SOL    HW121299   2.147   3.499   2.097
 6800SOL    HW221300   2.057   3.485   2.233
 6801SOL     OW21301   0.632   6.950   2.810
 6801SOL    HW121302   0.692   0.013   2.819
 6801SOL    HW221303   0.628   6.921   2.715
 6802SOL     OW21304   3.014   6.021   1.703
 6802SOL    HW121305   3.095   6.077   1.685
 6802SOL    HW221306   2.986   6.033   1.799
 6803SOL     OW21307   4.699   2.886   5.227
 6803SOL    HW121308   4.773   2.837   5.274
 6803SOL    HW221309   4.731   2.978   5.202
 6804SOL     OW21310   3.443   4.934   3.968
 6804SOL    HW121311   3.490   4.912   3.883
 6804SOL    HW221312   3.509   4.972   4.034
 6805SOL     OW21313   0.532   4.564   6.735
 6805SOL    HW121314   0.433   4.556   6.736
 6805SOL    HW221315   0.566   4.555   6.641
 6806SOL     OW21316   6.337   0.536   3.425
 6806SOL    HW121317   6.318   0.582   3.339
 6806SOL    HW221318   6.262   0.473   3.447
 6807SOL     OW21319   3.425   3.517   1.319
 6807SOL    HW121320   3.424   3.599   1.261
 6807SOL    HW221321   3.408   3.544   1.414
 6808SOL     OW21322   0.158   2.114   5.568
 6808SOL    HW121323   0.090   2.143   5.635
 6808SOL    HW221324   0.207   2.034   5.602
 6809SOL     OW21325   0.900   2.991   1.504
 6809SOL    HW121326   0.933   3.000   1.411
 6809SOL    HW221327   0.972   2.953   1.562
 6810SOL     OW21328   1.851   0.821   2.737
 6810SOL    HW121329   1.881   0.912   2.764
 6810SOL    HW221330   1.884   0.802   2.644
 6811SOL     OW21331   5.774   3.594   1.569
 6811SOL    HW121332   5.834   3.527   1.612
 6811SOL    HW221333   5.776   3.581   1.470
 6812SOL     OW21334   3.163   3.457   4.604
 6812SOL    HW121335   3.249   3.459   4.553
 6812SOL    HW221336   3.098   3.397   4.557
 6813SOL     OW21337   5.165   2.835   2.948
 6813SOL    HW121338   5.108   2.905   2.904
 6813SOL    HW221339   5.106   2.764   2.987
 6814SOL     OW21340   3.509   1.560   6.024
 6814SOL    HW121341   3.569   1.565   5.944
 6814SOL    HW221342   3.532   1.478   6.077
 6815SOL     OW21343   3.399   6.414   0.784
 6815SOL    HW121344   3.336   6.390   0.857
 6815SOL    HW221345   3.365   6.495   0.736
 6816SOL     OW21346   6.811   6.903   6.415
 6816SOL    HW121347   6.888   6.966   6.411
 6816SOL    HW221348   6.816   6.850   6.499
 6817SOL     OW21349   2.392   2.692   3.124
 6817SOL    HW121350   2.370   2.681   3.221
 6817SOL    HW221351   2.450   2.617   3.094
 6818SOL     OW21352   2.508   6.374   2.030
 6818SOL    HW121353   2.471   6.374   1.937
 6818SOL    HW221354   2.562   6.291   2.044
 6819SOL     OW21355   4.799   1.581   3.292
 6819SOL    HW121356   4.705   1.553   3.308
 6819SOL    HW221357   4.850   1.504   3.253
 6820SOL     OW21358   2.070   5.512   2.115
 6820SOL    HW121359   2.065   5.457   2.031
 6820SOL    HW221360   2.008   5.590   2.108
 6821SOL     OW21361   3.816   2.103   4.888
 6821SOL    HW121362   3.909   2.087   4.920
 6821SOL    HW221363   3.819   2.142   4.796
 6822SOL     OW21364   5.109   2.486   6.022
 6822SOL    HW121365   5.174   2.440   5.961
 6822SOL    HW221366   5.158   2.543   6.088
 6823SOL     OW21367   4.380   3.525   5.604
 6823SOL    HW121368   4.303   3.463   5.586
 6823SOL    HW221369   4.386   3.591   5.530
 6824SOL     OW21370   1.254   2.253   0.674
 6824SOL    HW121371   1.175   2.213   0.627
 6824SOL    HW221372   1.224   2.294   0.760
 6825SOL     OW21373   5.031   6.632   0.882
 6825SOL    HW121374   4.949   6.575   0.896
 6825SOL    HW221375   5.028   6.673   0.791
 6826SOL     OW21376   1.757   3.139   3.070
 6826SOL    HW121377   1.749   3.236   3.046
 6826SOL    HW221378   1.709   3.084   3.002
 6827SOL     OW21379   4.295   5.362   6.621
 6827SOL    HW121380   4.228   5.344   6.549
 6827SOL    HW221381   4.379   5.398   6.580
 6828SOL     OW21382   2.876   1.709   1.541
 6828SOL    HW121383   2.956   1.744   1.589
 6828SOL    HW221384   2.818   1.785   1.512
 6829SOL     OW21385   5.103   6.198   5.414
 6829SOL    HW121386   5.107   6.249   5.500
 6829SOL    HW221387   5.156   6.246   5.344
 6830SOL     OW21388   5.070   0.910   3.626
 6830SOL    HW121389   5.151   0.953   3.585
 6830SOL    HW221390   4.988   0.960   3.598
 6831SOL     OW21391   1.281   0.302   7.010
 6831SOL    HW121392   1.262   0.400   0.008
 6831SOL    HW221393   1.304   0.287   6.914
 6832SOL     OW21394   2.467   3.997   0.820
 6832SOL    HW121395   2.370   3.984   0.800
 6832SOL    HW221396   2.510   3.909   0.841
 6833SOL     OW21397   3.271   4.534   6.647
 6833SOL    HW121398   3.302   4.439   6.636
 6833SOL    HW221399   3.171   4.535   6.652
 6834SOL     OW21400   4.327   6.572   1.164
 6834SOL    HW121401   4.339   6.619   1.251
 6834SOL    HW221402   4.354   6.633   1.089
 6835SOL     OW21403   3.901   0.755   4.453
 6835SOL    HW121404   3.959   0.752   4.371
 6835SOL    HW221405   3.897   0.849   4.487
 6836SOL     OW21406   2.292   4.774   0.417
 6836SOL    HW121407   2.383   4.794   0.383
 6836SOL    HW221408   2.281   4.675   0.429
 6837SOL     OW21409   0.721   2.234   2.285
 6837SOL    HW121410   0.698   2.231   2.188
 6837SOL    HW221411   0.786   2.161   2.307
 6838SOL     OW21412   3.476   6.399   6.971
 6838SOL    HW121413   3.411   6.474   6.978
 6838SOL    HW221414   3.469   6.341   0.036
 6839SOL     OW21415   5.758   1.059   6.649
 6839SOL    HW121416   5.668   1.082   6.686
 6839SOL    HW221417   5.753   0.974   6.597
 6840SOL     OW21418   3.333   1.022   4.748
 6840SOL    HW121419   3.262   1.092   4.758
 6840SOL    HW221420   3.305   0.939   4.795
 6841SOL     OW21421   4.494   4.638   6.668
 6841SOL    HW121422   4.568   4.672   6.726
 6841SOL    HW221423   4.531   4.573   6.601
 6842SOL     OW21424   3.094   4.275   0.869
 6842SOL    HW121425   3.084   4.231   0.958
 6842SOL    HW221426   3.095   4.206   0.797
 6843SOL     OW21427   6.122   6.486   1.074
 6843SOL    HW121428   6.190   6.491   1.002
 6843SOL    HW221429   6.071   6.401   1.067
 6844SOL     OW21430   5.274   0.487   3.744
 6844SOL    HW121431   5.291   0.556   3.814
 6844SOL    HW221432   5.354   0.428   3.735
 6845SOL     OW21433   6.401   4.162   3.164
 6845SOL    HW121434   6.366   4.212   3.084
 6845SOL    HW221435   6.328   4.152   3.231
 6846SOL     OW21436   3.301   2.873   6.931
 6846SOL    HW121437   3.215   2.839   6.969
 6846SOL    HW221438   3.363   2.897   7.005
 6847SOL     OW21439   0.339   3.525   4.042
 6847SOL    HW121440   0.255   3.566   4.077
 6847SOL    HW221441   0.390   3.484   4.117
 6848SOL     OW21442   4.944   5.732   3.854
 6848SOL    HW121443   5.035   5.729   3.811
 6848SOL    HW221444   4.915   5.640   3.878
 6849SOL     OW21445   4.218   5.032   5.174
 6849SOL    HW121446   4.142   4.998   5.119
 6849SOL    HW221447   4.182   5.071   5.259
 6850SOL     OW21448   5.647   4.094   2.351
 6850SOL    HW121449   5.658   4.009   2.404
 6850SOL    HW221450   5.613   4.071   2.260
 6851SOL     OW21451   0.618   1.993   2.765
 6851SOL    HW121452   0.659   1.917   2.713
 6851SOL    HW221453   0.685   2.066   2.776
 6852SOL     OW21454   2.785   4.586   1.016
 6852SOL    HW121455   2.742   4.549   0.934
 6852SOL    HW221456   2.785   4.685   1.012
 6853SOL     OW21457   5.977   4.826   0.215
 6853SOL    HW121458   5.996   4.869   0.126
 6853SOL    HW221459   6.003   4.730   0.211
 6854SOL     OW21460   4.190   1.072   6.506
 6854SOL    HW121461   4.250   1.036   6.435
 6854SOL    HW221462   4.096   1.072   6.474
 6855SOL     OW21463   4.483   5.945   4.105
 6855SOL    HW121464   4.438   5.870   4.154
 6855SOL    HW221465   4.533   5.909   4.027
 6856SOL     OW21466   6.241   2.734   5.079
 6856SOL    HW121467   6.193   2.669   5.139
 6856SOL    HW221468   6.174   2.790   5.031
 6857SOL     OW21469   3.113   2.228   6.565
 6857SOL    HW121470   3.183   2.165   6.531
 6857SOL    HW221471   3.119   2.234   6.665
 6858SOL     OW21472   4.012   3.633   3.098
 6858SOL    HW121473   4.029   3.617   3.195
 6858SOL    HW221474   3.962   3.555   3.059
 6859SOL     OW21475   0.810   1.658   0.846
 6859SOL    HW121476   0.856   1.659   0.935
 6859SOL    HW221477   0.732   1.596   0.850
 6860SOL     OW21478   6.784   5.058   1.085
 6860SOL    HW121479   6.797   4.976   1.141
 6860SOL    HW221480   6.817   5.040   0.992
 6861SOL     OW21481   3.963   4.944   0.354
 6861SOL    HW121482   3.992   4.896   0.436
 6861SOL    HW221483   3.988   4.891   0.273
 6862SOL     OW21484   1.537   5.098   6.230
 6862SOL    HW121485   1.539   5.088   6.130
 6862SOL    HW221486   1.446   5.075   6.264
 6863SOL     OW21487   5.503   6.610   5.719
 6863SOL    HW121488   5.580   6.671   5.701
 6863SOL    HW221489   5.418   6.655   5.689
 6864SOL     OW21490   2.557   4.980   4.402
 6864SOL    HW121491   2.646   5.022   4.384
 6864SOL    HW221492   2.489   5.051   4.421
 6865SOL     OW21493   1.216   6.269   3.947
 6865SOL    HW121494   1.288   6.240   3.884
 6865SOL    HW221495   1.236   6.235   4.039
 6866SOL     OW21496   5.842   4.990   4.011
 6866SOL    HW121497   5.795   5.031   4.089
 6866SOL    HW221498   5.884   4.904   4.039
 6867SOL     OW21499   2.450   4.478   1.847
 6867SOL    HW121500   2.355   4.468   1.878
 6867SOL    HW221501   2.470   4.412   1.775
 6868SOL     OW21502   1.712   5.432   6.734
 6868SOL    HW121503   1.694   5.361   6.666
 6868SOL    HW221504   1.781   5.401   6.799
 6869SOL     OW21505   5.352   0.724   6.349
 6869SOL    HW121506   5.399   0.810   6.369
 6869SOL    HW221507   5.275   0.713   6.412
 6870SOL     OW21508   0.550   4.828   1.927
 6870SOL    HW121509   0.614   4.799   1.856
 6870SOL    HW221510   0.566   4.775   2.010
 6871SOL     OW21511   6.201   4.466   3.261
 6871SOL    HW121512   6.277   4.428   3.314
 6871SOL    HW221513   6.117   4.462   3.315
 6872SOL     OW21514   0.223   2.195   1.123
 6872SOL    HW121515   0.206   2.207   1.026
 6872SOL    HW221516   0.160   2.252   1.176
 6873SOL     OW21517   6.672   3.631   4.289
 6873SOL    HW121518   6.677   3.715   4.344
 6873SOL    HW221519   6.746   3.632   4.221
 6874SOL     OW21520   6.720   5.244   2.614
 6874SOL    HW121521   6.669   5.302   2.549
 6874SOL    HW221522   6.757   5.165   2.566
 6875SOL     OW21523   2.436   2.510   2.725
 6875SOL    HW121524   2.525   2.503   2.680
 6875SOL    HW221525   2.427   2.436   2.792
 6876SOL     OW21526   4.115   0.492   3.647
 6876SOL    HW121527   4.194   0.505   3.707
 6876SOL    HW221528   4.143   0.444   3.564
 6877SOL     OW21529   2.606   3.802   1.142
 6877SOL    HW121530   2.630   3.804   1.239
 6877SOL    HW221531   2.688   3.783   1.088
 6878SOL     OW21532   3.983   1.074   4.229
 6878SOL    HW121533   4.078   1.043   4.224
 6878SOL    HW221534   3.922   0.996   4.213
 6879SOL     OW21535   1.017   2.941   0.828
 6879SOL    HW121536   1.026   2.842   0.839
 6879SOL    HW221537   0.927   2.970   0.860
 6880SOL     OW21538   2.547   5.488   4.905
 6880SOL    HW121539   2.515   5.396   4.882
 6880SOL    HW221540   2.565   5.493   5.003
 6881SOL     OW21541   1.665   5.023   1.028
 6881SOL    HW121542   1.575   4.988   1.052
 6881SOL    HW221543   1.688   4.996   0.935
 6882SOL     OW21544   2.654   0.666   0.225
 6882SOL    HW121545   2.657   0.718   0.310
 6882SOL    HW221546   2.693   0.575   0.241
 6883SOL     OW21547   4.973   1.774   6.808
 6883SOL    HW121548   4.993   1.818   6.721
 6883SOL    HW221549   4.978   1.675   6.798
 6884SOL     OW21550   1.167   3.892   3.815
 6884SOL    HW121551   1.078   3.853   3.842
 6884SOL    HW221552   1.211   3.931   3.895
 6885SOL     OW21553   4.462   4.482   4.376
 6885SOL    HW121554   4.482   4.508   4.471
 6885SOL    HW221555   4.393   4.409   4.376
 6886SOL     OW21556   6.797   0.755   3.928
 6886SOL    HW121557   6.774   0.751   4.025
 6886SOL    HW221558   6.715   0.745   3.872
 6887SOL     OW21559   5.105   5.759   6.195
 6887SOL    HW121560   5.136   5.838   6.142
 6887SOL    HW221561   5.181   5.696   6.208
 6888SOL     OW21562   5.554   5.460   6.437
 6888SOL    HW121563   5.643   5.415   6.447
 6888SOL    HW221564   5.527   5.459   6.341
 6889SOL     OW21565   1.482   2.823   5.651
 6889SOL    HW121566   1.449   2.839   5.744
 6889SOL    HW221567   1.480   2.725   5.631
 6890SOL     OW21568   4.220   6.629   2.084
 6890SOL    HW121569   4.216   6.723   2.119
 6890SOL    HW221570   4.131   6.585   2.100
 6891SOL     OW21571   1.702   4.089   2.627
 6891SOL    HW121572   1.754   4.171   2.651
 6891SOL    HW221573   1.669   4.097   2.533
 6892SOL     OW21574   3.839   2.141   3.280
 6892SOL    HW121575   3.937   2.155   3.269
 6892SOL    HW221576   3.794   2.152   3.192
 6893SOL     OW21577   4.791   4.682   0.340
 6893SOL    HW121578   4.834   4.763   0.381
 6893SOL    HW221579   4.846   4.601   0.361
 6894SOL     OW21580   6.180   5.104   0.210
 6894SOL    HW121581   6.176   5.166   0.289
 6894SOL    HW221582   6.267   5.118   0.162
 6895SOL     OW21583   2.927   4.888   1.348
 6895SOL    HW121584   2.890   4.800   1.380
 6895SOL    HW221585   2.925   4.954   1.423
 6896SOL     OW21586   2.438   0.546   3.966
 6896SOL    HW121587   2.469   0.581   3.877
 6896SOL    HW221588   2.339   0.538   3.966
 6897SOL     OW21589   4.962   3.538   5.241
 6897SOL    HW121590   5.029   3.561   5.170
 6897SOL    HW221591   4.889   3.483   5.200
 6898SOL     OW21592   4.259   1.568   1.673
 6898SOL    HW121593   4.287   1.664   1.682
 6898SOL    HW221594   4.340   1.509   1.678
 6899SOL     OW21595   4.836   6.233   1.841
 6899SOL    HW121596   4.781   6.308   1.803
 6899SOL    HW221597   4.800   6.146   1.810
 6900SOL     OW21598   6.635   5.624   4.680
 6900SOL    HW121599   6.571   5.547   4.685
 6900SOL    HW221600   6.725   5.590   4.654
 6901SOL     OW21601   6.155   6.053   6.039
 6901SOL    HW121602   6.165   6.011   5.949
 6901SOL    HW221603   6.171   6.151   6.032
 6902SOL     OW21604   6.732   6.295   0.130
 6902SOL    HW121605   6.685   6.376   0.163
 6902SOL    HW221606   6.724   6.222   0.198
 6903SOL     OW21607   2.928   5.031   5.496
 6903SOL    HW121608   2.866   5.009   5.421
 6903SOL    HW221609   3.022   5.026   5.464
 6904SOL     OW21610   6.769   0.790   4.199
 6904SOL    HW121611   6.701   0.724   4.232
 6904SOL    HW221612   6.779   0.863   4.266
 6905SOL     OW21613   5.859   6.277   6.643
 6905SOL    HW121614   5.759   6.285   6.642
 6905SOL    HW221615   5.886   6.215   6.716
 6906SOL     OW21616   4.584   1.563   4.281
 6906SOL    HW121617   4.568   1.608   4.193
 6906SOL    HW221618   4.681   1.537   4.287
 6907SOL     OW21619   5.845   2.797   1.781
 6907SOL    HW121620   5.862   2.747   1.865
 6907SOL    HW221621   5.823   2.892   1.802
 6908SOL     OW21622   1.186   5.441   0.214
 6908SOL    HW121623   1.249   5.380   0.261
 6908SOL    HW221624   1.185   5.421   0.117
 6909SOL     OW21625   4.998   4.237   1.516
 6909SOL    HW121626   4.996   4.153   1.570
 6909SOL    HW221627   4.917   4.291   1.536
 6910SOL     OW21628   0.941   2.784   3.484
 6910SOL    HW121629   0.963   2.877   3.454
 6910SOL    HW221630   0.951   2.721   3.406
 6911SOL     OW21631   4.358   6.641   4.378
 6911SOL    HW121632   4.427   6.683   4.436
 6911SOL    HW221633   4.391   6.638   4.283
 6912SOL     OW21634   3.487   3.597   6.298
 6912SOL    HW121635   3.451   3.506   6.320
 6912SOL    HW221636   3.499   3.605   6.199
 6913SOL     OW21637   5.432   5.961   3.534
 6913SOL    HW121638   5.472   5.952   3.443
 6913SOL    HW221639   5.377   5.880   3.554
 6914SOL     OW21640   6.022   4.134   3.676
 6914SOL    HW121641   6.092   4.204   3.671
 6914SOL    HW221642   6.054   4.051   3.631
 6915SOL     OW21643   6.074   3.021   1.928
 6915SOL    HW121644   6.001   2.994   1.864
 6915SOL    HW221645   6.053   3.111   1.965
 6916SOL     OW21646   5.580   1.822   6.702
 6916SOL    HW121647   5.500   1.882   6.694
 6916SOL    HW221648   5.582   1.759   6.624
 6917SOL     OW21649   3.245   0.056   1.914
 6917SOL    HW121650   3.268   6.980   1.883
 6917SOL    HW221651   3.326   0.114   1.914
 6918SOL     OW21652   0.518   2.822   4.538
 6918SOL    HW121653   0.482   2.733   4.568
 6918SOL    HW221654   0.442   2.885   4.523
 6919SOL     OW21655   5.887   5.745   3.670
 6919SOL    HW121656   5.790   5.725   3.657
 6919SOL    HW221657   5.922   5.690   3.746
 6920SOL     OW21658   4.160   6.125   5.875
 6920SOL    HW121659   4.079   6.183   5.885
 6920SOL    HW221660   4.231   6.174   5.825
 6921SOL     OW21661   5.020   5.687   4.122
 6921SOL    HW121662   4.925   5.675   4.149
 6921SOL    HW221663   5.024   5.739   4.036
 6922SOL     OW21664   1.620   6.278   4.850
 6922SOL    HW121665   1.714   6.305   4.828
 6922SOL    HW221666   1.574   6.352   4.898
 6923SOL     OW21667   4.991   5.263   3.025
 6923SOL    HW121668   5.010   5.186   3.086
 6923SOL    HW221669   4.927   5.326   3.069
 6924SOL     OW21670   1.775   4.214   6.314
 6924SOL    HW121671   1.687   4.180   6.348
 6924SOL    HW221672   1.840   4.138   6.312
 6925SOL     OW21673   4.812   6.171   3.650
 6925SOL    HW121674   4.789   6.240   3.719
 6925SOL    HW221675   4.762   6.086   3.669
 6926SOL     OW21676   2.976   2.286   0.700
 6926SOL    HW121677   3.048   2.280   0.769
 6926SOL    HW221678   2.887   2.295   0.745
 6927SOL     OW21679   3.817   2.794   5.738
 6927SOL    HW121680   3.757   2.835   5.669
 6927SOL    HW221681   3.912   2.810   5.713
 6928SOL     OW21682   5.758   5.968   1.127
 6928SOL    HW121683   5.733   5.943   1.033
 6928SOL    HW221684   5.788   5.886   1.176
 6929SOL     OW21685   5.293   5.949   1.577
 6929SOL    HW121686   5.313   6.022   1.511
 6929SOL    HW221687   5.209   5.902   1.550
 6930SOL     OW21688   0.948   0.825   1.766
 6930SOL    HW121689   0.958   0.845   1.669
 6930SOL    HW221690   0.977   0.905   1.820
 6931SOL     OW21691   2.115   0.725   2.486
 6931SOL    HW121692   2.204   0.717   2.441
 6931SOL    HW221693   2.118   0.801   2.551
 6932SOL     OW21694   3.993   6.895   0.139
 6932SOL    HW121695   3.973   6.860   0.230
 6932SOL    HW221696   3.933   6.851   0.072
 6933SOL     OW21697   3.632   5.796   5.442
 6933SOL    HW121698   3.614   5.699   5.450
 6933SOL    HW221699   3.588   5.832   5.359
 6934SOL     OW21700   4.515   3.869   6.310
 6934SOL    HW121701   4.452   3.917   6.372
 6934SOL    HW221702   4.516   3.771   6.333
 6935SOL     OW21703   4.734   5.733   2.384
 6935SOL    HW121704   4.645   5.714   2.426
 6935SOL    HW221705   4.766   5.823   2.413
 6936SOL     OW21706   6.279   1.975   3.256
 6936SOL    HW121707   6.359   1.977   3.316
 6936SOL    HW221708   6.223   2.056   3.272
 6937SOL     OW21709   6.331   6.351   0.071
 6937SOL    HW121710   6.413   6.321   0.023
 6937SOL    HW221711   6.347   6.441   0.112
 6938SOL     OW21712   6.117   2.533   5.242
 6938SOL    HW121713   6.149   2.526   5.337
 6938SOL    HW221714   6.087   2.443   5.210
 6939SOL     OW21715   0.736   4.962   2.198
 6939SOL    HW121716   0.742   4.955   2.297
 6939SOL    HW221717   0.664   5.026   2.174
 6940SOL     OW21718   3.565   0.372   6.167
 6940SOL    HW121719   3.486   0.319   6.200
 6940SOL    HW221720   3.639   0.367   6.235
 6941SOL     OW21721   2.957   4.148   1.708
 6941SOL    HW121722   2.984   4.242   1.730
 6941SOL    HW221723   3.008   4.085   1.767
 6942SOL     OW21724   6.366   6.860   1.661
 6942SOL    HW121725   6.408   6.860   1.570
 6942SOL    HW221726   6.274   6.897   1.655
 6943SOL     OW21727   3.204   5.720   0.321
 6943SOL    HW121728   3.207   5.678   0.230
 6943SOL    HW221729   3.284   5.779   0.333
 6944SOL     OW21730   0.662   4.459   6.484
 6944SOL    HW121731   0.654   4.359   6.487
 6944SOL    HW221732   0.751   4.484   6.444
 6945SOL     OW21733   5.976   1.372   0.004
 6945SOL    HW121734   5.945   1.334   0.092
 6945SOL    HW221735   5.928   1.325   6.945
 6946SOL     OW21736   4.039   6.817   1.048
 6946SOL    HW121737   4.020   6.766   1.132
 6946SOL    HW221738   4.004   6.766   0.970
 6947SOL     OW21739   3.660   5.846   6.422
 6947SOL    HW121740   3.594   5.906   6.377
 6947SOL    HW221741   3.708   5.897   6.493
 6948SOL     OW21742   0.849   0.095   0.263
 6948SOL    HW121743   0.874   0.137   0.176
 6948SOL    HW221744   0.764   0.135   0.297
 6949SOL     OW21745   3.846   0.373   3.297
 6949SOL    HW121746   3.796   0.373   3.384
 6949SOL    HW221747   3.928   0.429   3.306
 6950SOL     OW21748   1.432   2.006   4.650
 6950SOL    HW121749   1.401   1.913   4.629
 6950SOL    HW221750   1.466   2.049   4.566
 6951SOL     OW21751   6.033   5.320   5.414
 6951SOL    HW121752   6.003   5.344   5.322
 6951SOL    HW221753   6.133   5.311   5.416
 6952SOL     OW21754   0.629   6.255   3.084
 6952SOL    HW121755   0.670   6.287   3.170
 6952SOL    HW221756   0.647   6.322   3.012
 6953SOL     OW21757   3.966   6.624   1.479
 6953SOL    HW121758   3.899   6.678   1.529
 6953SOL    HW221759   3.951   6.634   1.381
 6954SOL     OW21760   6.784   3.897   2.499
 6954SOL    HW121761   6.850   3.965   2.531
 6954SOL    HW221762   6.774   3.905   2.400
 6955SOL     OW21763   5.798   0.110   2.064
 6955SOL    HW121764   5.847   0.024   2.072
 6955SOL    HW221765   5.714   0.096   2.010
 6956SOL     OW21766   5.814   5.996   3.534
 6956SOL    HW121767   5.820   5.920   3.598
 6956SOL    HW221768   5.772   5.965   3.449
 6957SOL     OW21769   6.292   5.591   0.789
 6957SOL    HW121770   6.234   5.670   0.811
 6957SOL    HW221771   6.238   5.507   0.798
 6958SOL     OW21772   4.166   3.349   4.550
 6958SOL    HW121773   4.264   3.364   4.555
 6958SOL    HW221774   4.122   3.430   4.509
 6959SOL     OW21775   2.016   3.444   3.600
 6959SOL    HW121776   1.948   3.371   3.607
 6959SOL    HW221777   2.077   3.425   3.523
 6960SOL     OW21778   1.577   4.600   1.180
 6960SOL    HW121779   1.509   4.530   1.202
 6960SOL    HW221780   1.617   4.635   1.265
 6961SOL     OW21781   5.546   1.038   4.050
 6961SOL    HW121782   5.471   1.030   3.984
 6961SOL    HW221783   5.619   0.973   4.026
 6962SOL     OW21784   5.105   6.142   1.901
 6962SOL    HW121785   5.108   6.113   1.996
 6962SOL    HW221786   5.026   6.203   1.887
 6963SOL     OW21787   5.153   5.940   1.102
 6963SOL    HW121788   5.116   6.021   1.146
 6963SOL    HW221789   5.244   5.960   1.066
 6964SOL     OW21790   3.549   1.198   5.427
 6964SOL    HW121791   3.637   1.245   5.435
 6964SOL    HW221792   3.515   1.175   5.519
 6965SOL     OW21793   1.550   1.166   0.228
 6965SOL    HW121794   1.482   1.111   0.276
 6965SOL    HW221795   1.550   1.259   0.264
 6966SOL     OW21796   1.172   2.298   2.807
 6966SOL    HW121797   1.261   2.343   2.811
 6966SOL    HW221798   1.167   2.227   2.878
 6967SOL     OW21799   2.872   0.960   5.587
 6967SOL    HW121800   2.933   1.039   5.578
 6967SOL    HW221801   2.813   0.972   5.667
 6968SOL     OW21802   3.687   0.421   3.058
 6968SOL    HW121803   3.734   0.428   3.146
 6968SOL    HW221804   3.749   0.383   2.989
 6969SOL     OW21805   2.993   2.286   1.647
 6969SOL    HW121806   2.993   2.356   1.719
 6969SOL    HW221807   3.045   2.207   1.678
 6970SOL     OW21808   4.394   4.342   5.476
 6970SOL    HW121809   4.457   4.307   5.544
 6970SOL    HW221810   4.300   4.336   5.511
 6971SOL     OW21811   6.582   4.593   0.926
 6971SOL    HW121812   6.615   4.516   0.870
 6971SOL    HW221813   6.558   4.560   1.017
 6972SOL     OW21814   5.465   4.525   2.846
 6972SOL    HW121815   5.388   4.561   2.898
 6972SOL    HW221816   5.551   4.560   2.884
 6973SOL     OW21817   1.162   3.057   3.675
 6973SOL    HW121818   1.097   3.075   3.602
 6973SOL    HW221819   1.131   3.100   3.759
 6974SOL     OW21820   2.886   3.773   2.865
 6974SOL    HW121821   2.864   3.818   2.778
 6974SOL    HW221822   2.920   3.681   2.847
 6975SOL     OW21823   1.467   6.391   6.221
 6975SOL    HW121824   1.371   6.413   6.236
 6975SOL    HW221825   1.479   6.292   6.222
 6976SOL     OW21826   5.838   5.116   5.181
 6976SOL    HW121827   5.796   5.207   5.175
 6976SOL    HW221828   5.838   5.086   5.277
 6977SOL     OW21829   3.851   2.886   1.449
 6977SOL    HW121830   3.882   2.860   1.541
 6977SOL    HW221831   3.925   2.870   1.383
 6978SOL     OW21832   5.940   1.718   2.459
 6978SOL    HW121833   5.919   1.814   2.476
 6978SOL    HW221834   6.040   1.705   2.460
 6979SOL     OW21835   1.037   4.052   2.044
 6979SOL    HW121836   1.014   4.148   2.060
 6979SOL    HW221837   1.101   4.045   1.968
 6980SOL     OW21838   2.101   1.665   4.043
 6980SOL    HW121839   2.040   1.613   3.983
 6980SOL    HW221840   2.157   1.726   3.988
 6981SOL     OW21841   3.810   3.175   5.938
 6981SOL    HW121842   3.896   3.141   5.976
 6981SOL    HW221843   3.737   3.163   6.006
 6982SOL     OW21844   1.250   0.950   4.881
 6982SOL    HW121845   1.238   1.002   4.797
 6982SOL    HW221846   1.273   1.013   4.956
 6983SOL     OW21847   4.141   1.873   3.595
 6983SOL    HW121848   4.059   1.904   3.643
 6983SOL    HW221849   4.221   1.923   3.629
 6984SOL     OW21850   1.529   1.536   3.353
 6984SOL    HW121851   1.463   1.578   3.416
 6984SOL    HW221852   1.487   1.456   3.310
 6985SOL     OW21853   5.876   5.061   1.065
 6985SOL    HW121854   5.973   5.040   1.056
 6985SOL    HW221855   5.823   5.008   1.000
 6986SOL     OW21856   2.309   0.021   6.366
 6986SOL    HW121857   2.331   6.942   6.344
 6986SOL    HW221858   2.329   0.079   6.287
 6987SOL     OW21859   5.857   1.418   6.346
 6987SOL    HW121860   5.837   1.361   6.266
 6987SOL    HW221861   5.929   1.483   6.323
 6988SOL     OW21862   1.187   6.753   6.460
 6988SOL    HW121863   1.260   6.713   6.516
 6988SOL    HW221864   1.226   6.788   6.375
 6989SOL     OW21865   1.035   4.222   3.499
 6989SOL    HW121866   1.031   4.317   3.467
 6989SOL    HW221867   0.971   4.210   3.574
 6990SOL     OW21868   4.918   2.931   1.400
 6990SOL    HW121869   4.971   2.908   1.482
 6990SOL    HW221870   4.826   2.894   1.408
 6991SOL     OW21871   4.530   4.450   3.463
 6991SOL    HW121872   4.604   4.496   3.413
 6991SOL    HW221873   4.540   4.351   3.455
 6992SOL     OW21874   5.592   6.834   6.353
 6992SOL    HW121875   5.613   6.803   6.446
 6992SOL    HW221876   5.493   6.842   6.342
 6993SOL     OW21877   6.241   0.480   2.952
 6993SOL    HW121878   6.335   0.496   2.921
 6993SOL    HW221879   6.224   0.381   2.955
 6994SOL     OW21880   0.405   2.401   4.270
 6994SOL    HW121881   0.483   2.453   4.236
 6994SOL    HW221882   0.382   2.431   4.362
 6995SOL     OW21883   0.205   4.592   6.419
 6995SOL    HW121884   0.162   4.634   6.499
 6995SOL    HW221885   0.157   4.622   6.336
 6996SOL     OW21886   1.619   0.209   6.800
 6996SOL    HW121887   1.599   0.269   6.722
 6996SOL    HW221888   1.621   0.264   6.884
 6997SOL     OW21889   0.372   5.841   5.553
 6997SOL    HW121890   0.327   5.926   5.524
 6997SOL    HW221891   0.303   5.769   5.562
 6998SOL     OW21892   2.006   0.355   1.492
 6998SOL    HW121893   2.006   0.332   1.394
 6998SOL    HW221894   1.989   0.453   1.502
 6999SOL     OW21895   2.343   2.219   6.670
 6999SOL    HW121896   2.355   2.120   6.659
 6999SOL    HW221897   2.365   2.265   6.584
 7000SOL     OW21898   5.227   6.626   1.720
 7000SOL    HW121899   5.193   6.646   1.628
 7000SOL    HW221900   5.269   6.709   1.758
 7001SOL     OW21901   2.263   3.332   6.168
 7001SOL    HW121902   2.229   3.241   6.147
 7001SOL    HW221903   2.188   3.398   6.160
 7002SOL     OW21904   1.424   5.300   3.684
 7002SOL    HW121905   1.328   5.275   3.700
 7002SOL    HW221906   1.442   5.304   3.586
 7003SOL     OW21907   4.097   5.741   0.935
 7003SOL    HW121908   4.083   5.832   0.974
 7003SOL    HW221909   4.009   5.701   0.910
 7004SOL     OW21910   0.839   5.521   1.954
 7004SOL    HW121911   0.794   5.603   1.918
 7004SOL    HW221912   0.913   5.547   2.015
 7005SOL     OW21913   0.750   6.897   0.443
 7005SOL    HW121914   0.828   6.880   0.503
 7005SOL    HW221915   0.767   6.978   0.387
 7006SOL     OW21916   4.699   4.933   3.840
 7006SOL    HW121917   4.678   4.983   3.756
 7006SOL    HW221918   4.637   4.961   3.913
 7007SOL     OW21919   4.556   0.652   4.579
 7007SOL    HW121920   4.535   0.571   4.524
 7007SOL    HW221921   4.588   0.726   4.520
 7008SOL     OW21922   0.396   4.419   4.187
 7008SOL    HW121923   0.333   4.396   4.113
 7008SOL    HW221924   0.468   4.480   4.153
 7009SOL     OW21925   4.848   6.422   2.831
 7009SOL    HW121926   4.847   6.322   2.831
 7009SOL    HW221927   4.824   6.456   2.922
 7010SOL     OW21928   5.503   4.134   3.923
 7010SOL    HW121929   5.500   4.147   4.022
 7010SOL    HW221930   5.580   4.074   3.900
 7011SOL     OW21931   3.339   6.249   6.682
 7011SOL    HW121932   3.265   6.187   6.710
 7011SOL    HW221933   3.398   6.268   6.760
 7012SOL     OW21934   0.724   1.577   1.206
 7012SOL    HW121935   0.666   1.658   1.219
 7012SOL    HW221936   0.717   1.519   1.287
 7013SOL     OW21937   1.012   6.923   0.057
 7013SOL    HW121938   0.955   6.975   7.010
 7013SOL    HW221939   1.016   6.969   0.146
 7014SOL     OW21940   4.409   3.333   0.764
 7014SOL    HW121941   4.428   3.244   0.722
 7014SOL    HW221942   4.389   3.400   0.692
 7015SOL     OW21943   6.245   4.355   1.232
 7015SOL    HW121944   6.271   4.261   1.252
 7015SOL    HW221945   6.271   4.414   1.309
 7016SOL     OW21946   3.421   5.159   1.381
 7016SOL    HW121947   3.349   5.142   1.448
 7016SOL    HW221948   3.507   5.122   1.415
 7017SOL     OW21949   2.540   4.994   3.351
 7017SOL    HW121950   2.576   5.068   3.295
 7017SOL    HW221951   2.441   4.989   3.341
 7018SOL     OW21952   5.471   3.448   4.373
 7018SOL    HW121953   5.509   3.373   4.427
 7018SOL    HW221954   5.531   3.528   4.379
 7019SOL     OW21955   3.697   4.276   0.308
 7019SOL    HW121956   3.772   4.297   0.245
 7019SOL    HW221957   3.722   4.198   0.364
 7020SOL     OW21958   6.549   4.208   5.633
 7020SOL    HW121959   6.597   4.292   5.655
 7020SOL    HW221960   6.520   4.163   5.717
 7021SOL     OW21961   1.917   2.297   5.203
 7021SOL    HW121962   1.854   2.325   5.276
 7021SOL    HW221963   1.871   2.231   5.143
 7022SOL     OW21964   4.677   6.389   6.440
 7022SOL    HW121965   4.705   6.423   6.350
 7022SOL    HW221966   4.758   6.364   6.493
 7023SOL     OW21967   1.210   2.404   3.403
 7023SOL    HW121968   1.272   2.482   3.406
 7023SOL    HW221969   1.167   2.393   3.493
 7024SOL     OW21970   3.124   3.621   5.363
 7024SOL    HW121971   3.157   3.712   5.339
 7024SOL    HW221972   3.196   3.571   5.413
 7025SOL     OW21973   3.371   0.680   0.524
 7025SOL    HW121974   3.395   0.586   0.548
 7025SOL    HW221975   3.426   0.743   0.578
 7026SOL     OW21976   3.266   1.975   1.981
 7026SOL    HW121977   3.359   2.003   1.960
 7026SOL    HW221978   3.260   1.948   2.077
 7027SOL     OW21979   2.116   5.239   3.945
 7027SOL    HW121980   2.083   5.165   4.003
 7027SOL    HW221981   2.214   5.252   3.959
 7028SOL     OW21982   2.774   1.533   3.160
 7028SOL    HW121983   2.832   1.538   3.079
 7028SOL    HW221984   2.823   1.485   3.233
 7029SOL     OW21985   4.557   4.640   5.344
 7029SOL    HW121986   4.592   4.731   5.324
 7029SOL    HW221987   4.629   4.584   5.385
 7030SOL     OW21988   1.021   0.751   5.171
 7030SOL    HW121989   0.971   0.696   5.238
 7030SOL    HW221990   1.020   0.706   5.083
 7031SOL     OW21991   3.793   5.859   6.069
 7031SOL    HW121992   3.820   5.787   6.133
 7031SOL    HW221993   3.705   5.896   6.097
 7032SOL     OW21994   4.617   1.662   3.803
 7032SOL    HW121995   4.704   1.613   3.800
 7032SOL    HW221996   4.597   1.702   3.714
 7033SOL     OW21997   1.826   2.420   3.558
 7033SOL    HW121998   1.921   2.396   3.577
 7033SOL    HW221999   1.819   2.454   3.464
 7034SOL     OW22000   0.251   0.896   3.112
 7034SOL    HW122001   0.199   0.927   3.033
 7034SOL    HW222002   0.221   0.946   3.194
 7035SOL     OW22003   1.441   6.746   0.561
 7035SOL    HW122004   1.488   6.812   0.503
 7035SOL    HW222005   1.504   6.672   0.585
 7036SOL     OW22006   0.177   0.837   2.804
 7036SOL    HW122007   0.270   0.853   2.769
 7036SOL    HW222008   0.180   0.762   2.871
 7037SOL     OW22009   1.543   1.745   6.933
 7037SOL    HW122010   1.531   1.845   6.933
 7037SOL    HW222011   1.457   1.702   6.908
 7038SOL     OW22012   2.125   3.840   5.160
 7038SOL    HW122013   2.183   3.761   5.181
 7038SOL    HW222014   2.181   3.914   5.123
 7039SOL     OW22015   1.170   5.632   3.014
 7039SOL    HW122016   1.173   5.728   2.984
 7039SOL    HW222017   1.255   5.609   3.061
 7040SOL     OW22018   5.124   2.324   5.620
 7040SOL    HW122019   5.027   2.312   5.600
 7040SOL    HW222020   5.145   2.422   5.629
 7041SOL     OW22021   6.695   1.203   1.959
 7041SOL    HW122022   6.703   1.146   2.041
 7041SOL    HW222023   6.602   1.237   1.951
 7042SOL     OW22024   4.248   5.594   5.403
 7042SOL    HW122025   4.210   5.682   5.375
 7042SOL    HW222026   4.247   5.587   5.503
 7043SOL     OW22027   2.271   5.005   3.017
 7043SOL    HW122028   2.177   4.979   2.997
 7043SOL    HW222029   2.291   4.991   3.114
 7044SOL     OW22030   5.896   5.025   4.767
 7044SOL    HW122031   5.849   5.097   4.818
 7044SOL    HW222032   5.833   4.983   4.702
 7045SOL     OW22033   4.884   5.185   2.767
 7045SOL    HW122034   4.927   5.213   2.853
 7045SOL    HW222035   4.945   5.203   2.691
 7046SOL     OW22036   2.988   1.657   3.493
 7046SOL    HW122037   2.891   1.637   3.506
 7046SOL    HW222038   3.041   1.572   3.501
 7047SOL     OW22039   6.674   0.917   2.608
 7047SOL    HW122040   6.711   1.007   2.631
 7047SOL    HW222041   6.747   0.858   2.575
 7048SOL     OW22042   5.905   6.656   3.966
 7048SOL    HW122043   5.878   6.608   4.049
 7048SOL    HW222044   5.983   6.610   3.924
 7049SOL     OW22045   3.833   1.825   0.944
 7049SOL    HW122046   3.924   1.842   0.983
 7049SOL    HW222047   3.774   1.786   1.014
 7050SOL     OW22048   4.111   3.727   1.488
 7050SOL    HW122049   4.063   3.806   1.526
 7050SOL    HW222050   4.071   3.702   1.400
 7051SOL     OW22051   6.672   0.120   1.340
 7051SOL    HW122052   6.599   0.074   1.391
 7051SOL    HW222053   6.632   0.196   1.288
 7052SOL     OW22054   6.143   1.655   3.264
 7052SOL    HW122055   6.057   1.706   3.267
 7052SOL    HW222056   6.147   1.602   3.179
 7053SOL     OW22057   1.864   3.196   4.942
 7053SOL    HW122058   1.854   3.166   5.036
 7053SOL    HW222059   1.943   3.151   4.900
 7054SOL     OW22060   6.837   6.982   0.568
 7054SOL    HW122061   6.884   6.908   0.519
 7054SOL    HW222062   6.834   0.047   0.509
 7055SOL     OW22063   2.646   0.262   6.686
 7055SOL    HW122064   2.634   0.193   6.614
 7055SOL    HW222065   2.562   0.270   6.739
 7056SOL     OW22066   6.645   5.129   1.458
 7056SOL    HW122067   6.551   5.151   1.429
 7056SOL    HW222068   6.645   5.104   1.554
 7057SOL     OW22069   2.805   4.861   3.744
 7057SOL    HW122070   2.758   4.926   3.684
 7057SOL    HW222071   2.755   4.774   3.745
 7058SOL     OW22072   5.708   2.939   5.825
 7058SOL    HW122073   5.725   2.886   5.909
 7058SOL    HW222074   5.701   2.876   5.748
 7059SOL     OW22075   0.668   1.776   4.164
 7059SOL    HW122076   0.725   1.764   4.245
 7059SOL    HW222077   0.694   1.860   4.117
 7060SOL     OW22078   3.202   0.304   2.173
 7060SOL    HW122079   3.193   0.367   2.096
 7060SOL    HW222080   3.114   0.261   2.193
 7061SOL     OW22081   0.321   3.120   3.672
 7061SOL    HW122082   0.334   3.048   3.740
 7061SOL    HW222083   0.242   3.098   3.615
 7062SOL     OW22084   3.320   2.200   5.299
 7062SOL    HW122085   3.396   2.264   5.288
 7062SOL    HW222086   3.236   2.241   5.265
 7063SOL     OW22087   1.651   6.541   1.872
 7063SOL    HW122088   1.561   6.558   1.913
 7063SOL    HW222089   1.716   6.516   1.943
 7064SOL     OW22090   4.056   1.811   0.096
 7064SOL    HW122091   4.052   1.712   0.111
 7064SOL    HW222092   3.963   1.848   0.091
 7065SOL     OW22093   4.109   3.568   5.942
 7065SOL    HW122094   4.142   3.483   5.903
 7065SOL    HW222095   4.070   3.551   6.032
 7066SOL     OW22096   3.667   6.967   6.331
 7066SOL    HW122097   3.713   0.038   6.313
 7066SOL    HW222098   3.732   6.903   6.372
 7067SOL     OW22099   1.472   3.386   5.327
 7067SOL    HW122100   1.536   3.321   5.285
 7067SOL    HW222101   1.523   3.449   5.386
 7068SOL     OW22102   6.278   4.374   4.710
 7068SOL    HW122103   6.369   4.409   4.730
 7068SOL    HW222104   6.280   4.326   4.622
 7069SOL     OW22105   5.287   2.289   4.723
 7069SOL    HW122106   5.299   2.366   4.785
 7069SOL    HW222107   5.312   2.318   4.630
 7070SOL     OW22108   0.786   6.882   4.827
 7070SOL    HW122109   0.798   6.820   4.905
 7070SOL    HW222110   0.817   6.837   4.743
 7071SOL     OW22111   3.952   6.293   5.944
 7071SOL    HW122112   3.954   6.232   6.023
 7071SOL    HW222113   3.884   6.365   5.959
 7072SOL     OW22114   1.805   5.707   6.956
 7072SOL    HW122115   1.898   5.707   6.920
 7072SOL    HW222116   1.744   5.750   6.890
 7073SOL     OW22117   5.096   6.891   3.741
 7073SOL    HW122118   5.165   6.963   3.750
 7073SOL    HW222119   5.025   6.904   3.810
 7074SOL     OW22120   6.414   2.928   1.742
 7074SOL    HW122121   6.349   2.999   1.717
 7074SOL    HW222122   6.474   2.961   1.815
 7075SOL     OW22123   1.829   4.078   4.874
 7075SOL    HW122124   1.908   4.053   4.819
 7075SOL    HW222125   1.763   4.128   4.817
 7076SOL     OW22126   5.508   2.997   0.289
 7076SOL    HW122127   5.487   2.978   0.384
 7076SOL    HW222128   5.431   2.970   0.231
 7077SOL     OW22129   2.018   4.101   3.955
 7077SOL    HW122130   1.947   4.164   3.923
 7077SOL    HW222131   2.027   4.109   4.054
 7078SOL     OW22132   6.812   6.071   1.907
 7078SOL    HW122133   6.766   5.995   1.861
 7078SOL    HW222134   6.798   6.155   1.853
 7079SOL     OW22135   0.831   0.355   4.128
 7079SOL    HW122136   0.838   0.266   4.083
 7079SOL    HW222137   0.883   0.354   4.213
 7080SOL     OW22138   3.183   1.466   4.374
 7080SOL    HW122139   3.270   1.419   4.367
 7080SOL    HW222140   3.136   1.463   4.285
 7081SOL     OW22141   1.907   6.036   0.162
 7081SOL    HW122142   1.955   5.993   0.238
 7081SOL    HW222143   1.945   6.003   0.075
 7082SOL     OW22144   6.606   4.678   0.052
 7082SOL    HW122145   6.700   4.704   0.029
 7082SOL    HW222146   6.559   4.647   6.985
 7083SOL     OW22147   1.561   1.298   2.085
 7083SOL    HW122148   1.467   1.276   2.111
 7083SOL    HW222149   1.623   1.272   2.160
 7084SOL     OW22150   0.868   5.396   5.544
 7084SOL    HW122151   0.774   5.369   5.521
 7084SOL    HW222152   0.881   5.493   5.525
 7085SOL     OW22153   0.696   1.693   2.053
 7085SOL    HW122154   0.632   1.638   2.000
 7085SOL    HW222155   0.769   1.727   1.994
 7086SOL     OW22156   6.046   1.172   5.648
 7086SOL    HW122157   6.099   1.254   5.669
 7086SOL    HW222158   6.040   1.114   5.729
 7087SOL     OW22159   6.093   4.333   3.007
 7087SOL    HW122160   6.064   4.391   2.930
 7087SOL    HW222161   6.134   4.390   3.077
 7088SOL     OW22162   4.915   2.542   4.337
 7088SOL    HW122163   4.822   2.509   4.352
 7088SOL    HW222164   4.977   2.495   4.400
 7089SOL     OW22165   2.339   2.773   4.533
 7089SOL    HW122166   2.392   2.778   4.448
 7089SOL    HW222167   2.373   2.841   4.597
 7090SOL     OW22168   2.180   1.098   0.257
 7090SOL    HW122169   2.213   1.103   0.163
 7090SOL    HW222170   2.196   1.185   0.303
 7091SOL     OW22171   0.591   1.489   0.823
 7091SOL    HW122172   0.511   1.547   0.812
 7091SOL    HW222173   0.614   1.447   0.735
 7092SOL     OW22174   4.361   3.150   5.632
 7092SOL    HW122175   4.291   3.199   5.581
 7092SOL    HW222176   4.447   3.201   5.630
 7093SOL     OW22177   3.570   4.100   2.244
 7093SOL    HW122178   3.658   4.079   2.286
 7093SOL    HW222179   3.506   4.132   2.314
 7094SOL     OW22180   0.380   6.271   5.847
 7094SOL    HW122181   0.428   6.359   5.855
 7094SOL    HW222182   0.420   6.218   5.773
 7095SOL     OW22183   2.774   4.253   6.035
 7095SOL    HW122184   2.701   4.320   6.050
 7095SOL    HW222185   2.739   4.176   5.982
 7096SOL     OW22186   6.618   0.363   2.130
 7096SOL    HW122187   6.662   0.336   2.216
 7096SOL    HW222188   6.532   0.313   2.121
 7097SOL     OW22189   4.843   0.546   1.615
 7097SOL    HW122190   4.839   0.468   1.678
 7097SOL    HW222191   4.873   0.514   1.525
 7098SOL     OW22192   2.120   5.361   5.394
 7098SOL    HW122193   2.064   5.438   5.363
 7098SOL    HW222194   2.062   5.291   5.435
 7099SOL     OW22195   3.924   1.834   4.984
 7099SOL    HW122196   3.918   1.909   4.918
 7099SOL    HW222197   3.955   1.869   5.073
 7100SOL     OW22198   6.524   3.267   0.110
 7100SOL    HW122199   6.510   3.256   0.209
 7100SOL    HW222200   6.435   3.267   0.064
 7101SOL     OW22201   2.611   1.444   5.411
 7101SOL    HW122202   2.576   1.420   5.320
 7101SOL    HW222203   2.710   1.457   5.406
 7102SOL     OW22204   5.558   0.226   0.847
 7102SOL    HW122205   5.460   0.205   0.846
 7102SOL    HW222206   5.589   0.237   0.941
 7103SOL     OW22207   5.693   5.626   2.228
 7103SOL    HW122208   5.644   5.597   2.145
 7103SOL    HW222209   5.710   5.724   2.224
 7104SOL     OW22210   6.403   3.982   2.918
 7104SOL    HW122211   6.499   3.994   2.940
 7104SOL    HW222212   6.394   3.925   2.836
 7105SOL     OW22213   2.837   3.144   5.194
 7105SOL    HW122214   2.923   3.103   5.166
 7105SOL    HW222215   2.788   3.080   5.255
 7106SOL     OW22216   3.364   3.154   1.923
 7106SOL    HW122217   3.445   3.212   1.912
 7106SOL    HW222218   3.287   3.210   1.951
 7107SOL     OW22219   4.825   0.251   0.690
 7107SOL    HW122220   4.861   0.171   0.738
 7107SOL    HW222221   4.759   0.222   0.621
 7108SOL     OW22222   3.243   5.715   2.316
 7108SOL    HW122223   3.206   5.669   2.397
 7108SOL    HW222224   3.171   5.771   2.274
 7109SOL     OW22225   1.976   0.331   5.713
 7109SOL    HW122226   1.981   0.320   5.813
 7109SOL    HW222227   1.990   0.242   5.669
 7110SOL     OW22228   3.007   5.920   4.468
 7110SOL    HW122229   3.100   5.897   4.496
 7110SOL    HW222230   2.972   5.850   4.405
 7111SOL     OW22231   0.912   2.552   5.049
 7111SOL    HW122232   0.867   2.574   4.962
 7111SOL    HW222233   1.007   2.528   5.032
 7112SOL     OW22234   1.764   4.849   4.486
 7112SOL    HW122235   1.787   4.820   4.579
 7112SOL    HW222236   1.839   4.902   4.447
 7113SOL     OW22237   3.384   3.884   4.948
 7113SOL    HW122238   3.377   3.856   4.852
 7113SOL    HW222239   3.478   3.874   4.978
 7114SOL     OW22240   4.860   5.842   0.747
 7114SOL    HW122241   4.800   5.793   0.810
 7114SOL    HW222242   4.943   5.789   0.733
 7115SOL     OW22243   4.101   3.089   0.275
 7115SOL    HW122244   4.162   3.019   0.312
 7115SOL    HW222245   4.154   3.169   0.248
 7116SOL     OW22246   5.154   4.393   3.228
 7116SOL    HW122247   5.240   4.403   3.279
 7116SOL    HW222248   5.090   4.340   3.283
 7117SOL     OW22249   0.290   6.344   4.958
 7117SOL    HW122250   0.381   6.329   4.920
 7117SOL    HW222251   0.292   6.424   5.019
 7118SOL     OW22252   3.345   4.657   6.325
 7118SOL    HW122253   3.300   4.702   6.402
 7118SOL    HW222254   3.444   4.666   6.334
 7119SOL     OW22255   5.653   0.813   4.280
 7119SOL    HW122256   5.734   0.828   4.224
 7119SOL    HW222257   5.662   0.861   4.367
 7120SOL     OW22258   3.481   2.086   1.867
 7120SOL    HW122259   3.522   2.028   1.796
 7120SOL    HW222260   3.541   2.164   1.886
 7121SOL     OW22261   0.944   6.629   3.811
 7121SOL    HW122262   1.009   6.602   3.882
 7121SOL    HW222263   0.852   6.634   3.850
 7122SOL     OW22264   1.256   0.845   5.725
 7122SOL    HW122265   1.213   0.904   5.793
 7122SOL    HW222266   1.267   0.895   5.639
 7123SOL     OW22267   1.634   5.171   3.811
 7123SOL    HW122268   1.572   5.241   3.776
 7123SOL    HW222269   1.649   5.102   3.740
 7124SOL     OW22270   6.956   2.576   1.556
 7124SOL    HW122271   0.040   2.568   1.553
 7124SOL    HW222272   6.915   2.490   1.527
 7125SOL     OW22273   1.106   0.118   0.598
 7125SOL    HW122274   1.188   0.092   0.547
 7125SOL    HW222275   1.032   0.054   0.579
 7126SOL     OW22276   3.375   4.967   0.643
 7126SOL    HW122277   3.391   5.065   0.634
 7126SOL    HW222278   3.287   4.943   0.601
 7127SOL     OW22279   2.803   5.986   6.807
 7127SOL    HW122280   2.827   5.913   6.742
 7127SOL    HW222281   2.704   5.993   6.814
 7128SOL     OW22282   3.199   3.904   6.615
 7128SOL    HW122283   3.112   3.953   6.615
 7128SOL    HW222284   3.219   3.873   6.708
 7129SOL     OW22285   2.011   0.891   0.783
 7129SOL    HW122286   2.106   0.900   0.753
 7129SOL    HW222287   1.998   0.802   0.827
 7130SOL     OW22288   3.148   6.389   4.495
 7130SOL    HW122289   3.076   6.319   4.492
 7130SOL    HW222290   3.235   6.348   4.467
 7131SOL     OW22291   2.747   1.151   1.366
 7131SOL    HW122292   2.730   1.078   1.299
 7131SOL    HW222293   2.833   1.133   1.414
 7132SOL     OW22294   4.257   4.113   0.195
 7132SOL    HW122295   4.189   4.095   0.124
 7132SOL    HW222296   4.210   4.140   0.279
 7133SOL     OW22297   3.984   4.686   5.338
 7133SOL    HW122298   4.079   4.700   5.312
 7133SOL    HW222299   3.960   4.590   5.330
 7134SOL     OW22300   4.383   0.153   1.658
 7134SOL    HW122301   4.365   0.160   1.560
 7134SOL    HW222302   4.427   0.237   1.690
 7135SOL     OW22303   2.075   2.462   3.275
 7135SOL    HW122304   2.132   2.400   3.329
 7135SOL    HW222305   2.098   2.454   3.178
 7136SOL     OW22306   3.187   1.355   0.527
 7136SOL    HW122307   3.266   1.326   0.473
 7136SOL    HW222308   3.119   1.396   0.466
 7137SOL     OW22309   3.023   1.515   0.358
 7137SOL    HW122310   3.092   1.519   0.286
 7137SOL    HW222311   3.023   1.602   0.409
 7138SOL     OW22312   1.953   1.936   1.160
 7138SOL    HW122313   1.994   1.854   1.198
 7138SOL    HW222314   1.937   2.003   1.233
 7139SOL     OW22315   5.140   5.091   1.762
 7139SOL    HW122316   5.098   5.182   1.769
 7139SOL    HW222317   5.176   5.064   1.852
 7140SOL     OW22318   6.186   3.958   0.817
 7140SOL    HW122319   6.184   3.998   0.726
 7140SOL    HW222320   6.234   4.019   0.880
 7141SOL     OW22321   3.495   6.638   1.227
 7141SOL    HW122322   3.502   6.545   1.263
 7141SOL    HW222323   3.432   6.640   1.150
 7142SOL     OW22324   4.207   6.706   3.693
 7142SOL    HW122325   4.236   6.691   3.598
 7142SOL    HW222326   4.213   6.803   3.714
 7143SOL     OW22327   2.230   3.436   0.213
 7143SOL    HW122328   2.218   3.479   0.124
 7143SOL    HW222329   2.173   3.354   0.219
 7144SOL     OW22330   1.737   1.305   3.267
 7144SOL    HW122331   1.695   1.227   3.314
 7144SOL    HW222332   1.758   1.376   3.334
 7145SOL     OW22333   3.792   0.935   6.574
 7145SOL    HW122334   3.740   1.015   6.547
 7145SOL    HW222335   3.806   0.936   6.673
 7146SOL     OW22336   1.608   0.734   6.387
 7146SOL    HW122337   1.606   0.826   6.347
 7146SOL    HW222338   1.658   0.672   6.326
 7147SOL     OW22339   0.061   6.000   2.896
 7147SOL    HW122340   7.012   5.969   2.965
 7147SOL    HW222341   0.015   6.061   2.832
 7148SOL     OW22342   6.447   5.960   1.444
 7148SOL    HW122343   6.371   5.987   1.503
 7148SOL    HW222344   6.427   5.984   1.349
 7149SOL     OW22345   0.344   5.436   3.780
 7149SOL    HW122346   0.386   5.501   3.716
 7149SOL    HW222347   0.304   5.486   3.857
 7150SOL     OW22348   3.378   3.096   0.529
 7150SOL    HW122349   3.291   3.103   0.481
 7150SOL    HW222350   3.373   3.024   0.598
 7151SOL     OW22351   3.091   6.870   1.227
 7151SOL    HW122352   3.018   6.928   1.192
 7151SOL    HW222353   3.129   6.814   1.153
 7152SOL     OW22354   6.906   0.297   6.053
 7152SOL    HW122355   6.889   0.331   5.961
 7152SOL    HW222356   6.823   0.257   6.091
 7153SOL     OW22357   3.866   5.241   1.718
 7153SOL    HW122358   3.951   5.241   1.665
 7153SOL    HW222359   3.874   5.175   1.792
 7154SOL     OW22360   4.925   6.155   2.847
 7154SOL    HW122361   4.923   6.058   2.871
 7154SOL    HW222362   5.020   6.184   2.834
 7155SOL     OW22363   3.020   3.657   1.554
 7155SOL    HW122364   2.989   3.676   1.647
 7155SOL    HW222365   2.966   3.582   1.515
 7156SOL     OW22366   6.071   3.803   2.652
 7156SOL    HW122367   6.010   3.840   2.722
 7156SOL    HW222368   6.044   3.709   2.630
 7157SOL     OW22369   6.842   5.058   2.086
 7157SOL    HW122370   6.917   5.005   2.126
 7157SOL    HW222371   6.823   5.024   1.994
 7158SOL     OW22372   1.076   0.275   3.751
 7158SOL    HW122373   0.986   0.316   3.768
 7158SOL    HW222374   1.075   0.228   3.663
 7159SOL     OW22375   1.567   4.864   3.988
 7159SOL    HW122376   1.626   4.926   3.935
 7159SOL    HW222377   1.472   4.894   3.979
 7160SOL     OW22378   6.294   0.076   3.172
 7160SOL    HW122379   6.249   0.004   3.225
 7160SOL    HW222380   6.381   0.100   3.217
 7161SOL     OW22381   3.252   3.811   3.056
 7161SOL    HW122382   3.313   3.733   3.068
 7161SOL    HW222383   3.242   3.831   2.958
 7162SOL     OW22384   1.499   5.110   5.958
 7162SOL    HW122385   1.523   5.034   5.898
 7162SOL    HW222386   1.425   5.164   5.917
 7163SOL     OW22387   2.674   0.643   2.270
 7163SOL    HW122388   2.760   0.605   2.305
 7163SOL    HW222389   2.674   0.742   2.285
 7164SOL     OW22390   2.793   0.793   5.057
 7164SOL    HW122391   2.798   0.780   5.156
 7164SOL    HW222392   2.705   0.759   5.024
 7165SOL     OW22393   5.630   6.425   1.547
 7165SOL    HW122394   5.587   6.508   1.513
 7165SOL    HW222395   5.621   6.352   1.479
 7166SOL     OW22396   5.489   1.581   0.291
 7166SOL    HW122397   5.494   1.677   0.263
 7166SOL    HW222398   5.415   1.570   0.358
 7167SOL     OW22399   4.836   3.129   4.848
 7167SOL    HW122400   4.747   3.083   4.844
 7167SOL    HW222401   4.880   3.109   4.936
 7168SOL     OW22402   2.786   2.054   3.042
 7168SOL    HW122403   2.874   2.087   3.006
 7168SOL    HW222404   2.802   1.982   3.109
 7169SOL     OW22405   6.785   4.257   5.306
 7169SOL    HW122406   6.756   4.348   5.336
 7169SOL    HW222407   6.718   4.189   5.335
 7170SOL     OW22408   4.734   0.315   2.547
 7170SOL    HW122409   4.709   0.375   2.624
 7170SOL    HW222410   4.677   0.233   2.550
 7171SOL     OW22411   5.770   4.239   0.644
 7171SOL    HW122412   5.845   4.269   0.703
 7171SOL    HW222413   5.805   4.223   0.552
 7172SOL     OW22414   1.570   0.426   4.832
 7172SOL    HW122415   1.479   0.433   4.872
 7172SOL    HW222416   1.639   0.460   4.896
 7173SOL     OW22417   6.413   4.608   6.878
 7173SOL    HW122418   6.316   4.596   6.858
 7173SOL    HW222419   6.467   4.580   6.798
 7174SOL     OW22420   6.941   4.314   0.484
 7174SOL    HW122421   0.021   4.335   0.502
 7174SOL    HW222422   6.890   4.399   0.472
 7175SOL     OW22423   6.275   2.799   5.578
 7175SOL    HW122424   6.326   2.839   5.653
 7175SOL    HW222425   6.274   2.699   5.586
 7176SOL     OW22426   6.847   1.867   3.433
 7176SOL    HW122427   6.848   1.958   3.473
 7176SOL    HW222428   6.933   1.820   3.454
 7177SOL     OW22429   1.438   4.605   5.176
 7177SOL    HW122430   1.443   4.622   5.077
 7177SOL    HW222431   1.353   4.643   5.213
 7178SOL     OW22432   0.034   1.790   5.779
 7178SOL    HW122433   0.033   1.690   5.778
 7178SOL    HW222434   0.116   1.823   5.733
 7179SOL     OW22435   1.255   3.634   4.422
 7179SOL    HW122436   1.259   3.587   4.510
 7179SOL    HW222437   1.343   3.678   4.403
 7180SOL     OW22438   1.947   3.875   0.241
 7180SOL    HW122439   1.866   3.817   0.238
 7180SOL    HW222440   1.930   3.959   0.188
 7181SOL     OW22441   2.245   0.253   0.323
 7181SOL    HW122442   2.177   0.200   0.272
 7181SOL    HW222443   2.307   0.191   0.370
 7182SOL     OW22444   0.303   3.807   3.813
 7182SOL    HW122445   0.250   3.722   3.806
 7182SOL    HW222446   0.383   3.802   3.754
 7183SOL     OW22447   1.747   5.631   1.853
 7183SOL    HW122448   1.790   5.721   1.862
 7183SOL    HW222449   1.746   5.604   1.757
 7184SOL     OW22450   6.985   1.325   3.962
 7184SOL    HW122451   6.944   1.264   3.894
 7184SOL    HW222452   0.042   1.278   4.010
 7185SOL     OW22453   5.660   1.358   5.721
 7185SOL    HW122454   5.696   1.267   5.742
 7185SOL    HW222455   5.652   1.411   5.806
 7186SOL     OW22456   6.364   1.664   1.578
 7186SOL    HW122457   6.324   1.685   1.667
 7186SOL    HW222458   6.339   1.735   1.512
 7187SOL     OW22459   2.991   3.903   5.191
 7187SOL    HW122460   3.006   3.924   5.094
 7187SOL    HW222461   2.937   3.819   5.198
 7188SOL     OW22462   4.557   5.959   0.041
 7188SOL    HW122463   4.640   5.980   7.004
 7188SOL    HW222464   4.509   5.883   7.013
 7189SOL     OW22465   6.971   1.949   5.968
 7189SOL    HW122466   6.903   1.907   6.028
 7189SOL    HW222467   7.011   1.879   5.909
 7190SOL     OW22468   6.285   5.520   1.434
 7190SOL    HW122469   6.220   5.522   1.357
 7190SOL    HW222470   6.366   5.574   1.411
 7191SOL     OW22471   1.751   4.685   2.751
 7191SOL    HW122472   1.684   4.622   2.712
 7191SOL    HW222473   1.726   4.779   2.727
 7192SOL     OW22474   1.772   4.171   5.774
 7192SOL    HW122475   1.854   4.228   5.766
 7192SOL    HW222476   1.786   4.102   5.846
 7193SOL     OW22477   1.848   2.330   2.119
 7193SOL    HW122478   1.924   2.387   2.152
 7193SOL    HW222479   1.823   2.264   2.190
 7194SOL     OW22480   1.835   3.000   6.766
 7194SOL    HW122481   1.881   2.951   6.841
 7194SOL    HW222482   1.779   2.936   6.714
 7195SOL     OW22483   6.777   4.006   0.649
 7195SOL    HW122484   6.739   4.021   0.740
 7195SOL    HW222485   6.832   3.923   0.649
 7196SOL     OW22486   2.361   3.564   1.609
 7196SOL    HW122487   2.382   3.658   1.634
 7196SOL    HW222488   2.348   3.509   1.692
 7197SOL     OW22489   1.093   3.525   6.034
 7197SOL    HW122490   1.008   3.476   6.015
 7197SOL    HW222491   1.099   3.605   5.973
 7198SOL     OW22492   0.243   1.095   0.420
 7198SOL    HW122493   0.232   1.194   0.416
 7198SOL    HW222494   0.322   1.068   0.364
 7199SOL     OW22495   0.294   0.151   2.369
 7199SOL    HW122496   0.267   0.065   2.412
 7199SOL    HW222497   0.290   0.225   2.437
 7200SOL     OW22498   2.224   2.763   6.711
 7200SOL    HW122499   2.172   2.774   6.796
 7200SOL    HW222500   2.305   2.821   6.713
 7201SOL     OW22501   0.774   5.997   3.800
 7201SOL    HW122502   0.799   6.086   3.762
 7201SOL    HW222503   0.696   6.008   3.862
 7202SOL     OW22504   4.363   0.104   6.960
 7202SOL    HW122505   4.398   0.193   6.989
 7202SOL    HW222506   4.382   0.091   6.862
 7203SOL     OW22507   6.754   1.259   1.137
 7203SOL    HW122508   6.677   1.299   1.087
 7203SOL    HW222509   6.725   1.174   1.180
 7204SOL     OW22510   0.216   1.051   5.675
 7204SOL    HW122511   0.123   1.043   5.709
 7204SOL    HW222512   0.247   0.962   5.642
 7205SOL     OW22513   1.648   4.365   5.540
 7205SOL    HW122514   1.696   4.371   5.452
 7205SOL    HW222515   1.639   4.269   5.567
 7206SOL     OW22516   1.104   0.741   2.211
 7206SOL    HW122517   1.121   0.704   2.302
 7206SOL    HW222518   1.027   0.694   2.169
 7207SOL     OW22519   4.101   0.584   3.944
 7207SOL    HW122520   4.134   0.643   3.870
 7207SOL    HW222521   4.001   0.587   3.948
 7208SOL     OW22522   4.701   0.217   3.577
 7208SOL    HW122523   4.764   0.190   3.649
 7208SOL    HW222524   4.705   0.317   3.565
 7209SOL     OW22525   2.632   3.191   1.411
 7209SOL    HW122526   2.572   3.177   1.490
 7209SOL    HW222527   2.721   3.150   1.429
 7210SOL     OW22528   3.890   1.479   3.245
 7210SOL    HW122529   3.808   1.500   3.299
 7210SOL    HW222530   3.912   1.382   3.256
 7211SOL     OW22531   1.769   6.110   5.027
 7211SOL    HW122532   1.705   6.166   4.976
 7211SOL    HW222533   1.797   6.158   5.111
 7212SOL     OW22534   0.852   6.520   5.611
 7212SOL    HW122535   0.890   6.473   5.691
 7212SOL    HW222536   0.834   6.453   5.539
 7213SOL     OW22537   3.830   6.728   7.008
 7213SOL    HW122538   3.873   6.646   6.971
 7213SOL    HW222539   3.750   6.751   6.953
 7214SOL     OW22540   6.470   0.456   5.015
 7214SOL    HW122541   6.381   0.482   4.979
 7214SOL    HW222542   6.535   0.531   5.002
 7215SOL     OW22543   6.719   2.614   3.816
 7215SOL    HW122544   6.755   2.677   3.748
 7215SOL    HW222545   6.698   2.526   3.773
 7216SOL     OW22546   2.971   0.279   1.622
 7216SOL    HW122547   3.050   0.337   1.598
 7216SOL    HW222548   2.987   0.186   1.589
 7217SOL     OW22549   2.036   3.627   3.225
 7217SOL    HW122550   1.980   3.679   3.289
 7217SOL    HW222551   2.055   3.537   3.263
 7218SOL     OW22552   6.026   2.823   4.345
 7218SOL    HW122553   5.980   2.788   4.263
 7218SOL    HW222554   5.987   2.912   4.370
 7219SOL     OW22555   3.964   0.994   2.765
 7219SOL    HW122556   4.058   1.003   2.799
 7219SOL    HW222557   3.905   1.060   2.812
 7220SOL     OW22558   6.532   3.994   4.015
 7220SOL    HW122559   6.575   4.056   4.080
 7220SOL    HW222560   6.510   3.908   4.060
 7221SOL     OW22561   3.828   5.836   5.120
 7221SOL    HW122562   3.738   5.866   5.150
 7221SOL    HW222563   3.843   5.741   5.149
 7222SOL     OW22564   6.027   6.312   3.358
 7222SOL    HW122565   6.035   6.224   3.404
 7222SOL    HW222566   6.103   6.323   3.294
 7223SOL     OW22567   2.984   1.448   0.922
 7223SOL    HW122568   3.009   1.351   0.915
 7223SOL    HW222569   2.931   1.474   0.841
 7224SOL     OW22570   5.227   2.482   3.929
 7224SOL    HW122571   5.266   2.397   3.965
 7224SOL    HW222572   5.174   2.527   4.000
 7225SOL     OW22573   1.211   5.934   0.421
 7225SOL    HW122574   1.169   5.929   0.512
 7225SOL    HW222575   1.209   5.843   0.379
 7226SOL     OW22576   5.892   0.138   1.460
 7226SOL    HW122577   5.801   0.146   1.501
 7226SOL    HW222578   5.958   0.190   1.514
 7227SOL     OW22579   2.620   2.015   1.232
 7227SOL    HW122580   2.658   1.956   1.303
 7227SOL    HW222581   2.633   1.973   1.142
 7228SOL     OW22582   1.283   1.542   2.635
 7228SOL    HW122583   1.379   1.516   2.632
 7228SOL    HW222584   1.243   1.513   2.722
 7229SOL     OW22585   1.315   5.832   5.954
 7229SOL    HW122586   1.310   5.931   5.949
 7229SOL    HW222587   1.365   5.805   6.037
 7230SOL     OW22588   3.652   5.547   4.736
 7230SOL    HW122589   3.553   5.536   4.740
 7230SOL    HW222590   3.679   5.584   4.647
 7231SOL     OW22591   3.737   0.378   6.382
 7231SOL    HW122592   3.711   0.332   6.467
 7231SOL    HW222593   3.772   0.469   6.402
 7232SOL     OW22594   4.826   5.968   2.503
 7232SOL    HW122595   4.889   5.949   2.578
 7232SOL    HW222596   4.850   6.055   2.461
 7233SOL     OW22597   1.575   1.806   4.181
 7233SOL    HW122598   1.634   1.858   4.243
 7233SOL    HW222599   1.487   1.852   4.172
 7234SOL     OW22600   6.258   2.905   3.143
 7234SOL    HW122601   6.223   2.817   3.113
 7234SOL    HW222602   6.334   2.933   3.085
 7235SOL     OW22603   6.912   4.684   2.505
 7235SOL    HW122604   6.892   4.729   2.418
 7235SOL    HW222605   6.937   4.753   2.573
 7236SOL     OW22606   2.650   1.968   2.034
 7236SOL    HW122607   2.738   1.924   2.052
 7236SOL    HW222608   2.665   2.066   2.021
 7237SOL     OW22609   4.620   0.411   4.932
 7237SOL    HW122610   4.717   0.385   4.930
 7237SOL    HW222611   4.566   0.343   4.882
 7238SOL     OW22612   4.059   2.126   6.652
 7238SOL    HW122613   4.127   2.115   6.725
 7238SOL    HW222614   4.060   2.045   6.593
 7239SOL     OW22615   0.433   1.898   1.601
 7239SOL    HW122616   0.435   1.839   1.521
 7239SOL    HW222617   0.344   1.891   1.646
 7240SOL     OW22618   0.726   1.265   5.965
 7240SOL    HW122619   0.783   1.224   6.037
 7240SOL    HW222620   0.699   1.357   5.993
 7241SOL     OW22621   2.607   0.491   0.916
 7241SOL    HW122622   2.517   0.484   0.872
 7241SOL    HW222623   2.601   0.452   1.008
 7242SOL     OW22624   6.418   5.734   6.680
 7242SOL    HW122625   6.339   5.685   6.717
 7242SOL    HW222626   6.501   5.701   6.725
 7243SOL     OW22627   6.205   4.249   6.874
 7243SOL    HW122628   6.121   4.196   6.860
 7243SOL    HW222629   6.190   4.343   6.845
 7244SOL     OW22630   6.434   0.976   1.813
 7244SOL    HW122631   6.503   0.997   1.744
 7244SOL    HW222632   6.418   1.057   1.870
 7245SOL     OW22633   1.631   2.837   4.867
 7245SOL    HW122634   1.635   2.798   4.959
 7245SOL    HW222635   1.583   2.925   4.871
 7246SOL     OW22636   1.070   0.612   3.908
 7246SOL    HW122637   1.027   0.666   3.835
 7246SOL    HW222638   1.140   0.552   3.869
 7247SOL     OW22639   2.043   1.757   4.744
 7247SOL    HW122640   2.091   1.821   4.684
 7247SOL    HW222641   1.998   1.686   4.690
 7248SOL     OW22642   2.899   1.410   2.901
 7248SOL    HW122643   2.835   1.377   2.831
 7248SOL    HW222644   2.969   1.341   2.917
 7249SOL     OW22645   5.436   5.037   2.133
 7249SOL    HW122646   5.413   4.975   2.208
 7249SOL    HW222647   5.479   5.119   2.169
 7250SOL     OW22648   5.832   6.006   5.889
 7250SOL    HW122649   5.861   5.995   5.794
 7250SOL    HW222650   5.733   6.014   5.893
 7251SOL     OW22651   0.459   6.628   5.609
 7251SOL    HW122652   0.440   6.725   5.592
 7251SOL    HW222653   0.444   6.607   5.706
 7252SOL     OW22654   3.525   3.196   2.217
 7252SOL    HW122655   3.518   3.101   2.187
 7252SOL    HW222656   3.592   3.244   2.161
 7253SOL     OW22657   1.751   6.157   6.993
 7253SOL    HW122658   1.822   6.099   0.019
 7253SOL    HW222659   1.775   6.253   7.006
 7254SOL     OW22660   5.125   5.002   4.740
 7254SOL    HW122661   5.211   4.982   4.789
 7254SOL    HW222662   5.103   4.927   4.679
 7255SOL     OW22663   4.191   3.742   0.325
 7255SOL    HW122664   4.270   3.742   0.387
 7255SOL    HW222665   4.110   3.774   0.374
 7256SOL     OW22666   2.917   6.089   4.671
 7256SOL    HW122667   2.949   6.037   4.592
 7256SOL    HW222668   2.874   6.173   4.641
 7257SOL     OW22669   6.482   1.435   3.443
 7257SOL    HW122670   6.533   1.497   3.384
 7257SOL    HW222671   6.392   1.474   3.464
 7258SOL     OW22672   4.724   1.465   2.893
 7258SOL    HW122673   4.701   1.448   2.798
 7258SOL    HW222674   4.783   1.546   2.899
 7259SOL     OW22675   1.646   3.549   1.139
 7259SOL    HW122676   1.740   3.582   1.147
 7259SOL    HW222677   1.619   3.504   1.224
 7260SOL     OW22678   4.825   1.506   1.375
 7260SOL    HW122679   4.855   1.579   1.313
 7260SOL    HW222680   4.829   1.418   1.327
 7261SOL     OW22681   1.526   3.889   1.856
 7261SOL    HW122682   1.618   3.874   1.893
 7261SOL    HW222683   1.488   3.974   1.894
 7262SOL     OW22684   5.436   2.504   6.231
 7262SOL    HW122685   5.379   2.560   6.172
 7262SOL    HW222686   5.441   2.545   6.322
 7263SOL     OW22687   0.813   6.709   6.730
 7263SOL    HW122688   0.833   6.614   6.704
 7263SOL    HW222689   0.818   6.718   6.829
 7264SOL     OW22690   5.054   2.010   6.614
 7264SOL    HW122691   5.085   2.044   6.525
 7264SOL    HW222692   4.959   2.037   6.628
 7265SOL     OW22693   5.510   5.067   5.922
 7265SOL    HW122694   5.538   4.974   5.947
 7265SOL    HW222695   5.510   5.076   5.823
 7266SOL     OW22696   5.506   0.438   2.495
 7266SOL    HW122697   5.465   0.430   2.585
 7266SOL    HW222698   5.441   0.406   2.426
 7267SOL     OW22699   6.311   6.500   5.042
 7267SOL    HW122700   6.393   6.453   5.010
 7267SOL    HW222701   6.297   6.480   5.139
 7268SOL     OW22702   6.305   5.413   3.897
 7268SOL    HW122703   6.227   5.384   3.953
 7268SOL    HW222704   6.369   5.464   3.955
 7269SOL     OW22705   0.796   6.080   6.490
 7269SOL    HW122706   0.843   5.995   6.512
 7269SOL    HW222707   0.819   6.108   6.397
 7270SOL     OW22708   0.769   3.308   4.804
 7270SOL    HW122709   0.780   3.256   4.889
 7270SOL    HW222710   0.846   3.287   4.743
 7271SOL     OW22711   0.786   5.513   4.226
 7271SOL    HW122712   0.721   5.575   4.268
 7271SOL    HW222713   0.737   5.440   4.179
 7272SOL     OW22714   6.098   5.142   2.133
 7272SOL    HW122715   6.040   5.071   2.094
 7272SOL    HW222716   6.114   5.214   2.065
 7273SOL     OW22717   5.760   4.576   1.265
 7273SOL    HW122718   5.825   4.506   1.236
 7273SOL    HW222719   5.782   4.606   1.358
 7274SOL     OW22720   0.141   5.297   6.494
 7274SOL    HW122721   0.122   5.395   6.494
 7274SOL    HW222722   0.203   5.275   6.569
 7275SOL     OW22723   0.569   6.373   2.488
 7275SOL    HW122724   0.660   6.405   2.516
 7275SOL    HW222725   0.528   6.440   2.426
 7276SOL     OW22726   4.558   1.059   2.833
 7276SOL    HW122727   4.637   1.061   2.894
 7276SOL    HW222728   4.589   1.054   2.738
 7277SOL     OW22729   5.016   0.763   4.130
 7277SOL    HW122730   5.064   0.728   4.210
 7277SOL    HW222731   4.924   0.724   4.127
 7278SOL     OW22732   3.580   2.317   1.401
 7278SOL    HW122733   3.635   2.281   1.476
 7278SOL    HW222734   3.491   2.273   1.401
 7279SOL     OW22735   4.287   4.500   5.800
 7279SOL    HW122736   4.197   4.488   5.758
 7279SOL    HW222737   4.305   4.597   5.814
 7280SOL     OW22738   0.552   1.850   3.627
 7280SOL    HW122739   0.506   1.763   3.642
 7280SOL    HW222740   0.485   1.923   3.622
 7281SOL     OW22741   2.188   1.463   0.050
 7281SOL    HW122742   2.257   1.533   0.031
 7281SOL    HW222743   2.102   1.488   0.004
 7282SOL     OW22744   5.920   5.299   2.318
 7282SOL    HW122745   5.893   5.358   2.241
 7282SOL    HW222746   5.994   5.239   2.289
 7283SOL     OW22747   5.090   0.509   2.653
 7283SOL    HW122748   5.149   0.432   2.678
 7283SOL    HW222749   5.140   0.595   2.667
 7284SOL     OW22750   0.092   2.310   5.986
 7284SOL    HW122751   0.042   2.250   5.923
 7284SOL    HW222752   0.124   2.390   5.936
 7285SOL     OW22753   5.788   3.216   2.511
 7285SOL    HW122754   5.864   3.172   2.560
 7285SOL    HW222755   5.709   3.222   2.572
 7286SOL     OW22756   2.279   0.919   0.738
 7286SOL    HW122757   2.319   0.889   0.825
 7286SOL    HW222758   2.333   0.881   0.662
 7287SOL     OW22759   0.789   2.757   5.835
 7287SOL    HW122760   0.696   2.729   5.858
 7287SOL    HW222761   0.786   2.825   5.762
 7288SOL     OW22762   1.897   1.233   1.612
 7288SOL    HW122763   1.876   1.274   1.523
 7288SOL    HW222764   1.816   1.238   1.670
 7289SOL     OW22765   5.508   2.341   4.023
 7289SOL    HW122766   5.432   2.281   4.045
 7289SOL    HW222767   5.594   2.293   4.037
 7290SOL     OW22768   3.795   1.301   4.610
 7290SOL    HW122769   3.873   1.361   4.628
 7290SOL    HW222770   3.729   1.309   4.685
 7291SOL     OW22771   1.507   6.398   0.249
 7291SOL    HW122772   1.443   6.447   0.308
 7291SOL    HW222773   1.480   6.301   0.245
 7292SOL     OW22774   3.543   1.448   3.722
 7292SOL    HW122775   3.584   1.537   3.742
 7292SOL    HW222776   3.518   1.404   3.808
 7293SOL     OW22777   1.644   2.124   4.471
 7293SOL    HW122778   1.657   2.169   4.560
 7293SOL    HW222779   1.595   2.186   4.410
 7294SOL     OW22780   2.874   4.915   6.642
 7294SOL    HW122781   2.781   4.945   6.666
 7294SOL    HW222782   2.927   4.994   6.610
 7295SOL     OW22783   5.604   3.212   1.700
 7295SOL    HW122784   5.579   3.175   1.611
 7295SOL    HW222785   5.542   3.287   1.724
 7296SOL     OW22786   3.476   6.074   2.163
 7296SOL    HW122787   3.487   6.015   2.243
 7296SOL    HW222788   3.553   6.137   2.158
 7297SOL     OW22789   4.456   0.259   1.191
 7297SOL    HW122790   4.390   0.303   1.131
 7297SOL    HW222791   4.440   0.160   1.192
 7298SOL     OW22792   5.253   5.286   6.056
 7298SOL    HW122793   5.193   5.277   6.136
 7298SOL    HW222794   5.241   5.206   5.997
 7299SOL     OW22795   0.936   2.404   1.011
 7299SOL    HW122796   1.005   2.338   0.979
 7299SOL    HW222797   0.913   2.384   1.106
 7300SOL     OW22798   0.469   6.714   2.063
 7300SOL    HW122799   0.395   6.708   1.996
 7300SOL    HW222800   0.449   6.786   2.129
 7301SOL     OW22801   6.089   1.333   4.152
 7301SOL    HW122802   6.071   1.238   4.129
 7301SOL    HW222803   6.018   1.391   4.111
 7302SOL     OW22804   0.944   2.484   5.312
 7302SOL    HW122805   0.910   2.522   5.226
 7302SOL    HW222806   1.010   2.547   5.352
 7303SOL     OW22807   3.768   1.147   0.232
 7303SOL    HW122808   3.760   1.159   0.331
 7303SOL    HW222809   3.686   1.101   0.197
 7304SOL     OW22810   3.321   5.688   2.034
 7304SOL    HW122811   3.386   5.754   1.998
 7304SOL    HW222812   3.293   5.715   2.126
 7305SOL     OW22813   4.943   0.273   0.296
 7305SOL    HW122814   5.022   0.310   0.345
 7305SOL    HW222815   4.863   0.273   0.357
 7306SOL     OW22816   4.602   1.501   0.895
 7306SOL    HW122817   4.548   1.526   0.814
 7306SOL    HW222818   4.563   1.420   0.938
 7307SOL     OW22819   2.834   6.545   2.911
 7307SOL    HW122820   2.823   6.617   2.979
 7307SOL    HW222821   2.930   6.538   2.885
 7308SOL     OW22822   6.715   2.868   5.254
 7308SOL    HW122823   6.633   2.924   5.267
 7308SOL    HW222824   6.709   2.787   5.312
 7309SOL     OW22825   3.825   4.789   0.752
 7309SOL    HW122826   3.912   4.840   0.750
 7309SOL    HW222827   3.810   4.746   0.663
 7310SOL     OW22828   2.206   4.002   0.726
 7310SOL    HW122829   2.217   4.058   0.643
 7310SOL    HW222830   2.115   4.017   0.764
 7311SOL     OW22831   1.917   1.951   1.508
 7311SOL    HW122832   1.953   1.858   1.499
 7311SOL    HW222833   1.990   2.012   1.538
 7312SOL     OW22834   1.172   3.606   4.844
 7312SOL    HW122835   1.265   3.638   4.829
 7312SOL    HW222836   1.124   3.670   4.905
 7313SOL     OW22837   1.849   0.840   0.495
 7313SOL    HW122838   1.822   0.781   0.572
 7313SOL    HW222839   1.871   0.931   0.530
 7314SOL     OW22840   0.236   4.973   6.341
 7314SOL    HW122841   0.168   4.905   6.369
 7314SOL    HW222842   0.324   4.928   6.326
 7315SOL     OW22843   6.511   6.335   2.441
 7315SOL    HW122844   6.550   6.398   2.508
 7315SOL    HW222845   6.413   6.328   2.455
 7316SOL     OW22846   3.741   3.694   6.655
 7316SOL    HW122847   3.746   3.648   6.566
 7316SOL    HW222848   3.646   3.718   6.675
 7317SOL     OW22849   4.944   1.148   2.799
 7317SOL    HW122850   5.013   1.217   2.778
 7317SOL    HW222851   4.988   1.059   2.812
 7318SOL     OW22852   2.119   0.478   2.228
 7318SOL    HW122853   2.197   0.532   2.259
 7318SOL    HW222854   2.042   0.493   2.290
 7319SOL     OW22855   6.916   3.331   6.764
 7319SOL    HW122856   6.966   3.244   6.759
 7319SOL    HW222857   6.855   3.338   6.685
 7320SOL     OW22858   0.498   3.705   2.837
 7320SOL    HW122859   0.496   3.703   2.737
 7320SOL    HW222860   0.487   3.612   2.872
 7321SOL     OW22861   1.762   0.652   5.996
 7321SOL    HW122862   1.746   0.615   6.087
 7321SOL    HW222863   1.759   0.577   5.929
 7322SOL     OW22864   6.800   2.958   3.378
 7322SOL    HW122865   6.874   2.985   3.317
 7322SOL    HW222866   6.735   2.900   3.329
 7323SOL     OW22867   1.814   2.695   1.490
 7323SOL    HW122868   1.820   2.715   1.392
 7323SOL    HW222869   1.870   2.760   1.540
 7324SOL     OW22870   5.357   6.110   1.807
 7324SOL    HW122871   5.347   6.041   1.735
 7324SOL    HW222872   5.267   6.140   1.838
 7325SOL     OW22873   2.776   0.457   6.982
 7325SOL    HW122874   2.676   0.462   6.991
 7325SOL    HW222875   2.813   0.550   6.983
 7326SOL     OW22876   2.707   6.238   6.111
 7326SOL    HW122877   2.783   6.172   6.109
 7326SOL    HW222878   2.650   6.220   6.191
 7327SOL     OW22879   6.077   1.544   6.257
 7327SOL    HW122880   6.154   1.591   6.298
 7327SOL    HW222881   6.107   1.494   6.176
 7328SOL     OW22882   3.451   0.808   5.606
 7328SOL    HW122883   3.510   0.778   5.531
 7328SOL    HW222884   3.505   0.815   5.690
 7329SOL     OW22885   0.074   3.824   1.017
 7329SOL    HW122886   0.082   3.735   1.063
 7329SOL    HW222887   0.165   3.856   0.992
 7330SOL     OW22888   2.117   2.796   0.008
 7330SOL    HW122889   2.128   2.700   0.035
 7330SOL    HW222890   2.023   2.826   0.027
 7331SOL     OW22891   4.972   6.153   1.506
 7331SOL    HW122892   4.898   6.218   1.489
 7331SOL    HW222893   5.037   6.193   1.571
 7332SOL     OW22894   3.402   6.295   0.194
 7332SOL    HW122895   3.305   6.290   0.173
 7332SOL    HW222896   3.418   6.368   0.261
 7333SOL     OW22897   6.877   3.224   2.105
 7333SOL    HW122898   6.960   3.243   2.157
 7333SOL    HW222899   6.902   3.180   2.018
 7334SOL     OW22900   2.321   5.672   6.568
 7334SOL    HW122901   2.271   5.699   6.486
 7334SOL    HW222902   2.269   5.700   6.649
 7335SOL     OW22903   1.366   2.640   3.427
 7335SOL    HW122904   1.341   2.735   3.408
 7335SOL    HW222905   1.427   2.636   3.506
 7336SOL     OW22906   1.463   6.470   2.440
 7336SOL    HW122907   1.383   6.508   2.487
 7336SOL    HW222908   1.470   6.372   2.459
 7337SOL     OW22909   0.693   3.229   1.102
 7337SOL    HW122910   0.614   3.185   1.146
 7337SOL    HW222911   0.677   3.327   1.094
 7338SOL     OW22912   5.105   1.968   1.677
 7338SOL    HW122913   5.204   1.965   1.668
 7338SOL    HW222914   5.075   2.063   1.688
 7339SOL     OW22915   6.208   0.269   4.228
 7339SOL    HW122916   6.109   0.263   4.215
 7339SOL    HW222917   6.252   0.288   4.140
 7340SOL     OW22918   3.192   1.087   0.461
 7340SOL    HW122919   3.169   1.006   0.514
 7340SOL    HW222920   3.183   1.169   0.518
 7341SOL     OW22921   0.541   4.226   5.707
 7341SOL    HW122922   0.580   4.139   5.736
 7341SOL    HW222923   0.447   4.234   5.740
 7342SOL     OW22924   0.157   1.261   6.776
 7342SOL    HW122925   0.133   1.342   6.723
 7342SOL    HW222926   0.225   1.284   6.845
 7343SOL     OW22927   6.080   4.065   1.509
 7343SOL    HW122928   6.123   4.154   1.520
 7343SOL    HW222929   6.090   4.035   1.414
 7344SOL     OW22930   1.261   1.316   6.105
 7344SOL    HW122931   1.188   1.328   6.038
 7344SOL    HW222932   1.336   1.378   6.084
 7345SOL     OW22933   4.874   5.161   5.185
 7345SOL    HW122934   4.796   5.189   5.128
 7345SOL    HW222935   4.904   5.238   5.241
 7346SOL     OW22936   4.392   4.952   2.045
 7346SOL    HW122937   4.324   4.918   1.980
 7346SOL    HW222938   4.405   5.051   2.031
 7347SOL     OW22939   6.797   2.523   0.395
 7347SOL    HW122940   6.727   2.582   0.355
 7347SOL    HW222941   6.886   2.546   0.357
 7348SOL     OW22942   1.900   3.982   4.548
 7348SOL    HW122943   1.914   3.980   4.449
 7348SOL    HW222944   1.974   3.931   4.593
 7349SOL     OW22945   4.887   1.324   1.583
 7349SOL    HW122946   4.979   1.339   1.620
 7349SOL    HW222947   4.871   1.387   1.507
 7350SOL     OW22948   2.209   3.324   5.853
 7350SOL    HW122949   2.297   3.315   5.806
 7350SOL    HW222950   2.201   3.253   5.923
 7351SOL     OW22951   5.650   6.415   5.181
 7351SOL    HW122952   5.611   6.379   5.265
 7351SOL    HW222953   5.750   6.423   5.192
 7352SOL     OW22954   2.331   1.414   2.978
 7352SOL    HW122955   2.299   1.452   3.064
 7352SOL    HW222956   2.310   1.477   2.903
 7353SOL     OW22957   0.873   0.358   6.432
 7353SOL    HW122958   0.813   0.280   6.413
 7353SOL    HW222959   0.854   0.393   6.524
 7354SOL     OW22960   0.726   2.082   5.116
 7354SOL    HW122961   0.738   2.179   5.138
 7354SOL    HW222962   0.630   2.065   5.092
 7355SOL     OW22963   1.441   0.965   0.803
 7355SOL    HW122964   1.442   1.062   0.829
 7355SOL    HW222965   1.427   0.957   0.704
 7356SOL     OW22966   3.576   3.893   6.081
 7356SOL    HW122967   3.504   3.944   6.033
 7356SOL    HW222968   3.552   3.796   6.081
 7357SOL     OW22969   3.705   6.723   1.581
 7357SOL    HW122970   3.724   6.801   1.640
 7357SOL    HW222971   3.681   6.755   1.489
 7358SOL     OW22972   5.912   3.608   3.050
 7358SOL    HW122973   5.911   3.577   3.144
 7358SOL    HW222974   5.988   3.671   3.036
 7359SOL     OW22975   3.466   1.786   6.210
 7359SOL    HW122976   3.376   1.772   6.251
 7359SOL    HW222977   3.491   1.706   6.155
 7360SOL     OW22978   3.007   3.793   5.679
 7360SOL    HW122979   3.003   3.857   5.756
 7360SOL    HW222980   3.010   3.844   5.593
 7361SOL     OW22981   4.394   0.148   2.042
 7361SOL    HW122982   4.467   0.213   2.019
 7361SOL    HW222983   4.433   0.072   2.095
 7362SOL     OW22984   1.789   4.412   5.295
 7362SOL    HW122985   1.822   4.352   5.223
 7362SOL    HW222986   1.866   4.464   5.333
 7363SOL     OW22987   4.647   1.946   1.602
 7363SOL    HW122988   4.674   1.911   1.693
 7363SOL    HW222989   4.612   2.039   1.611
 7364SOL     OW22990   4.884   0.706   1.244
 7364SOL    HW122991   4.872   0.627   1.304
 7364SOL    HW222992   4.980   0.712   1.217
 7365SOL     OW22993   0.569   5.510   1.665
 7365SOL    HW122994   0.520   5.585   1.620
 7365SOL    HW222995   0.667   5.530   1.667
 7366SOL     OW22996   2.532   6.008   6.815
 7366SOL    HW122997   2.465   6.067   6.770
 7366SOL    HW222998   2.489   5.961   6.892
 7367SOL     OW22999   4.823   2.779   1.106
 7367SOL    HW123000   4.824   2.709   1.178
 7367SOL    HW223001   4.833   2.869   1.147
 7368SOL     OW23002   3.589   3.020   2.613
 7368SOL    HW123003   3.524   2.964   2.664
 7368SOL    HW223004   3.679   3.013   2.656
 7369SOL     OW23005   3.562   2.337   0.118
 7369SOL    HW123006   3.531   2.426   0.152
 7369SOL    HW223007   3.568   2.340   0.018
 7370SOL     OW23008   2.356   0.622   4.471
 7370SOL    HW123009   2.448   0.615   4.434
 7370SOL    HW223010   2.327   0.718   4.470
 7371SOL     OW23011   2.464   6.776   3.646
 7371SOL    HW123012   2.469   6.745   3.551
 7371SOL    HW223013   2.422   6.705   3.702
 7372SOL     OW23014   4.788   1.374   4.388
 7372SOL    HW123015   4.874   1.399   4.433
 7372SOL    HW223016   4.808   1.340   4.296
 7373SOL     OW23017   6.180   1.272   3.538
 7373SOL    HW123018   6.225   1.354   3.573
 7373SOL    HW223019   6.196   1.265   3.440
 7374SOL     OW23020   2.129   1.762   5.017
 7374SOL    HW123021   2.104   1.759   4.921
 7374SOL    HW223022   2.198   1.833   5.031
 7375SOL     OW23023   2.200   2.065   2.834
 7375SOL    HW123024   2.257   2.121   2.895
 7375SOL    HW223025   2.137   2.124   2.783
 7376SOL     OW23026   2.645   1.964   0.739
 7376SOL    HW123027   2.546   1.948   0.732
 7376SOL    HW223028   2.681   1.914   0.818
 7377SOL     OW23029   5.414   4.471   0.731
 7377SOL    HW123030   5.395   4.374   0.714
 7377SOL    HW223031   5.500   4.479   0.782
 7378SOL     OW23032   0.573   0.976   6.270
 7378SOL    HW123033   0.654   1.017   6.312
 7378SOL    HW223034   0.598   0.889   6.226
 7379SOL     OW23035   2.958   1.691   2.945
 7379SOL    HW123036   2.951   1.593   2.925
 7379SOL    HW223037   2.979   1.740   2.860
 7380SOL     OW23038   0.030   4.577   3.921
 7380SOL    HW123039   7.005   4.490   3.950
 7380SOL    HW223040   0.003   4.650   3.983
 7381SOL     OW23041   3.991   3.695   1.250
 7381SOL    HW123042   3.892   3.683   1.241
 7381SOL    HW223043   4.036   3.605   1.250
 7382SOL     OW23044   0.697   6.722   5.574
 7382SOL    HW123045   0.602   6.692   5.577
 7382SOL    HW223046   0.757   6.643   5.586
 7383SOL     OW23047   2.028   6.866   0.830
 7383SOL    HW123048   1.974   6.905   0.756
 7383SOL    HW223049   2.083   6.790   0.795
 7384SOL     OW23050   6.431   6.625   2.860
 7384SOL    HW123051   6.489   6.646   2.781
 7384SOL    HW223052   6.416   6.709   2.913
 7385SOL     OW23053   3.675   6.251   2.209
 7385SOL    HW123054   3.626   6.314   2.149
 7385SOL    HW223055   3.772   6.252   2.187
 7386SOL     OW23056   0.172   2.453   0.000
 7386SOL    HW123057   0.083   2.409   7.007
 7386SOL    HW223058   0.218   2.456   6.927
 7387SOL     OW23059   6.153   6.554   5.296
 7387SOL    HW123060   6.163   6.493   5.374
 7387SOL    HW223061   6.076   6.524   5.240
 7388SOL     OW23062   1.188   5.717   2.475
 7388SOL    HW123063   1.267   5.712   2.413
 7388SOL    HW223064   1.221   5.732   2.568
 7389SOL     OW23065   6.052   3.833   6.711
 7389SOL    HW123066   6.092   3.891   6.641
 7389SOL    HW223067   6.125   3.793   6.767
 7390SOL     OW23068   0.962   1.909   1.056
 7390SOL    HW123069   0.972   1.959   1.142
 7390SOL    HW223070   1.050   1.905   1.010
 7391SOL     OW23071   4.131   3.298   3.832
 7391SOL    HW123072   4.109   3.314   3.735
 7391SOL    HW223073   4.231   3.296   3.843
 7392SOL     OW23074   2.803   6.890   6.520
 7392SOL    HW123075   2.839   6.965   6.464
 7392SOL    HW223076   2.809   6.915   6.616
 7393SOL     OW23077   6.020   4.388   2.748
 7393SOL    HW123078   5.922   4.398   2.732
 7393SOL    HW223079   6.067   4.472   2.720
 7394SOL     OW23080   2.175   2.447   5.746
 7394SOL    HW123081   2.250   2.510   5.729
 7394SOL    HW223082   2.126   2.429   5.661
 7395SOL     OW23083   1.402   3.137   1.269
 7395SOL    HW123084   1.472   3.147   1.340
 7395SOL    HW223085   1.354   3.223   1.257
 7396SOL     OW23086   1.549   6.457   1.397
 7396SOL    HW123087   1.636   6.412   1.381
 7396SOL    HW223088   1.564   6.544   1.443
 7397SOL     OW23089   4.148   5.663   5.057
 7397SOL    HW123090   4.240   5.646   5.093
 7397SOL    HW223091   4.146   5.753   5.013
 7398SOL     OW23092   2.231   4.772   4.470
 7398SOL    HW123093   2.203   4.867   4.479
 7398SOL    HW223094   2.320   4.768   4.424
 7399SOL     OW23095   0.532   3.222   4.715
 7399SOL    HW123096   0.540   3.149   4.648
 7399SOL    HW223097   0.624   3.250   4.745
 7400SOL     OW23098   4.208   2.568   6.126
 7400SOL    HW123099   4.244   2.596   6.215
 7400SOL    HW223100   4.125   2.514   6.138
 7401SOL     OW23101   1.352   2.378   4.205
 7401SOL    HW123102   1.399   2.406   4.122
 7401SOL    HW223103   1.418   2.363   4.278
 7402SOL     OW23104   3.025   5.750   6.405
 7402SOL    HW123105   3.013   5.807   6.325
 7402SOL    HW223106   3.028   5.654   6.378
 7403SOL     OW23107   1.896   3.486   2.382
 7403SOL    HW123108   1.807   3.447   2.360
 7403SOL    HW223109   1.894   3.585   2.366
 7404SOL     OW23110   2.595   5.209   1.578
 7404SOL    HW123111   2.566   5.263   1.499
 7404SOL    HW223112   2.534   5.226   1.655
 7405SOL     OW23113   3.828   5.067   5.122
 7405SOL    HW123114   3.761   5.040   5.053
 7405SOL    HW223115   3.780   5.091   5.207
 7406SOL     OW23116   0.090   2.641   3.620
 7406SOL    HW123117   0.089   2.669   3.524
 7406SOL    HW223118   0.034   2.704   3.674
 7407SOL     OW23119   0.696   6.999   5.186
 7407SOL    HW123120   0.700   6.972   5.282
 7407SOL    HW223121   0.775   0.041   5.164
 7408SOL     OW23122   2.912   4.121   0.246
 7408SOL    HW123123   2.989   4.184   0.235
 7408SOL    HW223124   2.828   4.165   0.217
 7409SOL     OW23125   5.242   3.213   0.230
 7409SOL    HW123126   5.169   3.160   0.273
 7409SOL    HW223127   5.284   3.158   0.157
 7410SOL     OW23128   0.599   6.860   0.088
 7410SOL    HW123129   0.665   6.785   0.087
 7410SOL    HW223130   0.551   6.861   0.176
 7411SOL     OW23131   1.993   0.272   6.205
 7411SOL    HW123132   1.983   0.260   6.304
 7411SOL    HW223133   2.074   0.327   6.186
 7412SOL     OW23134   5.406   0.281   1.865
 7412SOL    HW123135   5.439   0.349   1.800
 7412SOL    HW223136   5.413   0.317   1.958
 7413SOL     OW23137   4.703   5.406   4.043
 7413SOL    HW123138   4.711   5.444   4.135
 7413SOL    HW223139   4.644   5.325   4.044
 7414SOL     OW23140   0.993   0.732   3.580
 7414SOL    HW123141   0.973   0.724   3.482
 7414SOL    HW223142   1.080   0.779   3.592
 7415SOL     OW23143   1.495   4.598   3.909
 7415SOL    HW123144   1.499   4.576   3.811
 7415SOL    HW223145   1.558   4.673   3.928
 7416SOL     OW23146   1.936   0.974   2.497
 7416SOL    HW123147   1.854   1.030   2.502
 7416SOL    HW223148   1.936   0.921   2.413
 7417SOL     OW23149   2.075   2.023   0.937
 7417SOL    HW123150   2.173   2.026   0.956
 7417SOL    HW223151   2.025   1.997   1.019
 7418SOL     OW23152   2.655   5.746   0.358
 7418SOL    HW123153   2.746   5.787   0.350
 7418SOL    HW223154   2.662   5.647   0.353
 7419SOL     OW23155   6.604   3.112   4.321
 7419SOL    HW123156   6.552   3.030   4.295
 7419SOL    HW223157   6.604   3.121   4.420
 7420SOL     OW23158   0.690   6.595   1.366
 7420SOL    HW123159   0.724   6.607   1.273
 7420SOL    HW223160   0.646   6.680   1.397
 7421SOL     OW23161   3.879   4.507   1.142
 7421SOL    HW123162   3.839   4.436   1.084
 7421SOL    HW223163   3.809   4.543   1.204
 7422SOL     OW23164   0.259   4.155   2.370
 7422SOL    HW123165   0.171   4.124   2.404
 7422SOL    HW223166   0.279   4.246   2.407
 7423SOL     OW23167   6.256   2.456   5.494
 7423SOL    HW123168   6.195   2.377   5.489
 7423SOL    HW223169   6.350   2.427   5.475
 7424SOL     OW23170   6.819   0.048   5.348
 7424SOL    HW123171   6.879   0.128   5.358
 7424SOL    HW223172   6.861   6.985   5.393
 7425SOL     OW23173   4.428   6.503   0.282
 7425SOL    HW123174   4.342   6.460   0.309
 7425SOL    HW223175   4.436   6.592   0.328
 7426SOL     OW23176   2.963   1.868   5.600
 7426SOL    HW123177   2.961   1.958   5.557
 7426SOL    HW223178   2.884   1.858   5.661
 7427SOL     OW23179   5.103   0.646   3.585
 7427SOL    HW123180   5.082   0.741   3.606
 7427SOL    HW223181   5.165   0.609   3.655
 7428SOL     OW23182   4.862   1.835   5.488
 7428SOL    HW123183   4.840   1.774   5.411
 7428SOL    HW223184   4.778   1.867   5.530
 7429SOL     OW23185   0.262   6.453   4.302
 7429SOL    HW123186   0.289   6.473   4.208
 7429SOL    HW223187   0.343   6.428   4.356
 7430SOL     OW23188   1.040   3.528   0.708
 7430SOL    HW123189   1.090   3.542   0.622
 7430SOL    HW223190   0.956   3.476   0.689
 7431SOL     OW23191   1.795   2.725   3.187
 7431SOL    HW123192   1.778   2.663   3.264
 7431SOL    HW223193   1.718   2.720   3.123
 7432SOL     OW23194   0.983   0.834   2.888
 7432SOL    HW123195   1.033   0.839   2.801
 7432SOL    HW223196   0.916   0.908   2.892
 7433SOL     OW23197   4.120   5.325   6.385
 7433SOL    HW123198   4.038   5.278   6.352
 7433SOL    HW223199   4.201   5.280   6.347
 7434SOL     OW23200   4.840   5.701   5.038
 7434SOL    HW123201   4.776   5.677   5.111
 7434SOL    HW223202   4.873   5.794   5.052
 7435SOL     OW23203   3.887   5.557   1.236
 7435SOL    HW123204   3.919   5.491   1.168
 7435SOL    HW223205   3.796   5.531   1.267
 7436SOL     OW23206   4.223   4.167   6.246
 7436SOL    HW123207   4.238   4.248   6.189
 7436SOL    HW223208   4.200   4.089   6.188
 7437SOL     OW23209   2.113   5.647   6.832
 7437SOL    HW123210   2.170   5.657   6.913
 7437SOL    HW223211   2.126   5.556   6.792
 7438SOL     OW23212   1.260   5.562   0.679
 7438SOL    HW123213   1.224   5.606   0.596
 7438SOL    HW223214   1.356   5.539   0.666
 7439SOL     OW23215   1.810   6.744   5.449
 7439SOL    HW123216   1.811   6.758   5.548
 7439SOL    HW223217   1.883   6.681   5.424
 7440SOL     OW23218   0.051   3.001   4.235
 7440SOL    HW123219   0.015   3.078   4.183
 7440SOL    HW223220   7.015   2.989   4.319
 7441SOL     OW23221   5.031   6.751   4.288
 7441SOL    HW123222   4.997   6.834   4.332
 7441SOL    HW223223   5.129   6.760   4.269
 7442SOL     OW23224   6.678   1.028   6.072
 7442SOL    HW123225   6.773   1.059   6.060
 7442SOL    HW223226   6.630   1.034   5.985
 7443SOL     OW23227   6.474   6.304   1.650
 7443SOL    HW123228   6.386   6.265   1.677
 7443SOL    HW223229   6.535   6.306   1.729
 7444SOL     OW23230   5.754   2.294   6.160
 7444SOL    HW123231   5.776   2.386   6.190
 7444SOL    HW223232   5.667   2.294   6.111
 7445SOL     OW23233   4.083   0.361   1.153
 7445SOL    HW123234   4.061   0.421   1.230
 7445SOL    HW223235   4.180   0.371   1.130
 7446SOL     OW23236   5.781   2.907   0.481
 7446SOL    HW123237   5.854   2.874   0.421
 7446SOL    HW223238   5.705   2.940   0.426
 7447SOL     OW23239   6.050   3.480   0.054
 7447SOL    HW123240   6.008   3.428   6.996
 7447SOL    HW223241   5.991   3.477   0.134
 7448SOL     OW23242   6.805   6.769   5.161
 7448SOL    HW123243   6.780   6.847   5.104
 7448SOL    HW223244   6.769   6.685   5.121
 7449SOL     OW23245   0.541   4.717   2.162
 7449SOL    HW123246   0.521   4.635   2.215
 7449SOL    HW223247   0.544   4.796   2.223
 7450SOL     OW23248   5.193   2.580   5.620
 7450SOL    HW123249   5.145   2.558   5.535
 7450SOL    HW223250   5.185   2.678   5.638
 7451SOL     OW23251   6.622   6.024   2.825
 7451SOL    HW123252   6.714   6.058   2.810
 7451SOL    HW223253   6.561   6.059   2.753
 7452SOL     OW23254   6.037   6.218   4.078
 7452SOL    HW123255   6.091   6.303   4.083
 7452SOL    HW223256   6.033   6.177   4.169
 7453SOL     OW23257   5.352   5.860   5.230
 7453SOL    HW123258   5.340   5.864   5.131
 7453SOL    HW223259   5.315   5.774   5.264
 7454SOL     OW23260   1.326   2.239   1.819
 7454SOL    HW123261   1.259   2.204   1.753
 7454SOL    HW223262   1.385   2.305   1.774
 7455SOL     OW23263   6.613   2.484   1.583
 7455SOL    HW123264   6.660   2.398   1.600
 7455SOL    HW223265   6.570   2.482   1.493
 7456SOL     OW23266   1.688   1.219   4.747
 7456SOL    HW123267   1.661   1.159   4.823
 7456SOL    HW223268   1.670   1.172   4.660
 7457SOL     OW23269   3.468   0.800   5.096
 7457SOL    HW123270   3.394   0.793   5.163
 7457SOL    HW223271   3.530   0.721   5.107
 7458SOL     OW23272   1.910   6.815   5.727
 7458SOL    HW123273   1.821   6.835   5.770
 7458SOL    HW223274   1.957   6.901   5.708
 7459SOL     OW23275   5.144   0.205   1.959
 7459SOL    HW123276   5.086   0.285   1.945
 7459SOL    HW223277   5.228   0.214   1.904
 7460SOL     OW23278   0.748   5.113   0.556
 7460SOL    HW123279   0.670   5.052   0.541
 7460SOL    HW223280   0.751   5.181   0.482
 7461SOL     OW23281   6.291   0.114   6.787
 7461SOL    HW123282   6.210   0.135   6.733
 7461SOL    HW223283   6.324   0.022   6.763
 7462SOL     OW23284   1.554   4.163   2.411
 7462SOL    HW123285   1.539   4.215   2.327
 7462SOL    HW223286   1.545   4.065   2.393
 7463SOL     OW23287   2.954   4.938   1.080
 7463SOL    HW123288   2.927   4.909   1.172
 7463SOL    HW223289   2.886   5.001   1.043
 7464SOL     OW23290   5.739   6.344   6.283
 7464SOL    HW123291   5.744   6.274   6.212
 7464SOL    HW223292   5.826   6.394   6.286
 7465SOL     OW23293   2.614   5.442   6.431
 7465SOL    HW123294   2.672   5.377   6.380
 7465SOL    HW223295   2.569   5.394   6.506
 7466SOL     OW23296   0.373   0.265   4.793
 7466SOL    HW123297   0.389   0.364   4.782
 7466SOL    HW223298   0.366   0.223   4.702
 7467SOL     OW23299   0.433   1.560   0.322
 7467SOL    HW123300   0.506   1.493   0.308
 7467SOL    HW223301   0.399   1.553   0.416
 7468SOL     OW23302   5.855   2.482   3.625
 7468SOL    HW123303   5.771   2.528   3.596
 7468SOL    HW223304   5.859   2.391   3.584
 7469SOL     OW23305   6.638   0.483   6.917
 7469SOL    HW123306   6.610   0.571   6.880
 7469SOL    HW223307   6.556   0.431   6.943
 7470SOL     OW23308   6.182   4.087   3.324
 7470SOL    HW123309   6.085   4.103   3.304
 7470SOL    HW223310   6.191   4.043   3.413
 7471SOL     OW23311   5.414   6.865   5.982
 7471SOL    HW123312   5.479   6.941   5.982
 7471SOL    HW223313   5.464   6.779   5.987
 7472SOL     OW23314   6.207   0.797   5.985
 7472SOL    HW123315   6.242   0.763   6.072
 7472SOL    HW223316   6.274   0.776   5.913
 7473SOL     OW23317   5.785   5.310   4.162
 7473SOL    HW123318   5.735   5.352   4.238
 7473SOL    HW223319   5.857   5.251   4.198
 7474SOL     OW23320   0.427   1.604   6.073
 7474SOL    HW123321   0.518   1.580   6.040
 7474SOL    HW223322   0.404   1.697   6.043
 7475SOL     OW23323   4.774   2.635   2.463
 7475SOL    HW123324   4.688   2.586   2.446
 7475SOL    HW223325   4.773   2.721   2.412
 7476SOL     OW23326   3.698   1.008   3.844
 7476SOL    HW123327   3.706   1.096   3.890
 7476SOL    HW223328   3.768   1.002   3.773
 7477SOL     OW23329   0.467   1.605   5.731
 7477SOL    HW123330   0.409   1.559   5.663
 7477SOL    HW223331   0.410   1.640   5.805
 7478SOL     OW23332   5.967   3.889   4.867
 7478SOL    HW123333   5.965   3.979   4.910
 7478SOL    HW223334   5.873   3.859   4.849
 7479SOL     OW23335   4.261   2.338   2.499
 7479SOL    HW123336   4.210   2.422   2.478
 7479SOL    HW223337   4.359   2.356   2.492
 7480SOL     OW23338   1.754   4.398   2.660
 7480SOL    HW123339   1.844   4.436   2.681
 7480SOL    HW223340   1.739   4.399   2.562
 7481SOL     OW23341   5.459   5.742   0.727
 7481SOL    HW123342   5.508   5.787   0.652
 7481SOL    HW223343   5.449   5.645   0.705
 7482SOL     OW23344   4.592   2.509   2.895
 7482SOL    HW123345   4.611   2.586   2.835
 7482SOL    HW223346   4.650   2.515   2.976
 7483SOL     OW23347   4.969   3.460   4.544
 7483SOL    HW123348   5.069   3.465   4.538
 7483SOL    HW223349   4.935   3.535   4.601
 7484SOL     OW23350   1.162   6.791   4.307
 7484SOL    HW123351   1.219   6.710   4.290
 7484SOL    HW223352   1.188   6.831   4.395
 7485SOL     OW23353   3.775   0.302   4.287
 7485SOL    HW123354   3.789   0.208   4.255
 7485SOL    HW223355   3.678   0.326   4.276
 7486SOL     OW23356   1.643   5.810   0.549
 7486SOL    HW123357   1.680   5.726   0.590
 7486SOL    HW223358   1.560   5.837   0.598
 7487SOL     OW23359   2.266   0.069   2.944
 7487SOL    HW123360   2.299   0.164   2.943
 7487SOL    HW223361   2.320   0.016   3.010
 7488SOL     OW23362   2.501   6.145   4.255
 7488SOL    HW123363   2.478   6.199   4.336
 7488SOL    HW223364   2.487   6.048   4.275
 7489SOL     OW23365   6.042   2.695   5.944
 7489SOL    HW123366   6.009   2.694   5.849
 7489SOL    HW223367   6.054   2.601   5.976
 7490SOL     OW23368   1.234   6.913   3.198
 7490SOL    HW123369   1.199   6.921   3.105
 7490SOL    HW223370   1.163   6.878   3.258
 7491SOL     OW23371   4.061   2.994   6.910
 7491SOL    HW123372   4.042   2.901   6.880
 7491SOL    HW223373   4.160   3.005   6.925
 7492SOL     OW23374   1.425   0.353   3.232
 7492SOL    HW123375   1.508   0.379   3.184
 7492SOL    HW223376   1.411   0.254   3.224
 7493SOL     OW23377   0.499   3.465   6.743
 7493SOL    HW123378   0.422   3.427   6.794
 7493SOL    HW223379   0.491   3.564   6.739
 7494SOL     OW23380   5.297   1.834   2.934
 7494SOL    HW123381   5.265   1.740   2.929
 7494SOL    HW223382   5.396   1.835   2.950
 7495SOL     OW23383   1.674   2.342   6.813
 7495SOL    HW123384   1.749   2.392   6.770
 7495SOL    HW223385   1.590   2.354   6.759
 7496SOL     OW23386   6.676   2.941   3.861
 7496SOL    HW123387   6.614   2.874   3.901
 7496SOL    HW223388   6.771   2.915   3.880
 7497SOL     OW23389   2.589   4.894   0.790
 7497SOL    HW123390   2.622   4.821   0.730
 7497SOL    HW223391   2.543   4.854   0.869
 7498SOL     OW23392   3.259   0.718   5.278
 7498SOL    HW123393   3.214   0.730   5.367
 7498SOL    HW223394   3.192   0.687   5.210
 7499SOL     OW23395   4.489   1.307   3.440
 7499SOL    HW123396   4.400   1.262   3.442
 7499SOL    HW223397   4.549   1.260   3.375
 7500SOL     OW23398   3.356   5.714   3.350
 7500SOL    HW123399   3.389   5.808   3.353
 7500SOL    HW223400   3.306   5.698   3.266
 7501SOL     OW23401   5.138   3.847   4.714
 7501SOL    HW123402   5.103   3.925   4.662
 7501SOL    HW223403   5.155   3.771   4.651
 7502SOL     OW23404   3.132   1.008   4.141
 7502SOL    HW123405   3.183   0.963   4.067
 7502SOL    HW223406   3.181   0.998   4.227
 7503SOL     OW23407   1.744   6.863   1.354
 7503SOL    HW123408   1.796   6.827   1.276
 7503SOL    HW223409   1.803   6.922   1.409
 7504SOL     OW23410   0.847   6.173   3.389
 7504SOL    HW123411   0.853   6.194   3.486
 7504SOL    HW223412   0.775   6.229   3.347
 7505SOL     OW23413   1.931   2.983   5.931
 7505SOL    HW123414   1.889   2.894   5.944
 7505SOL    HW223415   1.889   3.029   5.853
 7506SOL     OW23416   5.608   1.576   2.990
 7506SOL    HW123417   5.699   1.582   3.032
 7506SOL    HW223418   5.605   1.498   2.928
 7507SOL     OW23419   0.252   1.832   2.331
 7507SOL    HW123420   0.329   1.808   2.391
 7507SOL    HW223421   0.279   1.820   2.236
 7508SOL     OW23422   1.298   6.274   1.395
 7508SOL    HW123423   1.296   6.368   1.431
 7508SOL    HW223424   1.388   6.256   1.355
 7509SOL     OW23425   5.941   3.781   0.404
 7509SOL    HW123426   5.993   3.861   0.375
 7509SOL    HW223427   6.000   3.720   0.456
 7510SOL     OW23428   3.511   3.478   5.083
 7510SOL    HW123429   3.560   3.396   5.053
 7510SOL    HW223430   3.417   3.453   5.106
 7511SOL     OW23431   2.726   6.009   3.789
 7511SOL    HW123432   2.727   6.018   3.888
 7511SOL    HW223433   2.758   5.918   3.763
 7512SOL     OW23434   2.565   0.113   6.470
 7512SOL    HW123435   2.472   0.092   6.441
 7512SOL    HW223436   2.630   0.064   6.411
 7513SOL     OW23437   1.642   1.161   1.852
 7513SOL    HW123438   1.613   1.218   1.929
 7513SOL    HW223439   1.596   1.072   1.857
 7514SOL     OW23440   2.742   5.117   2.657
 7514SOL    HW123441   2.793   5.034   2.682
 7514SOL    HW223442   2.806   5.192   2.640
 7515SOL     OW23443   6.751   5.702   4.352
 7515SOL    HW123444   6.802   5.724   4.269
 7515SOL    HW223445   6.795   5.626   4.400
 7516SOL     OW23446   6.503   5.726   5.872
 7516SOL    HW123447   6.593   5.736   5.829
 7516SOL    HW223448   6.437   5.694   5.804
 7517SOL     OW23449   6.702   1.749   0.479
 7517SOL    HW123450   6.767   1.731   0.553
 7517SOL    HW223451   6.739   1.819   0.418
 7518SOL     OW23452   4.873   4.015   4.376
 7518SOL    HW123453   4.839   4.046   4.287
 7518SOL    HW223454   4.894   3.917   4.372
 7519SOL     OW23455   0.842   6.371   4.010
 7519SOL    HW123456   0.941   6.387   4.009
 7519SOL    HW223457   0.805   6.386   3.919
 7520SOL     OW23458   2.112   6.947   2.598
 7520SOL    HW123459   2.121   6.854   2.563
 7520SOL    HW223460   2.200   6.976   2.636
 7521SOL     OW23461   4.697   2.389   5.365
 7521SOL    HW123462   4.607   2.412   5.330
 7521SOL    HW223463   4.727   2.302   5.327
 7522SOL     OW23464   1.581   1.328   6.043
 7522SOL    HW123465   1.606   1.317   6.139
 7522SOL    HW223466   1.654   1.379   5.995
 7523SOL     OW23467   5.698   0.248   6.503
 7523SOL    HW123468   5.648   0.317   6.556
 7523SOL    HW223469   5.689   0.159   6.547
 7524SOL     OW23470   0.952   2.913   4.928
 7524SOL    HW123471   1.034   2.872   4.968
 7524SOL    HW223472   0.961   2.913   4.828
 7525SOL     OW23473   3.554   0.978   6.331
 7525SOL    HW123474   3.462   1.012   6.354
 7525SOL    HW223475   3.546   0.903   6.265
 7526SOL     OW23476   3.125   3.441   1.321
 7526SOL    HW123477   3.127   3.384   1.402
 7526SOL    HW223478   3.218   3.452   1.285
 7527SOL     OW23479   3.068   6.038   3.831
 7527SOL    HW123480   3.054   6.134   3.856
 7527SOL    HW223481   3.011   5.980   3.889
 7528SOL     OW23482   5.993   2.124   0.339
 7528SOL    HW123483   6.002   2.044   0.280
 7528SOL    HW223484   5.907   2.171   0.318
 7529SOL     OW23485   5.612   1.800   4.400
 7529SOL    HW123486   5.664   1.716   4.385
 7529SOL    HW223487   5.631   1.835   4.492
 7530SOL     OW23488   0.140   2.856   2.755
 7530SOL    HW123489   0.135   2.869   2.656
 7530SOL    HW223490   0.114   2.763   2.778
 7531SOL     OW23491   5.807   2.803   4.625
 7531SOL    HW123492   5.890   2.847   4.658
 7531SOL    HW223493   5.727   2.846   4.667
 7532SOL     OW23494   4.058   6.195   0.190
 7532SOL    HW123495   4.087   6.245   0.108
 7532SOL    HW223496   3.961   6.211   0.206
 7533SOL     OW23497   3.379   1.713   1.700
 7533SOL    HW123498   3.463   1.766   1.714
 7533SOL    HW223499   3.399   1.616   1.716
 7534SOL     OW23500   4.732   6.400   5.351
 7534SOL    HW123501   4.731   6.314   5.403
 7534SOL    HW223502   4.780   6.386   5.264
 7535SOL     OW23503   2.144   0.253   4.682
 7535SOL    HW123504   2.213   0.313   4.642
 7535SOL    HW223505   2.121   0.283   4.774
 7536SOL     OW23506   5.365   3.961   4.513
 7536SOL    HW123507   5.406   3.897   4.578
 7536SOL    HW223508   5.322   3.910   4.439
 7537SOL     OW23509   2.285   5.273   2.451
 7537SOL    HW123510   2.216   5.313   2.511
 7537SOL    HW223511   2.335   5.345   2.404
 7538SOL     OW23512   1.990   2.449   1.385
 7538SOL    HW123513   1.980   2.416   1.479
 7538SOL    HW223514   1.964   2.545   1.380
 7539SOL     OW23515   1.571   3.425   4.202
 7539SOL    HW123516   1.566   3.419   4.103
 7539SOL    HW223517   1.483   3.400   4.242
 7540SOL     OW23518   4.242   1.129   4.763
 7540SOL    HW123519   4.176   1.110   4.835
 7540SOL    HW223520   4.316   1.062   4.766
 7541SOL     OW23521   0.581   4.158   4.883
 7541SOL    HW123522   0.545   4.192   4.970
 7541SOL    HW223523   0.680   4.145   4.890
 7542SOL     OW23524   1.057   5.310   6.760
 7542SOL    HW123525   1.091   5.354   6.677
 7542SOL    HW223526   1.037   5.214   6.740
 7543SOL     OW23527   3.904   1.144   5.327
 7543SOL    HW123528   3.839   1.069   5.311
 7543SOL    HW223529   3.960   1.157   5.245
 7544SOL     OW23530   6.123   2.209   3.266
 7544SOL    HW123531   6.175   2.279   3.316
 7544SOL    HW223532   6.026   2.214   3.293
 7545SOL     OW23533   0.863   5.796   6.935
 7545SOL    HW123534   0.857   5.827   6.840
 7545SOL    HW223535   0.808   5.713   6.946
 7546SOL     OW23536   4.111   2.015   1.259
 7546SOL    HW123537   4.083   2.008   1.355
 7546SOL    HW223538   4.185   2.083   1.252
 7547SOL     OW23539   5.292   1.290   0.724
 7547SOL    HW123540   5.332   1.355   0.660
 7547SOL    HW223541   5.273   1.335   0.811
 7548SOL     OW23542   4.258   1.932   0.242
 7548SOL    HW123543   4.255   1.895   0.335
 7548SOL    HW223544   4.178   1.901   0.191
 7549SOL     OW23545   2.987   2.863   6.955
 7549SOL    HW123546   3.031   2.906   0.018
 7549SOL    HW223547   2.887   2.874   6.962
 7550SOL     OW23548   2.467   4.708   4.055
 7550SOL    HW123549   2.554   4.708   4.104
 7550SOL    HW223550   2.392   4.700   4.120
 7551SOL     OW23551   5.900   2.674   5.350
 7551SOL    HW123552   5.920   2.600   5.414
 7551SOL    HW223553   5.963   2.668   5.272
 7552SOL     OW23554   1.419   6.223   3.449
 7552SOL    HW123555   1.437   6.208   3.352
 7552SOL    HW223556   1.471   6.302   3.481
 7553SOL     OW23557   4.237   6.597   5.706
 7553SOL    HW123558   4.150   6.622   5.663
 7553SOL    HW223559   4.303   6.670   5.692
 7554SOL     OW23560   5.341   0.572   6.672
 7554SOL    HW123561   5.357   0.643   6.741
 7554SOL    HW223562   5.255   0.591   6.625
 7555SOL     OW23563   3.103   5.227   6.385
 7555SOL    HW123564   3.078   5.152   6.324
 7555SOL    HW223565   3.180   5.200   6.442
 7556SOL     OW23566   2.437   3.018   0.421
 7556SOL    HW123567   2.444   3.048   0.516
 7556SOL    HW223568   2.478   3.086   0.362
 7557SOL     OW23569   5.589   0.076   5.950
 7557SOL    HW123570   5.565   0.171   5.931
 7557SOL    HW223571   5.638   0.070   6.037
 7558SOL     OW23572   1.915   2.960   4.735
 7558SOL    HW123573   1.974   2.917   4.804
 7558SOL    HW223574   1.821   2.961   4.768
 7559SOL     OW23575   4.655   3.603   0.414
 7559SOL    HW123576   4.716   3.680   0.431
 7559SOL    HW223577   4.603   3.619   0.330
 7560SOL     OW23578   4.647   6.776   0.895
 7560SOL    HW123579   4.691   6.686   0.906
 7560SOL    HW223580   4.624   6.812   0.985
 7561SOL     OW23581   0.682   2.925   6.394
 7561SOL    HW123582   0.610   2.986   6.361
 7561SOL    HW223583   0.735   2.891   6.316
 7562SOL     OW23584   0.523   5.807   5.768
 7562SOL    HW123585   0.445   5.824   5.708
 7562SOL    HW223586   0.607   5.807   5.714
 7563SOL     OW23587   3.053   7.012   1.663
 7563SOL    HW123588   3.119   0.007   1.738
 7563SOL    HW223589   2.960   7.012   1.700
 7564SOL     OW23590   4.373   0.533   3.757
 7564SOL    HW123591   4.425   0.605   3.804
 7564SOL    HW223592   4.430   0.452   3.748
 7565SOL     OW23593   5.860   3.317   6.417
 7565SOL    HW123594   5.780   3.256   6.414
 7565SOL    HW223595   5.887   3.331   6.513
 7566SOL     OW23596   6.170   5.238   2.478
 7566SOL    HW123597   6.234   5.276   2.412
 7566SOL    HW223598   6.117   5.312   2.519
 7567SOL     OW23599   1.879   1.254   5.482
 7567SOL    HW123600   1.901   1.348   5.454
 7567SOL    HW223601   1.925   1.190   5.420
 7568SOL     OW23602   5.420   4.873   2.744
 7568SOL    HW123603   5.455   4.837   2.830
 7568SOL    HW223604   5.496   4.904   2.687
 7569SOL     OW23605   3.294   4.434   6.167
 7569SOL    HW123606   3.340   4.497   6.230
 7569SOL    HW223607   3.306   4.466   6.073
 7570SOL     OW23608   5.190   4.152   4.689
 7570SOL    HW123609   5.230   4.089   4.623
 7570SOL    HW223610   5.261   4.214   4.723
 7571SOL     OW23611   4.629   4.220   3.401
 7571SOL    HW123612   4.697   4.180   3.462
 7571SOL    HW223613   4.627   4.169   3.315
 7572SOL     OW23614   4.834   1.014   1.995
 7572SOL    HW123615   4.918   1.058   2.027
 7572SOL    HW223616   4.775   0.994   2.073
 7573SOL     OW23617   0.512   6.654   4.856
 7573SOL    HW123618   0.520   6.619   4.949
 7573SOL    HW223619   0.438   6.722   4.853
 7574SOL     OW23620   4.955   0.771   5.464
 7574SOL    HW123621   4.861   0.797   5.442
 7574SOL    HW223622   4.957   0.675   5.493
 7575SOL     OW23623   5.658   0.014   6.630
 7575SOL    HW123624   5.755   7.012   6.645
 7575SOL    HW223625   5.605   7.002   6.710
 7576SOL     OW23626   4.937   3.297   0.312
 7576SOL    HW123627   4.912   3.336   0.400
 7576SOL    HW223628   4.974   3.205   0.325
 7577SOL     OW23629   0.554   6.790   6.712
 7577SOL    HW123630   0.650   6.774   6.690
 7577SOL    HW223631   0.542   6.788   6.811
 7578SOL     OW23632   3.308   5.279   2.352
 7578SOL    HW123633   3.392   5.277   2.407
 7578SOL    HW223634   3.332   5.302   2.258
 7579SOL     OW23635   0.275   0.902   2.156
 7579SOL    HW123636   0.277   0.967   2.080
 7579SOL    HW223637   0.344   0.831   2.141
 7580SOL     OW23638   0.756   4.358   4.208
 7580SOL    HW123639   0.771   4.449   4.246
 7580SOL    HW223640   0.716   4.299   4.278
 7581SOL     OW23641   0.263   1.907   1.291
 7581SOL    HW123642   0.178   1.959   1.286
 7581SOL    HW223643   0.338   1.962   1.254
 7582SOL     OW23644   3.927   1.365   2.847
 7582SOL    HW123645   3.984   1.319   2.915
 7582SOL    HW223646   3.986   1.413   2.781
 7583SOL     OW23647   5.048   2.833   2.235
 7583SOL    HW123648   5.012   2.807   2.146
 7583SOL    HW223649   5.085   2.753   2.282
 7584SOL     OW23650   3.172   0.920   3.154
 7584SOL    HW123651   3.172   1.008   3.202
 7584SOL    HW223652   3.083   0.875   3.167
 7585SOL     OW23653   1.954   2.845   6.369
 7585SOL    HW123654   1.956   2.770   6.436
 7585SOL    HW223655   2.004   2.923   6.406
 7586SOL     OW23656   2.332   7.007   3.995
 7586SOL    HW123657   2.388   6.986   4.075
 7586SOL    HW223658   2.235   7.004   4.020
 7587SOL     OW23659   1.975   1.918   6.651
 7587SOL    HW123660   2.022   1.838   6.615
 7587SOL    HW223661   1.928   1.966   6.576
 7588SOL     OW23662   1.910   2.595   3.843
 7588SOL    HW123663   1.999   2.590   3.797
 7588SOL    HW223664   1.922   2.578   3.941
 7589SOL     OW23665   0.122   0.476   2.149
 7589SOL    HW123666   0.084   0.385   2.162
 7589SOL    HW223667   0.113   0.528   2.234
 7590SOL     OW23668   3.987   1.833   6.396
 7590SOL    HW123669   3.904   1.816   6.448
 7590SOL    HW223670   4.026   1.746   6.366
 7591SOL     OW23671   5.536   4.151   0.818
 7591SOL    HW123672   5.623   4.188   0.786
 7591SOL    HW223673   5.473   4.141   0.741
 7592SOL     OW23674   6.282   5.962   4.707
 7592SOL    HW123675   6.267   5.879   4.760
 7592SOL    HW223676   6.380   5.975   4.692
 7593SOL     OW23677   6.397   2.974   0.266
 7593SOL    HW123678   6.404   3.073   0.273
 7593SOL    HW223679   6.446   2.931   0.342
 7594SOL     OW23680   1.556   4.360   2.195
 7594SOL    HW123681   1.585   4.326   2.105
 7594SOL    HW223682   1.637   4.377   2.251
 7595SOL     OW23683   6.146   2.965   5.929
 7595SOL    HW123684   6.231   3.012   5.953
 7595SOL    HW223685   6.136   2.882   5.983
 7596SOL     OW23686   3.728   6.270   4.176
 7596SOL    HW123687   3.636   6.230   4.168
 7596SOL    HW223688   3.794   6.210   4.131
 7597SOL     OW23689   1.721   6.655   2.939
 7597SOL    HW123690   1.627   6.670   2.910
 7597SOL    HW223691   1.759   6.577   2.888
 7598SOL     OW23692   6.921   0.526   3.178
 7598SOL    HW123693   6.886   0.490   3.092
 7598SOL    HW223694   6.965   0.453   3.230
 7599SOL     OW23695   5.518   2.449   2.481
 7599SOL    HW123696   5.428   2.492   2.474
 7599SOL    HW223697   5.510   2.367   2.538
 7600SOL     OW23698   1.118   1.580   3.442
 7600SOL    HW123699   1.126   1.677   3.419
 7600SOL    HW223700   1.199   1.552   3.494
 7601SOL     OW23701   2.639   4.923   2.217
 7601SOL    HW123702   2.724   4.882   2.184
 7601SOL    HW223703   2.561   4.867   2.190
 7602SOL     OW23704   1.597   3.894   6.837
 7602SOL    HW123705   1.559   3.977   6.796
 7602SOL    HW223706   1.621   3.912   6.933
 7603SOL     OW23707   1.950   5.511   6.362
 7603SOL    HW123708   1.973   5.445   6.434
 7603SOL    HW223709   1.908   5.463   6.285
 7604SOL     OW23710   1.630   2.823   4.136
 7604SOL    HW123711   1.698   2.887   4.174
 7604SOL    HW223712   1.539   2.862   4.147
 7605SOL     OW23713   1.244   0.900   0.985
 7605SOL    HW123714   1.267   0.935   1.076
 7605SOL    HW223715   1.311   0.930   0.918
 7606SOL     OW23716   5.948   3.114   4.666
 7606SOL    HW123717   5.963   3.210   4.688
 7606SOL    HW223718   5.955   3.100   4.568
 7607SOL     OW23719   3.498   4.782   0.467
 7607SOL    HW123720   3.482   4.842   0.545
 7607SOL    HW223721   3.426   4.714   0.462
 7608SOL     OW23722   4.016   3.860   1.011
 7608SOL    HW123723   4.028   3.810   1.096
 7608SOL    HW223724   3.981   3.952   1.031
 7609SOL     OW23725   1.814   2.978   4.301
 7609SOL    HW123726   1.887   2.926   4.346
 7609SOL    HW223727   1.779   3.048   4.363
 7610SOL     OW23728   4.277   4.468   6.433
 7610SOL    HW123729   4.371   4.463   6.465
 7610SOL    HW223730   4.273   4.520   6.347
 7611SOL     OW23731   5.313   3.725   1.528
 7611SOL    HW123732   5.312   3.797   1.597
 7611SOL    HW223733   5.279   3.760   1.441
 7612SOL     OW23734   4.933   3.250   2.357
 7612SOL    HW123735   4.962   3.157   2.379
 7612SOL    HW223736   4.918   3.258   2.258
 7613SOL     OW23737   0.462   2.077   1.172
 7613SOL    HW123738   0.527   2.047   1.103
 7613SOL    HW223739   0.393   2.135   1.130
 7614SOL     OW23740   5.462   2.875   0.523
 7614SOL    HW123741   5.455   2.794   0.581
 7614SOL    HW223742   5.391   2.940   0.547
 7615SOL     OW23743   4.318   4.715   0.049
 7615SOL    HW123744   4.411   4.694   0.079
 7615SOL    HW223745   4.319   4.745   6.970
 7616SOL     OW23746   6.536   6.305   4.818
 7616SOL    HW123747   6.633   6.315   4.796
 7616SOL    HW223748   6.525   6.252   4.902
 7617SOL     OW23749   3.563   6.223   3.531
 7617SOL    HW123750   3.626   6.262   3.464
 7617SOL    HW223751   3.509   6.296   3.573
 7618SOL     OW23752   0.334   2.302   6.122
 7618SOL    HW123753   0.395   2.370   6.083
 7618SOL    HW223754   0.248   2.301   6.072
 7619SOL     OW23755   6.512   3.124   4.579
 7619SOL    HW123756   6.422   3.128   4.536
 7619SOL    HW223757   6.515   3.049   4.646
 7620SOL     OW23758   4.107   5.721   1.610
 7620SOL    HW123759   4.030   5.722   1.673
 7620SOL    HW223760   4.159   5.636   1.622
 7621SOL     OW23761   0.033   1.132   0.835
 7621SOL    HW123762   0.040   1.207   0.901
 7621SOL    HW223763   6.960   1.137   0.789
 7622SOL     OW23764   4.458   4.740   6.039
 7622SOL    HW123765   4.387   4.782   5.983
 7622SOL    HW223766   4.543   4.792   6.030
 7623SOL     OW23767   4.775   4.350   6.820
 7623SOL    HW123768   4.716   4.421   6.858
 7623SOL    HW223769   4.776   4.357   6.721
 7624SOL     OW23770   6.643   3.722   4.642
 7624SOL    HW123771   6.727   3.671   4.624
 7624SOL    HW223772   6.626   3.786   4.568
 7625SOL     OW23773   5.177   1.033   0.069
 7625SOL    HW123774   5.242   1.017   0.144
 7625SOL    HW223775   5.089   0.993   0.092
 7626SOL     OW23776   6.528   0.243   5.368
 7626SOL    HW123777   6.536   0.201   5.278
 7626SOL    HW223778   6.539   0.173   5.438
 7627SOL     OW23779   4.123   3.261   0.544
 7627SOL    HW123780   4.143   3.166   0.565
 7627SOL    HW223781   4.185   3.293   0.472
 7628SOL     OW23782   3.388   2.871   1.998
 7628SOL    HW123783   3.388   2.969   1.976
 7628SOL    HW223784   3.413   2.859   2.094
 7629SOL     OW23785   0.018   5.032   3.750
 7629SOL    HW123786   0.100   5.057   3.802
 7629SOL    HW223787   0.007   4.933   3.750
 7630SOL     OW23788   0.874   0.734   0.782
 7630SOL    HW123789   0.959   0.682   0.776
 7630SOL    HW223790   0.809   0.685   0.841
 7631SOL     OW23791   1.255   2.502   5.693
 7631SOL    HW123792   1.172   2.448   5.706
 7631SOL    HW223793   1.322   2.478   5.764
 7632SOL     OW23794   4.916   3.974   0.739
 7632SOL    HW123795   4.945   4.069   0.749
 7632SOL    HW223796   4.827   3.971   0.693
 7633SOL     OW23797   5.365   0.626   1.744
 7633SOL    HW123798   5.270   0.655   1.750
 7633SOL    HW223799   5.407   0.629   1.835
 7634SOL     OW23800   2.149   1.403   2.256
 7634SOL    HW123801   2.078   1.463   2.218
 7634SOL    HW223802   2.235   1.454   2.263
 7635SOL     OW23803   3.356   4.801   5.187
 7635SOL    HW123804   3.359   4.859   5.105
 7635SOL    HW223805   3.268   4.755   5.191
 7636SOL     OW23806   1.346   3.121   4.174
 7636SOL    HW123807   1.379   3.206   4.213
 7636SOL    HW223808   1.246   3.125   4.166
 7637SOL     OW23809   2.726   6.254   2.333
 7637SOL    HW123810   2.749   6.158   2.351
 7637SOL    HW223811   2.721   6.304   2.420
 7638SOL     OW23812   2.081   5.463   1.776
 7638SOL    HW123813   1.987   5.472   1.744
 7638SOL    HW223814   2.123   5.384   1.732
 7639SOL     OW23815   0.641   1.120   1.028
 7639SOL    HW123816   0.619   1.093   0.934
 7639SOL    HW223817   0.645   1.220   1.033
 7640SOL     OW23818   2.814   1.398   5.725
 7640SOL    HW123819   2.870   1.410   5.643
 7640SOL    HW223820   2.769   1.308   5.722
 7641SOL     OW23821   1.052   3.493   2.720
 7641SOL    HW123822   1.040   3.479   2.622
 7641SOL    HW223823   1.061   3.404   2.766
 7642SOL     OW23824   3.321   1.551   2.693
 7642SOL    HW123825   3.347   1.588   2.783
 7642SOL    HW223826   3.355   1.612   2.621
 7643SOL     OW23827   5.321   2.241   3.016
 7643SOL    HW123828   5.365   2.311   2.959
 7643SOL    HW223829   5.367   2.238   3.105
 7644SOL     OW23830   4.556   2.421   2.019
 7644SOL    HW123831   4.598   2.331   2.031
 7644SOL    HW223832   4.618   2.479   1.966
 7645SOL     OW23833   5.221   3.731   5.899
 7645SOL    HW123834   5.233   3.785   5.816
 7645SOL    HW223835   5.291   3.755   5.966
 7646SOL     OW23836   1.461   2.920   4.367
 7646SOL    HW123837   1.428   2.826   4.353
 7646SOL    HW223838   1.398   2.984   4.324
 7647SOL     OW23839   6.726   2.304   3.706
 7647SOL    HW123840   6.823   2.294   3.684
 7647SOL    HW223841   6.708   2.266   3.797
 7648SOL     OW23842   2.529   1.833   2.456
 7648SOL    HW123843   2.493   1.852   2.364
 7648SOL    HW223844   2.483   1.891   2.523
 7649SOL     OW23845   1.412   0.741   3.813
 7649SOL    HW123846   1.465   0.825   3.826
 7649SOL    HW223847   1.468   0.662   3.840
 7650SOL     OW23848   5.570   0.535   0.254
 7650SOL    HW123849   5.619   0.529   0.341
 7650SOL    HW223850   5.633   0.512   0.179
 7651SOL     OW23851   2.131   0.615   4.290
 7651SOL    HW123852   2.212   0.600   4.346
 7651SOL    HW223853   2.060   0.551   4.317
 7652SOL     OW23854   5.511   2.518   4.591
 7652SOL    HW123855   5.420   2.533   4.631
 7652SOL    HW223856   5.528   2.586   4.521
 7653SOL     OW23857   0.537   1.765   0.114
 7653SOL    HW123858   0.627   1.809   0.109
 7653SOL    HW223859   0.549   1.668   0.135
 7654SOL     OW23860   4.902   2.891   4.138
 7654SOL    HW123861   4.858   2.953   4.202
 7654SOL    HW223862   5.000   2.885   4.159
 7655SOL     OW23863   4.229   6.468   3.891
 7655SOL    HW123864   4.206   6.417   3.809
 7655SOL    HW223865   4.238   6.565   3.869
 7656SOL     OW23866   4.129   3.925   6.990
 7656SOL    HW123867   4.121   3.826   7.004
 7656SOL    HW223868   4.221   3.947   6.958
 7657SOL     OW23869   1.441   2.072   3.324
 7657SOL    HW123870   1.419   2.060   3.421
 7657SOL    HW223871   1.464   1.983   3.284
 7658SOL     OW23872   2.927   0.183   0.179
 7658SOL    HW123873   3.014   0.137   0.200
 7658SOL    HW223874   2.912   0.182   0.081
 7659SOL     OW23875   5.223   4.652   6.644
 7659SOL    HW123876   5.318   4.647   6.674
 7659SOL    HW223877   5.194   4.747   6.638
 7660SOL     OW23878   6.763   5.876   3.682
 7660SOL    HW123879   6.762   5.780   3.653
 7660SOL    HW223880   6.704   5.929   3.621
 7661SOL     OW23881   5.601   2.249   5.481
 7661SOL    HW123882   5.698   2.233   5.499
 7661SOL    HW223883   5.576   2.203   5.396
 7662SOL     OW23884   1.128   3.401   4.609
 7662SOL    HW123885   1.097   3.360   4.695
 7662SOL    HW223886   1.222   3.433   4.619
 7663SOL     OW23887   6.178   4.869   6.096
 7663SOL    HW123888   6.173   4.927   6.178
 7663SOL    HW223889   6.090   4.825   6.081
 7664SOL     OW23890   4.234   0.700   1.879
 7664SOL    HW123891   4.187   0.650   1.952
 7664SOL    HW223892   4.278   0.782   1.918
 7665SOL     OW23893   6.183   0.695   5.143
 7665SOL    HW123894   6.273   0.738   5.146
 7665SOL    HW223895   6.153   0.676   5.237
 7666SOL     OW23896   0.425   4.683   2.459
 7666SOL    HW123897   0.508   4.660   2.509
 7666SOL    HW223898   0.359   4.608   2.469
 7667SOL     OW23899   3.894   0.506   2.394
 7667SOL    HW123900   3.883   0.605   2.404
 7667SOL    HW223901   3.989   0.485   2.372
 7668SOL     OW23902   2.943   5.252   0.612
 7668SOL    HW123903   2.968   5.348   0.611
 7668SOL    HW223904   3.014   5.199   0.658
 7669SOL     OW23905   4.671   1.144   5.354
 7669SOL    HW123906   4.769   1.158   5.338
 7669SOL    HW223907   4.620   1.166   5.271
 7670SOL     OW23908   0.481   5.214   0.703
 7670SOL    HW123909   0.498   5.129   0.652
 7670SOL    HW223910   0.566   5.265   0.713
 7671SOL     OW23911   3.764   1.315   2.158
 7671SOL    HW123912   3.799   1.248   2.224
 7671SOL    HW223913   3.822   1.396   2.160
 7672SOL     OW23914   0.444   5.650   3.038
 7672SOL    HW123915   0.435   5.726   3.102
 7672SOL    HW223916   0.511   5.674   2.967
 7673SOL     OW23917   2.243   6.093   1.869
 7673SOL    HW123918   2.184   6.065   1.793
 7673SOL    HW223919   2.270   6.012   1.921
 7674SOL     OW23920   5.152   1.237   3.699
 7674SOL    HW123921   5.221   1.180   3.656
 7674SOL    HW223922   5.182   1.263   3.791
 7675SOL     OW23923   5.798   6.528   3.267
 7675SOL    HW123924   5.738   6.479   3.330
 7675SOL    HW223925   5.876   6.470   3.243
 7676SOL     OW23926   2.767   2.150   0.296
 7676SOL    HW123927   2.734   2.124   0.205
 7676SOL    HW223928   2.807   2.071   0.341
 7677SOL     OW23929   0.368   4.216   1.824
 7677SOL    HW123930   0.360   4.309   1.788
 7677SOL    HW223931   0.277   4.184   1.853
 7678SOL     OW23932   2.403   2.756   5.213
 7678SOL    HW123933   2.317   2.732   5.169
 7678SOL    HW223934   2.430   2.849   5.185
 7679SOL     OW23935   2.807   6.477   5.650
 7679SOL    HW123936   2.796   6.492   5.748
 7679SOL    HW223937   2.775   6.385   5.627
 7680SOL     OW23938   1.594   0.927   1.075
 7680SOL    HW123939   1.572   0.915   0.979
 7680SOL    HW223940   1.688   0.897   1.092
 7681SOL     OW23941   2.974   0.354   0.683
 7681SOL    HW123942   2.985   0.292   0.605
 7681SOL    HW223943   3.059   0.355   0.736
 7682SOL     OW23944   4.190   6.974   2.014
 7682SOL    HW123945   4.120   6.973   1.942
 7682SOL    HW223946   4.226   0.050   2.024
 7683SOL     OW23947   0.126   1.522   5.149
 7683SOL    HW123948   0.124   1.578   5.232
 7683SOL    HW223949   0.161   1.578   5.073
 7684SOL     OW23950   4.367   1.421   0.979
 7684SOL    HW123951   4.283   1.471   0.958
 7684SOL    HW223952   4.381   1.420   1.078
 7685SOL     OW23953   2.612   1.591   5.817
 7685SOL    HW123954   2.523   1.588   5.772
 7685SOL    HW223955   2.654   1.501   5.814
 7686SOL     OW23956   6.716   6.688   3.349
 7686SOL    HW123957   6.720   6.589   3.363
 7686SOL    HW223958   6.784   6.733   3.406
 7687SOL     OW23959   6.259   5.312   4.800
 7687SOL    HW123960   6.223   5.259   4.723
 7687SOL    HW223961   6.343   5.359   4.771
 7688SOL     OW23962   0.408   6.044   6.001
 7688SOL    HW123963   0.421   6.135   5.962
 7688SOL    HW223964   0.408   5.976   5.928
 7689SOL     OW23965   5.917   6.725   2.829
 7689SOL    HW123966   6.007   6.767   2.819
 7689SOL    HW223967   5.846   6.791   2.804
 7690SOL     OW23968   5.959   5.172   6.851
 7690SOL    HW123969   5.994   5.105   6.916
 7690SOL    HW223970   5.869   5.204   6.883
 7691SOL     OW23971   5.358   4.091   3.203
 7691SOL    HW123972   5.270   4.044   3.213
 7691SOL    HW223973   5.408   4.051   3.127
 7692SOL     OW23974   0.235   6.249   2.097
 7692SOL    HW123975   0.219   6.230   2.001
 7692SOL    HW223976   0.325   6.214   2.124
 7693SOL     OW23977   3.278   0.800   1.896
 7693SOL    HW123978   3.200   0.768   1.841
 7693SOL    HW223979   3.251   0.883   1.945
 7694SOL     OW23980   5.430   3.850   3.715
 7694SOL    HW123981   5.338   3.845   3.754
 7694SOL    HW223982   5.423   3.877   3.619
 7695SOL     OW23983   4.943   0.446   1.347
 7695SOL    HW123984   4.995   0.362   1.361
 7695SOL    HW223985   4.866   0.428   1.286
 7696SOL     OW23986   0.155   1.319   5.943
 7696SOL    HW123987   0.247   1.281   5.938
 7696SOL    HW223988   0.146   1.374   6.026
 7697SOL     OW23989   3.011   0.192   3.614
 7697SOL    HW123990   2.947   0.116   3.625
 7697SOL    HW223991   3.057   0.183   3.525
 7698SOL     OW23992   5.979   1.408   3.750
 7698SOL    HW123993   5.976   1.408   3.650
 7698SOL    HW223994   6.072   1.388   3.780
 7699SOL     OW23995   2.595   5.731   5.700
 7699SOL    HW123996   2.550   5.756   5.614
 7699SOL    HW223997   2.584   5.633   5.716
 7700SOL     OW23998   4.345   5.491   3.190
 7700SOL    HW123999   4.343   5.421   3.118
 7700SOL    HW224000   4.373   5.449   3.276
 7701SOL     OW24001   6.712   2.539   6.575
 7701SOL    HW124002   6.740   2.632   6.598
 7701SOL    HW224003   6.745   2.476   6.645
 7702SOL     OW24004   4.704   6.018   5.180
 7702SOL    HW124005   4.793   6.004   5.138
 7702SOL    HW224006   4.635   6.031   5.109
 7703SOL     OW24007   5.932   5.624   6.554
 7703SOL    HW124008   5.853   5.658   6.502
 7703SOL    HW224009   5.999   5.697   6.564
 7704SOL     OW24010   5.939   0.496   3.726
 7704SOL    HW124011   6.010   0.562   3.753
 7704SOL    HW224012   5.851   0.542   3.722
 7705SOL     OW24013   2.502   5.650   0.914
 7705SOL    HW124014   2.410   5.656   0.951
 7705SOL    HW224015   2.543   5.741   0.910
 7706SOL     OW24016   3.632   3.197   3.885
 7706SOL    HW124017   3.637   3.107   3.841
 7706SOL    HW224018   3.564   3.195   3.958
 7707SOL     OW24019   6.897   3.836   5.922
 7707SOL    HW124020   6.802   3.817   5.947
 7707SOL    HW224021   6.900   3.904   5.849
 7708SOL     OW24022   1.204   6.518   5.315
 7708SOL    HW124023   1.109   6.545   5.298
 7708SOL    HW224024   1.215   6.422   5.290
 7709SOL     OW24025   6.820   4.993   1.830
 7709SOL    HW124026   6.726   5.006   1.797
 7709SOL    HW224027   6.880   5.059   1.786
 7710SOL     OW24028   2.289   2.457   0.491
 7710SOL    HW124029   2.382   2.467   0.454
 7710SOL    HW224030   2.223   2.461   0.416
 7711SOL     OW24031   6.173   5.709   6.007
 7711SOL    HW124032   6.182   5.651   6.088
 7711SOL    HW224033   6.111   5.784   6.027
 7712SOL     OW24034   6.184   5.329   0.729
 7712SOL    HW124035   6.190   5.250   0.790
 7712SOL    HW224036   6.189   5.298   0.634
 7713SOL     OW24037   1.396   4.255   0.780
 7713SOL    HW124038   1.419   4.348   0.808
 7713SOL    HW224039   1.477   4.197   0.786
 7714SOL     OW24040   6.887   5.044   5.610
 7714SOL    HW124041   6.977   5.029   5.650
 7714SOL    HW224042   6.891   5.027   5.511
 7715SOL     OW24043   2.801   2.318   6.794
 7715SOL    HW124044   2.799   2.326   6.893
 7715SOL    HW224045   2.801   2.410   6.753
 7716SOL     OW24046   6.980   4.250   0.743
 7716SOL    HW124047   6.988   4.151   0.737
 7716SOL    HW224048   6.946   4.287   0.656
 7717SOL     OW24049   0.991   1.085   5.654
 7717SOL    HW124050   0.899   1.101   5.617
 7717SOL    HW224051   0.984   1.060   5.751
 7718SOL     OW24052   6.613   4.010   3.129
 7718SOL    HW124053   6.527   4.061   3.131
 7718SOL    HW224054   6.665   4.029   3.212
 7719SOL     OW24055   0.172   4.284   4.861
 7719SOL    HW124056   0.088   4.230   4.867
 7719SOL    HW224057   0.153   4.379   4.887
 7720SOL     OW24058   6.150   2.613   6.518
 7720SOL    HW124059   6.186   2.656   6.601
 7720SOL    HW224060   6.226   2.572   6.467
 7721SOL     OW24061   0.693   5.336   2.149
 7721SOL    HW124062   0.656   5.244   2.145
 7721SOL    HW224063   0.689   5.378   2.058
 7722SOL     OW24064   1.629   4.114   3.826
 7722SOL    HW124065   1.666   4.103   3.734
 7722SOL    HW224066   1.690   4.172   3.880
 7723SOL     OW24067   4.013   3.408   6.979
 7723SOL    HW124068   4.013   3.311   6.953
 7723SOL    HW224069   3.919   3.442   6.977
 7724SOL     OW24070   2.822   3.998   0.979
 7724SOL    HW124071   2.838   3.990   1.077
 7724SOL    HW224072   2.852   3.914   0.933
 7725SOL     OW24073   6.067   1.358   2.614
 7725SOL    HW124074   6.043   1.293   2.541
 7725SOL    HW224075   6.146   1.323   2.664
 7726SOL     OW24076   1.870   4.927   5.992
 7726SOL    HW124077   1.966   4.900   6.007
 7726SOL    HW224078   1.814   4.845   5.979
 7727SOL     OW24079   6.949   2.380   2.149
 7727SOL    HW124080   6.959   2.423   2.059
 7727SOL    HW224081   6.891   2.437   2.207
 7728SOL     OW24082   2.119   2.843   5.103
 7728SOL    HW124083   2.056   2.891   5.164
 7728SOL    HW224084   2.206   2.892   5.100
 7729SOL     OW24085   6.137   1.304   1.884
 7729SOL    HW124086   6.141   1.368   1.806
 7729SOL    HW224087   6.169   1.351   1.966
 7730SOL     OW24088   6.585   4.950   5.937
 7730SOL    HW124089   6.525   4.898   5.876
 7730SOL    HW224090   6.538   4.965   6.025
 7731SOL     OW24091   5.980   0.213   0.093
 7731SOL    HW124092   5.980   0.197   7.011
 7731SOL    HW224093   6.074   0.218   0.127
 7732SOL     OW24094   4.086   0.100   0.348
 7732SOL    HW124095   3.988   0.082   0.357
 7732SOL    HW224096   4.103   0.147   0.262
 7733SOL     OW24097   5.238   6.265   2.288
 7733SOL    HW124098   5.186   6.261   2.373
 7733SOL    HW224099   5.203   6.339   2.231
 7734SOL     OW24100   1.663   4.964   4.847
 7734SOL    HW124101   1.715   4.905   4.909
 7734SOL    HW224102   1.608   4.907   4.785
 7735SOL     OW24103   4.897   6.065   6.458
 7735SOL    HW124104   4.912   5.970   6.484
 7735SOL    HW224105   4.864   6.069   6.364
 7736SOL     OW24106   2.361   3.233   0.050
 7736SOL    HW124107   2.330   3.314   0.100
 7736SOL    HW224108   2.437   3.258   7.006
 7737SOL     OW24109   3.343   0.587   2.913
 7737SOL    HW124110   3.419   0.525   2.897
 7737SOL    HW224111   3.377   0.675   2.946
 7738SOL     OW24112   3.190   5.362   0.317
 7738SOL    HW124113   3.119   5.309   0.270
 7738SOL    HW224114   3.147   5.436   0.369
 7739SOL     OW24115   0.978   2.436   1.653
 7739SOL    HW124116   0.907   2.370   1.677
 7739SOL    HW224117   0.961   2.472   1.561
 7740SOL     OW24118   2.848   1.047   3.374
 7740SOL    HW124119   2.794   1.129   3.352
 7740SOL    HW224120   2.944   1.065   3.356
 7741SOL     OW24121   0.462   4.609   5.001
 7741SOL    HW124122   0.482   4.596   4.904
 7741SOL    HW224123   0.546   4.633   5.049
 7742SOL     OW24124   4.401   2.380   3.036
 7742SOL    HW124125   4.446   2.446   2.976
 7742SOL    HW224126   4.321   2.342   2.989
 7743SOL     OW24127   4.460   1.494   6.984
 7743SOL    HW124128   4.491   1.418   0.026
 7743SOL    HW224129   4.505   1.578   7.014
 7744SOL     OW24130   1.190   0.550   4.140
 7744SOL    HW124131   1.128   0.561   4.062
 7744SOL    HW224132   1.256   0.477   4.120
 7745SOL     OW24133   3.550   1.046   0.108
 7745SOL    HW124134   3.540   1.041   0.009
 7745SOL    HW224135   3.511   0.964   0.150
 7746SOL     OW24136   0.775   0.445   0.673
 7746SOL    HW124137   0.855   0.421   0.618
 7746SOL    HW224138   0.692   0.432   0.619
 7747SOL     OW24139   6.427   6.291   0.913
 7747SOL    HW124140   6.347   6.233   0.898
 7747SOL    HW224141   6.434   6.359   0.840
 7748SOL     OW24142   3.268   3.854   4.121
 7748SOL    HW124143   3.175   3.844   4.158
 7748SOL    HW224144   3.288   3.778   4.060
 7749SOL     OW24145   3.345   3.195   4.969
 7749SOL    HW124146   3.256   3.178   4.928
 7749SOL    HW224147   3.333   3.244   5.055
 7750SOL     OW24148   6.916   5.901   0.184
 7750SOL    HW124149   6.982   5.924   0.113
 7750SOL    HW224150   6.941   5.814   0.226
 7751SOL     OW24151   1.340   2.631   2.704
 7751SOL    HW124152   1.259   2.628   2.646
 7751SOL    HW224153   1.317   2.671   2.792
 7752SOL     OW24154   5.683   6.382   5.762
 7752SOL    HW124155   5.616   6.307   5.754
 7752SOL    HW224156   5.635   6.466   5.788
 7753SOL     OW24157   2.173   0.540   3.978
 7753SOL    HW124158   2.114   0.615   4.007
 7753SOL    HW224159   2.127   0.487   3.906
 7754SOL     OW24160   4.813   6.830   2.054
 7754SOL    HW124161   4.906   6.797   2.035
 7754SOL    HW224162   4.771   6.774   2.125
 7755SOL     OW24163   1.330   2.352   5.924
 7755SOL    HW124164   1.337   2.272   5.983
 7755SOL    HW224165   1.418   2.369   5.879
 7756SOL     OW24166   3.508   5.171   2.511
 7756SOL    HW124167   3.606   5.159   2.522
 7756SOL    HW224168   3.465   5.173   2.602
 7757SOL     OW24169   5.648   5.507   4.822
 7757SOL    HW124170   5.549   5.496   4.834
 7757SOL    HW224171   5.691   5.521   4.911
 7758SOL     OW24172   1.048   1.894   0.310
 7758SOL    HW124173   1.060   1.796   0.328
 7758SOL    HW224174   1.073   1.913   0.215
 7759SOL     OW24175   1.072   2.066   5.468
 7759SOL    HW124176   1.052   2.072   5.371
 7759SOL    HW224177   1.155   2.010   5.481
 7760SOL     OW24178   5.772   3.186   2.907
 7760SOL    HW124179   5.809   3.269   2.866
 7760SOL    HW224180   5.780   3.191   3.007
 7761SOL     OW24181   1.167   6.890   6.193
 7761SOL    HW124182   1.262   6.878   6.162
 7761SOL    HW224183   1.105   6.851   6.126
 7762SOL     OW24184   4.568   0.407   4.106
 7762SOL    HW124185   4.647   0.464   4.129
 7762SOL    HW224186   4.497   0.463   4.063
 7763SOL     OW24187   1.215   1.709   0.224
 7763SOL    HW124188   1.228   1.778   0.153
 7763SOL    HW224189   1.300   1.699   0.277
 7764SOL     OW24190   3.598   2.974   3.274
 7764SOL    HW124191   3.691   2.939   3.283
 7764SOL    HW224192   3.538   2.926   3.336
 7765SOL     OW24193   6.129   2.224   3.863
 7765SOL    HW124194   6.154   2.155   3.795
 7765SOL    HW224195   6.120   2.180   3.953
 7766SOL     OW24196   5.493   2.437   6.527
 7766SOL    HW124197   5.456   2.530   6.526
 7766SOL    HW224198   5.424   2.374   6.563
 7767SOL     OW24199   4.200   6.780   4.003
 7767SOL    HW124200   4.225   6.839   3.926
 7767SOL    HW224201   4.283   6.751   4.051
 7768SOL     OW24202   4.180   4.687   2.613
 7768SOL    HW124203   4.139   4.704   2.703
 7768SOL    HW224204   4.112   4.707   2.542
 7769SOL     OW24205   4.797   2.935   2.581
 7769SOL    HW124206   4.786   2.939   2.482
 7769SOL    HW224207   4.783   3.027   2.619
 7770SOL     OW24208   1.395   4.087   1.985
 7770SOL    HW124209   1.358   4.170   1.942
 7770SOL    HW224210   1.409   4.104   2.083
 7771SOL     OW24211   3.162   1.942   5.220
 7771SOL    HW124212   3.227   1.991   5.277
 7771SOL    HW224213   3.087   2.003   5.195
 7772SOL     OW24214   5.459   0.679   2.720
 7772SOL    HW124215   5.430   0.689   2.815
 7772SOL    HW224216   5.554   0.647   2.717
 7773SOL     OW24217   2.817   5.774   4.614
 7773SOL    HW124218   2.888   5.844   4.613
 7773SOL    HW224219   2.727   5.817   4.616
 7774SOL     OW24220   5.328   1.885   5.882
 7774SOL    HW124221   5.286   1.795   5.897
 7774SOL    HW224222   5.384   1.882   5.799
 7775SOL     OW24223   4.317   6.498   2.475
 7775SOL    HW124224   4.412   6.515   2.502
 7775SOL    HW224225   4.316   6.442   2.392
 7776SOL     OW24226   1.855   4.752   0.257
 7776SOL    HW124227   1.806   4.815   0.197
 7776SOL    HW224228   1.943   4.728   0.217
 7777SOL     OW24229   1.224   0.690   4.610
 7777SOL    HW124230   1.227   0.650   4.702
 7777SOL    HW224231   1.184   0.623   4.547
 7778SOL     OW24232   5.024   4.498   0.661
 7778SOL    HW124233   5.042   4.528   0.567
 7778SOL    HW224234   5.038   4.574   0.724
 7779SOL     OW24235   2.970   2.561   0.998
 7779SOL    HW124236   2.911   2.636   1.029
 7779SOL    HW224237   3.049   2.554   1.059
 7780SOL     OW24238   0.601   5.307   5.444
 7780SOL    HW124239   0.602   5.240   5.370
 7780SOL    HW224240   0.556   5.268   5.525
 7781SOL     OW24241   1.212   4.899   0.261
 7781SOL    HW124242   1.256   4.917   0.349
 7781SOL    HW224243   1.171   4.983   0.227
 7782SOL     OW24244   0.196   4.764   4.486
 7782SOL    HW124245   0.168   4.836   4.423
 7782SOL    HW224246   0.166   4.787   4.579
 7783SOL     OW24247   0.874   5.866   4.452
 7783SOL    HW124248   0.953   5.805   4.437
 7783SOL    HW224249   0.904   5.947   4.503
 7784SOL     OW24250   3.070   3.081   1.149
 7784SOL    HW124251   3.127   3.110   1.226
 7784SOL    HW224252   2.995   3.146   1.136
 7785SOL     OW24253   1.545   6.264   3.834
 7785SOL    HW124254   1.530   6.222   3.924
 7785SOL    HW224255   1.475   6.231   3.770
 7786SOL     OW24256   3.149   6.474   6.695
 7786SOL    HW124257   3.064   6.433   6.662
 7786SOL    HW224258   3.227   6.420   6.664
 7787SOL     OW24259   2.527   2.837   6.314
 7787SOL    HW124260   2.593   2.874   6.379
 7787SOL    HW224261   2.574   2.808   6.230
 7788SOL     OW24262   2.158   5.287   1.572
 7788SOL    HW124263   2.196   5.377   1.552
 7788SOL    HW224264   2.089   5.264   1.503
 7789SOL     OW24265   2.122   6.702   6.398
 7789SOL    HW124266   2.114   6.756   6.481
 7789SOL    HW224267   2.123   6.605   6.421
 7790SOL     OW24268   5.172   5.084   3.187
 7790SOL    HW124269   5.264   5.046   3.173
 7790SOL    HW224270   5.170   5.135   3.273
 7791SOL     OW24271   2.505   5.980   3.564
 7791SOL    HW124272   2.577   6.028   3.513
 7791SOL    HW224273   2.473   6.037   3.639
 7792SOL     OW24274   1.600   4.881   5.330
 7792SOL    HW124275   1.637   4.968   5.296
 7792SOL    HW224276   1.551   4.835   5.256
 7793SOL     OW24277   3.220   0.788   0.085
 7793SOL    HW124278   3.149   0.785   0.156
 7793SOL    HW224279   3.287   0.717   0.102
 7794SOL     OW24280   5.697   4.890   3.197
 7794SOL    HW124281   5.791   4.895   3.162
 7794SOL    HW224282   5.700   4.860   3.293
 7795SOL     OW24283   2.325   3.699   5.289
 7795SOL    HW124284   2.363   3.783   5.250
 7795SOL    HW224285   2.308   3.712   5.387
 7796SOL     OW24286   3.684   4.126   3.409
 7796SOL    HW124287   3.718   4.084   3.493
 7796SOL    HW224288   3.721   4.076   3.330
 7797SOL     OW24289   1.429   6.979   2.744
 7797SOL    HW124290   1.408   0.041   2.804
 7797SOL    HW224291   1.501   7.004   2.680
 7798SOL     OW24292   2.222   4.463   5.952
 7798SOL    HW124293   2.177   4.543   5.912
 7798SOL    HW224294   2.261   4.407   5.879
 7799SOL     OW24295   1.212   6.061   2.164
 7799SOL    HW124296   1.270   5.981   2.151
 7799SOL    HW224297   1.183   6.066   2.259
 7800SOL     OW24298   1.062   5.504   0.853
 7800SOL    HW124299   1.140   5.536   0.799
 7800SOL    HW224300   1.008   5.583   0.882
 7801SOL     OW24301   2.430   1.752   1.876
 7801SOL    HW124302   2.467   1.678   1.932
 7801SOL    HW224303   2.337   1.729   1.848
 7802SOL     OW24304   5.709   2.403   0.684
 7802SOL    HW124305   5.614   2.411   0.714
 7802SOL    HW224306   5.762   2.480   0.719
 7803SOL     OW24307   4.600   1.438   6.363
 7803SOL    HW124308   4.564   1.504   6.297
 7803SOL    HW224309   4.526   1.408   6.423
 7804SOL     OW24310   4.762   2.206   4.334
 7804SOL    HW124311   4.858   2.179   4.333
 7804SOL    HW224312   4.748   2.283   4.272
 7805SOL     OW24313   5.177   2.104   1.122
 7805SOL    HW124314   5.110   2.112   1.196
 7805SOL    HW224315   5.265   2.076   1.160
 7806SOL     OW24316   5.889   2.188   6.477
 7806SOL    HW124317   5.862   2.268   6.423
 7806SOL    HW224318   5.927   2.219   6.565
 7807SOL     OW24319   0.959   4.667   5.173
 7807SOL    HW124320   0.997   4.611   5.100
 7807SOL    HW224321   0.918   4.609   5.242
 7808SOL     OW24322   6.424   2.785   3.957
 7808SOL    HW124323   6.465   2.736   4.034
 7808SOL    HW224324   6.379   2.868   3.991
 7809SOL     OW24325   1.966   5.380   4.116
 7809SOL    HW124326   1.881   5.377   4.063
 7809SOL    HW224327   2.040   5.342   4.061
 7810SOL     OW24328   3.649   0.742   4.573
 7810SOL    HW124329   3.612   0.828   4.536
 7810SOL    HW224330   3.741   0.727   4.537
 7811SOL     OW24331   1.238   5.512   2.768
 7811SOL    HW124332   1.286   5.583   2.717
 7811SOL    HW224333   1.198   5.551   2.851
 7812SOL     OW24334   1.227   1.941   3.890
 7812SOL    HW124335   1.198   2.021   3.838
 7812SOL    HW224336   1.310   1.902   3.849
 7813SOL     OW24337   4.401   2.610   7.015
 7813SOL    HW124338   4.365   2.576   6.928
 7813SOL    HW224339   4.326   2.647   0.054
 7814SOL     OW24340   0.088   3.002   2.994
 7814SOL    HW124341   0.105   2.963   2.904
 7814SOL    HW224342   0.061   2.929   3.057
 7815SOL     OW24343   5.109   0.911   5.279
 7815SOL    HW124344   5.059   0.858   5.348
 7815SOL    HW224345   5.202   0.930   5.312
 7816SOL     OW24346   1.459   2.416   6.281
 7816SOL    HW124347   1.370   2.460   6.280
 7816SOL    HW224348   1.450   2.323   6.318
 7817SOL     OW24349   5.489   4.790   3.044
 7817SOL    HW124350   5.445   4.737   3.117
 7817SOL    HW224351   5.542   4.865   3.084
 7818SOL     OW24352   4.415   0.862   2.370
 7818SOL    HW124353   4.318   0.849   2.352
 7818SOL    HW224354   4.444   0.801   2.444
 7819SOL     OW24355   6.749   3.638   1.940
 7819SOL    HW124356   6.810   3.687   2.002
 7819SOL    HW224357   6.800   3.566   1.893
 7820SOL     OW24358   1.932   2.631   5.486
 7820SOL    HW124359   1.894   2.700   5.424
 7820SOL    HW224360   2.015   2.667   5.528
 7821SOL     OW24361   5.548   6.142   0.522
 7821SOL    HW124362   5.637   6.140   0.568
 7821SOL    HW224363   5.542   6.224   0.466
 7822SOL     OW24364   1.222   1.695   6.225
 7822SOL    HW124365   1.271   1.709   6.139
 7822SOL    HW224366   1.286   1.704   6.301
 7823SOL     OW24367   2.659   3.859   5.298
 7823SOL    HW124368   2.649   3.925   5.372
 7823SOL    HW224369   2.587   3.874   5.230
 7824SOL     OW24370   6.132   0.537   3.952
 7824SOL    HW124371   6.123   0.546   4.052
 7824SOL    HW224372   6.137   0.628   3.911
 7825SOL     OW24373   1.482   2.537   1.263
 7825SOL    HW124374   1.390   2.529   1.223
 7825SOL    HW224375   1.475   2.572   1.356
 7826SOL     OW24376   6.247   1.847   1.376
 7826SOL    HW124377   6.310   1.805   1.311
 7826SOL    HW224378   6.195   1.918   1.330
 7827SOL     OW24379   2.217   5.465   0.818
 7827SOL    HW124380   2.295   5.441   0.875
 7827SOL    HW224381   2.168   5.382   0.791
 7828SOL     OW24382   0.643   4.175   6.444
 7828SOL    HW124383   0.549   4.167   6.411
 7828SOL    HW224384   0.706   4.176   6.366
 7829SOL     OW24385   2.710   4.405   1.414
 7829SOL    HW124386   2.683   4.310   1.424
 7829SOL    HW224387   2.725   4.445   1.504
 7830SOL     OW24388   2.574   4.703   5.044
 7830SOL    HW124389   2.538   4.616   5.076
 7830SOL    HW224390   2.672   4.694   5.025
 7831SOL     OW24391   2.207   6.766   1.216
 7831SOL    HW124392   2.285   6.767   1.153
 7831SOL    HW224393   2.128   6.809   1.174
 7832SOL     OW24394   5.668   1.165   3.280
 7832SOL    HW124395   5.632   1.224   3.352
 7832SOL    HW224396   5.658   1.069   3.308
 7833SOL     OW24397   0.777   1.146   6.353
 7833SOL    HW124398   0.842   1.152   6.428
 7833SOL    HW224399   0.774   1.233   6.304
 7834SOL     OW24400   6.897   1.464   3.675
 7834SOL    HW124401   6.846   1.501   3.598
 7834SOL    HW224402   6.880   1.366   3.683
 7835SOL     OW24403   3.461   2.007   5.432
 7835SOL    HW124404   3.405   2.067   5.376
 7835SOL    HW224405   3.557   2.020   5.407
 7836SOL     OW24406   3.312   2.847   5.256
 7836SOL    HW124407   3.220   2.840   5.293
 7836SOL    HW224408   3.362   2.762   5.272
 7837SOL     OW24409   5.704   5.341   6.882
 7837SOL    HW124410   5.641   5.413   6.853
 7837SOL    HW224411   5.714   5.344   6.981
 7838SOL     OW24412   4.122   0.328   0.497
 7838SOL    HW124413   4.206   0.323   0.552
 7838SOL    HW224414   4.117   0.247   0.438
 7839SOL     OW24415   5.980   4.131   5.029
 7839SOL    HW124416   5.997   4.191   4.951
 7839SOL    HW224417   5.882   4.131   5.051
 7840SOL     OW24418   6.360   2.497   3.882
 7840SOL    HW124419   6.262   2.494   3.866
 7840SOL    HW224420   6.387   2.589   3.912
 7841SOL     OW24421   3.414   2.066   6.217
 7841SOL    HW124422   3.425   1.967   6.224
 7841SOL    HW224423   3.503   2.108   6.199
 7842SOL     OW24424   2.386   1.926   2.696
 7842SOL    HW124425   2.415   1.876   2.778
 7842SOL    HW224426   2.296   1.966   2.712
 7843SOL     OW24427   0.010   6.171   3.322
 7843SOL    HW124428   6.951   6.174   3.388
 7843SOL    HW224429   6.989   6.175   3.230
 7844SOL     OW24430   3.704   0.063   3.008
 7844SOL    HW124431   3.701   0.080   2.910
 7844SOL    HW224432   3.630   0.001   3.033
 7845SOL     OW24433   5.763   2.252   2.750
 7845SOL    HW124434   5.768   2.349   2.773
 7845SOL    HW224435   5.806   2.198   2.822
 7846SOL     OW24436   0.800   1.470   2.463
 7846SOL    HW124437   0.809   1.380   2.420
 7846SOL    HW224438   0.834   1.540   2.401
 7847SOL     OW24439   6.729   1.623   3.170
 7847SOL    HW124440   6.671   1.694   3.211
 7847SOL    HW224441   6.772   1.659   3.088
 7848SOL     OW24442   3.298   3.892   0.463
 7848SOL    HW124443   3.306   3.798   0.431
 7848SOL    HW224444   3.268   3.951   0.388
 7849SOL     OW24445   6.645   4.167   4.210
 7849SOL    HW124446   6.655   4.265   4.227
 7849SOL    HW224447   6.642   4.119   4.297
 7850SOL     OW24448   0.411   1.665   4.457
 7850SOL    HW124449   0.507   1.637   4.447
 7850SOL    HW224450   0.382   1.713   4.375
 7851SOL     OW24451   6.454   1.262   1.895
 7851SOL    HW124452   6.468   1.288   1.800
 7851SOL    HW224453   6.423   1.342   1.947
 7852SOL     OW24454   2.772   1.333   6.209
 7852SOL    HW124455   2.838   1.372   6.273
 7852SOL    HW224456   2.692   1.392   6.202
 7853SOL     OW24457   5.058   2.307   2.030
 7853SOL    HW124458   4.991   2.369   2.070
 7853SOL    HW224459   5.142   2.308   2.084
 7854SOL     OW24460   3.524   3.275   6.488
 7854SOL    HW124461   3.488   3.232   6.405
 7854SOL    HW224462   3.458   3.265   6.562
 7855SOL     OW24463   4.763   6.419   4.590
 7855SOL    HW124464   4.796   6.393   4.681
 7855SOL    HW224465   4.841   6.427   4.527
 7856SOL     OW24466   6.670   5.430   4.975
 7856SOL    HW124467   6.606   5.502   5.001
 7856SOL    HW224468   6.646   5.345   5.021
 7857SOL     OW24469   5.006   2.325   6.654
 7857SOL    HW124470   5.006   2.334   6.753
 7857SOL    HW224471   4.925   2.275   6.625
 7858SOL     OW24472   6.136   6.556   3.885
 7858SOL    HW124473   6.176   6.543   3.794
 7858SOL    HW224474   6.193   6.510   3.953
 7859SOL     OW24475   4.178   2.729   6.397
 7859SOL    HW124476   4.135   2.702   6.484
 7859SOL    HW224477   4.107   2.757   6.333
 7860SOL     OW24478   3.683   1.154   3.136
 7860SOL    HW124479   3.718   1.149   3.042
 7860SOL    HW224480   3.589   1.189   3.135
 7861SOL     OW24481   3.767   4.858   1.730
 7861SOL    HW124482   3.712   4.804   1.794
 7861SOL    HW224483   3.718   4.868   1.643
 7862SOL     OW24484   1.754   4.589   2.017
 7862SOL    HW124485   1.744   4.490   2.002
 7862SOL    HW224486   1.759   4.607   2.115
 7863SOL     OW24487   0.253   4.526   4.600
 7863SOL    HW124488   0.346   4.503   4.572
 7863SOL    HW224489   0.224   4.610   4.554
 7864SOL     OW24490   0.610   5.682   5.194
 7864SOL    HW124491   0.568   5.634   5.271
 7864SOL    HW224492   0.704   5.650   5.182
 7865SOL     OW24493   6.500   6.361   3.650
 7865SOL    HW124494   6.531   6.336   3.558
 7865SOL    HW224495   6.430   6.296   3.681
 7866SOL     OW24496   1.413   1.537   6.046
 7866SOL    HW124497   1.482   1.477   6.005
 7866SOL    HW224498   1.369   1.591   5.974
 7867SOL     OW24499   6.083   6.074   3.493
 7867SOL    HW124500   6.117   5.998   3.437
 7867SOL    HW224501   5.985   6.061   3.509
 7868SOL     OW24502   4.644   6.288   1.262
 7868SOL    HW124503   4.699   6.269   1.180
 7868SOL    HW224504   4.582   6.211   1.279
 7869SOL     OW24505   5.595   3.548   0.215
 7869SOL    HW124506   5.570   3.576   0.123
 7869SOL    HW224507   5.590   3.448   0.222
 7870SOL     OW24508   4.498   5.000   4.030
 7870SOL    HW124509   4.455   5.074   3.978
 7870SOL    HW224510   4.512   5.030   4.125
 7871SOL     OW24511   4.832   1.867   2.217
 7871SOL    HW124512   4.860   1.787   2.163
 7871SOL    HW224513   4.733   1.869   2.224
 7872SOL     OW24514   1.654   3.834   3.139
 7872SOL    HW124515   1.683   3.742   3.115
 7872SOL    HW224516   1.705   3.900   3.084
 7873SOL     OW24517   5.954   6.474   6.180
 7873SOL    HW124518   6.034   6.458   6.238
 7873SOL    HW224519   5.944   6.399   6.115
 7874SOL     OW24520   5.376   1.957   7.003
 7874SOL    HW124521   5.438   1.898   0.039
 7874SOL    HW224522   5.353   1.914   6.916
 7875SOL     OW24523   4.292   2.836   6.705
 7875SOL    HW124524   4.209   2.783   6.687
 7875SOL    HW224525   4.268   2.933   6.710
 7876SOL     OW24526   1.378   6.916   3.879
 7876SOL    HW124527   1.448   6.980   3.847
 7876SOL    HW224528   1.418   6.850   3.942
 7877SOL     OW24529   1.199   1.831   2.697
 7877SOL    HW124530   1.115   1.808   2.746
 7877SOL    HW224531   1.261   1.753   2.700
 7878SOL     OW24532   5.172   4.526   4.963
 7878SOL    HW124533   5.113   4.550   5.041
 7878SOL    HW224534   5.115   4.502   4.885
 7879SOL     OW24535   4.215   5.500   3.563
 7879SOL    HW124536   4.308   5.536   3.566
 7879SOL    HW224537   4.161   5.552   3.496
 7880SOL     OW24538   1.898   5.105   1.105
 7880SOL    HW124539   1.808   5.066   1.086
 7880SOL    HW224540   1.967   5.062   1.047
 7881SOL     OW24541   6.435   5.036   4.728
 7881SOL    HW124542   6.405   4.987   4.810
 7881SOL    HW224543   6.367   5.024   4.656
 7882SOL     OW24544   1.239   2.942   2.183
 7882SOL    HW124545   1.157   2.896   2.147
 7882SOL    HW224546   1.303   2.958   2.109
 7883SOL     OW24547   1.086   0.422   0.538
 7883SOL    HW124548   1.080   0.325   0.559
 7883SOL    HW224549   1.058   0.438   0.443
 7884SOL     OW24550   2.164   3.558   4.740
 7884SOL    HW124551   2.259   3.579   4.721
 7884SOL    HW224552   2.156   3.517   4.831
 7885SOL     OW24553   6.263   5.276   1.145
 7885SOL    HW124554   6.285   5.231   1.058
 7885SOL    HW224555   6.180   5.331   1.134
 7886SOL     OW24556   3.626   5.104   0.056
 7886SOL    HW124557   3.561   5.058   7.012
 7886SOL    HW224558   3.591   5.103   0.150
 7887SOL     OW24559   3.184   2.179   5.731
 7887SOL    HW124560   3.135   2.113   5.674
 7887SOL    HW224561   3.145   2.270   5.719
 7888SOL     OW24562   6.583   7.008   5.479
 7888SOL    HW124563   6.647   0.023   5.408
 7888SOL    HW224564   6.524   6.937   5.441
 7889SOL     OW24565   1.454   4.846   1.115
 7889SOL    HW124566   1.407   4.864   1.029
 7889SOL    HW224567   1.504   4.759   1.109
 7890SOL     OW24568   1.943   2.713   2.800
 7890SOL    HW124569   1.929   2.772   2.880
 7890SOL    HW224570   1.970   2.769   2.722
 7891SOL     OW24571   1.876   3.450   3.952
 7891SOL    HW124572   1.961   3.501   3.961
 7891SOL    HW224573   1.857   3.402   4.038
 7892SOL     OW24574   1.954   0.733   3.985
 7892SOL    HW124575   1.898   0.655   3.956
 7892SOL    HW224576   2.000   0.771   3.905
 7893SOL     OW24577   6.757   6.096   2.548
 7893SOL    HW124578   6.660   6.075   2.558
 7893SOL    HW224579   6.781   6.102   2.451
 7894SOL     OW24580   3.351   0.031   0.985
 7894SOL    HW124581   3.431   0.041   0.926
 7894SOL    HW224582   3.371   0.070   1.075
 7895SOL     OW24583   6.340   0.525   5.611
 7895SOL    HW124584   6.421   0.544   5.555
 7895SOL    HW224585   6.331   0.596   5.681
 7896SOL     OW24586   4.873   4.291   0.370
 7896SOL    HW124587   4.932   4.366   0.343
 7896SOL    HW224588   4.821   4.260   0.290
 7897SOL     OW24589   2.398   4.188   0.166
 7897SOL    HW124590   2.483   4.213   0.212
 7897SOL    HW224591   2.391   4.089   0.159
 7898SOL     OW24592   4.518   2.050   3.391
 7898SOL    HW124593   4.616   2.032   3.383
 7898SOL    HW224594   4.487   2.100   3.310
 7899SOL     OW24595   5.585   1.194   1.204
 7899SOL    HW124596   5.544   1.109   1.170
 7899SOL    HW224597   5.612   1.182   1.299
 7900SOL     OW24598   1.280   5.100   1.672
 7900SOL    HW124599   1.307   5.149   1.589
 7900SOL    HW224600   1.243   5.010   1.648
 7901SOL     OW24601   4.932   1.512   6.747
 7901SOL    HW124602   4.890   1.475   6.830
 7901SOL    HW224603   4.984   1.441   6.701
 7902SOL     OW24604   5.077   6.393   1.697
 7902SOL    HW124605   5.135   6.474   1.709
 7902SOL    HW224606   5.125   6.312   1.732
 7903SOL     OW24607   5.626   1.275   0.841
 7903SOL    HW124608   5.653   1.349   0.780
 7903SOL    HW224609   5.573   1.312   0.918
 7904SOL     OW24610   5.593   6.416   3.699
 7904SOL    HW124611   5.634   6.507   3.690
 7904SOL    HW224612   5.646   6.362   3.765
 7905SOL     OW24613   4.459   2.430   0.267
 7905SOL    HW124614   4.515   2.398   0.191
 7905SOL    HW224615   4.367   2.451   0.234
 7906SOL     OW24616   0.039   5.953   0.648
 7906SOL    HW124617   0.109   5.987   0.586
 7906SOL    HW224618   6.980   6.019   0.655
 7907SOL     OW24619   5.301   2.624   3.125
 7907SOL    HW124620   5.288   2.690   3.052
 7907SOL    HW224621   5.220   2.621   3.183
 7908SOL     OW24622   0.781   1.928   5.476
 7908SOL    HW124623   0.733   1.874   5.406
 7908SOL    HW224624   0.879   1.913   5.468
 7909SOL     OW24625   5.486   3.565   4.803
 7909SOL    HW124626   5.396   3.533   4.833
 7909SOL    HW224627   5.556   3.502   4.834
 7910SOL     OW24628   2.748   3.726   5.855
 7910SOL    HW124629   2.801   3.773   5.784
 7910SOL    HW224630   2.667   3.781   5.877
 7911SOL     OW24631   1.546   3.116   6.929
 7911SOL    HW124632   1.600   3.196   6.953
 7911SOL    HW224633   1.477   3.142   6.861
 7912SOL     OW24634   6.863   4.973   0.176
 7912SOL    HW124635   6.898   5.066   0.178
 7912SOL    HW224636   6.803   4.958   0.255
 7913SOL     OW24637   1.646   4.946   1.307
 7913SOL    HW124638   1.578   4.923   1.238
 7913SOL    HW224639   1.738   4.934   1.269
 7914SOL     OW24640   6.994   4.286   6.817
 7914SOL    HW124641   6.985   4.306   6.915
 7914SOL    HW224642   6.919   4.227   6.788
 7915SOL     OW24643   4.796   2.926   2.322
 7915SOL    HW124644   4.887   2.908   2.285
 7915SOL    HW224645   4.727   2.907   2.252
 7916SOL     OW24646   0.617   3.989   5.222
 7916SOL    HW124647   0.566   4.075   5.216
 7916SOL    HW224648   0.705   4.005   5.266
 7917SOL     OW24649   3.542   4.030   4.180
 7917SOL    HW124650   3.469   4.092   4.206
 7917SOL    HW224651   3.516   3.981   4.096
 7918SOL     OW24652   0.097   1.515   6.669
 7918SOL    HW124653   0.064   1.587   6.730
 7918SOL    HW224654   0.075   1.539   6.574
 7919SOL     OW24655   2.187   4.129   2.119
 7919SOL    HW124656   2.188   4.078   2.034
 7919SOL    HW224657   2.142   4.076   2.191
 7920SOL     OW24658   0.499   5.575   0.910
 7920SOL    HW124659   0.532   5.587   0.816
 7920SOL    HW224660   0.443   5.653   0.935
 7921SOL     OW24661   4.760   6.500   0.968
 7921SOL    HW124662   4.821   6.421   0.956
 7921SOL    HW224663   4.665   6.468   0.966
 7922SOL     OW24664   6.731   6.576   6.844
 7922SOL    HW124665   6.712   6.645   6.914
 7922SOL    HW224666   6.719   6.485   6.882
 7923SOL     OW24667   3.255   0.627   2.219
 7923SOL    HW124668   3.280   0.559   2.289
 7923SOL    HW224669   3.283   0.718   2.250
 7924SOL     OW24670   4.077   6.750   1.754
 7924SOL    HW124671   4.093   6.759   1.656
 7924SOL    HW224672   4.054   6.839   1.793
 7925SOL     OW24673   0.843   1.912   6.398
 7925SOL    HW124674   0.905   1.858   6.456
 7925SOL    HW224675   0.873   1.905   6.303
 7926SOL     OW24676   5.261   1.672   5.230
 7926SOL    HW124677   5.350   1.632   5.206
 7926SOL    HW224678   5.222   1.719   5.151
 7927SOL     OW24679   3.955   5.241   3.793
 7927SOL    HW124680   4.055   5.249   3.789
 7927SOL    HW224681   3.917   5.252   3.702
 7928SOL     OW24682   0.977   2.228   4.493
 7928SOL    HW124683   1.072   2.213   4.521
 7928SOL    HW224684   0.964   2.324   4.469
 7929SOL     OW24685   4.134   4.233   5.725
 7929SOL    HW124686   4.110   4.259   5.819
 7929SOL    HW224687   4.153   4.135   5.722
 7930SOL     OW24688   4.294   5.542   4.128
 7930SOL    HW124689   4.259   5.560   4.036
 7930SOL    HW224690   4.319   5.446   4.136
 7931SOL     OW24691   1.247   2.049   6.182
 7931SOL    HW124692   1.347   2.054   6.173
 7931SOL    HW224693   1.224   1.993   6.262
 7932SOL     OW24694   2.136   5.981   6.475
 7932SOL    HW124695   2.222   6.010   6.434
 7932SOL    HW224696   2.112   5.890   6.441
 7933SOL     OW24697   0.458   5.774   6.954
 7933SOL    HW124698   0.510   5.785   0.022
 7933SOL    HW224699   0.476   5.852   6.893
 7934SOL     OW24700   2.545   4.878   0.333
 7934SOL    HW124701   2.581   4.862   0.242
 7934SOL    HW224702   2.531   4.976   0.347
 7935SOL     OW24703   5.529   6.355   0.344
 7935SOL    HW124704   5.504   6.290   0.272
 7935SOL    HW224705   5.447   6.383   0.393
 7936SOL     OW24706   3.927   6.156   2.155
 7936SOL    HW124707   4.003   6.196   2.104
 7936SOL    HW224708   3.930   6.056   2.147
 7937SOL     OW24709   6.485   6.937   3.964
 7937SOL    HW124710   6.583   6.919   3.962
 7937SOL    HW224711   6.463   6.993   4.044
 7938SOL     OW24712   6.320   5.186   5.026
 7938SOL    HW124713   6.384   5.250   5.068
 7938SOL    HW224714   6.292   5.219   4.936
 7939SOL     OW24715   1.349   2.851   5.224
 7939SOL    HW124716   1.301   2.853   5.312
 7939SOL    HW224717   1.422   2.783   5.228
 7940SOL     OW24718   1.907   4.103   1.994
 7940SOL    HW124719   1.986   4.121   2.051
 7940SOL    HW224720   1.907   4.007   1.965
 7941SOL     OW24721   6.302   0.319   0.533
 7941SOL    HW124722   6.303   0.418   0.520
 7941SOL    HW224723   6.298   0.298   0.631
 7942SOL     OW24724   6.715   5.533   2.507
 7942SOL    HW124725   6.712   5.627   2.540
 7942SOL    HW224726   6.645   5.521   2.437
 7943SOL     OW24727   5.603   3.263   0.265
 7943SOL    HW124728   5.702   3.249   0.273
 7943SOL    HW224729   5.556   3.185   0.307
 7944SOL     OW24730   0.676   3.057   1.332
 7944SOL    HW124731   0.741   3.036   1.404
 7944SOL    HW224732   0.694   3.148   1.296
 7945SOL     OW24733   5.807   6.135   1.727
 7945SOL    HW124734   5.826   6.228   1.694
 7945SOL    HW224735   5.891   6.082   1.730
 7946SOL     OW24736   2.256   1.767   5.518
 7946SOL    HW124737   2.328   1.736   5.456
 7946SOL    HW224738   2.287   1.850   5.565
 7947SOL     OW24739   3.806   2.073   6.346
 7947SOL    HW124740   3.834   2.135   6.272
 7947SOL    HW224741   3.878   2.005   6.360
 7948SOL     OW24742   0.980   6.448   0.716
 7948SOL    HW124743   0.980   6.457   0.616
 7948SOL    HW224744   1.045   6.513   0.755
 7949SOL     OW24745   4.813   4.442   4.494
 7949SOL    HW124746   4.717   4.470   4.499
 7949SOL    HW224747   4.860   4.497   4.425
 7950SOL     OW24748   6.074   4.821   4.846
 7950SOL    HW124749   6.021   4.901   4.817
 7950SOL    HW224750   6.024   4.773   4.919
 7951SOL     OW24751   1.993   4.440   1.431
 7951SOL    HW124752   1.938   4.398   1.503
 7951SOL    HW224753   1.947   4.430   1.343
 7952SOL     OW24754   0.778   3.390   6.687
 7952SOL    HW124755   0.681   3.415   6.687
 7952SOL    HW224756   0.793   3.314   6.624
 7953SOL     OW24757   2.032   2.687   3.466
 7953SOL    HW124758   1.941   2.721   3.490
 7953SOL    HW224759   2.024   2.592   3.434
 7954SOL     OW24760   4.718   4.065   5.069
 7954SOL    HW124761   4.767   4.087   4.985
 7954SOL    HW224762   4.623   4.094   5.061
 7955SOL     OW24763   1.318   6.155   6.672
 7955SOL    HW124764   1.237   6.176   6.617
 7955SOL    HW224765   1.400   6.180   6.620
 7956SOL     OW24766   3.487   5.830   2.316
 7956SOL    HW124767   3.544   5.781   2.382
 7956SOL    HW224768   3.395   5.789   2.315
 7957SOL     OW24769   1.223   1.059   1.687
 7957SOL    HW124770   1.281   1.123   1.637
 7957SOL    HW224771   1.216   1.086   1.783
 7958SOL     OW24772   3.428   4.933   4.336
 7958SOL    HW124773   3.395   4.840   4.324
 7958SOL    HW224774   3.351   4.997   4.328
 7959SOL     OW24775   3.854   5.660   0.778
 7959SOL    HW124776   3.856   5.563   0.757
 7959SOL    HW224777   3.768   5.684   0.823
 7960SOL     OW24778   3.774   1.580   0.465
 7960SOL    HW124779   3.821   1.637   0.532
 7960SOL    HW224780   3.741   1.497   0.510
 7961SOL     OW24781   0.564   6.969   1.214
 7961SOL    HW124782   0.494   6.909   1.255
 7961SOL    HW224783   0.574   6.945   1.117
 7962SOL     OW24784   1.863   6.712   0.065
 7962SOL    HW124785   1.788   6.672   0.014
 7962SOL    HW224786   1.827   6.762   0.144
 7963SOL     OW24787   6.969   1.028   3.679
 7963SOL    HW124788   0.025   1.095   3.665
 7963SOL    HW224789   7.009   0.936   3.684
 7964SOL     OW24790   0.466   4.901   3.564
 7964SOL    HW124791   0.508   4.988   3.538
 7964SOL    HW224792   0.401   4.873   3.493
 7965SOL     OW24793   3.500   3.004   0.084
 7965SOL    HW124794   3.581   3.062   0.085
 7965SOL    HW224795   3.528   2.908   0.095
 7966SOL     OW24796   0.666   3.182   5.297
 7966SOL    HW124797   0.588   3.191   5.359
 7966SOL    HW224798   0.679   3.267   5.247
 7967SOL     OW24799   2.739   6.048   4.086
 7967SOL    HW124800   2.658   6.063   4.142
 7967SOL    HW224801   2.761   6.132   4.036
 7968SOL     OW24802   2.381   2.262   2.965
 7968SOL    HW124803   2.445   2.338   2.961
 7968SOL    HW224804   2.413   2.194   3.030
 7969SOL     OW24805   4.354   6.758   1.376
 7969SOL    HW124806   4.435   6.729   1.426
 7969SOL    HW224807   4.273   6.715   1.416
 7970SOL     OW24808   0.752   3.023   3.284
 7970SOL    HW124809   0.835   2.971   3.306
 7970SOL    HW224810   0.742   3.099   3.348
 7971SOL     OW24811   4.423   1.389   0.706
 7971SOL    HW124812   4.431   1.295   0.672
 7971SOL    HW224813   4.392   1.388   0.801
 7972SOL     OW24814   1.327   3.528   1.420
 7972SOL    HW124815   1.306   3.552   1.325
 7972SOL    HW224816   1.418   3.487   1.425
 7973SOL     OW24817   5.289   4.215   3.763
 7973SOL    HW124818   5.299   4.174   3.672
 7973SOL    HW224819   5.370   4.193   3.818
 7974SOL     OW24820   5.839   0.943   5.270
 7974SOL    HW124821   5.778   0.872   5.237
 7974SOL    HW224822   5.801   1.033   5.246
 7975SOL     OW24823   5.737   0.687   2.956
 7975SOL    HW124824   5.820   0.640   2.984
 7975SOL    HW224825   5.728   0.773   3.007
 7976SOL     OW24826   0.609   0.605   6.440
 7976SOL    HW124827   0.518   0.565   6.435
 7976SOL    HW224828   0.657   0.569   6.520
 7977SOL     OW24829   4.839   5.659   1.587
 7977SOL    HW124830   4.762   5.700   1.635
 7977SOL    HW224831   4.855   5.567   1.622
 7978SOL     OW24832   5.400   3.506   6.235
 7978SOL    HW124833   5.304   3.478   6.232
 7978SOL    HW224834   5.410   3.585   6.296
 7979SOL     OW24835   3.127   0.063   5.157
 7979SOL    HW124836   3.212   0.060   5.209
 7979SOL    HW224837   3.080   0.150   5.175
 7980SOL     OW24838   2.798   5.518   6.635
 7980SOL    HW124839   2.798   5.617   6.652
 7980SOL    HW224840   2.735   5.497   6.560
 7981SOL     OW24841   0.515   5.389   1.950
 7981SOL    HW124842   0.424   5.352   1.933
 7981SOL    HW224843   0.545   5.442   1.871
 7982SOL     OW24844   0.381   1.900   0.368
 7982SOL    HW124845   0.452   1.969   0.383
 7982SOL    HW224846   0.422   1.817   0.332
 7983SOL     OW24847   5.620   1.331   2.483
 7983SOL    HW124848   5.596   1.257   2.419
 7983SOL    HW224849   5.646   1.412   2.431
 7984SOL     OW24850   1.753   1.904   1.703
 7984SOL    HW124851   1.767   1.963   1.782
 7984SOL    HW224852   1.814   1.932   1.629
 7985SOL     OW24853   2.359   6.342   3.949
 7985SOL    HW124854   2.394   6.265   3.895
 7985SOL    HW224855   2.302   6.308   4.023
 7986SOL     OW24856   2.894   0.699   6.963
 7986SOL    HW124857   2.895   0.791   6.924
 7986SOL    HW224858   2.949   0.638   6.906
 7987SOL     OW24859   1.238   3.555   0.090
 7987SOL    HW124860   1.235   3.654   0.077
 7987SOL    HW224861   1.168   3.528   0.156
 7988SOL     OW24862   1.557   2.206   3.724
 7988SOL    HW124863   1.607   2.152   3.656
 7988SOL    HW224864   1.598   2.297   3.732
 7989SOL     OW24865   3.461   2.373   5.603
 7989SOL    HW124866   3.502   2.334   5.521
 7989SOL    HW224867   3.420   2.301   5.657
 7990SOL     OW24868   6.881   3.445   3.342
 7990SOL    HW124869   6.851   3.359   3.300
 7990SOL    HW224870   6.832   3.521   3.299
 7991SOL     OW24871   6.487   0.683   3.974
 7991SOL    HW124872   6.532   0.596   3.998
 7991SOL    HW224873   6.473   0.737   4.057
 7992SOL     OW24874   1.011   6.719   1.145
 7992SOL    HW124875   1.077   6.793   1.133
 7992SOL    HW224876   1.059   6.634   1.167
 7993SOL     OW24877   1.423   5.847   6.211
 7993SOL    HW124878   1.483   5.768   6.198
 7993SOL    HW224879   1.360   5.828   6.286
 7994SOL     OW24880   4.995   0.121   2.774
 7994SOL    HW124881   4.898   0.103   2.790
 7994SOL    HW224882   5.029   0.184   2.843
 7995SOL     OW24883   4.417   5.055   3.303
 7995SOL    HW124884   4.495   4.994   3.291
 7995SOL    HW224885   4.332   5.005   3.290
 7996SOL     OW24886   2.724   0.102   4.677
 7996SOL    HW124887   2.757   0.048   4.600
 7996SOL    HW224888   2.687   0.189   4.644
 7997SOL     OW24889   0.391   1.017   1.250
 7997SOL    HW124890   0.386   0.973   1.340
 7997SOL    HW224891   0.463   1.087   1.250
 7998SOL     OW24892   3.514   5.173   0.988
 7998SOL    HW124893   3.593   5.113   0.975
 7998SOL    HW224894   3.435   5.118   1.015
 7999SOL     OW24895   1.467   6.854   6.269
 7999SOL    HW124896   1.519   6.929   6.311
 7999SOL    HW224897   1.495   6.767   6.311
 8000SOL     OW24898   5.467   6.829   0.276
 8000SOL    HW124899   5.517   6.859   0.195
 8000SOL    HW224900   5.489   6.734   0.296
 8001SOL     OW24901   3.454   5.671   0.793
 8001SOL    HW124902   3.465   5.702   0.699
 8001SOL    HW224903   3.428   5.748   0.851
 8002SOL     OW24904   0.856   2.483   5.891
 8002SOL    HW124905   0.866   2.579   5.864
 8002SOL    HW224906   0.857   2.425   5.809
 8003SOL     OW24907   2.841   4.868   2.712
 8003SOL    HW124908   2.799   4.807   2.644
 8003SOL    HW224909   2.815   4.839   2.804
 8004SOL     OW24910   1.942   3.725   3.665
 8004SOL    HW124911   1.925   3.761   3.573
 8004SOL    HW224912   1.961   3.627   3.659
 8005SOL     OW24913   3.512   0.917   2.701
 8005SOL    HW124914   3.532   1.015   2.694
 8005SOL    HW224915   3.457   0.900   2.783
 8006SOL     OW24916   2.343   6.949   6.713
 8006SOL    HW124917   2.297   0.015   6.680
 8006SOL    HW224918   2.442   6.963   6.708
 8007SOL     OW24919   0.209   0.904   3.972
 8007SOL    HW124920   0.285   0.868   3.917
 8007SOL    HW224921   0.212   1.004   3.971
 8008SOL     OW24922   4.520   6.215   5.932
 8008SOL    HW124923   4.491   6.210   6.028
 8008SOL    HW224924   4.439   6.226   5.874
 8009SOL     OW24925   5.911   0.778   2.639
 8009SOL    HW124926   5.833   0.717   2.629
 8009SOL    HW224927   5.897   0.860   2.584
 8010SOL     OW24928   1.041   1.437   0.570
 8010SOL    HW124929   0.974   1.363   0.579
 8010SOL    HW224930   1.028   1.483   0.482
 8011SOL     OW24931   3.377   2.742   1.017
 8011SOL    HW124932   3.376   2.752   1.117
 8011SOL    HW224933   3.376   2.644   0.994
 8012SOL     OW24934   1.804   5.334   1.762
 8012SOL    HW124935   1.855   5.315   1.846
 8012SOL    HW224936   1.751   5.253   1.737
 8013SOL     OW24937   1.220   4.394   3.669
 8013SOL    HW124938   1.254   4.356   3.583
 8013SOL    HW224939   1.217   4.323   3.739
 8014SOL     OW24940   0.861   6.168   5.164
 8014SOL    HW124941   0.804   6.102   5.115
 8014SOL    HW224942   0.913   6.120   5.235
 8015SOL     OW24943   2.736   1.068   0.432
 8015SOL    HW124944   2.762   1.163   0.453
 8015SOL    HW224945   2.801   1.030   0.367
 8016SOL     OW24946   4.765   6.786   6.646
 8016SOL    HW124947   4.729   6.694   6.656
 8016SOL    HW224948   4.821   6.809   6.726
 8017SOL     OW24949   6.762   6.659   0.280
 8017SOL    HW124950   6.826   6.724   0.321
 8017SOL    HW224951   6.724   6.599   0.351
 8018SOL     OW24952   3.345   2.318   5.930
 8018SOL    HW124953   3.380   2.403   5.889
 8018SOL    HW224954   3.331   2.250   5.859
 8019SOL     OW24955   2.269   3.993   6.622
 8019SOL    HW124956   2.227   3.945   6.546
 8019SOL    HW224957   2.227   3.963   6.708
 8020SOL     OW24958   6.186   6.128   0.892
 8020SOL    HW124959   6.202   6.042   0.845
 8020SOL    HW224960   6.101   6.169   0.860
 8021SOL     OW24961   1.368   1.740   1.745
 8021SOL    HW124962   1.370   1.693   1.656
 8021SOL    HW224963   1.364   1.839   1.729
 8022SOL     OW24964   4.533   6.842   2.787
 8022SOL    HW124965   4.435   6.822   2.790
 8022SOL    HW224966   4.564   6.870   2.878
 8023SOL     OW24967   5.974   5.038   3.452
 8023SOL    HW124968   5.899   5.075   3.507
 8023SOL    HW224969   5.975   4.939   3.461
 8024SOL     OW24970   2.970   5.165   0.203
 8024SOL    HW124971   2.973   5.077   0.250
 8024SOL    HW224972   2.945   5.151   0.108
 8025SOL     OW24973   2.291   6.300   6.254
 8025SOL    HW124974   2.265   6.282   6.159
 8025SOL    HW224975   2.314   6.213   6.298
 8026SOL     OW24976   0.942   4.539   6.441
 8026SOL    HW124977   0.989   4.534   6.529
 8026SOL    HW224978   0.992   4.486   6.373
 8027SOL     OW24979   4.245   1.851   5.343
 8027SOL    HW124980   4.177   1.848   5.416
 8027SOL    HW224981   4.202   1.833   5.255
 8028SOL     OW24982   2.901   5.176   4.738
 8028SOL    HW124983   2.909   5.077   4.727
 8028SOL    HW224984   2.822   5.210   4.687
 8029SOL     OW24985   4.845   2.765   0.835
 8029SOL    HW124986   4.753   2.730   0.818
 8029SOL    HW224987   4.852   2.796   0.930
 8030SOL     OW24988   4.478   4.219   0.078
 8030SOL    HW124989   4.481   4.192   6.998
 8030SOL    HW224990   4.404   4.170   0.124
 8031SOL     OW24991   5.182   6.218   2.881
 8031SOL    HW124992   5.194   6.301   2.828
 8031SOL    HW224993   5.262   6.205   2.941
 8032SOL     OW24994   5.398   4.000   6.023
 8032SOL    HW124995   5.390   3.912   6.069
 8032SOL    HW224996   5.483   4.045   6.050
 8033SOL     OW24997   5.082   3.758   6.659
 8033SOL    HW124998   5.015   3.831   6.642
 8033SOL    HW224999   5.108   3.716   6.572
 8034SOL     OW25000   6.365   0.732   4.777
 8034SOL    HW125001   6.392   0.641   4.808
 8034SOL    HW225002   6.426   0.800   4.817
 8035SOL     OW25003   5.258   1.759   4.495
 8035SOL    HW125004   5.207   1.830   4.543
 8035SOL    HW225005   5.248   1.672   4.544
 8036SOL     OW25006   0.465   4.330   2.931
 8036SOL    HW125007   0.465   4.234   2.958
 8036SOL    HW225008   0.487   4.387   3.010
 8037SOL     OW25009   2.252   3.070   1.738
 8037SOL    HW125010   2.167   3.109   1.774
 8037SOL    HW225011   2.239   3.044   1.642
 8038SOL     OW25012   4.599   0.658   3.434
 8038SOL    HW125013   4.640   0.741   3.396
 8038SOL    HW225014   4.522   0.683   3.492
 8039SOL     OW25015   0.957   1.016   4.309
 8039SOL    HW125016   0.895   1.001   4.233
 8039SOL    HW225017   1.013   0.934   4.323
 8040SOL     OW25018   1.398   6.198   0.596
 8040SOL    HW125019   1.381   6.158   0.506
 8040SOL    HW225020   1.343   6.281   0.606
 8041SOL     OW25021   2.839   1.763   1.923
 8041SOL    HW125022   2.916   1.724   1.873
 8041SOL    HW225023   2.793   1.831   1.867
 8042SOL     OW25024   3.610   2.902   4.120
 8042SOL    HW125025   3.658   2.942   4.043
 8042SOL    HW225026   3.662   2.915   4.204
 8043SOL     OW25027   3.930   0.232   2.203
 8043SOL    HW125028   3.921   0.268   2.296
 8043SOL    HW225029   3.855   0.169   2.184
 8044SOL     OW25030   3.746   3.265   0.451
 8044SOL    HW125031   3.837   3.260   0.494
 8044SOL    HW225032   3.757   3.284   0.354
 8045SOL     OW25033   5.326   0.774   1.332
 8045SOL    HW125034   5.296   0.846   1.269
 8045SOL    HW225035   5.261   0.698   1.330
 8046SOL     OW25036   6.591   5.193   0.271
 8046SOL    HW125037   6.595   5.103   0.315
 8046SOL    HW225038   6.519   5.248   0.313
 8047SOL     OW25039   3.719   5.245   4.497
 8047SOL    HW125040   3.796   5.266   4.556
 8047SOL    HW225041   3.734   5.284   4.406
 8048SOL     OW25042   5.977   0.638   6.001
 8048SOL    HW125043   6.069   0.671   6.020
 8048SOL    HW225044   5.926   0.628   6.086
 8049SOL     OW25045   1.053   0.252   0.864
 8049SOL    HW125046   1.007   0.336   0.834
 8049SOL    HW225047   1.076   0.196   0.784
 8050SOL     OW25048   1.402   3.611   2.497
 8050SOL    HW125049   1.495   3.645   2.514
 8050SOL    HW225050   1.336   3.676   2.534
 8051SOL     OW25051   5.030   5.687   3.014
 8051SOL    HW125052   5.092   5.723   3.085
 8051SOL    HW225053   4.969   5.760   2.984
 8052SOL     OW25054   4.626   1.556   2.382
 8052SOL    HW125055   4.580   1.547   2.293
 8052SOL    HW225056   4.671   1.645   2.387
 8053SOL     OW25057   2.982   3.827   3.632
 8053SOL    HW125058   3.071   3.872   3.634
 8053SOL    HW225059   2.910   3.896   3.622
 8054SOL     OW25060   5.132   0.263   4.625
 8054SOL    HW125061   5.210   0.322   4.641
 8054SOL    HW225062   5.051   0.301   4.670
 8055SOL     OW25063   6.695   0.405   5.644
 8055SOL    HW125064   6.771   0.411   5.708
 8055SOL    HW225065   6.613   0.374   5.692
 8056SOL     OW25066   4.346   1.881   4.124
 8056SOL    HW125067   4.278   1.836   4.181
 8056SOL    HW225068   4.325   1.979   4.119
 8057SOL     OW25069   3.221   2.067   2.808
 8057SOL    HW125070   3.162   2.104   2.736
 8057SOL    HW225071   3.165   2.013   2.872
 8058SOL     OW25072   4.540   0.684   2.541
 8058SOL    HW125073   4.608   0.613   2.521
 8058SOL    HW225074   4.553   0.718   2.634
 8059SOL     OW25075   4.531   2.304   4.660
 8059SOL    HW125076   4.528   2.219   4.607
 8059SOL    HW225077   4.476   2.294   4.743
 8060SOL     OW25078   0.723   2.607   4.522
 8060SOL    HW125079   0.694   2.525   4.473
 8060SOL    HW225080   0.648   2.641   4.579
 8061SOL     OW25081   6.837   0.248   2.011
 8061SOL    HW125082   6.770   0.301   2.063
 8061SOL    HW225083   6.789   0.181   1.954
 8062SOL     OW25084   2.930   5.338   4.308
 8062SOL    HW125085   2.997   5.364   4.240
 8062SOL    HW225086   2.917   5.413   4.373
 8063SOL     OW25087   0.867   2.757   0.445
 8063SOL    HW125088   0.900   2.807   0.525
 8063SOL    HW225089   0.852   2.820   0.369
 8064SOL     OW25090   0.165   4.992   0.886
 8064SOL    HW125091   0.179   4.995   0.787
 8064SOL    HW225092   0.070   4.970   0.905
 8065SOL     OW25093   3.732   6.260   4.495
 8065SOL    HW125094   3.781   6.208   4.565
 8065SOL    HW225095   3.792   6.279   4.418
 8066SOL     OW25096   0.914   2.169   6.245
 8066SOL    HW125097   0.902   2.083   6.194
 8066SOL    HW225098   0.975   2.229   6.194
 8067SOL     OW25099   5.103   3.131   1.521
 8067SOL    HW125100   5.012   3.095   1.499
 8067SOL    HW225101   5.116   3.219   1.475
 8068SOL     OW25102   6.151   4.584   0.197
 8068SOL    HW125103   6.218   4.587   0.123
 8068SOL    HW225104   6.086   4.509   0.181
 8069SOL     OW25105   2.048   6.095   1.152
 8069SOL    HW125106   2.131   6.143   1.182
 8069SOL    HW225107   1.993   6.071   1.232
 8070SOL     OW25108   2.767   2.880   0.228
 8070SOL    HW125109   2.691   2.868   0.165
 8070SOL    HW225110   2.809   2.791   0.247
 8071SOL     OW25111   2.806   6.478   4.885
 8071SOL    HW125112   2.760   6.567   4.891
 8071SOL    HW225113   2.903   6.489   4.907
 8072SOL     OW25114   3.236   0.864   6.639
 8072SOL    HW125115   3.326   0.828   6.664
 8072SOL    HW225116   3.246   0.931   6.565
 8073SOL     OW25117   4.116   5.464   5.966
 8073SOL    HW125118   4.104   5.470   5.867
 8073SOL    HW225119   4.165   5.545   5.998
 8074SOL     OW25120   3.000   2.917   0.598
 8074SOL    HW125121   2.931   2.937   0.668
 8074SOL    HW225122   3.091   2.923   0.638
 8075SOL     OW25123   6.588   1.315   0.883
 8075SOL    HW125124   6.493   1.314   0.852
 8075SOL    HW225125   6.631   1.228   0.861
 8076SOL     OW25126   4.872   2.253   5.565
 8076SOL    HW125127   4.789   2.219   5.609
 8076SOL    HW225128   4.868   2.235   5.467
 8077SOL     OW25129   1.482   5.470   2.193
 8077SOL    HW125130   1.442   5.398   2.251
 8077SOL    HW225131   1.467   5.559   2.236
 8078SOL     OW25132   5.544   0.913   0.982
 8078SOL    HW125133   5.627   0.969   0.989
 8078SOL    HW225134   5.562   0.834   0.923
 8079SOL     OW25135   4.954   1.353   3.467
 8079SOL    HW125136   5.053   1.356   3.453
 8079SOL    HW225137   4.931   1.281   3.533
 8080SOL     OW25138   6.887   3.444   0.229
 8080SOL    HW125139   6.849   3.361   0.186
 8080SOL    HW225140   6.883   3.520   0.164
 8081SOL     OW25141   4.986   0.017   4.376
 8081SOL    HW125142   5.082   0.041   4.389
 8081SOL    HW225143   4.934   0.041   4.458
 8082SOL     OW25144   5.875   0.573   1.981
 8082SOL    HW125145   5.901   0.656   1.931
 8082SOL    HW225146   5.790   0.589   2.031
 8083SOL     OW25147   5.442   3.447   2.822
 8083SOL    HW125148   5.372   3.382   2.850
 8083SOL    HW225149   5.474   3.424   2.731
 8084SOL     OW25150   5.061   6.865   0.044
 8084SOL    HW125151   5.158   6.848   0.032
 8084SOL    HW225152   5.012   6.841   6.976
 8085SOL     OW25153   6.189   0.214   2.939
 8085SOL    HW125154   6.123   0.156   2.892
 8085SOL    HW225155   6.221   0.168   3.022
 8086SOL     OW25156   4.950   0.823   3.885
 8086SOL    HW125157   5.007   0.875   3.822
 8086SOL    HW225158   4.982   0.836   3.978
 8087SOL     OW25159   2.612   1.004   1.176
 8087SOL    HW125160   2.528   1.041   1.215
 8087SOL    HW225161   2.647   1.068   1.107
 8088SOL     OW25162   5.749   2.564   1.109
 8088SOL    HW125163   5.716   2.645   1.158
 8088SOL    HW225164   5.712   2.482   1.152
 8089SOL     OW25165   4.902   2.614   0.097
 8089SOL    HW125166   4.815   2.628   0.050
 8089SOL    HW225167   4.962   2.559   0.039
 8090SOL     OW25168   3.951   2.369   6.578
 8090SOL    HW125169   3.885   2.353   6.504
 8090SOL    HW225170   3.980   2.282   6.618
 8091SOL     OW25171   2.230   4.262   6.629
 8091SOL    HW125172   2.142   4.288   6.667
 8091SOL    HW225173   2.240   4.162   6.632
 8092SOL     OW25174   0.551   2.440   4.975
 8092SOL    HW125175   0.467   2.450   5.028
 8092SOL    HW225176   0.630   2.449   5.035
 8093SOL     OW25177   4.890   5.520   2.043
 8093SOL    HW125178   4.990   5.526   2.047
 8093SOL    HW225179   4.859   5.444   2.100
 8094SOL     OW25180   1.462   4.086   4.612
 8094SOL    HW125181   1.515   4.001   4.614
 8094SOL    HW225182   1.422   4.098   4.521
 8095SOL     OW25183   5.729   3.994   4.318
 8095SOL    HW125184   5.727   3.895   4.305
 8095SOL    HW225185   5.665   4.037   4.255
 8096SOL     OW25186   3.276   5.550   3.794
 8096SOL    HW125187   3.281   5.604   3.878
 8096SOL    HW225188   3.282   5.611   3.715
 8097SOL     OW25189   5.292   6.825   3.394
 8097SOL    HW125190   5.309   6.817   3.296
 8097SOL    HW225191   5.199   6.861   3.408
 8098SOL     OW25192   2.014   6.735   4.055
 8098SOL    HW125193   2.109   6.747   4.085
 8098SOL    HW225194   1.958   6.808   4.094
 8099SOL     OW25195   5.304   6.627   4.046
 8099SOL    HW125196   5.389   6.676   4.030
 8099SOL    HW225197   5.270   6.588   3.960
 8100SOL     OW25198   0.000   0.138   6.908
 8100SOL    HW125199   6.975   0.048   6.925
 8100SOL    HW225200   6.989   0.170   6.817
 8101SOL     OW25201   2.041   0.170   3.656
 8101SOL    HW125202   2.123   0.160   3.599
 8101SOL    HW225203   1.998   0.080   3.668
 8102SOL     OW25204   0.804   4.664   4.612
 8102SOL    HW125205   0.732   4.671   4.681
 8102SOL    HW225206   0.859   4.747   4.613
 8103SOL     OW25207   4.513   0.741   0.611
 8103SOL    HW125208   4.604   0.747   0.571
 8103SOL    HW225209   4.489   0.828   0.654
 8104SOL     OW25210   2.474   6.822   6.026
 8104SOL    HW125211   2.489   6.921   6.028
 8104SOL    HW225212   2.475   6.785   6.119
 8105SOL     OW25213   1.776   2.480   3.299
 8105SOL    HW125214   1.701   2.425   3.261
 8105SOL    HW225215   1.863   2.443   3.268
 8106SOL     OW25216   2.888   5.586   3.185
 8106SOL    HW125217   2.922   5.506   3.235
 8106SOL    HW225218   2.964   5.635   3.143
 8107SOL     OW25219   0.800   5.340   4.834
 8107SOL    HW125220   0.779   5.387   4.748
 8107SOL    HW225221   0.846   5.254   4.814
 8108SOL     OW25222   5.973   3.355   4.791
 8108SOL    HW125223   6.048   3.406   4.747
 8108SOL    HW225224   6.007   3.312   4.875
 8109SOL     OW25225   0.975   3.337   4.074
 8109SOL    HW125226   0.929   3.421   4.043
 8109SOL    HW225227   1.022   3.355   4.160
 8110SOL     OW25228   3.669   6.370   0.492
 8110SOL    HW125229   3.608   6.421   0.432
 8110SOL    HW225230   3.620   6.293   0.532
 8111SOL     OW25231   4.350   1.115   5.100
 8111SOL    HW125232   4.428   1.176   5.085
 8111SOL    HW225233   4.354   1.039   5.035
 8112SOL     OW25234   1.815   1.756   4.389
 8112SOL    HW125235   1.915   1.750   4.395
 8112SOL    HW225236   1.775   1.666   4.406
 8113SOL     OW25237   3.164   3.343   0.649
 8113SOL    HW125238   3.155   3.325   0.551
 8113SOL    HW225239   3.088   3.299   0.698
 8114SOL     OW25240   2.455   3.556   1.333
 8114SOL    HW125241   2.407   3.548   1.420
 8114SOL    HW225242   2.400   3.608   1.269
 8115SOL     OW25243   4.132   0.617   1.636
 8115SOL    HW125244   4.035   0.633   1.649
 8115SOL    HW225245   4.184   0.661   1.709
 8116SOL     OW25246   5.255   6.649   5.134
 8116SOL    HW125247   5.310   6.727   5.164
 8116SOL    HW225248   5.158   6.667   5.153
 8117SOL     OW25249   2.584   0.900   3.999
 8117SOL    HW125250   2.616   0.823   4.055
 8117SOL    HW225251   2.522   0.957   4.052
 8118SOL     OW25252   6.440   2.880   5.784
 8118SOL    HW125253   6.449   2.898   5.882
 8118SOL    HW225254   6.531   2.863   5.745
 8119SOL     OW25255   6.603   5.969   5.037
 8119SOL    HW125256   6.577   5.935   4.947
 8119SOL    HW225257   6.600   5.894   5.103
 8120SOL     OW25258   3.385   4.569   6.966
 8120SOL    HW125259   3.362   4.581   6.869
 8120SOL    HW225260   3.378   4.472   6.989
 8121SOL     OW25261   6.757   5.313   2.014
 8121SOL    HW125262   6.824   5.240   1.999
 8121SOL    HW225263   6.693   5.315   1.937
 8122SOL     OW25264   1.339   5.759   2.718
 8122SOL    HW125265   1.260   5.818   2.731
 8122SOL    HW225266   1.406   5.777   2.790
 8123SOL     OW25267   0.020   0.230   6.616
 8123SOL    HW125268   0.091   0.161   6.627
 8123SOL    HW225269   0.059   0.321   6.633
 8124SOL     OW25270   0.052   6.563   0.746
 8124SOL    HW125271   0.121   6.632   0.724
 8124SOL    HW225272   6.990   6.606   0.790
 8125SOL     OW25273   0.727   6.921   3.169
 8125SOL    HW125274   0.711   6.949   3.263
 8125SOL    HW225275   0.768   6.997   3.118
 8126SOL     OW25276   6.268   4.096   2.088
 8126SOL    HW125277   6.344   4.091   2.023
 8126SOL    HW225278   6.187   4.052   2.048
 8127SOL     OW25279   2.643   6.128   0.625
 8127SOL    HW125280   2.546   6.113   0.644
 8127SOL    HW225281   2.696   6.051   0.662
 8128SOL     OW25282   2.541   3.156   0.972
 8128SOL    HW125283   2.621   3.127   1.025
 8128SOL    HW225284   2.566   3.234   0.914
 8129SOL     OW25285   4.183   0.952   5.439
 8129SOL    HW125286   4.198   1.040   5.394
 8129SOL    HW225287   4.247   0.884   5.402
 8130SOL     OW25288   0.113   4.696   6.650
 8130SOL    HW125289   0.086   4.758   6.724
 8130SOL    HW225290   0.064   4.609   6.660
 8131SOL     OW25291   3.526   0.838   0.707
 8131SOL    HW125292   3.577   0.774   0.765
 8131SOL    HW225293   3.436   0.855   0.747
 8132SOL     OW25294   5.613   6.345   6.890
 8132SOL    HW125295   5.562   6.259   6.894
 8132SOL    HW225296   5.592   6.393   6.805
 8133SOL     OW25297   3.481   4.961   1.783
 8133SOL    HW125298   3.539   4.895   1.829
 8133SOL    HW225299   3.531   5.046   1.769
 8134SOL     OW25300   0.674   1.601   4.459
 8134SOL    HW125301   0.731   1.519   4.467
 8134SOL    HW225302   0.731   1.678   4.428
 8135SOL     OW25303   2.238   5.704   1.056
 8135SOL    HW125304   2.156   5.762   1.061
 8135SOL    HW225305   2.245   5.650   1.139
 8136SOL     OW25306   4.832   4.662   2.699
 8136SOL    HW125307   4.867   4.577   2.660
 8136SOL    HW225308   4.861   4.669   2.795
 8137SOL     OW25309   2.526   1.254   4.476
 8137SOL    HW125310   2.438   1.232   4.517
 8137SOL    HW225311   2.512   1.312   4.396
 8138SOL     OW25312   5.728   1.983   0.550
 8138SOL    HW125313   5.806   1.921   0.561
 8138SOL    HW225314   5.666   1.973   0.627
 8139SOL     OW25315   2.155   2.301   3.681
 8139SOL    HW125316   2.076   2.297   3.742
 8139SOL    HW225317   2.146   2.231   3.610
 8140SOL     OW25318   3.803   6.853   0.593
 8140SOL    HW125319   3.875   6.786   0.579
 8140SOL    HW225320   3.820   6.933   0.536
 8141SOL     OW25321   4.275   0.044   5.586
 8141SOL    HW125322   4.332   6.993   5.635
 8141SOL    HW225323   4.215   7.011   5.522
 8142SOL     OW25324   1.581   5.242   0.519
 8142SOL    HW125325   1.568   5.228   0.617
 8142SOL    HW225326   1.672   5.209   0.493
 8143SOL     OW25327   5.519   5.537   0.316
 8143SOL    HW125328   5.468   5.498   0.239
 8143SOL    HW225329   5.458   5.597   0.369
 8144SOL     OW25330   0.602   5.692   6.000
 8144SOL    HW125331   0.513   5.654   6.027
 8144SOL    HW225332   0.595   5.728   5.907
 8145SOL     OW25333   5.177   5.711   0.767
 8145SOL    HW125334   5.179   5.680   0.861
 8145SOL    HW225335   5.269   5.741   0.740
 8146SOL     OW25336   5.487   0.363   5.334
 8146SOL    HW125337   5.524   0.449   5.368
 8146SOL    HW225338   5.388   0.361   5.350
 8147SOL     OW25339   6.173   0.954   1.138
 8147SOL    HW125340   6.092   0.936   1.193
 8147SOL    HW225341   6.242   0.883   1.156
 8148SOL     OW25342   5.153   5.041   0.235
 8148SOL    HW125343   5.231   5.020   0.176
 8148SOL    HW225344   5.183   5.039   0.330
 8149SOL     OW25345   1.690   6.730   3.348
 8149SOL    HW125346   1.669   6.739   3.445
 8149SOL    HW225347   1.604   6.727   3.296
 8150SOL     OW25348   1.187   4.196   0.934
 8150SOL    HW125349   1.251   4.217   0.860
 8150SOL    HW225350   1.238   4.180   1.019
 8151SOL     OW25351   5.742   5.094   3.627
 8151SOL    HW125352   5.707   5.126   3.715
 8151SOL    HW225353   5.727   5.165   3.558
 8152SOL     OW25354   6.254   2.826   3.403
 8152SOL    HW125355   6.277   2.902   3.463
 8152SOL    HW225356   6.252   2.857   3.308
 8153SOL     OW25357   1.209   1.268   3.561
 8153SOL    HW125358   1.211   1.210   3.480
 8153SOL    HW225359   1.117   1.304   3.575
 8154SOL     OW25360   3.917   6.779   2.799
 8154SOL    HW125361   3.869   6.832   2.729
 8154SOL    HW225362   3.897   6.681   2.786
 8155SOL     OW25363   1.519   3.901   2.347
 8155SOL    HW125364   1.541   3.849   2.430
 8155SOL    HW225365   1.545   3.848   2.267
 8156SOL     OW25366   4.684   6.456   0.494
 8156SOL    HW125367   4.620   6.517   0.446
 8156SOL    HW225368   4.665   6.361   0.467
 8157SOL     OW25369   6.462   4.503   6.420
 8157SOL    HW125370   6.485   4.580   6.360
 8157SOL    HW225371   6.366   4.478   6.407
 8158SOL     OW25372   5.389   4.415   0.114
 8158SOL    HW125373   5.422   4.333   0.067
 8158SOL    HW225374   5.467   4.466   0.151
 8159SOL     OW25375   3.290   5.604   4.134
 8159SOL    HW125376   3.362   5.538   4.154
 8159SOL    HW225377   3.326   5.697   4.143
 8160SOL     OW25378   5.027   6.821   3.455
 8160SOL    HW125379   4.986   6.913   3.458
 8160SOL    HW225380   5.058   6.796   3.546
 8161SOL     OW25381   5.658   3.751   6.067
 8161SOL    HW125382   5.707   3.749   5.979
 8161SOL    HW225383   5.711   3.701   6.135
 8162SOL     OW25384   6.748   5.934   6.742
 8162SOL    HW125385   6.656   5.945   6.703
 8162SOL    HW225386   6.742   5.935   6.842
 8163SOL     OW25387   2.204   4.754   5.358
 8163SOL    HW125388   2.149   4.677   5.325
 8163SOL    HW225389   2.195   4.830   5.294
 8164SOL     OW25390   4.378   1.127   0.572
 8164SOL    HW125391   4.404   1.130   0.476
 8164SOL    HW225392   4.448   1.079   0.625
 8165SOL     OW25393   6.577   3.956   5.841
 8165SOL    HW125394   6.549   4.048   5.868
 8165SOL    HW225395   6.564   3.893   5.918
 8166SOL     OW25396   1.103   0.460   3.187
 8166SOL    HW125397   1.052   0.436   3.269
 8166SOL    HW225398   1.201   0.454   3.205
 8167SOL     OW25399   0.309   0.570   3.361
 8167SOL    HW125400   0.385   0.627   3.331
 8167SOL    HW225401   0.280   0.598   3.453
 8168SOL     OW25402   2.912   0.679   1.390
 8168SOL    HW125403   2.849   0.709   1.318
 8168SOL    HW225404   2.959   0.596   1.361
 8169SOL     OW25405   4.851   2.015   0.643
 8169SOL    HW125406   4.932   2.066   0.611
 8169SOL    HW225407   4.880   1.926   0.677
 8170SOL     OW25408   0.864   5.042   1.650
 8170SOL    HW125409   0.913   5.130   1.649
 8170SOL    HW225410   0.795   5.043   1.722
 8171SOL     OW25411   1.757   2.102   6.935
 8171SOL    HW125412   1.855   2.105   6.916
 8171SOL    HW225413   1.715   2.188   6.904
 8172SOL     OW25414   6.948   1.947   1.954
 8172SOL    HW125415   6.874   2.012   1.972
 8172SOL    HW225416   6.929   1.861   2.000
 8173SOL     OW25417   5.870   2.473   2.174
 8173SOL    HW125418   5.850   2.430   2.086
 8173SOL    HW225419   5.969   2.481   2.185
 8174SOL     OW25420   6.976   6.947   2.553
 8174SOL    HW125421   0.044   6.994   2.580
 8174SOL    HW225422   6.930   7.001   2.482
 8175SOL     OW25423   0.001   3.192   4.900
 8175SOL    HW125424   6.944   3.147   4.951
 8175SOL    HW225425   0.087   3.184   4.950
 8176SOL     OW25426   2.652   4.742   1.441
 8176SOL    HW125427   2.683   4.662   1.492
 8176SOL    HW225428   2.586   4.794   1.496
 8177SOL     OW25429   5.028   0.355   3.760
 8177SOL    HW125430   4.968   0.431   3.784
 8177SOL    HW225431   5.121   0.374   3.792
 8178SOL     OW25432   2.798   0.005   0.867
 8178SOL    HW125433   2.889   0.021   0.830
 8178SOL    HW225434   2.731   0.061   0.818
 8179SOL     OW25435   5.309   1.224   4.976
 8179SOL    HW125436   5.369   1.150   5.009
 8179SOL    HW225437   5.241   1.244   5.047
 8180SOL     OW25438   6.255   0.612   6.215
 8180SOL    HW125439   6.322   0.541   6.234
 8180SOL    HW225440   6.293   0.701   6.243
 8181SOL     OW25441   1.263   1.841   0.587
 8181SOL    HW125442   1.220   1.763   0.634
 8181SOL    HW225443   1.194   1.912   0.572
 8182SOL     OW25444   3.067   3.310   5.544
 8182SOL    HW125445   3.063   3.212   5.560
 8182SOL    HW225446   3.158   3.335   5.510
 8183SOL     OW25447   6.878   2.392   4.587
 8183SOL    HW125448   6.820   2.344   4.653
 8183SOL    HW225449   6.824   2.415   4.507
 8184SOL     OW25450   0.473   6.856   0.354
 8184SOL    HW125451   0.402   6.891   0.415
 8184SOL    HW225452   0.563   6.872   0.394
 8185SOL     OW25453   1.444   0.593   0.030
 8185SOL    HW125454   1.509   0.520   0.011
 8185SOL    HW225455   1.486   0.682   0.008
 8186SOL     OW25456   2.767   4.657   5.751
 8186SOL    HW125457   2.816   4.689   5.670
 8186SOL    HW225458   2.716   4.733   5.790
 8187SOL     OW25459   1.894   1.421   5.021
 8187SOL    HW125460   1.961   1.358   4.983
 8187SOL    HW225461   1.805   1.403   4.980
 8188SOL     OW25462   4.991   3.335   3.859
 8188SOL    HW125463   4.963   3.310   3.766
 8188SOL    HW225464   4.952   3.271   3.924
 8189SOL     OW25465   5.274   5.292   2.899
 8189SOL    HW125466   5.186   5.318   2.937
 8189SOL    HW225467   5.265   5.204   2.852
 8190SOL     OW25468   4.942   3.762   4.353
 8190SOL    HW125469   4.976   3.748   4.260
 8190SOL    HW225470   4.858   3.709   4.367
 8191SOL     OW25471   3.666   5.706   2.095
 8191SOL    HW125472   3.667   5.615   2.138
 8191SOL    HW225473   3.640   5.774   2.163
 8192SOL     OW25474   2.519   5.283   1.335
 8192SOL    HW125475   2.536   5.231   1.251
 8192SOL    HW225476   2.557   5.376   1.325
 8193SOL     OW25477   5.932   5.470   5.658
 8193SOL    HW125478   5.961   5.430   5.746
 8193SOL    HW225479   5.915   5.396   5.593
 8194SOL     OW25480   5.181   1.084   1.379
 8194SOL    HW125481   5.092   1.122   1.356
 8194SOL    HW225482   5.227   1.055   1.295
 8195SOL     OW25483   0.849   6.608   3.169
 8195SOL    HW125484   0.819   6.535   3.108
 8195SOL    HW225485   0.801   6.693   3.146
 8196SOL     OW25486   3.903   6.146   6.177
 8196SOL    HW125487   3.867   6.209   6.245
 8196SOL    HW225488   3.992   6.111   6.207
 8197SOL     OW25489   3.456   1.067   0.400
 8197SOL    HW125490   3.357   1.083   0.409
 8197SOL    HW225491   3.471   0.980   0.354
 8198SOL     OW25492   3.361   5.983   2.554
 8198SOL    HW125493   3.403   6.072   2.573
 8198SOL    HW225494   3.402   5.944   2.471
 8199SOL     OW25495   5.797   2.757   6.046
 8199SOL    HW125496   5.887   2.734   6.011
 8199SOL    HW225497   5.775   2.698   6.124
 8200SOL     OW25498   5.670   4.753   1.786
 8200SOL    HW125499   5.753   4.706   1.756
 8200SOL    HW225500   5.590   4.699   1.761
 8201SOL     OW25501   5.696   1.029   4.799
 8201SOL    HW125502   5.762   1.007   4.871
 8201SOL    HW225503   5.726   1.111   4.750
 8202SOL     OW25504   0.439   5.192   3.772
 8202SOL    HW125505   0.374   5.131   3.819
 8202SOL    HW225506   0.413   5.287   3.788
 8203SOL     OW25507   3.105   2.244   6.834
 8203SOL    HW125508   3.181   2.222   6.896
 8203SOL    HW225509   3.025   2.272   6.888
 8204SOL     OW25510   3.767   4.723   6.935
 8204SOL    HW125511   3.788   4.628   6.913
 8204SOL    HW225512   3.714   4.727   0.004
 8205SOL     OW25513   0.353   4.950   0.299
 8205SOL    HW125514   0.438   4.995   0.327
 8205SOL    HW225515   0.332   4.876   0.363
 8206SOL     OW25516   5.176   1.650   6.469
 8206SOL    HW125517   5.210   1.657   6.564
 8206SOL    HW225518   5.077   1.662   6.468
 8207SOL     OW25519   3.000   3.267   4.510
 8207SOL    HW125520   3.031   3.283   4.416
 8207SOL    HW225521   2.994   3.169   4.527
 8208SOL     OW25522   1.155   0.357   1.578
 8208SOL    HW125523   1.194   0.292   1.643
 8208SOL    HW225524   1.225   0.384   1.512
 8209SOL     OW25525   0.531   1.383   5.190
 8209SOL    HW125526   0.491   1.410   5.102
 8209SOL    HW225527   0.478   1.308   5.229
 8210SOL     OW25528   2.095   1.300   0.561
 8210SOL    HW125529   2.128   1.334   0.473
 8210SOL    HW225530   2.094   1.375   0.627
 8211SOL     OW25531   3.898   4.083   1.807
 8211SOL    HW125532   3.955   4.042   1.878
 8211SOL    HW225533   3.914   4.038   1.720
 8212SOL     OW25534   2.127   2.404   2.222
 8212SOL    HW125535   2.066   2.481   2.203
 8212SOL    HW225536   2.168   2.372   2.137
 8213SOL     OW25537   6.758   4.139   1.517
 8213SOL    HW125538   6.774   4.051   1.563
 8213SOL    HW225539   6.677   4.183   1.556
 8214SOL     OW25540   5.734   5.863   3.938
 8214SOL    HW125541   5.678   5.819   3.868
 8214SOL    HW225542   5.825   5.821   3.939
 8215SOL     OW25543   2.730   5.430   6.060
 8215SOL    HW125544   2.713   5.380   5.976
 8215SOL    HW225545   2.827   5.456   6.064
 8216SOL     OW25546   5.123   5.238   3.890
 8216SOL    HW125547   5.164   5.270   3.975
 8216SOL    HW225548   5.043   5.182   3.911
 8217SOL     OW25549   1.448   4.249   0.152
 8217SOL    HW125550   1.428   4.244   0.250
 8217SOL    HW225551   1.529   4.305   0.137
 8218SOL     OW25552   0.391   0.194   5.914
 8218SOL    HW125553   0.352   0.139   5.988
 8218SOL    HW225554   0.317   0.244   5.869
 8219SOL     OW25555   4.650   2.491   0.733
 8219SOL    HW125556   4.553   2.503   0.753
 8219SOL    HW225557   4.676   2.396   0.752
 8220SOL     OW25558   3.387   2.932   3.467
 8220SOL    HW125559   3.334   2.932   3.552
 8220SOL    HW225560   3.330   2.966   3.392
 8221SOL     OW25561   5.640   6.343   3.386
 8221SOL    HW125562   5.644   6.362   3.484
 8221SOL    HW225563   5.560   6.285   3.367
 8222SOL     OW25564   5.931   1.218   1.621
 8222SOL    HW125565   5.869   1.272   1.678
 8222SOL    HW225566   6.025   1.250   1.634
 8223SOL     OW25567   0.757   4.879   5.329
 8223SOL    HW125568   0.708   4.963   5.304
 8223SOL    HW225569   0.840   4.903   5.380
 8224SOL     OW25570   6.345   0.720   2.570
 8224SOL    HW125571   6.381   0.810   2.544
 8224SOL    HW225572   6.257   0.731   2.616
 8225SOL     OW25573   3.178   1.270   0.788
 8225SOL    HW125574   3.173   1.319   0.701
 8225SOL    HW225575   3.273   1.266   0.819
 8226SOL     OW25576   4.081   0.508   0.693
 8226SOL    HW125577   4.097   0.581   0.627
 8226SOL    HW225578   4.057   0.423   0.645
 8227SOL     OW25579   6.907   1.671   2.959
 8227SOL    HW125580   6.977   1.600   2.964
 8227SOL    HW225581   6.933   1.738   2.890
 8228SOL     OW25582   6.606   1.814   5.792
 8228SOL    HW125583   6.624   1.908   5.821
 8228SOL    HW225584   6.681   1.782   5.735
 8229SOL     OW25585   4.516   2.819   0.793
 8229SOL    HW125586   4.493   2.747   0.727
 8229SOL    HW225587   4.436   2.836   0.851
 8230SOL     OW25588   4.032   0.285   5.397
 8230SOL    HW125589   4.094   0.355   5.432
 8230SOL    HW225590   4.054   0.197   5.439
 8231SOL     OW25591   3.051   4.130   1.080
 8231SOL    HW125592   3.011   4.048   1.040
 8231SOL    HW225593   2.979   4.182   1.128
 8232SOL     OW25594   5.147   1.354   1.689
 8232SOL    HW125595   5.201   1.327   1.609
 8232SOL    HW225596   5.134   1.275   1.749
 8233SOL     OW25597   1.630   5.683   5.924
 8233SOL    HW125598   1.648   5.621   5.848
 8233SOL    HW225599   1.692   5.762   5.918
 8234SOL     OW25600   2.607   4.086   6.852
 8234SOL    HW125601   2.540   4.160   6.865
 8234SOL    HW225602   2.561   4.005   6.817
 8235SOL     OW25603   0.410   3.050   0.235
 8235SOL    HW125604   0.413   3.145   0.264
 8235SOL    HW225605   0.316   3.015   0.241
 8236SOL     OW25606   0.991   5.045   0.458
 8236SOL    HW125607   0.976   5.084   0.367
 8236SOL    HW225608   0.912   5.064   0.516
 8237SOL     OW25609   3.920   6.705   3.997
 8237SOL    HW125610   3.934   6.627   4.059
 8237SOL    HW225611   4.006   6.754   3.986
 8238SOL     OW25612   0.517   4.917   6.350
 8238SOL    HW125613   0.489   4.826   6.381
 8238SOL    HW225614   0.568   4.908   6.264
 8239SOL     OW25615   6.401   1.176   6.018
 8239SOL    HW125616   6.490   1.138   6.042
 8239SOL    HW225617   6.367   1.231   6.095
 8240SOL     OW25618   3.495   4.079   2.539
 8240SOL    HW125619   3.469   4.115   2.629
 8240SOL    HW225620   3.549   3.996   2.552
 8241SOL     OW25621   4.070   7.001   5.830
 8241SOL    HW125622   4.143   6.951   5.783
 8241SOL    HW225623   4.110   0.051   5.894
 8242SOL     OW25624   0.442   4.818   5.834
 8242SOL    HW125625   0.355   4.861   5.809
 8242SOL    HW225626   0.434   4.719   5.823
 8243SOL     OW25627   0.254   2.349   0.220
 8243SOL    HW125628   0.312   2.274   0.188
 8243SOL    HW225629   0.213   2.395   0.141
 8244SOL     OW25630   0.219   0.422   4.454
 8244SOL    HW125631   0.240   0.326   4.473
 8244SOL    HW225632   0.257   0.480   4.526
 8245SOL     OW25633   4.218   1.888   2.380
 8245SOL    HW125634   4.251   1.820   2.445
 8245SOL    HW225635   4.243   1.860   2.287
 8246SOL     OW25636   1.167   3.148   5.694
 8246SOL    HW125637   1.094   3.198   5.741
 8246SOL    HW225638   1.247   3.207   5.684
 8247SOL     OW25639   1.908   0.546   2.406
 8247SOL    HW125640   1.819   0.563   2.448
 8247SOL    HW225641   1.970   0.622   2.426
 8248SOL     OW25642   6.511   5.383   4.654
 8248SOL    HW125643   6.493   5.383   4.555
 8248SOL    HW225644   6.573   5.309   4.677
 8249SOL     OW25645   1.797   2.689   5.948
 8249SOL    HW125646   1.730   2.644   6.007
 8249SOL    HW225647   1.759   2.696   5.855
 8250SOL     OW25648   3.107   3.925   1.832
 8250SOL    HW125649   3.108   3.975   1.918
 8250SOL    HW225650   3.199   3.892   1.811
 8251SOL     OW25651   5.203   3.336   4.264
 8251SOL    HW125652   5.188   3.270   4.337
 8251SOL    HW225653   5.295   3.374   4.271
 8252SOL     OW25654   2.832   1.577   5.036
 8252SOL    HW125655   2.809   1.528   4.951
 8252SOL    HW225656   2.904   1.643   5.018
 8253SOL     OW25657   4.023   4.889   5.738
 8253SOL    HW125658   4.063   4.940   5.661
 8253SOL    HW225659   4.001   4.796   5.708
 8254SOL     OW25660   4.574   4.302   5.221
 8254SOL    HW125661   4.671   4.309   5.202
 8254SOL    HW225662   4.555   4.216   5.269
 8255SOL     OW25663   2.034   0.197   5.403
 8255SOL    HW125664   1.977   0.202   5.321
 8255SOL    HW225665   2.123   0.239   5.385
 8256SOL     OW25666   6.604   6.636   2.132
 8256SOL    HW125667   6.580   6.631   2.035
 8256SOL    HW225668   6.690   6.588   2.148
 8257SOL     OW25669   4.978   4.232   3.083
 8257SOL    HW125670   5.026   4.146   3.097
 8257SOL    HW225671   5.041   4.308   3.103
 8258SOL     OW25672   5.512   1.765   0.994
 8258SOL    HW125673   5.586   1.824   0.961
 8258SOL    HW225674   5.548   1.673   1.010
 8259SOL     OW25675   3.868   1.717   4.120
 8259SOL    HW125676   3.817   1.802   4.134
 8259SOL    HW225677   3.872   1.667   4.207
 8260SOL     OW25678   2.178   6.526   0.987
 8260SOL    HW125679   2.187   6.429   0.965
 8260SOL    HW225680   2.151   6.577   0.905
 8261SOL     OW25681   6.272   6.730   2.109
 8261SOL    HW125682   6.207   6.690   2.045
 8261SOL    HW225683   6.337   6.661   2.139
 8262SOL     OW25684   0.698   3.280   0.400
 8262SOL    HW125685   0.767   3.267   0.328
 8262SOL    HW225686   0.607   3.281   0.358
 8263SOL     OW25687   0.480   2.534   6.117
 8263SOL    HW125688   0.512   2.586   6.037
 8263SOL    HW225689   0.488   2.591   6.199
 8264SOL     OW25690   2.352   6.407   2.264
 8264SOL    HW125691   2.413   6.390   2.187
 8264SOL    HW225692   2.406   6.425   2.346
 8265SOL     OW25693   6.511   0.772   1.145
 8265SOL    HW125694   6.418   0.736   1.135
 8265SOL    HW225695   6.576   0.711   1.098
 8266SOL     OW25696   2.466   1.330   3.757
 8266SOL    HW125697   2.528   1.399   3.720
 8266SOL    HW225698   2.501   1.295   3.844
 8267SOL     OW25699   1.952   3.147   1.106
 8267SOL    HW125700   2.031   3.174   1.161
 8267SOL    HW225701   1.907   3.229   1.070
 8268SOL     OW25702   1.905   6.559   5.873
 8268SOL    HW125703   1.859   6.497   5.809
 8268SOL    HW225704   1.930   6.643   5.826
 8269SOL     OW25705   4.394   1.386   2.315
 8269SOL    HW125706   4.484   1.345   2.303
 8269SOL    HW225707   4.392   1.476   2.272
 8270SOL     OW25708   2.904   6.690   5.122
 8270SOL    HW125709   2.805   6.694   5.114
 8270SOL    HW225710   2.932   6.601   5.157
 8271SOL     OW25711   0.411   0.134   3.483
 8271SOL    HW125712   0.494   0.181   3.451
 8271SOL    HW225713   0.358   0.195   3.541
 8272SOL     OW25714   6.082   2.266   2.347
 8272SOL    HW125715   6.081   2.297   2.252
 8272SOL    HW225716   6.167   2.295   2.391
 8273SOL     OW25717   2.323   1.136   0.024
 8273SOL    HW125718   2.375   1.218   0.049
 8273SOL    HW225719   2.371   1.086   6.968
 8274SOL     OW25720   5.185   4.812   4.362
 8274SOL    HW125721   5.158   4.817   4.266
 8274SOL    HW225722   5.279   4.843   4.372
 8275SOL     OW25723   6.330   1.014   5.368
 8275SOL    HW125724   6.232   0.998   5.374
 8275SOL    HW225725   6.347   1.112   5.355
 8276SOL     OW25726   0.779   2.580   3.636
 8276SOL    HW125727   0.682   2.586   3.611
 8276SOL    HW225728   0.829   2.655   3.591
 8277SOL     OW25729   0.203   6.202   6.114
 8277SOL    HW125730   0.199   6.267   6.038
 8277SOL    HW225731   0.272   6.132   6.094
 8278SOL     OW25732   3.136   1.383   6.111
 8278SOL    HW125733   3.075   1.346   6.041
 8278SOL    HW225734   3.100   1.470   6.143
 8279SOL     OW25735   1.427   6.159   4.379
 8279SOL    HW125736   1.418   6.076   4.324
 8279SOL    HW225737   1.449   6.134   4.474
 8280SOL     OW25738   2.084   3.505   0.462
 8280SOL    HW125739   2.171   3.489   0.417
 8280SOL    HW225740   2.080   3.599   0.496
 8281SOL     OW25741   3.031   4.412   1.676
 8281SOL    HW125742   2.974   4.470   1.733
 8281SOL    HW225743   3.048   4.457   1.588
 8282SOL     OW25744   4.587   3.414   6.968
 8282SOL    HW125745   4.609   3.400   0.049
 8282SOL    HW225746   4.666   3.389   6.912
 8283SOL     OW25747   1.865   5.207   5.512
 8283SOL    HW125748   1.786   5.235   5.566
 8283SOL    HW225749   1.835   5.157   5.431
 8284SOL     OW25750   0.701   3.567   1.086
 8284SOL    HW125751   0.776   3.627   1.059
 8284SOL    HW225752   0.615   3.604   1.050
 8285SOL     OW25753   3.095   4.086   4.721
 8285SOL    HW125754   3.106   4.016   4.792
 8285SOL    HW225755   3.051   4.166   4.761
 8286SOL     OW25756   5.676   1.790   5.764
 8286SOL    HW125757   5.625   1.816   5.683
 8286SOL    HW225758   5.661   1.858   5.836
 8287SOL     OW25759   1.542   5.376   4.202
 8287SOL    HW125760   1.528   5.396   4.299
 8287SOL    HW225761   1.454   5.355   4.159
 8288SOL     OW25762   2.997   2.084   1.970
 8288SOL    HW125763   3.082   2.067   2.020
 8288SOL    HW225764   2.961   2.174   1.994
 8289SOL     OW25765   0.687   6.062   0.830
 8289SOL    HW125766   0.771   6.086   0.878
 8289SOL    HW225767   0.699   5.975   0.783
 8290SOL     OW25768   5.190   1.527   1.416
 8290SOL    HW125769   5.166   1.536   1.319
 8290SOL    HW225770   5.148   1.601   1.468
 8291SOL     OW25771   4.904   6.249   4.867
 8291SOL    HW125772   4.967   6.176   4.893
 8291SOL    HW225773   4.956   6.328   4.833
 8292SOL     OW25774   2.919   6.710   6.765
 8292SOL    HW125775   2.947   6.623   6.804
 8292SOL    HW225776   2.920   6.704   6.665
 8293SOL     OW25777   2.877   5.444   0.320
 8293SOL    HW125778   2.789   5.404   0.347
 8293SOL    HW225779   2.917   5.491   0.399
 8294SOL     OW25780   5.730   3.199   5.334
 8294SOL    HW125781   5.686   3.231   5.418
 8294SOL    HW225782   5.737   3.100   5.336
 8295SOL     OW25783   5.072   5.348   1.758
 8295SOL    HW125784   5.133   5.427   1.761
 8295SOL    HW225785   4.986   5.374   1.712
 8296SOL     OW25786   1.490   4.380   6.702
 8296SOL    HW125787   1.537   4.439   6.636
 8296SOL    HW225788   1.443   4.437   6.769
 8297SOL     OW25789   7.014   3.151   2.669
 8297SOL    HW125790   6.930   3.098   2.679
 8297SOL    HW225791   0.077   3.091   2.685
 8298SOL     OW25792   6.170   1.453   1.649
 8298SOL    HW125793   6.138   1.529   1.592
 8298SOL    HW225794   6.269   1.462   1.664
 8299SOL     OW25795   6.767   2.263   2.473
 8299SOL    HW125796   6.863   2.289   2.462
 8299SOL    HW225797   6.762   2.169   2.506
 8300SOL     OW25798   0.414   5.492   4.439
 8300SOL    HW125799   0.420   5.431   4.519
 8300SOL    HW225800   0.401   5.586   4.470
 8301SOL     OW25801   3.638   1.774   1.191
 8301SOL    HW125802   3.650   1.873   1.196
 8301SOL    HW225803   3.543   1.753   1.167
 8302SOL     OW25804   5.916   7.001   6.657
 8302SOL    HW125805   5.956   0.002   6.567
 8302SOL    HW225806   5.959   6.920   6.698
 8303SOL     OW25807   6.119   0.812   3.785
 8303SOL    HW125808   6.147   0.906   3.764
 8303SOL    HW225809   6.172   0.748   3.729
 8304SOL     OW25810   6.877   2.968   0.994
 8304SOL    HW125811   6.841   3.022   0.918
 8304SOL    HW225812   6.883   3.025   1.075
 8305SOL     OW25813   4.733   4.727   4.098
 8305SOL    HW125814   4.687   4.639   4.088
 8305SOL    HW225815   4.715   4.783   4.017
 8306SOL     OW25816   5.955   1.754   5.683
 8306SOL    HW125817   5.864   1.766   5.722
 8306SOL    HW225818   5.986   1.661   5.699
 8307SOL     OW25819   3.433   5.534   1.794
 8307SOL    HW125820   3.458   5.606   1.860
 8307SOL    HW225821   3.352   5.486   1.827
 8308SOL     OW25822   3.269   5.501   1.564
 8308SOL    HW125823   3.345   5.489   1.628
 8308SOL    HW225824   3.232   5.412   1.539
 8309SOL     OW25825   6.581   5.429   3.604
 8309SOL    HW125826   6.575   5.476   3.515
 8309SOL    HW225827   6.491   5.396   3.630
 8310SOL     OW25828   0.006   5.217   1.085
 8310SOL    HW125829   0.008   5.293   1.150
 8310SOL    HW225830   6.939   5.223   1.029
 8311SOL     OW25831   0.956   1.735   4.796
 8311SOL    HW125832   0.858   1.749   4.810
 8311SOL    HW225833   1.004   1.823   4.801
 8312SOL     OW25834   5.113   0.119   6.881
 8312SOL    HW125835   5.122   0.150   6.976
 8312SOL    HW225836   5.128   0.197   6.819
 8313SOL     OW25837   5.582   0.118   0.510
 8313SOL    HW125838   5.661   0.151   0.563
 8313SOL    HW225839   5.542   0.039   0.557
 8314SOL     OW25840   5.172   0.445   0.034
 8314SOL    HW125841   5.208   0.375   0.096
 8314SOL    HW225842   5.185   0.536   0.075
 8315SOL     OW25843   4.218   3.099   1.132
 8315SOL    HW125844   4.188   3.087   1.038
 8315SOL    HW225845   4.301   3.155   1.134
 8316SOL     OW25846   1.460   2.013   1.643
 8316SOL    HW125847   1.461   2.081   1.717
 8316SOL    HW225848   1.550   2.009   1.600
 8317SOL     OW25849   1.673   3.166   2.368
 8317SOL    HW125850   1.641   3.080   2.328
 8317SOL    HW225851   1.721   3.148   2.453
 8318SOL     OW25852   4.456   1.663   5.186
 8318SOL    HW125853   4.447   1.590   5.119
 8318SOL    HW225854   4.501   1.742   5.143
 8319SOL     OW25855   2.103   1.809   0.620
 8319SOL    HW125856   2.100   1.890   0.678
 8319SOL    HW225857   2.046   1.824   0.539
 8320SOL     OW25858   2.958   3.717   2.353
 8320SOL    HW125859   3.013   3.648   2.401
 8320SOL    HW225860   2.929   3.680   2.265
 8321SOL     OW25861   7.009   0.079   6.404
 8321SOL    HW125862   0.026   0.114   6.316
 8321SOL    HW225863   0.002   0.151   6.473
 8322SOL     OW25864   6.405   0.074   1.178
 8322SOL    HW125865   6.386   0.165   1.141
 8322SOL    HW225866   6.451   0.019   1.109
 8323SOL     OW25867   5.026   5.256   2.258
 8323SOL    HW125868   4.977   5.341   2.276
 8323SOL    HW225869   5.081   5.267   2.175
 8324SOL     OW25870   5.691   6.344   1.078
 8324SOL    HW125871   5.647   6.264   1.037
 8324SOL    HW225872   5.747   6.390   1.009
 8325SOL     OW25873   2.556   4.031   5.480
 8325SOL    HW125874   2.555   4.102   5.551
 8325SOL    HW225875   2.475   4.039   5.423
 8326SOL     OW25876   5.035   3.441   5.487
 8326SOL    HW125877   5.007   3.474   5.397
 8326SOL    HW225878   4.956   3.439   5.548
 8327SOL     OW25879   5.880   1.084   6.043
 8327SOL    HW125880   5.846   1.176   6.060
 8327SOL    HW225881   5.962   1.068   6.098
 8328SOL     OW25882   2.794   6.452   5.991
 8328SOL    HW125883   2.718   6.512   5.969
 8328SOL    HW225884   2.763   6.379   6.052
 8329SOL     OW25885   1.355   3.405   5.952
 8329SOL    HW125886   1.368   3.378   5.856
 8329SOL    HW225887   1.257   3.409   5.972
 8330SOL     OW25888   2.466   1.498   6.866
 8330SOL    HW125889   2.550   1.489   6.920
 8330SOL    HW225890   2.438   1.408   6.832
 8331SOL     OW25891   3.092   0.640   1.045
 8331SOL    HW125892   3.023   0.696   1.001
 8331SOL    HW225893   3.183   0.675   1.023
 8332SOL     OW25894   4.526   5.197   2.236
 8332SOL    HW125895   4.506   5.120   2.297
 8332SOL    HW225896   4.504   5.282   2.283
 8333SOL     OW25897   0.097   6.396   6.259
 8333SOL    HW125898   0.159   6.334   6.210
 8333SOL    HW225899   0.002   6.373   6.237
 8334SOL     OW25900   4.160   1.111   3.974
 8334SOL    HW125901   4.092   1.176   4.010
 8334SOL    HW225902   4.221   1.084   4.048
 8335SOL     OW25903   5.124   0.106   0.153
 8335SOL    HW125904   5.099   0.010   0.146
 8335SOL    HW225905   5.091   0.144   0.240
 8336SOL     OW25906   0.150   4.675   3.216
 8336SOL    HW125907   0.241   4.635   3.212
 8336SOL    HW225908   0.148   4.759   3.161
 8337SOL     OW25909   2.589   6.491   2.778
 8337SOL    HW125910   2.604   6.463   2.683
 8337SOL    HW225911   2.673   6.532   2.815
 8338SOL     OW25912   4.105   5.437   2.085
 8338SOL    HW125913   4.060   5.489   2.013
 8338SOL    HW225914   4.099   5.339   2.066
 8339SOL     OW25915   6.442   0.380   1.589
 8339SOL    HW125916   6.531   0.355   1.627
 8339SOL    HW225917   6.421   0.475   1.613
 8340SOL     OW25918   4.661   3.199   0.948
 8340SOL    HW125919   4.614   3.148   1.020
 8340SOL    HW225920   4.617   3.181   0.860
 8341SOL     OW25921   2.987   6.217   0.281
 8341SOL    HW125922   3.043   6.250   0.358
 8341SOL    HW225923   2.892   6.207   0.311
 8342SOL     OW25924   4.159   6.357   1.053
 8342SOL    HW125925   4.225   6.410   1.107
 8342SOL    HW225926   4.067   6.393   1.069
 8343SOL     OW25927   1.980   5.600   5.316
 8343SOL    HW125928   1.952   5.591   5.220
 8343SOL    HW225929   1.973   5.696   5.343
 8344SOL     OW25930   4.525   5.931   4.584
 8344SOL    HW125931   4.609   5.936   4.639
 8344SOL    HW225932   4.493   5.836   4.581
 8345SOL     OW25933   4.677   1.453   2.615
 8345SOL    HW125934   4.689   1.482   2.520
 8345SOL    HW225935   4.581   1.427   2.631
 8346SOL     OW25936   3.363   5.250   0.521
 8346SOL    HW125937   3.307   5.276   0.442
 8346SOL    HW225938   3.338   5.308   0.599
 8347SOL     OW25939   3.387   5.619   4.437
 8347SOL    HW125940   3.409   5.693   4.373
 8347SOL    HW225941   3.382   5.655   4.530
 8348SOL     OW25942   2.355   0.392   1.946
 8348SOL    HW125943   2.290   0.436   1.885
 8348SOL    HW225944   2.318   0.304   1.977
 8349SOL     OW25945   5.898   6.372   1.601
 8349SOL    HW125946   5.810   6.416   1.583
 8349SOL    HW225947   5.964   6.440   1.631
 8350SOL     OW25948   3.680   0.037   6.011
 8350SOL    HW125949   3.745   0.083   6.071
 8350SOL    HW225950   3.601   0.007   6.064
 8351SOL     OW25951   5.199   5.485   4.204
 8351SOL    HW125952   5.136   5.550   4.163
 8351SOL    HW225953   5.164   5.392   4.192
 8352SOL     OW25954   0.747   0.047   3.447
 8352SOL    HW125955   0.720   0.028   3.542
 8352SOL    HW225956   0.684   0.114   3.408
 8353SOL     OW25957   6.849   3.439   1.782
 8353SOL    HW125958   6.943   3.428   1.814
 8353SOL    HW225959   6.844   3.413   1.686
 8354SOL     OW25960   4.390   6.898   5.750
 8354SOL    HW125961   4.485   6.868   5.754
 8354SOL    HW225962   4.347   6.886   5.840
 8355SOL     OW25963   2.467   0.676   5.904
 8355SOL    HW125964   2.375   0.708   5.926
 8355SOL    HW225965   2.535   0.735   5.948
 8356SOL     OW25966   0.712   6.461   0.822
 8356SOL    HW125967   0.798   6.430   0.780
 8356SOL    HW225968   0.722   6.557   0.851
 8357SOL     OW25969   4.212   0.061   4.543
 8357SOL    HW125970   4.161   0.033   4.625
 8357SOL    HW225971   4.177   0.012   4.463
 8358SOL     OW25972   1.217   4.432   5.345
 8358SOL    HW125973   1.230   4.524   5.307
 8358SOL    HW225974   1.302   4.380   5.334
 8359SOL     OW25975   3.080   0.742   5.065
 8359SOL    HW125976   3.096   0.645   5.045
 8359SOL    HW225977   2.981   0.758   5.071
 8360SOL     OW25978   3.512   6.779   0.810
 8360SOL    HW125979   3.595   6.723   0.803
 8360SOL    HW225980   3.449   6.736   0.876
 8361SOL     OW25981   2.907   0.529   2.426
 8361SOL    HW125982   2.875   0.437   2.407
 8361SOL    HW225983   2.984   0.551   2.366
 8362SOL     OW25984   3.975   2.036   0.479
 8362SOL    HW125985   3.918   2.069   0.554
 8362SOL    HW225986   3.951   2.083   0.395
 8363SOL     OW25987   6.746   2.557   6.304
 8363SOL    HW125988   6.755   2.466   6.264
 8363SOL    HW225989   6.742   2.549   6.403
 8364SOL     OW25990   1.444   2.570   3.131
 8364SOL    HW125991   1.447   2.555   3.229
 8364SOL    HW225992   1.349   2.586   3.103
 8365SOL     OW25993   1.822   3.837   1.943
 8365SOL    HW125994   1.891   3.806   2.009
 8365SOL    HW225995   1.865   3.848   1.853
 8366SOL     OW25996   1.970   5.911   2.125
 8366SOL    HW125997   1.993   5.843   2.055
 8366SOL    HW225998   1.872   5.906   2.144
 8367SOL     OW25999   4.097   5.725   4.248
 8367SOL    HW126000   4.127   5.751   4.340
 8367SOL    HW226001   4.162   5.660   4.209
 8368SOL     OW26002   2.124   5.748   6.013
 8368SOL    HW126003   2.049   5.685   5.994
 8368SOL    HW226004   2.167   5.723   6.100
 8369SOL     OW26005   1.552   6.627   6.369
 8369SOL    HW126006   1.506   6.548   6.330
 8369SOL    HW226007   1.651   6.616   6.361
 8370SOL     OW26008   3.071   1.647   5.724
 8370SOL    HW126009   3.034   1.727   5.676
 8370SOL    HW226010   3.050   1.564   5.672
 8371SOL     OW26011   1.948   4.354   1.104
 8371SOL    HW126012   2.044   4.378   1.116
 8371SOL    HW226013   1.931   4.262   1.138
 8372SOL     OW26014   1.161   5.432   2.426
 8372SOL    HW126015   1.087   5.413   2.362
 8372SOL    HW226016   1.150   5.525   2.463
 8373SOL     OW26017   1.584   0.102   3.883
 8373SOL    HW126018   1.611   0.146   3.969
 8373SOL    HW226019   1.597   0.167   3.807
 8374SOL     OW26020   0.193   0.436   5.112
 8374SOL    HW126021   0.275   0.383   5.091
 8374SOL    HW226022   0.120   0.375   5.142
 8375SOL     OW26023   3.548   6.689   4.990
 8375SOL    HW126024   3.594   6.778   4.988
 8375SOL    HW226025   3.518   6.665   4.897
 8376SOL     OW26026   1.375   0.904   4.347
 8376SOL    HW126027   1.408   0.898   4.441
 8376SOL    HW226028   1.343   0.997   4.329
 8377SOL     OW26029   4.611   6.039   0.896
 8377SOL    HW126030   4.540   6.044   0.826
 8377SOL    HW226031   4.692   5.996   0.858
 8378SOL     OW26032   4.403   5.487   2.634
 8378SOL    HW126033   4.398   5.558   2.704
 8378SOL    HW226034   4.475   5.422   2.658
 8379SOL     OW26035   5.531   3.149   1.111
 8379SOL    HW126036   5.565   3.077   1.050
 8379SOL    HW226037   5.452   3.113   1.162
 8380SOL     OW26038   6.829   0.673   2.214
 8380SOL    HW126039   6.739   0.654   2.253
 8380SOL    HW226040   6.821   0.684   2.115
 8381SOL     OW26041   0.116   2.952   5.274
 8381SOL    HW126042   0.185   3.024   5.268
 8381SOL    HW226043   0.033   2.982   5.226
 8382SOL     OW26044   2.952   0.796   3.207
 8382SOL    HW126045   2.875   0.824   3.150
 8382SOL    HW226046   2.919   0.736   3.280
 8383SOL     OW26047   2.585   0.032   5.938
 8383SOL    HW126048   2.651   6.973   5.930
 8383SOL    HW226049   2.549   0.056   5.848
 8384SOL     OW26050   6.260   0.678   1.072
 8384SOL    HW126051   6.185   0.683   1.139
 8384SOL    HW226052   6.244   0.602   1.009
 8385SOL     OW26053   5.952   1.854   1.038
 8385SOL    HW126054   6.044   1.891   1.031
 8385SOL    HW226055   5.932   1.798   0.958
 8386SOL     OW26056   1.868   5.431   2.639
 8386SOL    HW126057   1.774   5.433   2.606
 8386SOL    HW226058   1.904   5.525   2.641
 8387SOL     OW26059   1.563   1.389   2.638
 8387SOL    HW126060   1.602   1.481   2.634
 8387SOL    HW226061   1.614   1.328   2.578
 8388SOL     OW26062   2.455   6.081   0.268
 8388SOL    HW126063   2.407   6.168   0.276
 8388SOL    HW226064   2.453   6.034   0.357
 8389SOL     OW26065   0.557   3.506   2.610
 8389SOL    HW126066   0.461   3.489   2.630
 8389SOL    HW226067   0.613   3.471   2.686
 8390SOL     OW26068   4.366   0.905   6.657
 8390SOL    HW126069   4.269   0.922   6.674
 8390SOL    HW226070   4.375   0.830   6.592
 8391SOL     OW26071   6.231   4.939   0.706
 8391SOL    HW126072   6.161   5.000   0.742
 8391SOL    HW226073   6.257   4.872   0.775
 8392SOL     OW26074   6.368   3.934   4.404
 8392SOL    HW126075   6.330   4.025   4.387
 8392SOL    HW226076   6.333   3.899   4.491
 8393SOL     OW26077   0.462   6.866   3.135
 8393SOL    HW126078   0.429   6.883   3.042
 8393SOL    HW226079   0.561   6.881   3.138
 8394SOL     OW26080   5.810   2.558   1.466
 8394SOL    HW126081   5.833   2.547   1.369
 8394SOL    HW226082   5.736   2.624   1.476
 8395SOL     OW26083   2.491   0.039   5.206
 8395SOL    HW126084   2.402   7.016   5.183
 8395SOL    HW226085   2.561   0.003   5.145
 8396SOL     OW26086   4.747   5.281   2.438
 8396SOL    HW126087   4.833   5.332   2.445
 8396SOL    HW226088   4.679   5.337   2.389
 8397SOL     OW26089   1.555   0.460   2.975
 8397SOL    HW126090   1.545   0.559   2.990
 8397SOL    HW226091   1.651   0.438   2.961
 8398SOL     OW26092   4.264   1.575   6.352
 8398SOL    HW126093   4.270   1.494   6.411
 8398SOL    HW226094   4.299   1.654   6.402
 8399SOL     OW26095   5.907   6.667   6.808
 8399SOL    HW126096   5.979   6.735   6.797
 8399SOL    HW226097   5.907   6.633   6.902
 8400SOL     OW26098   1.949   1.261   4.653
 8400SOL    HW126099   1.960   1.355   4.621
 8400SOL    HW226100   1.863   1.253   4.704
 8401SOL     OW26101   2.166   1.137   5.241
 8401SOL    HW126102   2.208   1.192   5.314
 8401SOL    HW226103   2.165   1.041   5.269
 8402SOL     OW26104   4.588   1.826   6.091
 8402SOL    HW126105   4.609   1.892   6.163
 8402SOL    HW226106   4.662   1.824   6.025
 8403SOL     OW26107   0.338   3.069   4.499
 8403SOL    HW126108   0.246   3.064   4.540
 8403SOL    HW226109   0.341   3.144   4.433
 8404SOL     OW26110   3.797   6.862   5.893
 8404SOL    HW126111   3.894   6.866   5.918
 8404SOL    HW226112   3.747   6.932   5.944
 8405SOL     OW26113   1.820   1.262   5.759
 8405SOL    HW126114   1.836   1.277   5.662
 8405SOL    HW226115   1.823   1.350   5.807
 8406SOL     OW26116   4.635   0.929   0.303
 8406SOL    HW126117   4.647   0.858   0.233
 8406SOL    HW226118   4.677   0.898   0.388
 8407SOL     OW26119   3.367   6.846   3.291
 8407SOL    HW126120   3.307   6.794   3.352
 8407SOL    HW226121   3.461   6.839   3.324
 8408SOL     OW26122   5.846   4.249   1.444
 8408SOL    HW126123   5.869   4.304   1.363
 8408SOL    HW226124   5.761   4.199   1.426
 8409SOL     OW26125   5.347   2.009   2.698
 8409SOL    HW126126   5.416   1.939   2.678
 8409SOL    HW226127   5.331   2.013   2.797
 8410SOL     OW26128   5.652   0.861   1.781
 8410SOL    HW126129   5.589   0.849   1.858
 8410SOL    HW226130   5.627   0.798   1.707
 8411SOL     OW26131   0.801   5.129   0.124
 8411SOL    HW126132   0.838   5.060   0.061
 8411SOL    HW226133   0.788   5.215   0.075
 8412SOL     OW26134   3.480   1.967   1.507
 8412SOL    HW126135   3.438   1.877   1.497
 8412SOL    HW226136   3.425   2.035   1.457
 8413SOL     OW26137   3.921   5.627   6.702
 8413SOL    HW126138   3.834   5.662   6.734
 8413SOL    HW226139   3.913   5.600   6.606
 8414SOL     OW26140   4.200   6.129   3.944
 8414SOL    HW126141   4.168   6.049   3.995
 8414SOL    HW226142   4.250   6.189   4.005
 8415SOL     OW26143   0.037   6.098   3.809
 8415SOL    HW126144   0.108   6.161   3.840
 8415SOL    HW226145   0.077   6.030   3.748
 8416SOL     OW26146   6.409   3.126   2.990
 8416SOL    HW126147   6.402   3.195   3.062
 8416SOL    HW226148   6.448   3.168   2.908
 8417SOL     OW26149   1.068   4.119   5.601
 8417SOL    HW126150   1.141   4.092   5.663
 8417SOL    HW226151   1.003   4.043   5.591
 8418SOL     OW26152   5.465   5.318   0.964
 8418SOL    HW126153   5.532   5.320   1.038
 8418SOL    HW226154   5.373   5.320   1.003
 8419SOL     OW26155   5.661   0.156   1.649
 8419SOL    HW126156   5.686   0.151   1.746
 8419SOL    HW226157   5.610   0.240   1.632
 8420SOL     OW26158   4.689   6.772   0.257
 8420SOL    HW126159   4.637   6.813   0.183
 8420SOL    HW226160   4.626   6.732   0.324
 8421SOL     OW26161   3.239   5.527   6.709
 8421SOL    HW126162   3.224   5.485   6.619
 8421SOL    HW226163   3.239   5.456   6.780
 8422SOL     OW26164   4.540   1.514   1.741
 8422SOL    HW126165   4.585   1.425   1.751
 8422SOL    HW226166   4.556   1.569   1.823
 8423SOL     OW26167   2.699   4.933   5.823
 8423SOL    HW126168   2.762   4.979   5.760
 8423SOL    HW226169   2.614   4.985   5.830
 8424SOL     OW26170   2.087   1.961   2.445
 8424SOL    HW126171   2.106   1.905   2.526
 8424SOL    HW226172   2.142   2.044   2.449
 8425SOL     OW26173   4.644   4.554   6.216
 8425SOL    HW126174   4.709   4.491   6.174
 8425SOL    HW226175   4.565   4.567   6.155
 8426SOL     OW26176   3.684   3.150   3.448
 8426SOL    HW126177   3.614   3.162   3.518
 8426SOL    HW226178   3.644   3.101   3.370
 8427SOL     OW26179   3.315   4.134   4.578
 8427SOL    HW126180   3.223   4.152   4.611
 8427SOL    HW226181   3.314   4.129   4.478
 8428SOL     OW26182   0.566   5.889   1.417
 8428SOL    HW126183   0.481   5.841   1.396
 8428SOL    HW226184   0.644   5.840   1.377
 8429SOL     OW26185   1.085   6.041   4.806
 8429SOL    HW126186   1.012   6.079   4.750
 8429SOL    HW226187   1.083   5.942   4.801
 8430SOL     OW26188   3.783   5.587   3.222
 8430SOL    HW126189   3.703   5.572   3.280
 8430SOL    HW226190   3.832   5.501   3.208
 8431SOL     OW26191   3.326   4.094   0.995
 8431SOL    HW126192   3.334   4.055   0.904
 8431SOL    HW226193   3.229   4.103   1.019
 8432SOL     OW26194   5.963   6.314   5.718
 8432SOL    HW126195   6.016   6.378   5.774
 8432SOL    HW226196   5.867   6.339   5.722
 8433SOL     OW26197   4.933   2.613   0.618
 8433SOL    HW126198   4.949   2.516   0.639
 8433SOL    HW226199   4.911   2.662   0.702
 8434SOL     OW26200   2.831   0.116   4.928
 8434SOL    HW126201   2.928   0.124   4.905
 8434SOL    HW226202   2.779   0.097   4.845
 8435SOL     OW26203   6.247   1.051   1.443
 8435SOL    HW126204   6.324   1.114   1.434
 8435SOL    HW226205   6.246   1.013   1.536
 8436SOL     OW26206   3.434   6.376   3.259
 8436SOL    HW126207   3.394   6.307   3.198
 8436SOL    HW226208   3.388   6.373   3.348
 8437SOL     OW26209   2.179   1.428   4.437
 8437SOL    HW126210   2.168   1.329   4.440
 8437SOL    HW226211   2.210   1.455   4.346
 8438SOL     OW26212   2.392   4.776   2.651
 8438SOL    HW126213   2.457   4.845   2.681
 8438SOL    HW226214   2.331   4.752   2.726
 8439SOL     OW26215   5.844   5.194   2.785
 8439SOL    HW126216   5.870   5.233   2.873
 8439SOL    HW226217   5.883   5.102   2.777
 8440SOL     OW26218   2.227   1.793   3.510
 8440SOL    HW126219   2.173   1.763   3.589
 8440SOL    HW226220   2.230   1.720   3.442
 8441SOL     OW26221   5.607   6.833   0.052
 8441SOL    HW126222   5.627   6.735   0.042
 8441SOL    HW226223   5.694   6.883   0.059
 8442SOL     OW26224   3.599   1.895   4.943
 8442SOL    HW126225   3.671   1.952   4.901
 8442SOL    HW226226   3.510   1.937   4.927
 8443SOL     OW26227   2.516   4.549   3.452
 8443SOL    HW126228   2.493   4.500   3.367
 8443SOL    HW226229   2.434   4.594   3.487
 8444SOL     OW26230   3.245   6.494   4.712
 8444SOL    HW126231   3.205   6.463   4.625
 8444SOL    HW226232   3.179   6.478   4.786
 8445SOL     OW26233   3.238   0.038   1.423
 8445SOL    HW126234   3.201   0.046   1.516
 8445SOL    HW226235   3.184   6.988   1.372
 8446SOL     OW26236   4.988   5.645   6.739
 8446SOL    HW126237   4.953   5.552   6.725
 8446SOL    HW226238   5.074   5.656   6.689
 8447SOL     OW26239   5.134   1.854   2.283
 8447SOL    HW126240   5.174   1.897   2.365
 8447SOL    HW226241   5.049   1.902   2.259
 8448SOL     OW26242   4.461   5.704   4.277
 8448SOL    HW126243   4.398   5.663   4.211
 8448SOL    HW226244   4.410   5.726   4.361
 8449SOL     OW26245   0.089   2.791   3.392
 8449SOL    HW126246   0.184   2.813   3.418
 8449SOL    HW226247   0.082   2.790   3.293
 8450SOL     OW26248   0.368   0.117   0.881
 8450SOL    HW126249   0.461   0.154   0.878
 8450SOL    HW226250   0.311   0.174   0.940
 8451SOL     OW26251   3.579   1.715   0.005
 8451SOL    HW126252   3.617   1.660   6.947
 8451SOL    HW226253   3.653   1.748   0.064
 8452SOL     OW26254   6.197   1.745   2.892
 8452SOL    HW126255   6.254   1.818   2.929
 8452SOL    HW226256   6.101   1.765   2.909
 8453SOL     OW26257   0.514   4.303   6.774
 8453SOL    HW126258   0.417   4.325   6.780
 8453SOL    HW226259   0.568   4.386   6.783
 8454SOL     OW26260   6.720   6.447   1.479
 8454SOL    HW126261   6.643   6.505   1.506
 8454SOL    HW226262   6.686   6.369   1.425
 8455SOL     OW26263   6.618   1.638   1.944
 8455SOL    HW126264   6.561   1.681   1.874
 8455SOL    HW226265   6.712   1.633   1.911
 8456SOL     OW26266   4.075   5.869   3.679
 8456SOL    HW126267   4.174   5.883   3.674
 8456SOL    HW226268   4.030   5.956   3.699
 8457SOL     OW26269   0.069   6.676   4.936
 8457SOL    HW126270   7.004   6.675   4.878
 8457SOL    HW226271   0.139   6.735   4.896
 8458SOL     OW26272   3.269   0.504   0.225
 8458SOL    HW126273   3.178   0.490   0.265
 8458SOL    HW226274   3.260   0.512   0.125
 8459SOL     OW26275   2.837   5.671   2.027
 8459SOL    HW126276   2.813   5.720   1.943
 8459SOL    HW226277   2.753   5.644   2.075
 8460SOL     OW26278   3.980   4.418   5.306
 8460SOL    HW126279   4.075   4.399   5.282
 8460SOL    HW226280   3.929   4.332   5.310
 8461SOL     OW26281   1.018   4.047   4.859
 8461SOL    HW126282   1.110   4.085   4.847
 8461SOL    HW226283   0.998   3.983   4.785
 8462SOL     OW26284   2.424   2.520   6.667
 8462SOL    HW126285   2.367   2.440   6.688
 8462SOL    HW226286   2.389   2.564   6.584
 8463SOL     OW26287   6.891   0.468   1.323
 8463SOL    HW126288   6.974   0.484   1.269
 8463SOL    HW226289   6.875   0.370   1.331
 8464SOL     OW26290   5.926   3.729   3.835
 8464SOL    HW126291   5.928   3.632   3.812
 8464SOL    HW226292   5.928   3.783   3.751
 8465SOL     OW26293   1.161   3.351   0.453
 8465SOL    HW126294   1.176   3.272   0.393
 8465SOL    HW226295   1.245   3.372   0.503
 8466SOL     OW26296   0.859   6.491   4.283
 8466SOL    HW126297   0.826   6.459   4.194
 8466SOL    HW226298   0.861   6.591   4.283
 8467SOL     OW26299   3.347   6.858   6.980
 8467SOL    HW126300   3.295   6.939   6.951
 8467SOL    HW226301   3.299   6.775   6.950
 8468SOL     OW26302   3.972   1.534   6.413
 8468SOL    HW126303   3.951   1.440   6.389
 8468SOL    HW226304   4.061   1.538   6.459
 8469SOL     OW26305   3.187   1.736   6.596
 8469SOL    HW126306   3.277   1.772   6.620
 8469SOL    HW226307   3.167   1.655   6.651
 8470SOL     OW26308   0.815   3.938   6.933
 8470SOL    HW126309   0.715   3.945   6.934
 8470SOL    HW226310   0.848   3.918   0.009
 8471SOL     OW26311   3.165   1.133   3.334
 8471SOL    HW126312   3.238   1.149   3.401
 8471SOL    HW226313   3.152   1.216   3.279
 8472SOL     OW26314   0.201   0.844   4.382
 8472SOL    HW126315   0.143   0.821   4.461
 8472SOL    HW226316   0.248   0.931   4.399
 8473SOL     OW26317   6.465   5.359   6.239
 8473SOL    HW126318   6.437   5.424   6.310
 8473SOL    HW226319   6.386   5.303   6.214
 8474SOL     OW26320   2.966   3.365   2.354
 8474SOL    HW126321   3.017   3.311   2.287
 8474SOL    HW226322   3.014   3.365   2.441
 8475SOL     OW26323   0.582   2.351   3.313
 8475SOL    HW126324   0.630   2.272   3.352
 8475SOL    HW226325   0.557   2.332   3.218
 8476SOL     OW26326   6.241   1.897   1.073
 8476SOL    HW126327   6.271   1.933   0.985
 8476SOL    HW226328   6.229   1.972   1.138
 8477SOL     OW26329   4.412   6.898   1.619
 8477SOL    HW126330   4.502   6.858   1.601
 8477SOL    HW226331   4.424   6.993   1.649
 8478SOL     OW26332   0.945   0.453   6.199
 8478SOL    HW126333   0.953   0.382   6.129
 8478SOL    HW226334   0.923   0.411   6.287
 8479SOL     OW26335   6.390   2.475   1.172
 8479SOL    HW126336   6.436   2.563   1.177
 8479SOL    HW226337   6.317   2.471   1.240
 8480SOL     OW26338   4.573   1.270   0.071
 8480SOL    HW126339   4.649   1.265   0.135
 8480SOL    HW226340   4.585   1.201   7.016
 8481SOL     OW26341   4.929   2.351   3.701
 8481SOL    HW126342   4.948   2.253   3.708
 8481SOL    HW226343   4.845   2.373   3.751
 8482SOL     OW26344   4.609   6.475   2.586
 8482SOL    HW126345   4.688   6.500   2.642
 8482SOL    HW226346   4.571   6.388   2.619
 8483SOL     OW26347   4.125   6.351   2.050
 8483SOL    HW126348   4.093   6.409   1.975
 8483SOL    HW226349   4.220   6.324   2.034
 8484SOL     OW26350   0.530   5.724   2.801
 8484SOL    HW126351   0.527   5.676   2.713
 8484SOL    HW226352   0.546   5.822   2.785
 8485SOL     OW26353   2.934   3.093   0.375
 8485SOL    HW126354   2.959   3.000   0.402
 8485SOL    HW226355   2.860   3.089   0.308
 8486SOL     OW26356   4.549   1.050   2.541
 8486SOL    HW126357   4.527   1.004   2.454
 8486SOL    HW226358   4.644   1.080   2.539
 8487SOL     OW26359   5.522   1.284   6.384
 8487SOL    HW126360   5.588   1.296   6.458
 8487SOL    HW226361   5.431   1.269   6.423
 8488SOL     OW26362   5.620   4.805   5.705
 8488SOL    HW126363   5.663   4.739   5.766
 8488SOL    HW226364   5.559   4.757   5.642
 8489SOL     OW26365   6.764   1.105   0.805
 8489SOL    HW126366   6.740   1.093   0.708
 8489SOL    HW226367   6.722   1.031   0.858
 8490SOL     OW26368   4.120   6.525   4.493
 8490SOL    HW126369   4.161   6.492   4.578
 8490SOL    HW226370   4.189   6.574   4.440
 8491SOL     OW26371   2.356   0.009   0.709
 8491SOL    HW126372   2.349   6.938   0.757
 8491SOL    HW226373   2.338   0.084   0.773
 8492SOL     OW26374   4.550   4.439   6.500
 8492SOL    HW126375   4.576   4.467   6.408
 8492SOL    HW226376   4.568   4.341   6.511
 8493SOL     OW26377   2.562   2.203   6.100
 8493SOL    HW126378   2.617   2.232   6.022
 8493SOL    HW226379   2.622   2.176   6.175
 8494SOL     OW26380   2.801   4.307   1.120
 8494SOL    HW126381   2.824   4.334   1.213
 8494SOL    HW226382   2.805   4.387   1.060
 8495SOL     OW26383   6.579   4.263   1.254
 8495SOL    HW126384   6.500   4.207   1.229
 8495SOL    HW226385   6.575   4.285   1.352
 8496SOL     OW26386   0.917   1.743   1.873
 8496SOL    HW126387   0.991   1.732   1.939
 8496SOL    HW226388   0.906   1.658   1.821
 8497SOL     OW26389   6.246   1.029   3.651
 8497SOL    HW126390   6.272   0.960   3.583
 8497SOL    HW226391   6.214   1.111   3.605
 8498SOL     OW26392   0.378   6.191   2.525
 8498SOL    HW126393   0.418   6.103   2.497
 8498SOL    HW226394   0.441   6.265   2.503
 8499SOL     OW26395   2.607   5.108   6.455
 8499SOL    HW126396   2.634   5.164   6.533
 8499SOL    HW226397   2.684   5.097   6.393
 8500SOL     OW26398   2.529   6.740   5.324
 8500SOL    HW126399   2.583   6.799   5.385
 8500SOL    HW226400   2.432   6.750   5.345
 8501SOL     OW26401   0.253   2.257   6.727
 8501SOL    HW126402   0.312   2.193   6.679
 8501SOL    HW226403   0.176   2.208   6.768
 8502SOL     OW26404   1.691   4.686   1.429
 8502SOL    HW126405   1.779   4.712   1.389
 8502SOL    HW226406   1.648   4.767   1.470
 8503SOL     OW26407   1.514   6.832   3.578
 8503SOL    HW126408   1.418   6.811   3.595
 8503SOL    HW226409   1.571   6.773   3.635
 8504SOL     OW26410   2.621   5.417   3.516
 8504SOL    HW126411   2.577   5.506   3.518
 8504SOL    HW226412   2.614   5.378   3.424
 8505SOL     OW26413   4.783   3.980   3.898
 8505SOL    HW126414   4.814   3.914   3.830
 8505SOL    HW226415   4.811   3.950   3.990
 8506SOL     OW26416   6.467   1.262   0.134
 8506SOL    HW126417   6.532   1.288   0.063
 8506SOL    HW226418   6.375   1.259   0.096
 8507SOL     OW26419   3.733   0.931   5.204
 8507SOL    HW126420   3.761   0.881   5.122
 8507SOL    HW226421   3.712   0.866   5.277
 8508SOL     OW26422   6.693   1.978   5.012
 8508SOL    HW126423   6.631   1.954   4.937
 8508SOL    HW226424   6.741   2.063   4.991
 8509SOL     OW26425   4.682   1.787   3.519
 8509SOL    HW126426   4.723   1.871   3.487
 8509SOL    HW226427   4.631   1.743   3.445
 8510SOL     OW26428   5.362   4.392   3.536
 8510SOL    HW126429   5.407   4.330   3.600
 8510SOL    HW226430   5.387   4.367   3.442
 8511SOL     OW26431   6.016   4.143   1.843
 8511SOL    HW126432   5.950   4.216   1.824
 8511SOL    HW226433   6.073   4.128   1.763
 8512SOL     OW26434   3.420   2.068   1.090
 8512SOL    HW126435   3.371   2.017   1.020
 8512SOL    HW226436   3.504   2.020   1.114
 8513SOL     OW26437   4.774   4.054   1.812
 8513SOL    HW126438   4.864   4.049   1.768
 8513SOL    HW226439   4.777   4.121   1.886
 8514SOL     OW26440   3.085   2.106   3.741
 8514SOL    HW126441   3.037   2.193   3.731
 8514SOL    HW226442   3.142   2.109   3.823
 8515SOL     OW26443   5.612   1.091   0.022
 8515SOL    HW126444   5.678   1.141   0.078
 8515SOL    HW226445   5.609   0.996   0.052
 8516SOL     OW26446   6.521   1.390   1.675
 8516SOL    HW126447   6.559   1.483   1.672
 8516SOL    HW226448   6.537   1.344   1.588
 8517SOL     OW26449   1.562   3.395   6.837
 8517SOL    HW126450   1.623   3.347   6.774
 8517SOL    HW226451   1.474   3.412   6.792
 8518SOL     OW26452   4.961   4.592   6.439
 8518SOL    HW126453   4.970   4.631   6.347
 8518SOL    HW226454   5.031   4.631   6.499
 8519SOL     OW26455   1.103   4.062   1.739
 8519SOL    HW126456   1.075   3.966   1.739
 8519SOL    HW226457   1.086   4.102   1.649
 8520SOL     OW26458   3.294   3.229   0.123
 8520SOL    HW126459   3.332   3.295   0.059
 8520SOL    HW226460   3.322   3.137   0.097
 8521SOL     OW26461   2.464   5.063   5.863
 8521SOL    HW126462   2.458   5.089   5.959
 8521SOL    HW226463   2.374   5.070   5.820
 8522SOL     OW26464   1.338   6.229   0.934
 8522SOL    HW126465   1.318   6.297   1.004
 8522SOL    HW226466   1.322   6.268   0.844
 8523SOL     OW26467   2.174   6.203   6.786
 8523SOL    HW126468   2.138   6.292   6.814
 8523SOL    HW226469   2.218   6.158   6.864
 8524SOL     OW26470   0.498   2.970   5.678
 8524SOL    HW126471   0.470   3.012   5.592
 8524SOL    HW226472   0.570   3.025   5.720
 8525SOL     OW26473   6.087   4.436   1.993
 8525SOL    HW126474   6.039   4.389   2.067
 8525SOL    HW226475   6.174   4.390   1.975
 8526SOL     OW26476   4.385   6.591   6.946
 8526SOL    HW126477   4.333   6.576   6.862
 8526SOL    HW226478   4.336   6.657   7.004
 8527SOL     OW26479   2.450   1.046   6.476
 8527SOL    HW126480   2.535   1.029   6.426
 8527SOL    HW226481   2.373   1.034   6.414
 8528SOL     OW26482   3.683   1.627   6.716
 8528SOL    HW126483   3.724   1.538   6.737
 8528SOL    HW226484   3.710   1.654   6.623
 8529SOL     OW26485   0.849   0.121   0.998
 8529SOL    HW126486   0.884   0.134   1.091
 8529SOL    HW226487   0.903   0.178   0.935
 8530SOL     OW26488   3.574   4.289   5.803
 8530SOL    HW126489   3.498   4.306   5.865
 8530SOL    HW226490   3.539   4.255   5.715
 8531SOL     OW26491   6.343   4.819   2.464
 8531SOL    HW126492   6.354   4.772   2.376
 8531SOL    HW226493   6.423   4.803   2.521
 8532SOL     OW26494   4.056   4.938   4.768
 8532SOL    HW126495   4.077   4.891   4.853
 8532SOL    HW226496   3.965   4.979   4.773
 8533SOL     OW26497   1.723   6.999   6.917
 8533SOL    HW126498   1.710   0.074   6.877
 8533SOL    HW226499   1.714   6.930   6.845
 8534SOL     OW26500   6.150   2.507   4.099
 8534SOL    HW126501   6.127   2.455   4.017
 8534SOL    HW226502   6.073   2.566   4.124
 8535SOL     OW26503   5.895   1.129   3.563
 8535SOL    HW126504   5.902   1.215   3.512
 8535SOL    HW226505   5.986   1.102   3.595
 8536SOL     OW26506   0.122   2.391   4.688
 8536SOL    HW126507   0.112   2.446   4.770
 8536SOL    HW226508   0.037   2.394   4.635
 8537SOL     OW26509   5.135   0.645   3.111
 8537SOL    HW126510   5.116   0.681   3.203
 8537SOL    HW226511   5.053   0.653   3.054
 8538SOL     OW26512   0.597   1.009   6.989
 8538SOL    HW126513   0.610   1.106   6.966
 8538SOL    HW226514   0.606   0.954   6.906
 8539SOL     OW26515   5.342   1.067   2.953
 8539SOL    HW126516   5.321   1.001   3.025
 8539SOL    HW226517   5.380   1.019   2.874
 8540SOL     OW26518   5.139   0.152   6.097
 8540SOL    HW126519   5.226   0.175   6.139
 8540SOL    HW226520   5.065   0.162   6.164
 8541SOL     OW26521   2.611   1.638   4.701
 8541SOL    HW126522   2.600   1.723   4.751
 8541SOL    HW226523   2.523   1.592   4.691
 8542SOL     OW26524   4.090   4.768   0.179
 8542SOL    HW126525   4.118   4.737   0.270
 8542SOL    HW226526   4.169   4.767   0.118
 8543SOL     OW26527   2.881   0.860   0.935
 8543SOL    HW126528   2.805   0.841   0.873
 8543SOL    HW226529   2.945   0.923   0.891
 8544SOL     OW26530   5.382   2.758   4.283
 8544SOL    HW126531   5.425   2.699   4.215
 8544SOL    HW226532   5.442   2.766   4.363
 8545SOL     OW26533   4.760   0.135   5.648
 8545SOL    HW126534   4.845   0.100   5.687
 8545SOL    HW226535   4.772   0.153   5.551
 8546SOL     OW26536   0.040   1.606   3.967
 8546SOL    HW126537   7.008   1.519   3.979
 8546SOL    HW226538   7.002   1.666   3.908
 8547SOL     OW26539   1.794   6.643   6.114
 8547SOL    HW126540   1.834   6.623   6.024
 8547SOL    HW226541   1.765   6.557   6.157
 8548SOL     OW26542   5.836   2.175   5.637
 8548SOL    HW126543   5.909   2.107   5.641
 8548SOL    HW226544   5.860   2.253   5.696
 8549SOL     OW26545   1.566   3.042   3.814
 8549SOL    HW126546   1.608   3.132   3.798
 8549SOL    HW226547   1.634   2.979   3.851
 8550SOL     OW26548   1.621   4.467   0.106
 8550SOL    HW126549   1.638   4.535   0.035
 8550SOL    HW226550   1.705   4.449   0.156
 8551SOL     OW26551   3.529   4.123   6.594
 8551SOL    HW126552   3.538   4.028   6.625
 8551SOL    HW226553   3.549   4.128   6.496
 8552SOL     OW26554   2.202   0.344   4.165
 8552SOL    HW126555   2.298   0.353   4.192
 8552SOL    HW226556   2.173   0.428   4.120
 8553SOL     OW26557   4.546   4.589   0.186
 8553SOL    HW126558   4.568   4.546   0.099
 8553SOL    HW226559   4.623   4.579   0.250
 8554SOL     OW26560   1.069   4.870   0.683
 8554SOL    HW126561   1.027   4.858   0.773
 8554SOL    HW226562   1.016   4.938   0.631
 8555SOL     OW26563   1.913   1.264   2.629
 8555SOL    HW126564   1.939   1.360   2.632
 8555SOL    HW226565   1.836   1.252   2.567
 8556SOL     OW26566   1.465   6.310   5.427
 8556SOL    HW126567   1.453   6.398   5.472
 8556SOL    HW226568   1.385   6.290   5.370
 8557SOL     OW26569   5.873   0.330   2.974
 8557SOL    HW126570   5.903   0.279   3.055
 8557SOL    HW226571   5.796   0.282   2.931
 8558SOL     OW26572   3.390   5.129   3.322
 8558SOL    HW126573   3.445   5.055   3.283
 8558SOL    HW226574   3.294   5.099   3.327
 8559SOL     OW26575   0.108   0.755   2.539
 8559SOL    HW126576   0.207   0.763   2.525
 8559SOL    HW226577   0.081   0.807   2.619
 8560SOL     OW26578   6.357   6.052   2.270
 8560SOL    HW126579   6.378   6.093   2.181
 8560SOL    HW226580   6.441   6.012   2.308
 8561SOL     OW26581   3.186   1.024   2.034
 8561SOL    HW126582   3.253   1.095   2.055
 8561SOL    HW226583   3.094   1.058   2.054
 8562SOL     OW26584   3.155   4.941   5.387
 8562SOL    HW126585   3.119   4.886   5.312
 8562SOL    HW226586   3.226   4.890   5.435
 8563SOL     OW26587   2.136   4.183   6.953
 8563SOL    HW126588   2.094   4.264   6.912
 8563SOL    HW226589   2.096   4.168   0.028
 8564SOL     OW26590   2.979   1.217   4.080
 8564SOL    HW126591   3.011   1.127   4.111
 8564SOL    HW226592   2.905   1.248   4.140
 8565SOL     OW26593   4.248   5.535   0.989
 8565SOL    HW126594   4.301   5.558   1.071
 8565SOL    HW226595   4.212   5.619   0.949
 8566SOL     OW26596   1.642   0.731   1.366
 8566SOL    HW126597   1.629   0.633   1.381
 8566SOL    HW226598   1.556   0.779   1.381
 8567SOL     OW26599   0.268   2.227   2.485
 8567SOL    HW126600   0.330   2.196   2.556
 8567SOL    HW226601   0.311   2.216   2.395
 8568SOL     OW26602   5.581   1.256   6.115
 8568SOL    HW126603   5.559   1.222   6.206
 8568SOL    HW226604   5.498   1.289   6.070
 8569SOL     OW26605   4.967   1.245   5.892
 8569SOL    HW126606   4.983   1.296   5.976
 8569SOL    HW226607   4.895   1.177   5.907
 8570SOL     OW26608   1.237   2.824   4.968
 8570SOL    HW126609   1.266   2.749   4.910
 8570SOL    HW226610   1.298   2.831   5.047
 8571SOL     OW26611   1.442   5.521   5.518
 8571SOL    HW126612   1.513   5.562   5.461
 8571SOL    HW226613   1.418   5.584   5.592
 8572SOL     OW26614   3.065   4.887   6.805
 8572SOL    HW126615   3.082   4.971   6.856
 8572SOL    HW226616   3.013   4.907   6.722
 8573SOL     OW26617   3.702   6.444   5.849
 8573SOL    HW126618   3.675   6.523   5.904
 8573SOL    HW226619   3.630   6.423   5.783
 8574SOL     OW26620   6.959   5.734   5.468
 8574SOL    HW126621   6.968   5.692   5.378
 8574SOL    HW226622   6.923   5.827   5.458
 8575SOL     OW26623   2.762   2.338   4.756
 8575SOL    HW126624   2.850   2.292   4.747
 8575SOL    HW226625   2.720   2.313   4.844
 8576SOL     OW26626   1.961   5.244   0.007
 8576SOL    HW126627   1.889   5.210   6.962
 8576SOL    HW226628   1.920   5.297   0.081
 8577SOL     OW26629   6.797   6.054   3.865
 8577SOL    HW126630   6.764   5.992   3.793
 8577SOL    HW226631   6.897   6.063   3.857
 8578SOL     OW26632   5.747   1.302   4.681
 8578SOL    HW126633   5.707   1.319   4.591
 8578SOL    HW226634   5.817   1.370   4.700
 8579SOL     OW26635   1.167   6.882   2.732
 8579SOL    HW126636   1.259   6.920   2.745
 8579SOL    HW226637   1.143   6.825   2.811
 8580SOL     OW26638   3.057   6.224   2.741
 8580SOL    HW126639   3.104   6.270   2.666
 8580SOL    HW226640   3.099   6.252   2.828
 8581SOL     OW26641   3.224   3.659   2.165
 8581SOL    HW126642   3.132   3.623   2.153
 8581SOL    HW226643   3.270   3.610   2.239
 8582SOL     OW26644   4.596   4.427   2.659
 8582SOL    HW126645   4.636   4.381   2.579
 8582SOL    HW226646   4.523   4.488   2.629
 8583SOL     OW26647   5.310   0.722   4.567
 8583SOL    HW126648   5.398   0.690   4.532
 8583SOL    HW226649   5.311   0.821   4.575
 8584SOL     OW26650   0.685   4.024   5.826
 8584SOL    HW126651   0.688   4.083   5.907
 8584SOL    HW226652   0.769   3.970   5.822
 8585SOL     OW26653   0.540   6.016   6.274
 8585SOL    HW126654   0.558   5.923   6.305
 8585SOL    HW226655   0.477   6.014   6.197
 8586SOL     OW26656   2.704   0.045   3.166
 8586SOL    HW126657   2.776   0.022   3.101
 8586SOL    HW226658   2.719   0.136   3.203
 8587SOL     OW26659   1.736   0.070   3.297
 8587SOL    HW126660   1.658   0.021   3.335
 8587SOL    HW226661   1.729   0.167   3.321
 8588SOL     OW26662   2.244   0.537   0.373
 8588SOL    HW126663   2.249   0.581   0.284
 8588SOL    HW226664   2.264   0.440   0.364
 8589SOL     OW26665   4.966   2.714   4.753
 8589SOL    HW126666   4.908   2.638   4.723
 8589SOL    HW226667   4.951   2.731   4.850
 8590SOL     OW26668   0.201   6.270   3.929
 8590SOL    HW126669   0.233   6.360   3.900
 8590SOL    HW226670   0.272   6.202   3.913
 8591SOL     OW26671   6.630   4.303   6.896
 8591SOL    HW126672   6.639   4.385   6.839
 8591SOL    HW226673   6.685   4.313   6.979
 8592SOL     OW26674   6.870   2.764   6.636
 8592SOL    HW126675   6.854   2.751   6.733
 8592SOL    HW226676   6.869   2.862   6.614
 8593SOL     OW26677   2.798   0.039   1.714
 8593SOL    HW126678   2.777   0.130   1.752
 8593SOL    HW226679   2.720   6.995   1.731
 8594SOL     OW26680   3.599   2.819   5.230
 8594SOL    HW126681   3.525   2.768   5.274
 8594SOL    HW226682   3.579   2.828   5.133
 8595SOL     OW26683   1.627   2.751   2.937
 8595SOL    HW126684   1.652   2.670   2.884
 8595SOL    HW226685   1.553   2.729   3.000
 8596SOL     OW26686   6.335   5.282   3.662
 8596SOL    HW126687   6.317   5.340   3.741
 8596SOL    HW226688   6.361   5.191   3.692
 8597SOL     OW26689   4.127   1.124   0.680
 8597SOL    HW126690   4.222   1.130   0.648
 8597SOL    HW226691   4.076   1.061   0.622
 8598SOL     OW26692   6.848   6.504   0.954
 8598SOL    HW126693   6.762   6.480   0.997
 8598SOL    HW226694   6.913   6.537   1.023
 8599SOL     OW26695   1.323   2.643   4.356
 8599SOL    HW126696   1.286   2.598   4.437
 8599SOL    HW226697   1.293   2.594   4.274
 8600SOL     OW26698   4.788   5.227   6.090
 8600SOL    HW126699   4.715   5.287   6.056
 8600SOL    HW226700   4.852   5.208   6.016
 8601SOL     OW26701   1.052   0.617   4.932
 8601SOL    HW126702   1.014   0.685   4.870
 8601SOL    HW226703   1.021   0.526   4.905
 8602SOL     OW26704   3.418   5.348   3.172
 8602SOL    HW126705   3.471   5.400   3.239
 8602SOL    HW226706   3.385   5.264   3.215
 8603SOL     OW26707   3.760   5.142   0.704
 8603SOL    HW126708   3.680   5.089   0.732
 8603SOL    HW226709   3.762   5.150   0.605
 8604SOL     OW26710   0.718   3.078   3.818
 8604SOL    HW126711   0.662   3.044   3.894
 8604SOL    HW226712   0.788   3.011   3.795
 8605SOL     OW26713   2.803   5.527   4.772
 8605SOL    HW126714   2.709   5.507   4.801
 8605SOL    HW226715   2.804   5.611   4.717
 8606SOL     OW26716   1.377   3.275   6.196
 8606SOL    HW126717   1.359   3.329   6.113
 8606SOL    HW226718   1.423   3.333   6.263
 8607SOL     OW26719   3.613   6.179   1.117
 8607SOL    HW126720   3.629   6.086   1.148
 8607SOL    HW226721   3.603   6.180   1.017
 8608SOL     OW26722   4.139   5.672   2.922
 8608SOL    HW126723   4.067   5.723   2.874
 8608SOL    HW226724   4.135   5.576   2.895
 8609SOL     OW26725   5.623   0.869   3.334
 8609SOL    HW126726   5.570   0.784   3.329
 8609SOL    HW226727   5.712   0.851   3.375
 8610SOL     OW26728   1.827   2.305   2.683
 8610SOL    HW126729   1.922   2.295   2.654
 8610SOL    HW226730   1.788   2.214   2.699
 8611SOL     OW26731   2.753   1.793   4.494
 8611SOL    HW126732   2.782   1.714   4.440
 8611SOL    HW226733   2.713   1.762   4.580
 8612SOL     OW26734   3.553   3.164   0.791
 8612SOL    HW126735   3.495   3.211   0.858
 8612SOL    HW226736   3.637   3.135   0.835
 8613SOL     OW26737   2.332   1.943   1.025
 8613SOL    HW126738   2.428   1.918   1.011
 8613SOL    HW226739   2.313   1.949   1.123
 8614SOL     OW26740   1.057   3.373   2.484
 8614SOL    HW126741   1.006   3.293   2.450
 8614SOL    HW226742   1.035   3.453   2.428
 8615SOL     OW26743   5.154   1.808   5.453
 8615SOL    HW126744   5.133   1.755   5.535
 8615SOL    HW226745   5.180   1.747   5.378
 8616SOL     OW26746   3.192   4.829   1.540
 8616SOL    HW126747   3.191   4.790   1.448
 8616SOL    HW226748   3.112   4.797   1.591
 8617SOL     OW26749   0.140   0.713   6.220
 8617SOL    HW126750   0.199   0.722   6.300
 8617SOL    HW226751   0.047   0.688   6.249
 8618SOL     OW26752   6.305   6.016   0.643
 8618SOL    HW126753   6.367   5.966   0.704
 8618SOL    HW226754   6.356   6.086   0.594
 8619SOL     OW26755   3.815   4.917   2.125
 8619SOL    HW126756   3.785   4.969   2.205
 8619SOL    HW226757   3.738   4.864   2.088
 8620SOL     OW26758   0.835   0.373   3.861
 8620SOL    HW126759   0.808   0.456   3.813
 8620SOL    HW226760   0.850   0.394   3.958
 8621SOL     OW26761   5.885   1.510   2.765
 8621SOL    HW126762   5.801   1.539   2.719
 8621SOL    HW226763   5.940   1.455   2.702
 8622SOL     OW26764   4.801   2.651   0.372
 8622SOL    HW126765   4.860   2.670   0.293
 8622SOL    HW226766   4.857   2.636   0.453
 8623SOL     OW26767   0.780   3.921   3.526
 8623SOL    HW126768   0.768   3.977   3.443
 8623SOL    HW226769   0.848   3.850   3.508
 8624SOL     OW26770   0.576   3.781   4.802
 8624SOL    HW126771   0.641   3.707   4.783
 8624SOL    HW226772   0.525   3.804   4.719
 8625SOL     OW26773   4.291   0.286   5.706
 8625SOL    HW126774   4.231   0.288   5.786
 8625SOL    HW226775   4.273   0.203   5.654
 8626SOL     OW26776   3.813   2.751   5.380
 8626SOL    HW126777   3.739   2.765   5.315
 8626SOL    HW226778   3.793   2.670   5.435
 8627SOL     OW26779   0.439   1.280   3.385
 8627SOL    HW126780   0.369   1.301   3.317
 8627SOL    HW226781   0.466   1.184   3.377
 8628SOL     OW26782   6.305   6.434   1.390
 8628SOL    HW126783   6.231   6.491   1.356
 8628SOL    HW226784   6.275   6.339   1.394
 8629SOL     OW26785   1.217   4.698   5.289
 8629SOL    HW126786   1.214   4.757   5.369
 8629SOL    HW226787   1.137   4.716   5.231
 8630SOL     OW26788   5.019   4.234   3.410
 8630SOL    HW126789   4.938   4.203   3.460
 8630SOL    HW226790   5.101   4.208   3.461
 8631SOL     OW26791   2.401   5.735   5.949
 8631SOL    HW126792   2.302   5.746   5.959
 8631SOL    HW226793   2.420   5.677   5.870
 8632SOL     OW26794   3.356   6.087   3.866
 8632SOL    HW126795   3.266   6.062   3.830
 8632SOL    HW226796   3.424   6.018   3.837
 8633SOL     OW26797   5.353   1.976   5.121
 8633SOL    HW126798   5.303   2.059   5.146
 8633SOL    HW226799   5.289   1.906   5.091
 8634SOL     OW26800   5.475   3.356   0.031
 8634SOL    HW126801   5.379   3.339   0.008
 8634SOL    HW226802   5.495   3.314   0.120
 8635SOL     OW26803   5.858   4.204   6.438
 8635SOL    HW126804   5.773   4.209   6.490
 8635SOL    HW226805   5.876   4.108   6.415
 8636SOL     OW26806   5.293   5.998   0.450
 8636SOL    HW126807   5.360   6.062   0.490
 8636SOL    HW226808   5.234   5.963   0.523
 8637SOL     OW26809   1.821   1.068   0.178
 8637SOL    HW126810   1.722   1.058   0.187
 8637SOL    HW226811   1.843   1.161   0.147
 8638SOL     OW26812   2.919   2.952   6.645
 8638SOL    HW126813   2.861   2.982   6.721
 8638SOL    HW226814   2.928   2.853   6.647
 8639SOL     OW26815   5.015   2.213   1.672
 8639SOL    HW126816   5.067   2.294   1.644
 8639SOL    HW226817   4.935   2.202   1.614
 8640SOL     OW26818   4.566   3.780   0.616
 8640SOL    HW126819   4.535   3.833   0.537
 8640SOL    HW226820   4.666   3.786   0.624
 8641SOL     OW26821   5.682   5.071   4.248
 8641SOL    HW126822   5.615   5.146   4.240
 8641SOL    HW226823   5.745   5.090   4.324
 8642SOL     OW26824   2.746   0.291   3.256
 8642SOL    HW126825   2.811   0.345   3.202
 8642SOL    HW226826   2.763   0.306   3.353
 8643SOL     OW26827   3.082   0.643   6.753
 8643SOL    HW126828   3.065   0.600   6.665
 8643SOL    HW226829   3.132   0.729   6.739
 8644SOL     OW26830   4.597   2.149   5.630
 8644SOL    HW126831   4.609   2.091   5.550
 8644SOL    HW226832   4.516   2.120   5.681
 8645SOL     OW26833   4.401   4.578   1.053
 8645SOL    HW126834   4.350   4.635   1.117
 8645SOL    HW226835   4.338   4.513   1.010
 8646SOL     OW26836   6.098   1.055   1.933
 8646SOL    HW126837   6.161   1.011   1.869
 8646SOL    HW226838   6.102   1.154   1.919
 8647SOL     OW26839   2.196   5.467   5.716
 8647SOL    HW126840   2.267   5.453   5.647
 8647SOL    HW226841   2.235   5.457   5.807
 8648SOL     OW26842   6.343   0.803   3.527
 8648SOL    HW126843   6.432   0.826   3.489
 8648SOL    HW226844   6.321   0.708   3.507
 8649SOL     OW26845   5.300   4.519   6.043
 8649SOL    HW126846   5.301   4.617   6.026
 8649SOL    HW226847   5.291   4.469   5.957
 8650SOL     OW26848   2.136   4.870   6.035
 8650SOL    HW126849   2.220   4.920   6.056
 8650SOL    HW226850   2.148   4.818   5.951
 8651SOL     OW26851   3.855   0.682   0.706
 8651SOL    HW126852   3.953   0.661   0.704
 8651SOL    HW226853   3.809   0.637   0.630
 8652SOL     OW26854   1.743   3.674   3.828
 8652SOL    HW126855   1.754   3.576   3.845
 8652SOL    HW226856   1.816   3.706   3.768
 8653SOL     OW26857   6.101   1.088   6.207
 8653SOL    HW126858   6.172   1.157   6.220
 8653SOL    HW226859   6.052   1.075   6.293
 8654SOL     OW26860   0.989   5.212   1.213
 8654SOL    HW126861   0.987   5.112   1.207
 8654SOL    HW226862   0.962   5.252   1.126
 8655SOL     OW26863   6.504   1.446   3.814
 8655SOL    HW126864   6.512   1.427   3.716
 8655SOL    HW226865   6.594   1.435   3.858
 8656SOL     OW26866   6.430   1.062   0.782
 8656SOL    HW126867   6.485   1.093   0.705
 8656SOL    HW226868   6.339   1.035   0.751
 8657SOL     OW26869   5.288   4.416   0.375
 8657SOL    HW126870   5.361   4.405   0.442
 8657SOL    HW226871   5.325   4.401   0.283
 8658SOL     OW26872   4.113   6.804   0.394
 8658SOL    HW126873   4.086   6.759   0.480
 8658SOL    HW226874   4.149   6.736   0.331
 8659SOL     OW26875   4.520   1.457   3.074
 8659SOL    HW126876   4.503   1.555   3.080
 8659SOL    HW226877   4.596   1.440   3.011
 8660SOL     OW26878   5.591   3.526   0.567
 8660SOL    HW126879   5.636   3.614   0.557
 8660SOL    HW226880   5.507   3.525   0.513
 8661SOL     OW26881   5.946   4.378   1.198
 8661SOL    HW126882   6.042   4.348   1.192
 8661SOL    HW226883   5.893   4.332   1.127
 8662SOL     OW26884   4.365   5.998   0.712
 8662SOL    HW126885   4.313   6.059   0.771
 8662SOL    HW226886   4.333   6.008   0.617
 8663SOL     OW26887   2.826   5.995   1.503
 8663SOL    HW126888   2.872   6.043   1.428
 8663SOL    HW226889   2.888   5.990   1.582
 8664SOL     OW26890   2.973   6.550   1.199
 8664SOL    HW126891   2.958   6.580   1.294
 8664SOL    HW226892   2.942   6.455   1.190
 8665SOL     OW26893   5.662   6.332   4.888
 8665SOL    HW126894   5.682   6.244   4.845
 8665SOL    HW226895   5.652   6.320   4.986
 8666SOL     OW26896   5.113   1.452   3.904
 8666SOL    HW126897   5.168   1.515   3.850
 8666SOL    HW226898   5.016   1.471   3.890
 8667SOL     OW26899   5.011   2.323   3.002
 8667SOL    HW126900   5.101   2.294   3.034
 8667SOL    HW226901   5.007   2.423   2.997
 8668SOL     OW26902   5.679   4.024   3.510
 8668SOL    HW126903   5.676   4.095   3.580
 8668SOL    HW226904   5.752   3.959   3.531
 8669SOL     OW26905   2.441   5.939   0.048
 8669SOL    HW126906   2.475   5.973   0.135
 8669SOL    HW226907   2.420   5.841   0.056
 8670SOL     OW26908   3.655   4.566   5.283
 8670SOL    HW126909   3.592   4.492   5.306
 8670SOL    HW226910   3.746   4.528   5.263
 8671SOL     OW26911   5.420   2.238   3.268
 8671SOL    HW126912   5.355   2.255   3.343
 8671SOL    HW226913   5.489   2.173   3.299
 8672SOL     OW26914   2.100   4.925   3.767
 8672SOL    HW126915   2.184   4.941   3.716
 8672SOL    HW226916   2.032   4.995   3.743
 8673SOL     OW26917   6.069   2.458   0.698
 8673SOL    HW126918   6.108   2.510   0.774
 8673SOL    HW226919   5.984   2.415   0.727
 8674SOL     OW26920   5.453   5.387   3.688
 8674SOL    HW126921   5.492   5.416   3.600
 8674SOL    HW226922   5.353   5.378   3.678
 8675SOL     OW26923   3.358   2.011   4.068
 8675SOL    HW126924   3.358   2.085   4.000
 8675SOL    HW226925   3.276   2.017   4.124
 8676SOL     OW26926   4.146   0.392   2.434
 8676SOL    HW126927   4.148   0.294   2.412
 8676SOL    HW226928   4.197   0.408   2.518
 8677SOL     OW26929   2.493   5.747   5.460
 8677SOL    HW126930   2.412   5.693   5.480
 8677SOL    HW226931   2.491   5.777   5.365
 8678SOL     OW26932   6.331   0.370   1.080
 8678SOL    HW126933   6.269   0.377   1.158
 8678SOL    HW226934   6.424   0.390   1.108
 8679SOL     OW26935   6.856   2.655   3.225
 8679SOL    HW126936   6.795   2.734   3.226
 8679SOL    HW226937   6.845   2.604   3.310
 8680SOL     OW26938   0.964   3.844   1.142
 8680SOL    HW126939   0.867   3.843   1.166
 8680SOL    HW226940   0.985   3.926   1.089
 8681SOL     OW26941   4.926   5.452   0.114
 8681SOL    HW126942   4.838   5.476   0.074
 8681SOL    HW226943   4.937   5.353   0.114
 8682SOL     OW26944   5.774   6.904   1.397
 8682SOL    HW126945   5.830   6.983   1.422
 8682SOL    HW226946   5.700   6.893   1.462
 8683SOL     OW26947   2.112   2.494   2.770
 8683SOL    HW126948   2.033   2.554   2.781
 8683SOL    HW226949   2.195   2.549   2.761
 8684SOL     OW26950   0.493   2.741   5.040
 8684SOL    HW126951   0.464   2.773   4.950
 8684SOL    HW226952   0.587   2.771   5.058
 8685SOL     OW26953   0.958   1.930   6.125
 8685SOL    HW126954   0.922   1.915   6.033
 8685SOL    HW226955   1.058   1.919   6.124
 8686SOL     OW26956   0.243   1.291   1.485
 8686SOL    HW126957   0.280   1.212   1.437
 8686SOL    HW226958   0.260   1.374   1.431
 8687SOL     OW26959   4.389   5.441   2.027
 8687SOL    HW126960   4.430   5.518   2.074
 8687SOL    HW226961   4.305   5.414   2.074
 8688SOL     OW26962   2.927   5.933   0.049
 8688SOL    HW126963   2.898   5.933   6.969
 8688SOL    HW226964   2.910   6.023   0.089
 8689SOL     OW26965   3.707   3.803   1.657
 8689SOL    HW126966   3.671   3.820   1.749
 8689SOL    HW226967   3.756   3.716   1.656
 8690SOL     OW26968   1.587   3.015   2.916
 8690SOL    HW126969   1.519   3.037   2.986
 8690SOL    HW226970   1.599   2.916   2.910
 8691SOL     OW26971   3.304   2.051   6.477
 8691SOL    HW126972   3.390   2.032   6.524
 8691SOL    HW226973   3.323   2.084   6.385
 8692SOL     OW26974   1.936   1.480   3.864
 8692SOL    HW126975   1.919   1.427   3.947
 8692SOL    HW226976   1.887   1.439   3.787
 8693SOL     OW26977   6.738   0.988   6.796
 8693SOL    HW126978   6.722   1.083   6.824
 8693SOL    HW226979   6.831   0.979   6.761
 8694SOL     OW26980   4.624   1.144   4.825
 8694SOL    HW126981   4.719   1.113   4.831
 8694SOL    HW226982   4.617   1.216   4.755
 8695SOL     OW26983   3.575   2.564   6.070
 8695SOL    HW126984   3.601   2.480   6.118
 8695SOL    HW226985   3.523   2.622   6.133
 8696SOL     OW26986   2.382   5.592   0.396
 8696SOL    HW126987   2.416   5.513   0.346
 8696SOL    HW226988   2.422   5.676   0.358
 8697SOL     OW26989   6.586   2.718   0.319
 8697SOL    HW126990   6.526   2.639   0.313
 8697SOL    HW226991   6.554   2.780   0.390
 8698SOL     OW26992   5.779   5.770   4.684
 8698SOL    HW126993   5.718   5.828   4.630
 8698SOL    HW226994   5.771   5.675   4.653
 8699SOL     OW26995   2.782   2.186   5.629
 8699SOL    HW126996   2.704   2.230   5.584
 8699SOL    HW226997   2.859   2.183   5.566
 8700SOL     OW26998   0.822   0.647   4.529
 8700SOL    HW126999   0.887   0.723   4.525
 8700SOL    HW227000   0.853   0.580   4.596
 8701SOL     OW27001   0.684   1.331   0.601
 8701SOL    HW127002   0.652   1.327   0.506
 8701SOL    HW227003   0.781   1.309   0.605
 8702SOL     OW27004   4.744   4.973   1.416
 8702SOL    HW127005   4.806   4.996   1.491
 8702SOL    HW227006   4.669   5.039   1.414
 8703SOL     OW27007   3.108   4.850   0.465
 8703SOL    HW127008   3.078   4.782   0.397
 8703SOL    HW227009   3.104   4.810   0.556
 8704SOL     OW27010   0.105   3.555   3.146
 8704SOL    HW127011   0.072   3.460   3.143
 8704SOL    HW227012   0.048   3.611   3.085
 8705SOL     OW27013   4.857   0.944   6.189
 8705SOL    HW127014   4.861   0.847   6.166
 8705SOL    HW227015   4.765   0.968   6.219
 8706SOL     OW27016   4.419   1.778   6.483
 8706SOL    HW127017   4.517   1.768   6.463
 8706SOL    HW227018   4.378   1.839   6.415
 8707SOL     OW27019   6.897   2.717   6.899
 8707SOL    HW127020   6.856   2.637   6.943
 8707SOL    HW227021   6.990   2.730   6.931
 8708SOL     OW27022   4.953   2.519   2.187
 8708SOL    HW127023   5.044   2.530   2.227
 8708SOL    HW227024   4.917   2.609   2.159
 8709SOL     OW27025   6.757   6.087   0.322
 8709SOL    HW127026   6.806   6.003   0.302
 8709SOL    HW227027   6.659   6.068   0.330
 8710SOL     OW27028   2.241   2.993   4.209
 8710SOL    HW127029   2.185   2.977   4.291
 8710SOL    HW227030   2.291   3.079   4.219
 8711SOL     OW27031   1.493   6.558   2.758
 8711SOL    HW127032   1.416   6.567   2.695
 8711SOL    HW227033   1.465   6.587   2.850
 8712SOL     OW27034   4.040   2.125   5.039
 8712SOL    HW127035   4.053   2.208   4.984
 8712SOL    HW227036   4.126   2.073   5.041
 8713SOL     OW27037   0.530   3.270   4.067
 8713SOL    HW127038   0.601   3.205   4.095
 8713SOL    HW227039   0.569   3.337   4.004
 8714SOL     OW27040   1.049   1.345   5.918
 8714SOL    HW127041   1.010   1.260   5.953
 8714SOL    HW227042   1.032   1.351   5.820
 8715SOL     OW27043   4.481   0.474   1.332
 8715SOL    HW127044   4.390   0.502   1.362
 8715SOL    HW227045   4.473   0.396   1.270
 8716SOL     OW27046   0.281   0.321   1.066
 8716SOL    HW127047   0.271   0.375   0.983
 8716SOL    HW227048   0.375   0.329   1.100
 8717SOL     OW27049   3.496   3.454   3.804
 8717SOL    HW127050   3.533   3.361   3.803
 8717SOL    HW227051   3.549   3.511   3.741
 8718SOL     OW27052   0.728   3.567   4.734
 8718SOL    HW127053   0.818   3.610   4.730
 8718SOL    HW227054   0.737   3.472   4.761
 8719SOL     OW27055   3.059   0.558   6.492
 8719SOL    HW127056   3.054   0.615   6.410
 8719SOL    HW227057   2.976   0.504   6.500
 8720SOL     OW27058   6.343   4.839   5.881
 8720SOL    HW127059   6.283   4.861   5.958
 8720SOL    HW227060   6.389   4.753   5.899
 8721SOL     OW27061   0.102   2.848   2.506
 8721SOL    HW127062   0.109   2.752   2.478
 8721SOL    HW227063   0.066   2.902   2.430
 8722SOL     OW27064   4.189   1.434   6.954
 8722SOL    HW127065   4.153   1.378   0.012
 8722SOL    HW227066   4.289   1.436   6.959
 8723SOL     OW27067   4.584   5.729   1.134
 8723SOL    HW127068   4.645   5.694   1.063
 8723SOL    HW227069   4.592   5.828   1.139
 8724SOL     OW27070   5.002   0.498   5.515
 8724SOL    HW127071   4.956   0.466   5.598
 8724SOL    HW227072   5.080   0.437   5.495
 8725SOL     OW27073   1.412   0.029   6.628
 8725SOL    HW127074   1.484   0.055   6.563
 8725SOL    HW227075   1.391   0.106   6.688
 8726SOL     OW27076   6.640   0.491   1.896
 8726SOL    HW127077   6.596   0.580   1.912
 8726SOL    HW227078   6.637   0.436   1.980
 8727SOL     OW27079   0.210   5.848   2.427
 8727SOL    HW127080   0.226   5.877   2.521
 8727SOL    HW227081   0.295   5.857   2.375
 8728SOL     OW27082   5.548   0.193   3.487
 8728SOL    HW127083   5.595   0.212   3.401
 8728SOL    HW227084   5.564   0.098   3.513
 8729SOL     OW27085   4.380   5.740   4.795
 8729SOL    HW127086   4.421   5.729   4.705
 8729SOL    HW227087   4.372   5.650   4.839
 8730SOL     OW27088   6.424   3.970   2.306
 8730SOL    HW127089   6.366   4.014   2.238
 8730SOL    HW227090   6.388   3.879   2.327
 8731SOL     OW27091   2.593   2.458   2.974
 8731SOL    HW127092   2.633   2.441   3.064
 8731SOL    HW227093   2.660   2.437   2.903
 8732SOL     OW27094   5.557   4.645   1.515
 8732SOL    HW127095   5.634   4.708   1.504
 8732SOL    HW227096   5.471   4.697   1.520
 8733SOL     OW27097   1.615   5.569   1.236
 8733SOL    HW127098   1.634   5.487   1.184
 8733SOL    HW227099   1.600   5.646   1.174
 8734SOL     OW27100   1.785   4.694   2.264
 8734SOL    HW127101   1.820   4.766   2.204
 8734SOL    HW227102   1.692   4.716   2.293
 8735SOL     OW27103   1.140   2.529   0.507
 8735SOL    HW127104   1.225   2.495   0.466
 8735SOL    HW227105   1.120   2.477   0.590
 8736SOL     OW27106   1.176   6.093   6.281
 8736SOL    HW127107   1.176   6.123   6.377
 8736SOL    HW227108   1.101   6.137   6.232
 8737SOL     OW27109   2.176   6.796   5.967
 8737SOL    HW127110   2.119   6.793   6.049
 8737SOL    HW227111   2.270   6.821   5.993
 8738SOL     OW27112   2.319   5.672   4.343
 8738SOL    HW127113   2.395   5.629   4.293
 8738SOL    HW227114   2.330   5.653   4.441
 8739SOL     OW27115   5.593   5.532   5.948
 8739SOL    HW127116   5.573   5.560   5.854
 8739SOL    HW227117   5.684   5.493   5.953
 8740SOL     OW27118   4.880   1.064   4.891
 8740SOL    HW127119   4.815   0.998   4.930
 8740SOL    HW227120   4.970   1.048   4.931
 8741SOL     OW27121   2.766   1.528   1.772
 8741SOL    HW127122   2.777   1.599   1.703
 8741SOL    HW227123   2.766   1.438   1.728
 8742SOL     OW27124   5.855   6.144   0.917
 8742SOL    HW127125   5.850   6.045   0.911
 8742SOL    HW227126   5.777   6.185   0.870
 8743SOL     OW27127   1.588   0.459   2.191
 8743SOL    HW127128   1.523   0.520   2.145
 8743SOL    HW227129   1.672   0.508   2.211
 8744SOL     OW27130   3.086   2.580   6.413
 8744SOL    HW127131   3.057   2.499   6.363
 8744SOL    HW227132   3.103   2.655   6.350
 8745SOL     OW27133   5.712   2.983   6.157
 8745SOL    HW127134   5.791   3.044   6.170
 8745SOL    HW227135   5.744   2.896   6.120
 8746SOL     OW27136   5.359   3.809   4.922
 8746SOL    HW127137   5.333   3.854   4.836
 8746SOL    HW227138   5.441   3.754   4.907
 8747SOL     OW27139   0.945   2.657   2.840
 8747SOL    HW127140   0.883   2.735   2.838
 8747SOL    HW227141   1.004   2.659   2.759
 8748SOL     OW27142   6.958   1.408   4.944
 8748SOL    HW127143   0.014   1.406   5.014
 8748SOL    HW227144   6.869   1.420   4.988
 8749SOL     OW27145   2.503   0.677   6.236
 8749SOL    HW127146   2.412   0.696   6.271
 8749SOL    HW227147   2.499   0.664   6.137
 8750SOL     OW27148   3.611   3.332   5.511
 8750SOL    HW127149   3.639   3.411   5.566
 8750SOL    HW227150   3.530   3.289   5.552
 8751SOL     OW27151   5.906   1.002   2.456
 8751SOL    HW127152   5.844   1.057   2.513
 8751SOL    HW227153   5.961   1.063   2.399
 8752SOL     OW27154   2.738   4.212   0.552
 8752SOL    HW127155   2.796   4.288   0.522
 8752SOL    HW227156   2.787   4.158   0.621
 8753SOL     OW27157   4.302   2.196   5.736
 8753SOL    HW127158   4.253   2.150   5.809
 8753SOL    HW227159   4.343   2.280   5.771
 8754SOL     OW27160   1.229   3.253   5.342
 8754SOL    HW127161   1.317   3.299   5.343
 8754SOL    HW227162   1.221   3.194   5.423
 8755SOL     OW27163   2.388   0.452   0.749
 8755SOL    HW127164   2.326   0.379   0.721
 8755SOL    HW227165   2.336   0.532   0.776
 8756SOL     OW27166   1.801   2.829   3.468
 8756SOL    HW127167   1.745   2.786   3.540
 8756SOL    HW227168   1.742   2.881   3.407
 8757SOL     OW27169   4.339   6.293   5.734
 8757SOL    HW127170   4.362   6.386   5.707
 8757SOL    HW227171   4.298   6.245   5.656
 8758SOL     OW27172   5.090   6.404   2.666
 8758SOL    HW127173   5.183   6.440   2.665
 8758SOL    HW227174   5.028   6.472   2.703
 8759SOL     OW27175   4.346   2.159   0.122
 8759SOL    HW127176   4.315   2.072   0.161
 8759SOL    HW227177   4.280   2.230   0.144
 8760SOL     OW27178   1.381   1.321   4.916
 8760SOL    HW127179   1.377   1.311   4.817
 8760SOL    HW227180   1.381   1.418   4.940
 8761SOL     OW27181   5.777   2.549   2.588
 8761SOL    HW127182   5.773   2.641   2.549
 8761SOL    HW227183   5.710   2.491   2.542
 8762SOL     OW27184   0.892   4.303   2.672
 8762SOL    HW127185   0.970   4.302   2.610
 8762SOL    HW227186   0.896   4.222   2.731
 8763SOL     OW27187   6.396   6.245   5.776
 8763SOL    HW127188   6.434   6.337   5.767
 8763SOL    HW227189   6.339   6.241   5.858
 8764SOL     OW27190   5.146   0.964   4.988
 8764SOL    HW127191   5.218   1.022   4.951
 8764SOL    HW227192   5.162   0.950   5.086
 8765SOL     OW27193   5.612   0.244   4.780
 8765SOL    HW127194   5.692   0.209   4.828
 8765SOL    HW227195   5.538   0.177   4.787
 8766SOL     OW27196   4.509   4.522   3.961
 8766SOL    HW127197   4.543   4.562   3.876
 8766SOL    HW227198   4.410   4.537   3.967
 8767SOL     OW27199   4.646   6.432   3.123
 8767SOL    HW127200   4.728   6.376   3.117
 8767SOL    HW227201   4.643   6.478   3.211
 8768SOL     OW27202   1.444   3.065   0.285
 8768SOL    HW127203   1.468   3.004   0.361
 8768SOL    HW227204   1.429   3.010   0.203
 8769SOL     OW27205   0.715   0.776   3.950
 8769SOL    HW127206   0.705   0.697   4.011
 8769SOL    HW227207   0.801   0.823   3.969
 8770SOL     OW27208   5.109   4.181   2.420
 8770SOL    HW127209   5.193   4.200   2.472
 8770SOL    HW227210   5.072   4.093   2.448
 8771SOL     OW27211   1.124   0.598   6.580
 8771SOL    HW127212   1.218   0.633   6.578
 8771SOL    HW227213   1.123   0.505   6.542
 8772SOL     OW27214   4.774   6.608   0.057
 8772SOL    HW127215   4.869   6.579   0.071
 8772SOL    HW227216   4.751   6.678   0.124
 8773SOL     OW27217   4.662   2.612   3.531
 8773SOL    HW127218   4.589   2.645   3.471
 8773SOL    HW227219   4.662   2.512   3.530
 8774SOL     OW27220   1.335   1.596   6.836
 8774SOL    HW127221   1.362   1.503   6.858
 8774SOL    HW227222   1.330   1.608   6.737
 8775SOL     OW27223   6.119   6.996   5.975
 8775SOL    HW127224   6.184   6.946   6.032
 8775SOL    HW227225   6.107   6.948   5.888
 8776SOL     OW27226   3.987   3.534   6.171
 8776SOL    HW127227   3.924   3.608   6.194
 8776SOL    HW227228   4.020   3.491   6.255
 8777SOL     OW27229   0.163   3.707   1.500
 8777SOL    HW127230   0.065   3.718   1.484
 8777SOL    HW227231   0.179   3.626   1.556
 8778SOL     OW27232   6.490   2.926   4.756
 8778SOL    HW127233   6.392   2.943   4.765
 8778SOL    HW227234   6.526   2.891   4.842
 8779SOL     OW27235   2.880   5.314   2.283
 8779SOL    HW127236   2.823   5.247   2.330
 8779SOL    HW227237   2.964   5.270   2.251
 8780SOL     OW27238   0.886   5.720   2.839
 8780SOL    HW127239   0.822   5.692   2.768
 8780SOL    HW227240   0.925   5.639   2.883
 8781SOL     OW27241   5.867   1.558   3.138
 8781SOL    HW127242   5.904   1.465   3.134
 8781SOL    HW227243   5.852   1.583   3.234
 8782SOL     OW27244   5.120   6.995   1.804
 8782SOL    HW127245   5.115   0.059   1.865
 8782SOL    HW227246   5.201   6.942   1.826
 8783SOL     OW27247   6.363   3.677   3.356
 8783SOL    HW127248   6.342   3.721   3.268
 8783SOL    HW227249   6.439   3.613   3.343
 8784SOL     OW27250   5.850   4.520   6.593
 8784SOL    HW127251   5.760   4.484   6.615
 8784SOL    HW227252   5.914   4.444   6.579
 8785SOL     OW27253   6.070   3.240   6.616
 8785SOL    HW127254   6.154   3.284   6.583
 8785SOL    HW227255   6.067   3.146   6.583
 8786SOL     OW27256   1.625   6.903   0.447
 8786SOL    HW127257   1.632   6.903   0.347
 8786SOL    HW227258   1.717   6.897   0.486
 8787SOL     OW27259   3.007   2.660   1.736
 8787SOL    HW127260   3.078   2.720   1.773
 8787SOL    HW227261   2.996   2.580   1.796
 8788SOL     OW27262   0.750   2.199   5.900
 8788SOL    HW127263   0.686   2.222   5.827
 8788SOL    HW227264   0.778   2.104   5.890
 8789SOL     OW27265   5.985   6.797   5.506
 8789SOL    HW127266   5.891   6.764   5.514
 8789SOL    HW227267   6.000   6.833   5.414
 8790SOL     OW27268   0.496   0.744   6.831
 8790SOL    HW127269   0.437   0.775   6.906
 8790SOL    HW227270   0.577   0.698   6.869
 8791SOL     OW27271   5.553   0.099   5.274
 8791SOL    HW127272   5.540   0.198   5.274
 8791SOL    HW227273   5.639   0.077   5.228
 8792SOL     OW27274   3.638   6.567   3.163
 8792SOL    HW127275   3.666   6.652   3.208
 8792SOL    HW227276   3.558   6.530   3.209
 8793SOL     OW27277   1.981   4.730   3.412
 8793SOL    HW127278   1.958   4.825   3.389
 8793SOL    HW227279   1.952   4.670   3.337
 8794SOL     OW27280   4.044   6.486   1.838
 8794SOL    HW127281   4.072   6.416   1.772
 8794SOL    HW227282   4.068   6.576   1.804
 8795SOL     OW27283   1.546   6.003   5.690
 8795SOL    HW127284   1.595   6.080   5.649
 8795SOL    HW227285   1.612   5.937   5.725
 8796SOL     OW27286   3.992   2.215   4.225
 8796SOL    HW127287   3.951   2.143   4.169
 8796SOL    HW227288   3.920   2.276   4.258
 8797SOL     OW27289   0.587   6.917   6.144
 8797SOL    HW127290   0.678   6.929   6.104
 8797SOL    HW227291   0.576   6.979   6.221
 8798SOL     OW27292   5.029   5.460   6.008
 8798SOL    HW127293   5.113   5.411   6.031
 8798SOL    HW227294   5.012   5.452   5.909
 8799SOL     OW27295   2.515   4.943   3.932
 8799SOL    HW127296   2.604   4.957   3.976
 8799SOL    HW227297   2.474   4.860   3.968
 8800SOL     OW27298   5.839   3.792   5.294
 8800SOL    HW127299   5.859   3.747   5.207
 8800SOL    HW227300   5.908   3.765   5.361
 8801SOL     OW27301   0.513   2.046   4.972
 8801SOL    HW127302   0.513   2.126   4.912
 8801SOL    HW227303   0.484   1.965   4.920
 8802SOL     OW27304   1.748   6.725   0.854
 8802SOL    HW127305   1.829   6.778   0.828
 8802SOL    HW227306   1.721   6.665   0.778
 8803SOL     OW27307   6.763   5.430   6.375
 8803SOL    HW127308   6.666   5.426   6.398
 8803SOL    HW227309   6.789   5.525   6.355
 8804SOL     OW27310   2.938   0.265   2.242
 8804SOL    HW127311   2.873   0.210   2.295
 8804SOL    HW227312   2.889   0.339   2.195
 8805SOL     OW27313   2.699   6.853   4.167
 8805SOL    HW127314   2.698   6.831   4.070
 8805SOL    HW227315   2.793   6.865   4.198
 8806SOL     OW27316   2.669   5.496   2.516
 8806SOL    HW127317   2.687   5.591   2.488
 8806SOL    HW227318   2.755   5.454   2.544
 8807SOL     OW27319   5.219   6.903   6.784
 8807SOL    HW127320   5.316   6.903   6.808
 8807SOL    HW227321   5.176   6.986   6.821
 8808SOL     OW27322   5.817   2.526   6.978
 8808SOL    HW127323   5.869   2.445   7.006
 8808SOL    HW227324   5.720   2.501   6.969
 8809SOL     OW27325   4.518   5.559   3.917
 8809SOL    HW127326   4.429   5.543   3.874
 8809SOL    HW227327   4.559   5.471   3.941
 8810SOL     OW27328   5.025   0.873   5.926
 8810SOL    HW127329   5.074   0.857   6.012
 8810SOL    HW227330   5.091   0.894   5.854
 8811SOL     OW27331   2.869   1.293   3.718
 8811SOL    HW127332   2.810   1.239   3.777
 8811SOL    HW227333   2.935   1.234   3.672
 8812SOL     OW27334   2.131   0.251   0.701
 8812SOL    HW127335   2.156   0.190   0.626
 8812SOL    HW227336   2.052   0.306   0.674
 8813SOL     OW27337   1.549   4.771   1.682
 8813SOL    HW127338   1.506   4.771   1.772
 8813SOL    HW227339   1.633   4.716   1.686
 8814SOL     OW27340   5.704   6.816   1.127
 8814SOL    HW127341   5.724   6.828   1.224
 8814SOL    HW227342   5.745   6.891   1.075
 8815SOL     OW27343   6.527   6.910   0.471
 8815SOL    HW127344   6.525   6.926   0.570
 8815SOL    HW227345   6.543   6.813   0.454
 8816SOL     OW27346   1.416   0.120   0.202
 8816SOL    HW127347   1.462   0.179   0.269
 8816SOL    HW227348   1.363   0.177   0.139
 8817SOL     OW27349   1.015   5.599   4.641
 8817SOL    HW127350   1.095   5.597   4.581
 8817SOL    HW227351   0.957   5.520   4.623
 8818SOL     OW27352   0.346   4.125   4.709
 8818SOL    HW127353   0.441   4.128   4.740
 8818SOL    HW227354   0.296   4.202   4.749
 8819SOL     OW27355   5.381   5.119   5.008
 8819SOL    HW127356   5.307   5.184   4.991
 8819SOL    HW227357   5.397   5.113   5.107
 8820SOL     OW27358   1.748   0.991   5.119
 8820SOL    HW127359   1.660   0.990   5.168
 8820SOL    HW227360   1.800   1.073   5.146
 8821SOL     OW27361   3.152   6.311   0.077
 8821SOL    HW127362   3.128   6.284   7.000
 8821SOL    HW227363   3.090   6.267   0.141
 8822SOL     OW27364   0.549   6.993   4.790
 8822SOL    HW127365   0.502   6.950   4.713
 8822SOL    HW227366   0.644   6.962   4.792
 8823SOL     OW27367   2.595   0.656   1.296
 8823SOL    HW127368   2.585   0.582   1.229
 8823SOL    HW227369   2.654   0.727   1.257
 8824SOL     OW27370   0.826   3.047   0.654
 8824SOL    HW127371   0.912   3.013   0.694
 8824SOL    HW227372   0.835   3.144   0.634
 8825SOL     OW27373   1.992   0.297   2.557
 8825SOL    HW127374   1.973   0.213   2.506
 8825SOL    HW227375   1.943   0.374   2.516
 8826SOL     OW27376   6.507   3.494   1.161
 8826SOL    HW127377   6.450   3.566   1.121
 8826SOL    HW227378   6.452   3.412   1.177
 8827SOL     OW27379   3.685   1.547   2.882
 8827SOL    HW127380   3.714   1.631   2.928
 8827SOL    HW227381   3.756   1.477   2.893
 8828SOL     OW27382   4.704   5.799   5.418
 8828SOL    HW127383   4.761   5.877   5.392
 8828SOL    HW227384   4.616   5.804   5.370
 8829SOL     OW27385   5.329   2.286   0.608
 8829SOL    HW127386   5.365   2.325   0.693
 8829SOL    HW227387   5.403   2.276   0.542
 8830SOL     OW27388   1.218   1.670   2.396
 8830SOL    HW127389   1.283   1.739   2.366
 8830SOL    HW227390   1.240   1.641   2.489
 8831SOL     OW27391   4.888   1.832   4.001
 8831SOL    HW127392   4.850   1.870   3.917
 8831SOL    HW227393   4.852   1.740   4.017
 8832SOL     OW27394   0.065   5.399   3.143
 8832SOL    HW127395   0.146   5.438   3.099
 8832SOL    HW227396   7.000   5.448   3.110
 8833SOL     OW27397   2.386   5.465   5.411
 8833SOL    HW127398   2.297   5.422   5.393
 8833SOL    HW227399   2.448   5.447   5.334
 8834SOL     OW27400   5.127   3.163   4.831
 8834SOL    HW127401   5.124   3.202   4.924
 8834SOL    HW227402   5.038   3.124   4.809
 8835SOL     OW27403   5.285   1.110   6.035
 8835SOL    HW127404   5.259   1.172   5.961
 8835SOL    HW227405   5.218   1.119   6.109
 8836SOL     OW27406   4.852   2.928   6.936
 8836SOL    HW127407   4.877   2.889   6.847
 8836SOL    HW227408   4.760   2.898   6.960
 8837SOL     OW27409   6.885   5.946   3.096
 8837SOL    HW127410   6.793   5.916   3.120
 8837SOL    HW227411   6.949   5.916   3.167
 8838SOL     OW27412   2.753   5.377   3.033
 8838SOL    HW127413   2.773   5.448   3.101
 8838SOL    HW227414   2.673   5.403   2.979
 8839SOL     OW27415   5.313   5.083   3.706
 8839SOL    HW127416   5.399   5.043   3.739
 8839SOL    HW227417   5.289   5.161   3.764
 8840SOL     OW27418   6.815   1.899   2.448
 8840SOL    HW127419   6.875   1.955   2.391
 8840SOL    HW227420   6.765   1.958   2.511
 8841SOL     OW27421   0.703   0.986   5.130
 8841SOL    HW127422   0.672   0.960   5.221
 8841SOL    HW227423   0.803   0.986   5.128
 8842SOL     OW27424   3.364   2.901   2.276
 8842SOL    HW127425   3.447   2.868   2.323
 8842SOL    HW227426   3.301   2.939   2.344
 8843SOL     OW27427   1.556   3.093   6.086
 8843SOL    HW127428   1.484   3.124   6.148
 8843SOL    HW227429   1.630   3.160   6.086
 8844SOL     OW27430   6.792   2.337   6.778
 8844SOL    HW127431   6.871   2.326   6.838
 8844SOL    HW227432   6.708   2.323   6.831
 8845SOL     OW27433   3.380   3.409   6.956
 8845SOL    HW127434   3.454   3.472   6.932
 8845SOL    HW227435   3.293   3.447   6.925
 8846SOL     OW27436   3.541   5.737   3.763
 8846SOL    HW127437   3.546   5.817   3.703
 8846SOL    HW227438   3.558   5.654   3.709
 8847SOL     OW27439   2.682   0.823   3.321
 8847SOL    HW127440   2.597   0.850   3.367
 8847SOL    HW227441   2.746   0.900   3.320
 8848SOL     OW27442   2.022   0.847   1.390
 8848SOL    HW127443   1.949   0.894   1.440
 8848SOL    HW227444   2.105   0.844   1.446
 8849SOL     OW27445   3.334   6.426   3.512
 8849SOL    HW127446   3.294   6.513   3.481
 8849SOL    HW227447   3.325   6.419   3.611
 8850SOL     OW27448   1.025   2.207   0.161
 8850SOL    HW127449   1.059   2.280   0.220
 8850SOL    HW227450   0.974   2.246   0.085
 8851SOL     OW27451   1.251   4.071   3.611
 8851SOL    HW127452   1.175   4.115   3.563
 8851SOL    HW227453   1.219   4.038   3.700
 8852SOL     OW27454   0.068   2.748   5.480
 8852SOL    HW127455   0.126   2.670   5.504
 8852SOL    HW227456   0.085   2.774   5.385
 8853SOL     OW27457   3.254   0.988   1.357
 8853SOL    HW127458   3.268   1.084   1.381
 8853SOL    HW227459   3.194   0.945   1.424
 8854SOL     OW27460   2.633   2.580   5.753
 8854SOL    HW127461   2.643   2.486   5.787
 8854SOL    HW227462   2.596   2.638   5.826
 8855SOL     OW27463   6.713   5.288   1.227
 8855SOL    HW127464   6.679   5.274   1.320
 8855SOL    HW227465   6.745   5.201   1.190
 8856SOL     OW27466   0.550   6.303   6.186
 8856SOL    HW127467   0.531   6.209   6.214
 8856SOL    HW227468   0.545   6.364   6.265
 8857SOL     OW27469   6.964   1.891   4.354
 8857SOL    HW127470   0.004   1.838   4.291
 8857SOL    HW227471   0.004   1.926   4.429
 8858SOL     OW27472   0.233   4.000   4.455
 8858SOL    HW127473   0.301   4.015   4.383
 8858SOL    HW227474   0.226   4.082   4.511
 8859SOL     OW27475   1.520   1.270   3.559
 8859SOL    HW127476   1.461   1.277   3.639
 8859SOL    HW227477   1.479   1.321   3.483
 8860SOL     OW27478   6.757   2.150   1.992
 8860SOL    HW127479   6.812   2.205   1.930
 8860SOL    HW227480   6.734   2.205   2.073
 8861SOL     OW27481   4.034   1.121   5.947
 8861SOL    HW127482   4.047   1.056   5.873
 8861SOL    HW227483   4.095   1.200   5.933
 8862SOL     OW27484   5.541   6.736   4.028
 8862SOL    HW127485   5.565   6.640   4.044
 8862SOL    HW227486   5.621   6.794   4.042
 8863SOL     OW27487   2.621   4.629   3.707
 8863SOL    HW127488   2.612   4.600   3.612
 8863SOL    HW227489   2.554   4.582   3.763
 8864SOL     OW27490   2.937   5.014   6.283
 8864SOL    HW127491   2.958   4.916   6.284
 8864SOL    HW227492   2.869   5.032   6.212
 8865SOL     OW27493   3.053   0.657   4.676
 8865SOL    HW127494   3.030   0.747   4.640
 8865SOL    HW227495   3.148   0.657   4.707
 8866SOL     OW27496   5.418   0.004   3.029
 8866SOL    HW127497   5.352   0.070   3.066
 8866SOL    HW227498   5.380   6.978   2.947
 8867SOL     OW27499   5.906   4.636   3.438
 8867SOL    HW127500   5.865   4.552   3.402
 8867SOL    HW227501   5.837   4.707   3.445
 8868SOL     OW27502   0.316   3.180   1.458
 8868SOL    HW127503   0.375   3.156   1.536
 8868SOL    HW227504   0.286   3.097   1.412
 8869SOL     OW27505   3.747   6.128   5.301
 8869SOL    HW127506   3.800   6.044   5.306
 8869SOL    HW227507   3.698   6.131   5.214
 8870SOL     OW27508   2.622   6.625   1.162
 8870SOL    HW127509   2.639   6.674   1.076
 8870SOL    HW227510   2.641   6.685   1.239
 8871SOL     OW27511   1.586   0.792   4.194
 8871SOL    HW127512   1.511   0.850   4.223
 8871SOL    HW227513   1.552   0.719   4.135
 8872SOL     OW27514   1.511   4.589   5.442
 8872SOL    HW127515   1.506   4.582   5.342
 8872SOL    HW227516   1.526   4.498   5.481
 8873SOL     OW27517   1.151   6.809   2.248
 8873SOL    HW127518   1.147   6.720   2.203
 8873SOL    HW227519   1.243   6.825   2.283
 8874SOL     OW27520   2.430   5.475   2.395
 8874SOL    HW127521   2.356   5.532   2.432
 8874SOL    HW227522   2.508   5.476   2.457
 8875SOL     OW27523   0.028   3.831   4.370
 8875SOL    HW127524   0.097   3.898   4.398
 8875SOL    HW227525   6.963   3.878   4.336
 8876SOL     OW27526   2.133   0.053   5.601
 8876SOL    HW127527   2.086   0.086   5.519
 8876SOL    HW227528   2.216   0.003   5.573
 8877SOL     OW27529   2.656   1.769   4.105
 8877SOL    HW127530   2.740   1.823   4.094
 8877SOL    HW227531   2.600   1.810   4.176
 8878SOL     OW27532   4.807   5.293   0.870
 8878SOL    HW127533   4.789   5.228   0.944
 8878SOL    HW227534   4.722   5.312   0.821
 8879SOL     OW27535   4.425   4.605   2.563
 8879SOL    HW127536   4.430   4.612   2.463
 8879SOL    HW227537   4.330   4.618   2.592
 8880SOL     OW27538   4.431   6.233   5.046
 8880SOL    HW127539   4.462   6.140   5.028
 8880SOL    HW227540   4.468   6.294   4.975
 8881SOL     OW27541   5.402   6.261   3.946
 8881SOL    HW127542   5.384   6.286   4.041
 8881SOL    HW227543   5.466   6.327   3.906
 8882SOL     OW27544   5.113   0.925   1.612
 8882SOL    HW127545   5.170   0.957   1.537
 8882SOL    HW227546   5.023   0.968   1.606
 8883SOL     OW27547   2.214   6.244   5.980
 8883SOL    HW127548   2.186   6.149   5.965
 8883SOL    HW227549   2.133   6.299   6.000
 8884SOL     OW27550   6.097   3.044   5.491
 8884SOL    HW127551   6.181   2.992   5.508
 8884SOL    HW227552   6.050   3.062   5.577
 8885SOL     OW27553   5.196   4.287   1.050
 8885SOL    HW127554   5.134   4.250   1.119
 8885SOL    HW227555   5.277   4.229   1.042
 8886SOL     OW27556   2.859   6.234   5.024
 8886SOL    HW127557   2.958   6.231   5.009
 8886SOL    HW227558   2.822   6.318   4.985
 8887SOL     OW27559   3.982   1.188   0.900
 8887SOL    HW127560   4.010   1.148   0.813
 8887SOL    HW227561   3.886   1.167   0.917
 8888SOL     OW27562   1.983   1.472   5.393
 8888SOL    HW127563   1.967   1.539   5.320
 8888SOL    HW227564   2.075   1.434   5.382
 8889SOL     OW27565   6.605   0.023   0.040
 8889SOL    HW127566   6.530   7.014   6.996
 8889SOL    HW227567   6.640   0.113   0.014
 8890SOL     OW27568   0.297   6.099   5.515
 8890SOL    HW127569   0.341   6.189   5.523
 8890SOL    HW227570   0.216   6.107   5.458
 8891SOL     OW27571   3.780   3.559   6.923
 8891SOL    HW127572   3.770   3.603   6.833
 8891SOL    HW227573   3.698   3.576   6.977
 8892SOL     OW27574   3.990   5.008   2.867
 8892SOL    HW127575   3.982   4.991   2.769
 8892SOL    HW227576   3.950   5.098   2.888
 8893SOL     OW27577   1.012   5.291   4.283
 8893SOL    HW127578   0.927   5.249   4.312
 8893SOL    HW227579   0.993   5.367   4.221
 8894SOL     OW27580   3.238   1.704   6.316
 8894SOL    HW127581   3.167   1.658   6.262
 8894SOL    HW227582   3.211   1.704   6.412
 8895SOL     OW27583   0.118   2.185   2.087
 8895SOL    HW127584   0.091   2.092   2.061
 8895SOL    HW227585   0.038   2.244   2.088
 8896SOL     OW27586   2.165   3.191   4.996
 8896SOL    HW127587   2.240   3.125   5.002
 8896SOL    HW227588   2.111   3.187   5.080
 8897SOL     OW27589   2.410   2.269   3.744
 8897SOL    HW127590   2.319   2.262   3.703
 8897SOL    HW227591   2.434   2.366   3.756
 8898SOL     OW27592   4.895   3.530   2.761
 8898SOL    HW127593   4.853   3.582   2.687
 8898SOL    HW227594   4.982   3.573   2.787
 8899SOL     OW27595   1.077   4.558   0.879
 8899SOL    HW127596   1.001   4.618   0.854
 8899SOL    HW227597   1.096   4.568   0.977
 8900SOL     OW27598   5.314   3.102   3.307
 8900SOL    HW127599   5.282   3.137   3.395
 8900SOL    HW227600   5.325   3.177   3.243
 8901SOL     OW27601   1.231   1.681   4.944
 8901SOL    HW127602   1.190   1.603   4.897
 8901SOL    HW227603   1.310   1.651   4.996
 8902SOL     OW27604   0.615   5.604   0.627
 8902SOL    HW127605   0.570   5.646   0.548
 8902SOL    HW227606   0.658   5.518   0.598
 8903SOL     OW27607   0.862   1.791   4.362
 8903SOL    HW127608   0.959   1.791   4.337
 8903SOL    HW227609   0.836   1.883   4.392
 8904SOL     OW27610   0.554   0.612   4.421
 8904SOL    HW127611   0.646   0.628   4.456
 8904SOL    HW227612   0.496   0.690   4.445
 8905SOL     OW27613   2.131   3.391   3.362
 8905SOL    HW127614   2.229   3.403   3.348
 8905SOL    HW227615   2.099   3.313   3.307
 8906SOL     OW27616   0.532   6.255   0.935
 8906SOL    HW127617   0.591   6.331   0.912
 8906SOL    HW227618   0.564   6.172   0.889
 8907SOL     OW27619   3.303   2.712   5.883
 8907SOL    HW127620   3.402   2.712   5.870
 8907SOL    HW227621   3.272   2.804   5.907
 8908SOL     OW27622   1.734   5.746   0.198
 8908SOL    HW127623   1.713   5.844   0.203
 8908SOL    HW227624   1.751   5.721   0.103
 8909SOL     OW27625   2.331   1.597   5.733
 8909SOL    HW127626   2.288   1.656   5.664
 8909SOL    HW227627   2.272   1.519   5.753
 8910SOL     OW27628   0.972   3.346   5.792
 8910SOL    HW127629   0.962   3.421   5.727
 8910SOL    HW227630   0.931   3.371   5.879
 8911SOL     OW27631   4.731   2.810   4.478
 8911SOL    HW127632   4.742   2.817   4.577
 8911SOL    HW227633   4.793   2.873   4.433
 8912SOL     OW27634   3.044   3.863   0.168
 8912SOL    HW127635   2.977   3.793   0.147
 8912SOL    HW227636   2.998   3.952   0.175
 8913SOL     OW27637   3.953   5.360   6.745
 8913SOL    HW127638   3.944   5.459   6.745
 8913SOL    HW227639   3.886   5.321   6.681
 8914SOL     OW27640   4.762   0.174   4.941
 8914SOL    HW127641   4.849   0.124   4.936
 8914SOL    HW227642   4.690   0.113   4.973
 8915SOL     OW27643   1.634   2.459   3.757
 8915SOL    HW127644   1.708   2.436   3.693
 8915SOL    HW227645   1.605   2.553   3.741
 8916SOL     OW27646   6.481   3.164   0.902
 8916SOL    HW127647   6.570   3.210   0.906
 8916SOL    HW227648   6.408   3.233   0.901
 8917SOL     OW27649   5.895   2.863   0.207
 8917SOL    HW127650   5.834   2.912   0.144
 8917SOL    HW227651   5.910   2.770   0.173
 8918SOL     OW27652   0.471   4.719   1.074
 8918SOL    HW127653   0.521   4.733   0.988
 8918SOL    HW227654   0.440   4.624   1.078
 8919SOL     OW27655   4.748   4.133   0.126
 8919SOL    HW127656   4.814   4.168   0.059
 8919SOL    HW227657   4.666   4.191   0.126
 8920SOL     OW27658   0.016   1.730   6.803
 8920SOL    HW127659   0.019   1.746   6.902
 8920SOL    HW227660   0.104   1.755   6.762
 8921SOL     OW27661   1.823   3.129   1.512
 8921SOL    HW127662   1.870   3.076   1.583
 8921SOL    HW227663   1.855   3.223   1.514
 8922SOL     OW27664   4.137   5.155   2.048
 8922SOL    HW127665   4.172   5.115   2.133
 8922SOL    HW227666   4.060   5.100   2.014
 8923SOL     OW27667   1.760   1.896   6.356
 8923SOL    HW127668   1.744   1.994   6.368
 8923SOL    HW227669   1.691   1.858   6.295
 8924SOL     OW27670   5.226   5.623   5.293
 8924SOL    HW127671   5.188   5.614   5.201
 8924SOL    HW227672   5.161   5.584   5.359
 8925SOL     OW27673   0.869   0.757   3.326
 8925SOL    HW127674   0.773   0.785   3.335
 8925SOL    HW227675   0.879   0.697   3.247
 8926SOL     OW27676   6.392   3.154   6.160
 8926SOL    HW127677   6.447   3.073   6.142
 8926SOL    HW227678   6.304   3.127   6.199
 8927SOL     OW27679   0.425   0.930   4.824
 8927SOL    HW127680   0.372   0.895   4.901
 8927SOL    HW227681   0.522   0.933   4.848
 8928SOL     OW27682   1.277   0.266   6.059
 8928SOL    HW127683   1.257   0.226   5.969
 8928SOL    HW227684   1.195   0.259   6.116
 8929SOL     OW27685   5.669   2.090   4.796
 8929SOL    HW127686   5.709   2.089   4.888
 8929SOL    HW227687   5.685   2.002   4.751
 8930SOL     OW27688   1.277   2.897   4.622
 8930SOL    HW127689   1.376   2.908   4.626
 8930SOL    HW227690   1.252   2.835   4.548
 8931SOL     OW27691   2.991   3.683   1.222
 8931SOL    HW127692   3.027   3.756   1.280
 8931SOL    HW227693   3.007   3.594   1.265
 8932SOL     OW27694   6.040   2.275   1.920
 8932SOL    HW127695   6.056   2.353   1.860
 8932SOL    HW227696   5.949   2.282   1.961
 8933SOL     OW27697   2.905   2.912   5.709
 8933SOL    HW127698   2.944   2.820   5.718
 8933SOL    HW227699   2.807   2.905   5.691
 8934SOL     OW27700   2.608   5.912   4.334
 8934SOL    HW127701   2.608   5.814   4.312
 8934SOL    HW227702   2.632   5.923   4.431
 8935SOL     OW27703   0.673   4.678   0.259
 8935SOL    HW127704   0.694   4.609   0.329
 8935SOL    HW227705   0.615   4.637   0.188
 8936SOL     OW27706   1.272   4.036   2.279
 8936SOL    HW127707   1.201   3.995   2.221
 8936SOL    HW227708   1.348   3.971   2.289
 8937SOL     OW27709   0.506   0.158   5.625
 8937SOL    HW127710   0.477   0.062   5.629
 8937SOL    HW227711   0.447   0.214   5.683
 8938SOL     OW27712   0.621   6.370   0.555
 8938SOL    HW127713   0.669   6.285   0.536
 8938SOL    HW227714   0.639   6.399   0.650
 8939SOL     OW27715   4.894   3.202   4.581
 8939SOL    HW127716   4.909   3.298   4.559
 8939SOL    HW227717   4.860   3.194   4.674
 8940SOL     OW27718   0.291   1.534   2.328
 8940SOL    HW127719   0.328   1.536   2.421
 8940SOL    HW227720   0.225   1.608   2.316
 8941SOL     OW27721   6.292   2.575   5.816
 8941SOL    HW127722   6.290   2.675   5.810
 8941SOL    HW227723   6.282   2.536   5.725
 8942SOL     OW27724   6.842   4.695   4.724
 8942SOL    HW127725   6.805   4.723   4.635
 8942SOL    HW227726   6.771   4.706   4.794
 8943SOL     OW27727   3.507   5.125   6.136
 8943SOL    HW127728   3.452   5.045   6.161
 8943SOL    HW227729   3.530   5.121   6.039
 8944SOL     OW27730   5.581   4.541   5.393
 8944SOL    HW127731   5.665   4.596   5.389
 8944SOL    HW227732   5.557   4.510   5.301
 8945SOL     OW27733   0.932   0.425   2.926
 8945SOL    HW127734   0.949   0.427   2.828
 8945SOL    HW227735   1.006   0.377   2.972
 8946SOL     OW27736   3.278   1.508   5.075
 8946SOL    HW127737   3.342   1.476   5.145
 8946SOL    HW227738   3.318   1.586   5.027
 8947SOL     OW27739   2.052   3.553   5.907
 8947SOL    HW127740   2.094   3.467   5.880
 8947SOL    HW227741   2.051   3.616   5.830
 8948SOL     OW27742   6.611   6.562   4.648
 8948SOL    HW127743   6.685   6.588   4.586
 8948SOL    HW227744   6.536   6.523   4.595
 8949SOL     OW27745   2.649   6.804   0.922
 8949SOL    HW127746   2.657   6.725   0.862
 8949SOL    HW227747   2.694   6.883   0.880
 8950SOL     OW27748   4.705   4.426   5.832
 8950SOL    HW127749   4.632   4.365   5.803
 8950SOL    HW227750   4.690   4.517   5.793
 8951SOL     OW27751   1.229   2.307   5.278
 8951SOL    HW127752   1.166   2.231   5.261
 8951SOL    HW227753   1.183   2.377   5.332
 8952SOL     OW27754   1.280   6.616   2.553
 8952SOL    HW127755   1.239   6.697   2.593
 8952SOL    HW227756   1.212   6.568   2.498
 8953SOL     OW27757   1.269   4.234   6.375
 8953SOL    HW127758   1.246   4.178   6.454
 8953SOL    HW227759   1.204   4.309   6.367
 8954SOL     OW27760   0.882   0.421   4.808
 8954SOL    HW127761   0.801   0.436   4.864
 8954SOL    HW227762   0.897   0.323   4.797
 8955SOL     OW27763   0.065   5.154   2.392
 8955SOL    HW127764   0.022   5.243   2.407
 8955SOL    HW227765   0.163   5.161   2.407
 8956SOL     OW27766   1.255   1.136   6.650
 8956SOL    HW127767   1.311   1.060   6.619
 8956SOL    HW227768   1.198   1.107   6.726
 8957SOL     OW27769   2.938   4.598   1.253
 8957SOL    HW127770   2.903   4.596   1.159
 8957SOL    HW227771   2.875   4.549   1.313
 8958SOL     OW27772   0.737   1.239   4.868
 8958SOL    HW127773   0.718   1.167   4.935
 8958SOL    HW227774   0.654   1.255   4.814
 8959SOL     OW27775   1.447   4.535   1.529
 8959SOL    HW127776   1.396   4.605   1.580
 8959SOL    HW227777   1.516   4.580   1.471
 8960SOL     OW27778   4.871   4.512   2.991
 8960SOL    HW127779   4.933   4.442   2.957
 8960SOL    HW227780   4.919   4.570   3.057
 8961SOL     OW27781   2.301   1.178   4.590
 8961SOL    HW127782   2.286   1.123   4.672
 8961SOL    HW227783   2.216   1.183   4.537
 8962SOL     OW27784   6.014   5.826   2.137
 8962SOL    HW127785   5.945   5.801   2.070
 8962SOL    HW227786   6.030   5.749   2.199
 8963SOL     OW27787   4.289   5.923   4.433
 8963SOL    HW127788   4.259   5.986   4.362
 8963SOL    HW227789   4.346   5.972   4.499
 8964SOL     OW27790   4.888   3.293   3.280
 8964SOL    HW127791   4.947   3.214   3.264
 8964SOL    HW227792   4.851   3.325   3.193
 8965SOL     OW27793   2.391   5.204   0.434
 8965SOL    HW127794   2.450   5.247   0.502
 8965SOL    HW227795   2.400   5.252   0.347
 8966SOL     OW27796   6.812   3.839   6.882
 8966SOL    HW127797   6.834   3.907   6.812
 8966SOL    HW227798   6.713   3.826   6.885
 8967SOL     OW27799   4.076   0.238   1.667
 8967SOL    HW127800   4.169   0.215   1.640
 8967SOL    HW227801   4.075   0.331   1.705
 8968SOL     OW27802   4.932   4.922   3.256
 8968SOL    HW127803   5.019   4.934   3.206
 8968SOL    HW227804   4.869   4.870   3.199
 8969SOL     OW27805   6.905   1.350   4.352
 8969SOL    HW127806   6.993   1.359   4.306
 8969SOL    HW227807   6.918   1.308   4.442
 8970SOL     OW27808   2.162   3.241   0.651
 8970SOL    HW127809   2.075   3.217   0.609
 8970SOL    HW227810   2.222   3.281   0.582
 8971SOL     OW27811   5.299   5.646   1.500
 8971SOL    HW127812   5.299   5.603   1.590
 8971SOL    HW227813   5.207   5.682   1.481
 8972SOL     OW27814   5.491   4.406   6.196
 8972SOL    HW127815   5.535   4.327   6.153
 8972SOL    HW227816   5.402   4.422   6.153
 8973SOL     OW27817   0.901   2.861   2.392
 8973SOL    HW127818   0.875   2.890   2.300
 8973SOL    HW227819   0.829   2.802   2.429
 8974SOL     OW27820   1.109   4.425   5.620
 8974SOL    HW127821   1.090   4.335   5.660
 8974SOL    HW227822   1.133   4.414   5.524
 8975SOL     OW27823   1.552   6.822   5.690
 8975SOL    HW127824   1.590   6.729   5.690
 8975SOL    HW227825   1.584   6.871   5.771
 8976SOL     OW27826   0.027   4.894   5.066
 8976SOL    HW127827   0.125   4.877   5.054
 8976SOL    HW227828   6.993   4.808   5.057
 8977SOL     OW27829   5.920   2.314   0.106
 8977SOL    HW127830   5.837   2.270   0.143
 8977SOL    HW227831   5.974   2.247   0.057
 8978SOL     OW27832   5.814   0.317   4.613
 8978SOL    HW127833   5.723   0.307   4.653
 8978SOL    HW227834   5.845   0.229   4.577
 8979SOL     OW27835   1.096   3.789   4.269
 8979SOL    HW127836   1.130   3.740   4.350
 8979SOL    HW227837   1.115   3.736   4.187
 8980SOL     OW27838   2.913   2.588   5.656
 8980SOL    HW127839   2.833   2.587   5.716
 8980SOL    HW227840   2.887   2.629   5.568
 8981SOL     OW27841   4.199   1.914   5.654
 8981SOL    HW127842   4.216   2.001   5.699
 8981SOL    HW227843   4.125   1.925   5.587
 8982SOL     OW27844   0.881   2.364   1.321
 8982SOL    HW127845   0.824   2.434   1.363
 8982SOL    HW227846   0.973   2.400   1.307
 8983SOL     OW27847   1.638   5.949   6.835
 8983SOL    HW127848   1.697   6.022   6.869
 8983SOL    HW227849   1.641   5.947   6.735
 8984SOL     OW27850   0.011   0.153   4.503
 8984SOL    HW127851   6.970   0.185   4.427
 8984SOL    HW227852   6.969   0.131   4.582
 8985SOL     OW27853   2.878   2.611   0.734
 8985SOL    HW127854   2.865   2.708   0.754
 8985SOL    HW227855   2.948   2.574   0.794
 8986SOL     OW27856   4.455   5.085   2.477
 8986SOL    HW127857   4.481   5.171   2.520
 8986SOL    HW227858   4.428   5.019   2.547
 8987SOL     OW27859   4.628   6.868   1.156
 8987SOL    HW127860   4.554   6.878   1.223
 8987SOL    HW227861   4.712   6.907   1.194
 8988SOL     OW27862   1.454   3.564   5.588
 8988SOL    HW127863   1.536   3.587   5.536
 8988SOL    HW227864   1.420   3.646   5.634
 8989SOL     OW27865   5.108   3.865   1.347
 8989SOL    HW127866   5.072   3.828   1.262
 8989SOL    HW227867   5.161   3.948   1.328
 8990SOL     OW27868   1.947   5.897   3.182
 8990SOL    HW127869   1.914   5.827   3.245
 8990SOL    HW227870   2.042   5.878   3.159
 8991SOL     OW27871   1.356   1.848   6.682
 8991SOL    HW127872   1.445   1.892   6.694
 8991SOL    HW227873   1.284   1.911   6.710
 8992SOL     OW27874   5.723   1.507   6.955
 8992SOL    HW127875   5.673   1.491   6.870
 8992SOL    HW227876   5.820   1.483   6.942
 8993SOL     OW27877   5.172   2.437   2.720
 8993SOL    HW127878   5.172   2.400   2.813
 8993SOL    HW227879   5.084   2.480   2.701
 8994SOL     OW27880   1.356   4.631   4.539
 8994SOL    HW127881   1.308   4.691   4.474
 8994SOL    HW227882   1.361   4.539   4.501
 8995SOL     OW27883   0.865   2.923   0.039
 8995SOL    HW127884   0.894   3.012   0.003
 8995SOL    HW227885   0.812   2.874   6.985
 8996SOL     OW27886   6.009   5.262   0.383
 8996SOL    HW127887   5.918   5.220   0.388
 8996SOL    HW227888   6.000   5.355   0.347
 8997SOL     OW27889   4.649   1.157   5.840
 8997SOL    HW127890   4.602   1.171   5.927
 8997SOL    HW227891   4.606   1.214   5.769
 8998SOL     OW27892   6.390   3.815   4.171
 8998SOL    HW127893   6.400   3.862   4.259
 8998SOL    HW227894   6.293   3.811   4.146
 8999SOL     OW27895   4.732   6.113   6.874
 8999SOL    HW127896   4.666   6.153   6.811
 8999SOL    HW227897   4.790   6.186   6.912
 9000SOL     OW27898   1.688   4.153   1.052
 9000SOL    HW127899   1.695   4.239   1.002
 9000SOL    HW227900   1.649   4.083   0.993
 9001SOL     OW27901   1.415   5.703   2.333
 9001SOL    HW127902   1.429   5.784   2.276
 9001SOL    HW227903   1.476   5.707   2.411
 9002SOL     OW27904   0.287   4.843   5.022
 9002SOL    HW127905   0.345   4.762   5.032
 9002SOL    HW227906   0.329   4.906   4.957
 9003SOL     OW27907   5.207   3.123   1.774
 9003SOL    HW127908   5.284   3.062   1.754
 9003SOL    HW227909   5.149   3.132   1.693
 9004SOL     OW27910   3.698   6.814   1.292
 9004SOL    HW127911   3.732   6.870   1.217
 9004SOL    HW227912   3.612   6.770   1.266
 9005SOL     OW27913   5.530   2.575   4.142
 9005SOL    HW127914   5.494   2.492   4.099
 9005SOL    HW227915   5.609   2.552   4.199
 9006SOL     OW27916   2.489   6.175   0.996
 9006SOL    HW127917   2.445   6.249   1.048
 9006SOL    HW227918   2.494   6.093   1.053
 9007SOL     OW27919   3.560   0.943   4.068
 9007SOL    HW127920   3.596   0.981   3.982
 9007SOL    HW227921   3.482   0.885   4.049
 9008SOL     OW27922   1.172   5.579   3.722
 9008SOL    HW127923   1.110   5.639   3.672
 9008SOL    HW227924   1.162   5.485   3.690
 9009SOL     OW27925   3.048   6.826   0.726
 9009SOL    HW127926   3.024   6.877   0.643
 9009SOL    HW227927   3.072   6.891   0.798
 9010SOL     OW27928   1.303   6.569   3.508
 9010SOL    HW127929   1.299   6.627   3.590
 9010SOL    HW227930   1.397   6.538   3.495
 9011SOL     OW27931   5.776   2.301   1.967
 9011SOL    HW127932   5.778   2.208   1.931
 9011SOL    HW227933   5.730   2.360   1.901
 9012SOL     OW27934   1.815   3.884   1.209
 9012SOL    HW127935   1.746   3.947   1.171
 9012SOL    HW227936   1.888   3.870   1.141
 9013SOL     OW27937   0.118   6.477   5.131
 9013SOL    HW127938   0.102   6.553   5.068
 9013SOL    HW227939   0.062   6.399   5.104
 9014SOL     OW27940   6.122   1.704   6.952
 9014SOL    HW127941   6.109   1.803   6.953
 9014SOL    HW227942   6.070   1.664   6.877
 9015SOL     OW27943   4.834   1.438   1.847
 9015SOL    HW127944   4.845   1.372   1.773
 9015SOL    HW227945   4.899   1.514   1.835
 9016SOL     OW27946   0.349   6.713   6.565
 9016SOL    HW127947   0.348   6.633   6.505
 9016SOL    HW227948   0.442   6.726   6.601
 9017SOL     OW27949   4.361   1.863   3.205
 9017SOL    HW127950   4.419   1.915   3.268
 9017SOL    HW227951   4.408   1.779   3.179
 9018SOL     OW27952   3.820   2.234   6.926
 9018SOL    HW127953   3.847   2.313   6.982
 9018SOL    HW227954   3.902   2.190   6.889
 9019SOL     OW27955   1.404   6.626   1.938
 9019SOL    HW127956   1.406   6.558   2.012
 9019SOL    HW227957   1.368   6.712   1.973
 9020SOL     OW27958   0.414   3.842   1.616
 9020SOL    HW127959   0.370   3.904   1.551
 9020SOL    HW227960   0.395   3.873   1.709
 9021SOL     OW27961   6.506   0.352   3.595
 9021SOL    HW127962   6.460   0.280   3.647
 9021SOL    HW227963   6.439   0.419   3.564
 9022SOL     OW27964   3.414   1.891   6.893
 9022SOL    HW127965   3.413   1.859   6.798
 9022SOL    HW227966   3.473   1.832   6.948
 9023SOL     OW27967   3.128   3.079   2.493
 9023SOL    HW127968   3.108   3.041   2.403
 9023SOL    HW227969   3.155   3.175   2.483
 9024SOL     OW27970   1.036   4.549   4.954
 9024SOL    HW127971   0.987   4.511   4.876
 9024SOL    HW227972   1.122   4.590   4.923
 9025SOL     OW27973   0.678   5.276   0.333
 9025SOL    HW127974   0.714   5.224   0.255
 9025SOL    HW227975   0.586   5.308   0.313
 9026SOL     OW27976   4.219   3.033   0.871
 9026SOL    HW127977   4.248   3.033   0.775
 9026SOL    HW227978   4.133   2.984   0.880
 9027SOL     OW27979   1.344   2.413   3.728
 9027SOL    HW127980   1.443   2.417   3.721
 9027SOL    HW227981   1.306   2.505   3.718
 9028SOL     OW27982   2.618   3.599   5.463
 9028SOL    HW127983   2.715   3.593   5.487
 9028SOL    HW227984   2.607   3.663   5.387
 9029SOL     OW27985   3.979   6.534   4.940
 9029SOL    HW127986   3.905   6.515   5.005
 9029SOL    HW227987   3.972   6.629   4.909
 9030SOL     OW27988   2.422   1.559   3.453
 9030SOL    HW127989   2.350   1.501   3.489
 9030SOL    HW227990   2.507   1.506   3.446
 9031SOL     OW27991   4.231   5.670   4.515
 9031SOL    HW127992   4.235   5.770   4.519
 9031SOL    HW227993   4.144   5.638   4.553
 9032SOL     OW27994   3.898   3.606   0.463
 9032SOL    HW127995   3.920   3.534   0.529
 9032SOL    HW227996   3.949   3.688   0.486
 9033SOL     OW27997   0.508   4.282   3.352
 9033SOL    HW127998   0.595   4.321   3.384
 9033SOL    HW227999   0.453   4.355   3.310
 9034SOL     OW28000   2.923   0.298   5.560
 9034SOL    HW128001   2.935   0.224   5.627
 9034SOL    HW228002   3.013   0.323   5.522
 9035SOL     OW28003   1.617   4.774   6.431
 9035SOL    HW128004   1.674   4.828   6.368
 9035SOL    HW228005   1.534   4.826   6.454
 9036SOL     OW28006   1.481   1.452   5.748
 9036SOL    HW128007   1.471   1.353   5.760
 9036SOL    HW228008   1.557   1.471   5.687
 9037SOL     OW28009   1.381   3.804   4.832
 9037SOL    HW128010   1.360   3.823   4.928
 9037SOL    HW228011   1.353   3.881   4.775
 9038SOL     OW28012   4.273   6.962   6.047
 9038SOL    HW128013   4.230   6.974   6.136
 9038SOL    HW228014   4.372   6.967   6.056
 9039SOL     OW28015   2.799   6.200   5.282
 9039SOL    HW128016   2.820   6.216   5.185
 9039SOL    HW228017   2.883   6.174   5.330
 9040SOL     OW28018   3.380   1.720   2.475
 9040SOL    HW128019   3.298   1.755   2.429
 9040SOL    HW228020   3.457   1.781   2.458
 9041SOL     OW28021   1.130   2.212   1.653
 9041SOL    HW128022   1.081   2.152   1.590
 9041SOL    HW228023   1.081   2.298   1.662
 9042SOL     OW28024   3.614   0.648   4.235
 9042SOL    HW128025   3.591   0.640   4.137
 9042SOL    HW228026   3.567   0.576   4.286
 9043SOL     OW28027   1.334   0.968   0.224
 9043SOL    HW128028   1.367   0.914   0.147
 9043SOL    HW228029   1.235   0.954   0.235
 9044SOL     OW28030   6.287   0.925   0.591
 9044SOL    HW128031   6.193   0.953   0.575
 9044SOL    HW228032   6.343   0.945   0.510
 9045SOL     OW28033   2.396   1.263   2.383
 9045SOL    HW128034   2.297   1.250   2.382
 9045SOL    HW228035   2.421   1.324   2.458
 9046SOL     OW28036   3.385   3.591   3.124
 9046SOL    HW128037   3.467   3.550   3.165
 9046SOL    HW228038   3.305   3.568   3.180
 9047SOL     OW28039   1.762   3.293   5.991
 9047SOL    HW128040   1.764   3.244   5.904
 9047SOL    HW228041   1.840   3.265   6.047
 9048SOL     OW28042   5.059   3.297   6.497
 9048SOL    HW128043   5.069   3.198   6.483
 9048SOL    HW228044   4.964   3.318   6.516
 9049SOL     OW28045   3.177   0.083   5.806
 9049SOL    HW128046   3.128   0.103   5.891
 9049SOL    HW228047   3.236   0.160   5.782
 9050SOL     OW28048   0.141   3.280   0.917
 9050SOL    HW128049   0.174   3.186   0.921
 9050SOL    HW228050   0.218   3.343   0.920
 9051SOL     OW28051   3.848   6.780   0.854
 9051SOL    HW128052   3.792   6.697   0.848
 9051SOL    HW228053   3.852   6.824   0.765
 9052SOL     OW28054   2.690   2.302   4.133
 9052SOL    HW128055   2.619   2.234   4.120
 9052SOL    HW228056   2.650   2.394   4.131
 9053SOL     OW28057   2.166   0.631   2.834
 9053SOL    HW128058   2.187   0.683   2.751
 9053SOL    HW228059   2.074   0.593   2.826
 9054SOL     OW28060   2.959   5.835   3.450
 9054SOL    HW128061   3.016   5.897   3.505
 9054SOL    HW228062   3.016   5.788   3.383
 9055SOL     OW28063   5.764   2.535   4.297
 9055SOL    HW128064   5.699   2.578   4.359
 9055SOL    HW228065   5.772   2.438   4.319
 9056SOL     OW28066   0.524   1.583   2.512
 9056SOL    HW128067   0.614   1.547   2.486
 9056SOL    HW228068   0.518   1.679   2.485
 9057SOL     OW28069   5.068   4.215   6.671
 9057SOL    HW128070   5.159   4.256   6.665
 9057SOL    HW228071   5.004   4.267   6.615
 9058SOL     OW28072   1.955   1.824   1.959
 9058SOL    HW128073   1.858   1.846   1.963
 9058SOL    HW228074   1.991   1.818   2.052
 9059SOL     OW28075   1.232   2.177   4.325
 9059SOL    HW128076   1.276   2.239   4.261
 9059SOL    HW228077   1.149   2.139   4.284
 9060SOL     OW28078   6.135   2.374   3.484
 9060SOL    HW128079   6.233   2.378   3.500
 9060SOL    HW228080   6.097   2.466   3.479
 9061SOL     OW28081   2.088   5.214   2.189
 9061SOL    HW128082   2.003   5.197   2.138
 9061SOL    HW228083   2.119   5.307   2.172
 9062SOL     OW28084   1.758   5.914   1.882
 9062SOL    HW128085   1.792   6.002   1.850
 9062SOL    HW228086   1.732   5.922   1.979
 9063SOL     OW28087   2.907   6.987   2.953
 9063SOL    HW128088   2.956   0.058   2.962
 9063SOL    HW228089   2.898   6.965   2.856
 9064SOL     OW28090   6.456   2.320   5.367
 9064SOL    HW128091   6.436   2.263   5.287
 9064SOL    HW228092   6.528   2.276   5.421
 9065SOL     OW28093   3.449   0.217   5.492
 9065SOL    HW128094   3.412   0.150   5.427
 9065SOL    HW228095   3.377   0.246   5.555
 9066SOL     OW28096   4.588   6.191   0.453
 9066SOL    HW128097   4.593   6.100   0.494
 9066SOL    HW228098   4.510   6.196   0.391
 9067SOL     OW28099   6.948   0.518   4.166
 9067SOL    HW128100   7.000   0.471   4.094
 9067SOL    HW228101   6.910   0.603   4.128
 9068SOL     OW28102   2.591   6.751   4.642
 9068SOL    HW128103   2.690   6.750   4.648
 9068SOL    HW228104   2.563   6.825   4.580
 9069SOL     OW28105   1.590   3.431   1.397
 9069SOL    HW128106   1.569   3.339   1.430
 9069SOL    HW228107   1.683   3.456   1.424
 9070SOL     OW28108   1.390   3.476   4.616
 9070SOL    HW128109   1.457   3.540   4.652
 9070SOL    HW228110   1.419   3.382   4.636
 9071SOL     OW28111   6.157   6.642   1.281
 9071SOL    HW128112   6.145   6.579   1.204
 9071SOL    HW228113   6.072   6.647   1.333
 9072SOL     OW28114   6.947   1.754   1.643
 9072SOL    HW128115   6.910   1.704   1.721
 9072SOL    HW228116   6.975   1.690   1.572
 9073SOL     OW28117   3.063   6.659   2.829
 9073SOL    HW128118   2.986   6.716   2.799
 9073SOL    HW228119   3.126   6.646   2.752
 9074SOL     OW28120   1.619   2.011   2.404
 9074SOL    HW128121   1.528   1.989   2.369
 9074SOL    HW228122   1.680   1.934   2.387
 9075SOL     OW28123   0.870   1.374   1.986
 9075SOL    HW128124   0.885   1.428   1.903
 9075SOL    HW228125   0.773   1.351   1.994
 9076SOL     OW28126   6.767   2.259   5.789
 9076SOL    HW128127   6.769   2.356   5.812
 9076SOL    HW228128   6.714   2.246   5.705
 9077SOL     OW28129   4.275   0.342   0.202
 9077SOL    HW128130   4.253   0.272   0.134
 9077SOL    HW228131   4.190   0.380   0.238
 9078SOL     OW28132   4.066   3.469   6.443
 9078SOL    HW128133   4.043   3.375   6.471
 9078SOL    HW228134   4.165   3.477   6.432
 9079SOL     OW28135   2.981   0.150   4.101
 9079SOL    HW128136   2.901   0.169   4.044
 9079SOL    HW228137   3.047   0.096   4.049
 9080SOL     OW28138   4.580   2.831   6.724
 9080SOL    HW128139   4.625   2.760   6.670
 9080SOL    HW228140   4.481   2.825   6.712
 9081SOL     OW28141   3.566   0.218   2.431
 9081SOL    HW128142   3.555   0.317   2.433
 9081SOL    HW228143   3.607   0.188   2.517
 9082SOL     OW28144   2.274   0.603   5.320
 9082SOL    HW128145   2.202   0.561   5.265
 9082SOL    HW228146   2.336   0.654   5.261
 9083SOL     OW28147   3.179   5.144   6.108
 9083SOL    HW128148   3.145   5.121   6.017
 9083SOL    HW228149   3.258   5.087   6.129
 9084SOL     OW28150   3.357   3.999   3.896
 9084SOL    HW128151   3.302   3.988   3.814
 9084SOL    HW228152   3.311   3.956   3.973
 9085SOL     OW28153   2.208   0.485   1.736
 9085SOL    HW128154   2.219   0.580   1.765
 9085SOL    HW228155   2.112   0.459   1.746
 9086SOL     OW28156   0.986   4.510   0.243
 9086SOL    HW128157   0.954   4.532   0.151
 9086SOL    HW228158   0.907   4.498   0.304
 9087SOL     OW28159   4.285   2.281   1.572
 9087SOL    HW128160   4.314   2.230   1.492
 9087SOL    HW228161   4.186   2.295   1.569
 9088SOL     OW28162   6.996   6.887   1.065
 9088SOL    HW128163   6.962   6.935   0.984
 9088SOL    HW228164   6.948   6.922   1.146
 9089SOL     OW28165   5.309   5.761   5.625
 9089SOL    HW128166   5.246   5.838   5.619
 9089SOL    HW228167   5.275   5.685   5.569
 9090SOL     OW28168   6.829   1.117   4.220
 9090SOL    HW128169   6.846   1.066   4.136
 9090SOL    HW228170   6.862   1.211   4.208
 9091SOL     OW28171   2.757   4.548   0.331
 9091SOL    HW128172   2.786   4.576   0.239
 9091SOL    HW228173   2.824   4.485   0.369
 9092SOL     OW28174   6.447   0.933   6.628
 9092SOL    HW128175   6.377   0.869   6.597
 9092SOL    HW228176   6.509   0.886   6.692
 9093SOL     OW28177   0.992   5.703   5.709
 9093SOL    HW128178   0.911   5.662   5.669
 9093SOL    HW228179   1.056   5.729   5.637
 9094SOL     OW28180   6.265   4.762   2.851
 9094SOL    HW128181   6.267   4.859   2.875
 9094SOL    HW228182   6.357   4.723   2.864
 9095SOL     OW28183   4.682   5.097   6.327
 9095SOL    HW128184   4.712   5.118   6.233
 9095SOL    HW228185   4.643   5.005   6.329
 9096SOL     OW28186   6.386   5.334   2.349
 9096SOL    HW128187   6.472   5.376   2.319
 9096SOL    HW228188   6.362   5.259   2.287
 9097SOL     OW28189   1.599   1.584   0.956
 9097SOL    HW128190   1.524   1.595   0.890
 9097SOL    HW228191   1.638   1.674   0.976
 9098SOL     OW28192   3.275   2.184   4.656
 9098SOL    HW128193   3.220   2.131   4.592
 9098SOL    HW228194   3.215   2.229   4.722
 9099SOL     OW28195   3.414   3.216   6.001
 9099SOL    HW128196   3.509   3.228   6.030
 9099SOL    HW228197   3.371   3.305   5.990
 9100SOL     OW28198   0.006   3.289   3.532
 9100SOL    HW128199   6.992   3.346   3.455
 9100SOL    HW228200   6.966   3.310   3.612
 9101SOL     OW28201   2.739   2.510   1.746
 9101SOL    HW128202   2.811   2.469   1.801
 9101SOL    HW228203   2.772   2.523   1.652
 9102SOL     OW28204   3.391   6.720   2.310
 9102SOL    HW128205   3.415   6.666   2.391
 9102SOL    HW228206   3.443   6.806   2.311
 9103SOL     OW28207   5.640   2.086   6.443
 9103SOL    HW128208   5.559   2.144   6.449
 9103SOL    HW228209   5.719   2.134   6.481
 9104SOL     OW28210   6.827   6.725   1.482
 9104SOL    HW128211   6.923   6.716   1.509
 9104SOL    HW228212   6.779   6.639   1.501
 9105SOL     OW28213   0.392   0.957   5.989
 9105SOL    HW128214   0.447   0.930   6.068
 9105SOL    HW228215   0.393   1.056   5.979
 9106SOL     OW28216   5.823   3.496   1.274
 9106SOL    HW128217   5.860   3.532   1.188
 9106SOL    HW228218   5.756   3.424   1.255
 9107SOL     OW28219   2.151   1.048   6.712
 9107SOL    HW128220   2.227   0.984   6.707
 9107SOL    HW228221   2.126   1.064   6.807
 9108SOL     OW28222   4.901   4.405   5.233
 9108SOL    HW128223   4.969   4.478   5.241
 9108SOL    HW228224   4.880   4.388   5.137
 9109SOL     OW28225   5.501   3.926   2.958
 9109SOL    HW128226   5.432   3.894   2.894
 9109SOL    HW228227   5.558   3.849   2.986
 9110SOL     OW28228   1.866   5.065   4.289
 9110SOL    HW128229   1.811   5.083   4.208
 9110SOL    HW228230   1.885   5.150   4.337
 9111SOL     OW28231   4.207   3.338   0.148
 9111SOL    HW128232   4.112   3.366   0.136
 9111SOL    HW228233   4.252   3.333   0.058
 9112SOL     OW28234   1.961   5.689   2.622
 9112SOL    HW128235   2.044   5.705   2.569
 9112SOL    HW228236   1.967   5.738   2.709
 9113SOL     OW28237   5.251   2.913   2.526
 9113SOL    HW128238   5.251   2.813   2.530
 9113SOL    HW228239   5.343   2.945   2.501
 9114SOL     OW28240   6.967   5.428   3.525
 9114SOL    HW128241   0.021   5.360   3.546
 9114SOL    HW228242   6.899   5.388   3.462
 9115SOL     OW28243   6.065   5.334   5.135
 9115SOL    HW128244   6.025   5.415   5.092
 9115SOL    HW228245   6.136   5.297   5.076
 9116SOL     OW28246   0.234   6.761   2.662
 9116SOL    HW128247   0.298   6.688   2.688
 9116SOL    HW228248   0.151   6.754   2.716
 9117SOL     OW28249   3.367   2.676   6.244
 9117SOL    HW128250   3.285   2.639   6.200
 9117SOL    HW228251   3.353   2.773   6.266
 9118SOL     OW28252   6.542   3.642   0.431
 9118SOL    HW128253   6.446   3.670   0.430
 9118SOL    HW228254   6.550   3.550   0.469
 9119SOL     OW28255   3.899   1.024   1.839
 9119SOL    HW128256   3.827   1.089   1.864
 9119SOL    HW228257   3.965   1.069   1.779
 9120SOL     OW28258   0.274   1.855   5.665
 9120SOL    HW128259   0.295   1.768   5.621
 9120SOL    HW228260   0.311   1.855   5.758
 9121SOL     OW28261   3.586   5.864   4.935
 9121SOL    HW128262   3.526   5.785   4.946
 9121SOL    HW228263   3.621   5.866   4.841
 9122SOL     OW28264   2.616   4.570   2.237
 9122SOL    HW128265   2.679   4.570   2.159
 9122SOL    HW228266   2.575   4.480   2.247
 9123SOL     OW28267   2.015   1.000   4.635
 9123SOL    HW128268   1.947   0.949   4.583
 9123SOL    HW228269   1.990   1.097   4.636
 9124SOL     OW28270   3.485   5.708   1.168
 9124SOL    HW128271   3.401   5.670   1.127
 9124SOL    HW228272   3.541   5.634   1.203
 9125SOL     OW28273   4.146   4.545   1.290
 9125SOL    HW128274   4.177   4.635   1.259
 9125SOL    HW228275   4.047   4.547   1.303
 9126SOL     OW28276   4.541   3.625   1.383
 9126SOL    HW128277   4.625   3.635   1.437
 9126SOL    HW228278   4.526   3.528   1.362
 9127SOL     OW28279   6.636   2.208   5.541
 9127SOL    HW128280   6.612   2.113   5.519
 9127SOL    HW228281   6.727   2.229   5.506
 9128SOL     OW28282   5.620   2.535   5.487
 9128SOL    HW128283   5.700   2.591   5.467
 9128SOL    HW228284   5.649   2.441   5.505
 9129SOL     OW28285   6.467   1.683   0.073
 9129SOL    HW128286   6.417   1.616   0.127
 9129SOL    HW228287   6.518   1.744   0.134
 9130SOL     OW28288   0.770   4.564   5.960
 9130SOL    HW128289   0.778   4.477   5.910
 9130SOL    HW228290   0.808   4.638   5.904
 9131SOL     OW28291   5.191   3.550   6.478
 9131SOL    HW128292   5.266   3.523   6.538
 9131SOL    HW228293   5.121   3.479   6.479
 9132SOL     OW28294   1.143   4.742   4.401
 9132SOL    HW128295   1.157   4.791   4.315
 9132SOL    HW228296   1.070   4.786   4.453
 9133SOL     OW28297   3.298   0.628   1.512
 9133SOL    HW128298   3.203   0.651   1.532
 9133SOL    HW228299   3.356   0.657   1.589
 9134SOL     OW28300   4.429   5.341   1.291
 9134SOL    HW128301   4.413   5.427   1.339
 9134SOL    HW228302   4.465   5.361   1.199
 9135SOL     OW28303   1.045   6.241   1.721
 9135SOL    HW128304   0.946   6.234   1.715
 9135SOL    HW228305   1.087   6.190   1.646
 9136SOL     OW28306   4.704   6.048   5.823
 9136SOL    HW128307   4.772   6.119   5.802
 9136SOL    HW228308   4.614   6.090   5.833
 9137SOL     OW28309   4.178   0.681   6.863
 9137SOL    HW128310   4.192   0.582   6.869
 9137SOL    HW228311   4.081   0.702   6.877
 9138SOL     OW28312   1.256   4.028   6.559
 9138SOL    HW128313   1.339   3.971   6.560
 9138SOL    HW228314   1.229   4.047   6.653
 9139SOL     OW28315   1.000   1.314   2.277
 9139SOL    HW128316   1.013   1.214   2.280
 9139SOL    HW228317   0.945   1.338   2.198
 9140SOL     OW28318   0.787   4.912   2.457
 9140SOL    HW128319   0.829   4.950   2.539
 9140SOL    HW228320   0.809   4.814   2.450
 9141SOL     OW28321   6.921   6.090   6.576
 9141SOL    HW128322   6.871   6.175   6.560
 9141SOL    HW228323   6.859   6.020   6.611
 9142SOL     OW28324   0.426   3.077   1.695
 9142SOL    HW128325   0.381   3.029   1.770
 9142SOL    HW228326   0.522   3.095   1.718
 9143SOL     OW28327   0.166   4.216   1.587
 9143SOL    HW128328   0.143   4.203   1.684
 9143SOL    HW228329   0.237   4.286   1.580
 9144SOL     OW28330   3.597   5.117   4.942
 9144SOL    HW128331   3.499   5.108   4.958
 9144SOL    HW228332   3.630   5.202   4.982
 9145SOL     OW28333   1.557   6.152   6.541
 9145SOL    HW128334   1.638   6.198   6.577
 9145SOL    HW228335   1.563   6.054   6.558
 9146SOL     OW28336   4.835   3.435   3.030
 9146SOL    HW128337   4.814   3.476   2.941
 9146SOL    HW228338   4.933   3.446   3.049
 9147SOL     OW28339   6.752   0.705   4.771
 9147SOL    HW128340   6.798   0.735   4.687
 9147SOL    HW228341   6.688   0.632   4.750
 9148SOL     OW28342   5.756   6.763   1.756
 9148SOL    HW128343   5.674   6.792   1.706
 9148SOL    HW228344   5.806   6.844   1.787
 9149SOL     OW28345   5.701   3.190   2.045
 9149SOL    HW128346   5.608   3.159   2.025
 9149SOL    HW228347   5.722   3.271   1.989
 9150SOL     OW28348   3.351   4.027   0.735
 9150SOL    HW128349   3.421   4.095   0.712
 9150SOL    HW228350   3.349   3.957   0.664
 9151SOL     OW28351   2.210   3.887   3.477
 9151SOL    HW128352   2.191   3.951   3.553
 9151SOL    HW228353   2.275   3.818   3.508
 9152SOL     OW28354   2.050   4.529   4.255
 9152SOL    HW128355   1.986   4.564   4.188
 9152SOL    HW228356   2.133   4.584   4.255
 9153SOL     OW28357   0.095   2.985   6.843
 9153SOL    HW128358   0.181   3.016   6.804
 9153SOL    HW228359   0.108   2.895   6.885
 9154SOL     OW28360   5.012   4.115   3.772
 9154SOL    HW128361   5.105   4.151   3.771
 9154SOL    HW228362   4.961   4.159   3.846
 9155SOL     OW28363   2.299   4.300   2.962
 9155SOL    HW128364   2.211   4.319   2.920
 9155SOL    HW228365   2.362   4.375   2.942
 9156SOL     OW28366   6.457   2.789   1.513
 9156SOL    HW128367   6.425   2.807   1.606
 9156SOL    HW228368   6.546   2.833   1.499
 9157SOL     OW28369   3.080   4.067   6.963
 9157SOL    HW128370   2.993   4.033   6.996
 9157SOL    HW228371   3.065   4.129   6.885
 9158SOL     OW28372   6.875   4.339   3.994
 9158SOL    HW128373   6.864   4.280   4.073
 9158SOL    HW228374   6.785   4.376   3.967
 9159SOL     OW28375   1.726   0.222   3.611
 9159SOL    HW128376   1.777   0.276   3.544
 9159SOL    HW228377   1.791   0.182   3.677
 9160SOL     OW28378   0.396   5.416   5.846
 9160SOL    HW128379   0.324   5.362   5.889
 9160SOL    HW228380   0.396   5.509   5.885
 9161SOL     OW28381   6.416   5.116   3.226
 9161SOL    HW128382   6.340   5.087   3.169
 9161SOL    HW228383   6.432   5.050   3.299
 9162SOL     OW28384   3.873   0.324   2.861
 9162SOL    HW128385   3.900   0.420   2.859
 9162SOL    HW228386   3.953   0.266   2.847
 9163SOL     OW28387   6.809   3.465   2.249
 9163SOL    HW128388   6.885   3.530   2.242
 9163SOL    HW228389   6.838   3.376   2.214
 9164SOL     OW28390   1.560   1.126   6.958
 9164SOL    HW128391   1.567   1.145   0.040
 9164SOL    HW228392   1.647   1.091   6.924
 9165SOL     OW28393   4.640   1.760   5.711
 9165SOL    HW128394   4.678   1.801   5.794
 9165SOL    HW228395   4.545   1.733   5.728
 9166SOL     OW28396   4.246   5.114   1.041
 9166SOL    HW128397   4.330   5.099   1.094
 9166SOL    HW228398   4.257   5.196   0.985
 9167SOL     OW28399   1.487   2.671   6.017
 9167SOL    HW128400   1.486   2.767   5.988
 9167SOL    HW228401   1.396   2.632   6.005
 9168SOL     OW28402   6.855   5.579   6.026
 9168SOL    HW128403   6.759   5.560   6.043
 9168SOL    HW228404   6.864   5.645   5.951
 9169SOL     OW28405   6.497   5.947   6.065
 9169SOL    HW128406   6.459   5.903   5.984
 9169SOL    HW228407   6.530   6.039   6.041
 9170SOL     OW28408   1.647   1.281   6.322
 9170SOL    HW128409   1.735   1.237   6.343
 9170SOL    HW228410   1.640   1.366   6.374
 9171SOL     OW28411   2.823   5.759   0.674
 9171SOL    HW128412   2.848   5.850   0.640
 9171SOL    HW228413   2.892   5.727   0.738
 9172SOL     OW28414   4.327   2.067   4.693
 9172SOL    HW128415   4.409   2.055   4.637
 9172SOL    HW228416   4.249   2.024   4.647
 9173SOL     OW28417   6.381   2.730   4.585
 9173SOL    HW128418   6.430   2.762   4.667
 9173SOL    HW228419   6.286   2.758   4.590
 9174SOL     OW28420   0.868   6.052   0.056
 9174SOL    HW128421   0.937   6.047   0.128
 9174SOL    HW228422   0.875   5.971   7.014
 9175SOL     OW28423   1.390   6.525   0.052
 9175SOL    HW128424   1.424   6.472   0.130
 9175SOL    HW228425   1.332   6.600   0.086
 9176SOL     OW28426   2.547   6.924   1.800
 9176SOL    HW128427   2.497   6.964   1.723
 9176SOL    HW228428   2.523   6.828   1.810
 9177SOL     OW28429   1.569   2.709   3.651
 9177SOL    HW128430   1.489   2.768   3.656
 9177SOL    HW228431   1.628   2.726   3.730
 9178SOL     OW28432   2.498   5.300   6.113
 9178SOL    HW128433   2.591   5.335   6.107
 9178SOL    HW228434   2.499   5.208   6.152
 9179SOL     OW28435   2.361   6.151   5.045
 9179SOL    HW128436   2.412   6.237   5.038
 9179SOL    HW228437   2.406   6.091   5.110
 9180SOL     OW28438   6.452   2.261   3.989
 9180SOL    HW128439   6.439   2.247   4.087
 9180SOL    HW228440   6.409   2.347   3.961
 9181SOL     OW28441   4.972   2.612   3.022
 9181SOL    HW128442   5.007   2.610   3.116
 9181SOL    HW228443   4.897   2.678   3.016
 9182SOL     OW28444   3.124   1.258   2.908
 9182SOL    HW128445   3.088   1.184   2.852
 9182SOL    HW228446   3.219   1.277   2.882
 9183SOL     OW28447   4.628   4.022   6.089
 9183SOL    HW128448   4.704   3.957   6.094
 9183SOL    HW228449   4.562   4.002   6.162
 9184SOL     OW28450   3.820   2.068   0.693
 9184SOL    HW128451   3.798   2.152   0.741
 9184SOL    HW228452   3.836   1.995   0.759
 9185SOL     OW28453   0.842   6.708   6.321
 9185SOL    HW128454   0.802   6.672   6.237
 9185SOL    HW228455   0.942   6.701   6.316
 9186SOL     OW28456   4.616   0.717   5.635
 9186SOL    HW128457   4.687   0.712   5.705
 9186SOL    HW228458   4.586   0.624   5.612
 9187SOL     OW28459   4.588   2.179   6.990
 9187SOL    HW128460   4.507   2.163   0.031
 9187SOL    HW228461   4.619   2.092   6.951
 9188SOL     OW28462   1.588   0.359   1.605
 9188SOL    HW128463   1.569   0.414   1.686
 9188SOL    HW228464   1.647   0.282   1.629
 9189SOL     OW28465   3.331   0.799   4.027
 9189SOL    HW128466   3.311   0.778   3.931
 9189SOL    HW228467   3.351   0.715   4.076
 9190SOL     OW28468   6.511   3.831   5.386
 9190SOL    HW128469   6.500   3.769   5.464
 9190SOL    HW228470   6.537   3.778   5.305
 9191SOL     OW28471   4.764   6.550   6.790
 9191SOL    HW128472   4.849   6.521   6.746
 9191SOL    HW228473   4.784   6.587   6.881
 9192SOL     OW28474   6.203   3.743   6.282
 9192SOL    HW128475   6.180   3.647   6.295
 9192SOL    HW228476   6.260   3.752   6.200
 9193SOL     OW28477   3.256   3.688   3.866
 9193SOL    HW128478   3.327   3.618   3.872
 9193SOL    HW228479   3.260   3.732   3.776
 9194SOL     OW28480   3.656   5.839   1.859
 9194SOL    HW128481   3.575   5.897   1.860
 9194SOL    HW228482   3.671   5.800   1.950
 9195SOL     OW28483   2.183   2.573   3.671
 9195SOL    HW128484   2.159   2.476   3.662
 9195SOL    HW228485   2.147   2.624   3.594
 9196SOL     OW28486   5.655   0.019   4.074
 9196SOL    HW128487   5.714   6.981   4.014
 9196SOL    HW228488   5.638   0.109   4.032
 9197SOL     OW28489   3.392   4.353   1.133
 9197SOL    HW128490   3.428   4.301   1.056
 9197SOL    HW228491   3.310   4.403   1.105
 9198SOL     OW28492   5.668   3.970   6.236
 9198SOL    HW128493   5.737   3.948   6.305
 9198SOL    HW228494   5.658   3.892   6.174
 9199SOL     OW28495   0.570   3.346   6.411
 9199SOL    HW128496   0.616   3.274   6.462
 9199SOL    HW228497   0.618   3.433   6.425
 9200SOL     OW28498   1.742   5.658   6.524
 9200SOL    HW128499   1.721   5.611   6.610
 9200SOL    HW228500   1.800   5.599   6.468
 9201SOL     OW28501   0.518   3.708   1.282
 9201SOL    HW128502   0.532   3.670   1.373
 9201SOL    HW228503   0.589   3.775   1.262
 9202SOL     OW28504   1.557   5.662   4.328
 9202SOL    HW128505   1.552   5.626   4.235
 9202SOL    HW228506   1.649   5.695   4.346
 9203SOL     OW28507   5.064   2.464   6.441
 9203SOL    HW128508   5.064   2.402   6.362
 9203SOL    HW228509   5.039   2.413   6.523
 9204SOL     OW28510   5.171   3.788   3.752
 9204SOL    HW128511   5.187   3.727   3.829
 9204SOL    HW228512   5.073   3.793   3.733
 9205SOL     OW28513   5.242   3.618   2.503
 9205SOL    HW128514   5.283   3.705   2.474
 9205SOL    HW228515   5.158   3.603   2.453
 9206SOL     OW28516   3.150   0.314   4.304
 9206SOL    HW128517   3.084   0.243   4.278
 9206SOL    HW228518   3.144   0.332   4.402
 9207SOL     OW28519   3.939   6.466   5.642
 9207SOL    HW128520   3.931   6.438   5.738
 9207SOL    HW228521   3.923   6.388   5.583
 9208SOL     OW28522   5.054   3.920   2.457
 9208SOL    HW128523   5.126   3.882   2.398
 9208SOL    HW228524   5.089   3.927   2.550
 9209SOL     OW28525   4.109   0.581   2.087
 9209SOL    HW128526   4.139   0.488   2.066
 9209SOL    HW228527   4.010   0.582   2.103
 9210SOL     OW28528   1.254   0.629   0.997
 9210SOL    HW128529   1.243   0.728   0.995
 9210SOL    HW228530   1.257   0.598   1.093
 9211SOL     OW28531   4.943   2.059   5.977
 9211SOL    HW128532   5.011   2.096   5.913
 9211SOL    HW228533   4.984   2.052   6.068
 9212SOL     OW28534   5.102   3.978   4.986
 9212SOL    HW128535   5.128   3.996   4.891
 9212SOL    HW228536   5.009   4.013   5.002
 9213SOL     OW28537   5.463   6.434   4.725
 9213SOL    HW128538   5.483   6.364   4.794
 9213SOL    HW228539   5.528   6.509   4.734
 9214SOL     OW28540   0.599   2.570   5.222
 9214SOL    HW128541   0.562   2.604   5.308
 9214SOL    HW228542   0.559   2.621   5.145
 9215SOL     OW28543   0.403   4.362   2.670
 9215SOL    HW128544   0.403   4.365   2.770
 9215SOL    HW228545   0.482   4.310   2.638
 9216SOL     OW28546   2.264   6.661   4.929
 9216SOL    HW128547   2.352   6.709   4.922
 9216SOL    HW228548   2.261   6.588   4.861
 9217SOL     OW28549   5.509   1.451   6.791
 9217SOL    HW128550   5.532   1.359   6.760
 9217SOL    HW228551   5.521   1.515   6.716
 9218SOL     OW28552   3.792   0.911   6.850
 9218SOL    HW128553   3.805   0.819   6.888
 9218SOL    HW228554   3.865   0.971   6.883
 9219SOL     OW28555   4.032   3.047   5.739
 9219SOL    HW128556   4.067   2.961   5.702
 9219SOL    HW228557   3.976   3.092   5.669
 9220SOL     OW28558   2.061   5.888   2.371
 9220SOL    HW128559   2.074   5.979   2.410
 9220SOL    HW228560   2.040   5.897   2.273
 9221SOL     OW28561   2.288   0.394   5.705
 9221SOL    HW128562   2.380   0.391   5.665
 9221SOL    HW228563   2.243   0.478   5.677
 9222SOL     OW28564   2.370   4.356   4.459
 9222SOL    HW128565   2.336   4.304   4.538
 9222SOL    HW228566   2.342   4.310   4.375
 9223SOL     OW28567   1.086   2.500   3.849
 9223SOL    HW128568   1.183   2.485   3.870
 9223SOL    HW228569   1.078   2.573   3.781
 9224SOL     OW28570   2.095   3.103   3.670
 9224SOL    HW128571   2.132   3.177   3.726
 9224SOL    HW228572   2.120   3.015   3.709
 9225SOL     OW28573   3.889   6.838   6.473
 9225SOL    HW128574   3.919   6.780   6.396
 9225SOL    HW228575   3.937   6.810   6.556
 9226SOL     OW28576   1.363   0.386   1.423
 9226SOL    HW128577   1.421   0.407   1.502
 9226SOL    HW228578   1.411   0.321   1.364
 9227SOL     OW28579   2.361   5.069   1.453
 9227SOL    HW128580   2.442   5.126   1.442
 9227SOL    HW228581   2.282   5.126   1.476
 9228SOL     OW28582   2.066   2.450   6.206
 9228SOL    HW128583   2.123   2.399   6.142
 9228SOL    HW228584   2.063   2.546   6.179
 9229SOL     OW28585   1.610   4.981   6.715
 9229SOL    HW128586   1.590   4.884   6.728
 9229SOL    HW228587   1.525   5.032   6.711
 9230SOL     OW28588   5.058   2.789   3.437
 9230SOL    HW128589   5.133   2.803   3.501
 9230SOL    HW228590   4.971   2.787   3.487
 9231SOL     OW28591   0.931   4.940   5.585
 9231SOL    HW128592   0.989   4.886   5.647
 9231SOL    HW228593   0.972   5.030   5.571
 9232SOL     OW28594   2.292   5.534   1.246
 9232SOL    HW128595   2.368   5.539   1.311
 9232SOL    HW228596   2.286   5.442   1.208
 9233SOL     OW28597   0.928   6.828   0.630
 9233SOL    HW128598   1.016   6.780   0.621
 9233SOL    HW228599   0.926   6.876   0.718
 9234SOL     OW28600   2.499   5.395   0.584
 9234SOL    HW128601   2.580   5.432   0.631
 9234SOL    HW228602   2.439   5.470   0.557
 9235SOL     OW28603   2.669   2.342   3.407
 9235SOL    HW128604   2.625   2.298   3.329
 9235SOL    HW228605   2.611   2.415   3.441
 9236SOL     OW28606   2.389   3.296   6.431
 9236SOL    HW128607   2.373   3.272   6.335
 9236SOL    HW228608   2.301   3.301   6.479
 9237SOL     OW28609   0.520   5.994   2.751
 9237SOL    HW128610   0.515   6.039   2.841
 9237SOL    HW228611   0.489   6.058   2.681
 9238SOL     OW28612   2.755   2.193   5.913
 9238SOL    HW128613   2.750   2.105   5.960
 9238SOL    HW228614   2.764   2.177   5.814
 9239SOL     OW28615   6.679   4.389   6.055
 9239SOL    HW128616   6.631   4.477   6.055
 9239SOL    HW228617   6.704   4.364   5.962
 9240SOL     OW28618   5.280   3.157   2.665
 9240SOL    HW128619   5.277   3.057   2.654
 9240SOL    HW228620   5.273   3.200   2.575
 9241SOL     OW28621   6.790   5.717   0.375
 9241SOL    HW128622   6.760   5.676   0.462
 9241SOL    HW228623   6.874   5.673   0.345
 9242SOL     OW28624   1.925   3.037   1.879
 9242SOL    HW128625   1.998   3.100   1.905
 9242SOL    HW228626   1.843   3.089   1.855
 9243SOL     OW28627   0.870   0.532   2.153
 9243SOL    HW128628   0.865   0.473   2.072
 9243SOL    HW228629   0.852   0.626   2.127
 9244SOL     OW28630   2.489   6.453   6.171
 9244SOL    HW128631   2.489   6.541   6.218
 9244SOL    HW228632   2.415   6.396   6.206
 9245SOL     OW28633   0.689   4.302   3.598
 9245SOL    HW128634   0.765   4.251   3.639
 9245SOL    HW228635   0.640   4.353   3.669
 9246SOL     OW28636   5.925   0.076   4.537
 9246SOL    HW128637   5.885   7.001   4.523
 9246SOL    HW228638   6.007   0.085   4.480
 9247SOL     OW28639   4.107   5.639   3.335
 9247SOL    HW128640   4.184   5.612   3.277
 9247SOL    HW228641   4.053   5.708   3.288
 9248SOL     OW28642   2.598   1.928   5.407
 9248SOL    HW128643   2.615   1.964   5.499
 9248SOL    HW228644   2.682   1.885   5.373
 9249SOL     OW28645   4.437   5.000   1.207
 9249SOL    HW128646   4.407   4.905   1.206
 9249SOL    HW228647   4.466   5.025   1.299
 9250SOL     OW28648   7.012   3.355   3.941
 9250SOL    HW128649   0.095   3.343   3.928
 9250SOL    HW228650   6.965   3.337   3.855
 9251SOL     OW28651   4.309   2.140   2.078
 9251SOL    HW128652   4.225   2.175   2.121
 9251SOL    HW228653   4.377   2.121   2.149
 9252SOL     OW28654   5.424   0.720   4.832
 9252SOL    HW128655   5.473   0.640   4.868
 9252SOL    HW228656   5.382   0.696   4.744
 9253SOL     OW28657   4.971   5.135   5.901
 9253SOL    HW128658   5.065   5.116   5.932
 9253SOL    HW228659   4.970   5.140   5.801
 9254SOL     OW28660   5.033   5.207   2.520
 9254SOL    HW128661   5.027   5.221   2.421
 9254SOL    HW228662   5.017   5.111   2.541
 9255SOL     OW28663   5.705   3.077   6.560
 9255SOL    HW128664   5.625   3.127   6.592
 9255SOL    HW228665   5.677   3.010   6.491
 9256SOL     OW28666   1.901   7.006   1.519
 9256SOL    HW128667   1.942   6.915   1.530
 9256SOL    HW228668   1.972   0.060   1.529
 9257SOL     OW28669   6.243   5.981   2.985
 9257SOL    HW128670   6.228   6.079   2.974
 9257SOL    HW228671   6.299   5.965   3.067
 9258SOL     OW28672   3.652   3.439   0.696
 9258SOL    HW128673   3.644   3.534   0.668
 9258SOL    HW228674   3.748   3.412   0.699
 9259SOL     OW28675   1.839   1.132   0.477
 9259SOL    HW128676   1.918   1.191   0.494
 9259SOL    HW228677   1.850   1.086   0.389
 9260SOL     OW28678   6.874   2.338   6.151
 9260SOL    HW128679   6.885   2.256   6.206
 9260SOL    HW228680   6.960   2.357   6.103
 9261SOL     OW28681   4.600   1.031   6.287
 9261SOL    HW128682   4.600   1.048   6.386
 9261SOL    HW228683   4.520   0.977   6.263
 9262SOL     OW28684   1.242   6.774   5.199
 9262SOL    HW128685   1.231   6.686   5.245
 9262SOL    HW228686   1.180   6.841   5.239
 9263SOL     OW28687   3.551   5.341   2.913
 9263SOL    HW128688   3.545   5.340   3.013
 9263SOL    HW228689   3.468   5.302   2.874
 9264SOL     OW28690   4.417   2.865   0.109
 9264SOL    HW128691   4.499   2.835   0.059
 9264SOL    HW228692   4.350   2.902   0.044
 9265SOL     OW28693   3.810   2.006   6.708
 9265SOL    HW128694   3.898   2.051   6.691
 9265SOL    HW228695   3.823   1.931   6.772
 9266SOL     OW28696   0.086   5.825   1.225
 9266SOL    HW128697   7.005   5.811   1.242
 9266SOL    HW228698   0.100   5.911   1.178
 9267SOL     OW28699   1.001   2.058   4.260
 9267SOL    HW128700   0.935   2.057   4.185
 9267SOL    HW228701   0.952   2.064   4.347
 9268SOL     OW28702   0.939   6.214   2.542
 9268SOL    HW128703   0.912   6.308   2.560
 9268SOL    HW228704   0.872   6.171   2.481
 9269SOL     OW28705   4.113   0.205   6.657
 9269SOL    HW128706   4.030   0.149   6.654
 9269SOL    HW228707   4.119   0.259   6.573
 9270SOL     OW28708   3.585   0.495   5.496
 9270SOL    HW128709   3.572   0.478   5.594
 9270SOL    HW228710   3.551   0.417   5.444
 9271SOL     OW28711   7.007   0.224   1.245
 9271SOL    HW128712   6.987   0.142   1.299
 9271SOL    HW228713   0.085   0.219   1.212
 9272SOL     OW28714   0.702   6.469   6.421
 9272SOL    HW128715   0.780   6.531   6.422
 9272SOL    HW228716   0.728   6.382   6.464
 9273SOL     OW28717   5.548   5.967   3.118
 9273SOL    HW128718   5.491   6.048   3.108
 9273SOL    HW228719   5.632   5.979   3.066
 9274SOL     OW28720   6.671   2.310   0.209
 9274SOL    HW128721   6.644   2.400   0.241
 9274SOL    HW228722   6.609   2.241   0.246
 9275SOL     OW28723   7.011   6.762   0.099
 9275SOL    HW128724   0.092   6.772   0.078
 9275SOL    HW228725   6.986   6.665   0.098
 9276SOL     OW28726   2.617   5.007   6.751
 9276SOL    HW128727   2.623   5.005   6.851
 9276SOL    HW228728   2.581   5.095   6.722
 9277SOL     OW28729   3.919   5.847   2.844
 9277SOL    HW128730   3.843   5.843   2.908
 9277SOL    HW228731   3.912   5.771   2.780
 9278SOL     OW28732   1.051   0.691   5.554
 9278SOL    HW128733   1.003   0.646   5.479
 9278SOL    HW228734   1.012   0.783   5.568
 9279SOL     OW28735   3.348   6.856   1.793
 9279SOL    HW128736   3.419   6.809   1.845
 9279SOL    HW228737   3.295   6.790   1.741
 9280SOL     OW28738   2.293   1.678   2.525
 9280SOL    HW128739   2.286   1.648   2.620
 9280SOL    HW228740   2.381   1.724   2.512
 9281SOL     OW28741   3.473   3.789   6.588
 9281SOL    HW128742   3.395   3.851   6.587
 9281SOL    HW228743   3.480   3.742   6.499
 9282SOL     OW28744   4.988   1.099   4.358
 9282SOL    HW128745   4.914   1.092   4.292
 9282SOL    HW228746   4.957   1.152   4.438
 9283SOL     OW28747   5.212   0.423   5.382
 9283SOL    HW128748   5.172   0.488   5.317
 9283SOL    HW228749   5.296   0.460   5.420
 9284SOL     OW28750   2.470   3.326   5.420
 9284SOL    HW128751   2.525   3.410   5.426
 9284SOL    HW228752   2.530   3.247   5.423
 9285SOL     OW28753   5.223   3.020   0.620
 9285SOL    HW128754   5.178   2.931   0.626
 9285SOL    HW228755   5.196   3.077   0.697
 9286SOL     OW28756   4.573   5.676   0.567
 9286SOL    HW128757   4.617   5.765   0.552
 9286SOL    HW228758   4.480   5.690   0.600
 9287SOL     OW28759   3.375   4.539   5.613
 9287SOL    HW128760   3.474   4.536   5.625
 9287SOL    HW228761   3.350   4.496   5.527
 9288SOL     OW28762   4.803   2.305   3.236
 9288SOL    HW128763   4.885   2.291   3.292
 9288SOL    HW228764   4.828   2.306   3.140
 9289SOL     OW28765   4.372   0.790   7.001
 9289SOL    HW128766   4.294   0.751   6.952
 9289SOL    HW228767   4.338   0.847   0.060
 9290SOL     OW28768   6.205   0.834   4.369
 9290SOL    HW128769   6.177   0.798   4.458
 9290SOL    HW228770   6.213   0.933   4.374
 9291SOL     OW28771   1.816   6.064   6.028
 9291SOL    HW128772   1.909   6.076   5.993
 9291SOL    HW228773   1.812   6.097   6.123
 9292SOL     OW28774   1.707   1.334   6.661
 9292SOL    HW128775   1.801   1.360   6.638
 9292SOL    HW228776   1.709   1.257   6.725
 9293SOL     OW28777   4.834   3.369   6.856
 9293SOL    HW128778   4.869   3.462   6.866
 9293SOL    HW228779   4.894   3.306   6.907
 9294SOL     OW28780   4.929   0.790   6.908
 9294SOL    HW128781   4.929   0.813   7.006
 9294SOL    HW228782   4.946   0.692   6.897
 9295SOL     OW28783   6.566   0.844   5.039
 9295SOL    HW128784   6.517   0.818   5.122
 9295SOL    HW228785   6.653   0.797   5.035
 9296SOL     OW28786   2.126   4.979   0.890
 9296SOL    HW128787   2.059   4.905   0.881
 9296SOL    HW228788   2.188   4.958   0.966
 9297SOL     OW28789   0.687   6.388   3.349
 9297SOL    HW128790   0.591   6.383   3.377
 9297SOL    HW228791   0.718   6.483   3.357
 9298SOL     OW28792   1.230   6.441   6.292
 9298SOL    HW128793   1.179   6.467   6.210
 9298SOL    HW228794   1.175   6.459   6.373
 9299SOL     OW28795   0.892   1.267   3.668
 9299SOL    HW128796   0.844   1.279   3.581
 9299SOL    HW228797   0.920   1.357   3.703
 9300SOL     OW28798   0.480   5.259   5.022
 9300SOL    HW128799   0.555   5.325   5.019
 9300SOL    HW228800   0.394   5.306   5.041
 9301SOL     OW28801   6.994   4.223   5.110
 9301SOL    HW128802   6.966   4.286   5.037
 9301SOL    HW228803   6.928   4.227   5.185
 9302SOL     OW28804   2.182   3.218   4.415
 9302SOL    HW128805   2.153   3.289   4.351
 9302SOL    HW228806   2.132   3.228   4.500
 9303SOL     OW28807   2.687   4.757   0.580
 9303SOL    HW128808   2.645   4.834   0.531
 9303SOL    HW228809   2.753   4.712   0.520
 9304SOL     OW28810   4.402   5.232   0.570
 9304SOL    HW128811   4.302   5.244   0.564
 9304SOL    HW228812   4.447   5.310   0.526
 9305SOL     OW28813   3.559   1.162   0.622
 9305SOL    HW128814   3.595   1.104   0.695
 9305SOL    HW228815   3.525   1.105   0.548
 9306SOL     OW28816   0.436   3.840   5.377
 9306SOL    HW128817   0.358   3.822   5.318
 9306SOL    HW228818   0.510   3.880   5.323
 9307SOL     OW28819   1.176   4.396   0.656
 9307SOL    HW128820   1.139   4.440   0.738
 9307SOL    HW228821   1.235   4.320   0.683
 9308SOL     OW28822   0.804   4.492   1.679
 9308SOL    HW128823   0.802   4.589   1.704
 9308SOL    HW228824   0.899   4.463   1.668
 9309SOL     OW28825   4.447   6.488   5.446
 9309SOL    HW128826   4.532   6.528   5.411
 9309SOL    HW228827   4.378   6.560   5.455
 9310SOL     OW28828   5.568   6.115   5.842
 9310SOL    HW128829   5.553   6.168   5.925
 9310SOL    HW228830   5.482   6.107   5.791
 9311SOL     OW28831   5.230   4.492   1.314
 9311SOL    HW128832   5.222   4.482   1.413
 9311SOL    HW228833   5.310   4.441   1.282
 9312SOL     OW28834   1.518   1.902   0.923
 9312SOL    HW128835   1.613   1.887   0.950
 9312SOL    HW228836   1.503   1.865   0.831
 9313SOL     OW28837   0.752   0.642   1.769
 9313SOL    HW128838   0.823   0.711   1.776
 9313SOL    HW228839   0.783   0.557   1.813
 9314SOL     OW28840   6.170   3.919   1.235
 9314SOL    HW128841   6.129   3.887   1.150
 9314SOL    HW228842   6.228   3.848   1.274
 9315SOL     OW28843   6.031   0.441   6.198
 9315SOL    HW128844   6.074   0.531   6.206
 9315SOL    HW228845   6.032   0.412   6.102
 9316SOL     OW28846   5.973   0.200   5.316
 9316SOL    HW128847   5.924   0.287   5.310
 9316SOL    HW228848   6.059   0.207   5.266
 9317SOL     OW28849   4.043   5.359   3.351
 9317SOL    HW128850   4.062   5.457   3.352
 9317SOL    HW228851   4.103   5.313   3.417
 9318SOL     OW28852   4.587   6.411   0.075
 9318SOL    HW128853   4.649   6.489   0.066
 9318SOL    HW228854   4.514   6.434   0.140
 9319SOL     OW28855   2.284   2.819   0.802
 9319SOL    HW128856   2.202   2.873   0.783
 9319SOL    HW228857   2.318   2.780   0.717
 9320SOL     OW28858   4.887   0.424   6.268
 9320SOL    HW128859   4.928   0.335   6.288
 9320SOL    HW228860   4.910   0.489   6.340
 9321SOL     OW28861   0.987   1.717   5.371
 9321SOL    HW128862   0.955   1.707   5.277
 9321SOL    HW228863   0.955   1.639   5.425
 9322SOL     OW28864   6.639   4.305   6.370
 9322SOL    HW128865   6.727   4.350   6.353
 9322SOL    HW228866   6.571   4.374   6.395
 9323SOL     OW28867   2.440   1.833   4.793
 9323SOL    HW128868   2.470   1.800   4.882
 9323SOL    HW228869   2.377   1.910   4.804
 9324SOL     OW28870   2.138   3.939   1.914
 9324SOL    HW128871   2.078   3.953   1.836
 9324SOL    HW228872   2.158   3.841   1.924
 9325SOL     OW28873   0.719   6.120   1.232
 9325SOL    HW128874   0.629   6.164   1.235
 9325SOL    HW228875   0.760   6.123   1.323
 9326SOL     OW28876   3.273   5.274   6.813
 9326SOL    HW128877   3.258   5.230   6.725
 9326SOL    HW228878   3.371   5.283   6.830
 9327SOL     OW28879   4.733   6.821   3.212
 9327SOL    HW128880   4.710   6.890   3.280
 9327SOL    HW228881   4.808   6.854   3.154
 9328SOL     OW28882   2.084   6.992   4.698
 9328SOL    HW128883   2.154   0.047   4.688
 9328SOL    HW228884   2.019   0.002   4.769
 9329SOL     OW28885   6.726   5.602   0.634
 9329SOL    HW128886   6.667   5.567   0.707
 9329SOL    HW228887   6.821   5.603   0.666
 9330SOL     OW28888   0.317   0.195   6.298
 9330SOL    HW128889   0.239   0.257   6.282
 9330SOL    HW228890   0.288   0.119   6.356
 9331SOL     OW28891   1.887   2.332   5.906
 9331SOL    HW128892   1.877   2.294   5.813
 9331SOL    HW228893   1.935   2.420   5.901
 9332SOL     OW28894   3.940   5.882   0.624
 9332SOL    HW128895   3.911   5.821   0.698
 9332SOL    HW228896   4.016   5.840   0.574
 9333SOL     OW28897   4.017   5.781   0.028
 9333SOL    HW128898   4.067   5.775   6.958
 9333SOL    HW228899   4.037   5.700   0.084
 9334SOL     OW28900   5.129   0.667   4.346
 9334SOL    HW128901   5.172   0.577   4.355
 9334SOL    HW228902   5.162   0.727   4.418
 9335SOL     OW28903   1.523   1.862   0.249
 9335SOL    HW128904   1.496   1.777   0.296
 9335SOL    HW228905   1.604   1.900   0.293
 9336SOL     OW28906   5.485   0.308   4.433
 9336SOL    HW128907   5.523   0.351   4.350
 9336SOL    HW228908   5.555   0.250   4.474
 9337SOL     OW28909   5.133   0.697   6.533
 9337SOL    HW128910   5.136   0.775   6.596
 9337SOL    HW228911   5.038   0.666   6.524
 9338SOL     OW28912   6.833   5.862   0.950
 9338SOL    HW128913   6.897   5.833   1.021
 9338SOL    HW228914   6.850   5.958   0.927
 9339SOL     OW28915   5.621   5.868   0.545
 9339SOL    HW128916   5.614   5.966   0.527
 9339SOL    HW228917   5.672   5.824   0.471
 9340SOL     OW28918   4.113   4.756   2.856
 9340SOL    HW128919   4.078   4.849   2.844
 9340SOL    HW228920   4.212   4.759   2.871
 9341SOL     OW28921   6.545   4.095   0.180
 9341SOL    HW128922   6.544   4.031   0.256
 9341SOL    HW228923   6.622   4.158   0.190
 9342SOL     OW28924   2.655   0.332   4.571
 9342SOL    HW128925   2.737   0.382   4.601
 9342SOL    HW228926   2.623   0.370   4.485
 9343SOL     OW28927   4.867   3.410   1.950
 9343SOL    HW128928   4.782   3.445   1.911
 9343SOL    HW228929   4.941   3.421   1.883
 9344SOL     OW28930   5.525   5.724   6.674
 9344SOL    HW128931   5.533   5.819   6.702
 9344SOL    HW228932   5.566   5.712   6.583
 9345SOL     OW28933   6.318   4.762   0.400
 9345SOL    HW128934   6.238   4.816   0.427
 9345SOL    HW228935   6.294   4.704   0.323
 9346SOL     OW28936   4.982   6.229   2.517
 9346SOL    HW128937   5.029   6.306   2.561
 9346SOL    HW228938   4.891   6.258   2.489
 9347SOL     OW28939   3.556   6.119   0.815
 9347SOL    HW128940   3.541   6.137   0.718
 9347SOL    HW228941   3.477   6.149   0.868
 9348SOL     OW28942   3.307   5.205   2.861
 9348SOL    HW128943   3.265   5.173   2.777
 9348SOL    HW228944   3.240   5.256   2.915
 9349SOL     OW28945   6.217   5.802   1.939
 9349SOL    HW128946   6.206   5.818   2.037
 9349SOL    HW228947   6.314   5.802   1.916
 9350SOL     OW28948   0.380   1.792   4.218
 9350SOL    HW128949   0.286   1.764   4.199
 9350SOL    HW228950   0.440   1.761   4.145
 9351SOL     OW28951   2.696   0.446   6.304
 9351SOL    HW128952   2.626   0.514   6.282
 9351SOL    HW228953   2.755   0.433   6.225
 9352SOL     OW28954   2.462   3.263   5.736
 9352SOL    HW128955   2.525   3.260   5.813
 9352SOL    HW228956   2.504   3.314   5.661
 9353SOL     OW28957   1.680   4.292   1.945
 9353SOL    HW128958   1.749   4.220   1.951
 9353SOL    HW228959   1.647   4.300   1.852
 9354SOL     OW28960   5.939   1.697   0.800
 9354SOL    HW128961   5.996   1.615   0.808
 9354SOL    HW228962   5.959   1.743   0.714
 9355SOL     OW28963   6.444   1.199   4.451
 9355SOL    HW128964   6.448   1.296   4.425
 9355SOL    HW228965   6.483   1.144   4.378
 9356SOL     OW28966   4.703   5.182   2.007
 9356SOL    HW128967   4.646   5.189   2.088
 9356SOL    HW228968   4.793   5.145   2.032
 9357SOL     OW28969   2.431   3.917   0.099
 9357SOL    HW128970   2.522   3.897   0.137
 9357SOL    HW228971   2.361   3.884   0.163
 9358SOL     OW28972   6.153   3.833   1.685
 9358SOL    HW128973   6.121   3.910   1.630
 9358SOL    HW228974   6.085   3.759   1.682
 9359SOL     OW28975   0.226   3.594   5.885
 9359SOL    HW128976   0.315   3.551   5.899
 9359SOL    HW228977   0.221   3.680   5.936
 9360SOL     OW28978   1.036   6.800   5.960
 9360SOL    HW128979   1.123   6.814   5.913
 9360SOL    HW228980   0.984   6.727   5.916
 9361SOL     OW28981   2.686   6.508   3.605
 9361SOL    HW128982   2.733   6.429   3.644
 9361SOL    HW228983   2.632   6.553   3.675
 9362SOL     OW28984   1.530   1.723   2.228
 9362SOL    HW128985   1.462   1.796   2.237
 9362SOL    HW228986   1.545   1.703   2.132
 9363SOL     OW28987   4.355   5.197   1.865
 9363SOL    HW128988   4.261   5.183   1.896
 9363SOL    HW228989   4.406   5.249   1.935
 9364SOL     OW28990   4.248   3.223   6.147
 9364SOL    HW128991   4.301   3.238   6.064
 9364SOL    HW228992   4.278   3.138   6.191
 9365SOL     OW28993   2.483   1.690   5.374
 9365SOL    HW128994   2.526   1.776   5.401
 9365SOL    HW228995   2.539   1.614   5.406
 9366SOL     OW28996   2.922   1.336   0.083
 9366SOL    HW128997   2.885   1.413   0.136
 9366SOL    HW228998   2.988   1.286   0.138
 9367SOL     OW28999   6.912   5.842   3.338
 9367SOL    HW129000   6.863   5.907   3.396
 9367SOL    HW229001   6.979   5.792   3.393
 9368SOL     OW29002   3.353   1.789   3.508
 9368SOL    HW129003   3.371   1.696   3.476
 9368SOL    HW229004   3.263   1.792   3.552
 9369SOL     OW29005   0.242   0.734   5.791
 9369SOL    HW129006   0.271   0.809   5.851
 9369SOL    HW229007   0.286   0.649   5.821
 9370SOL     OW29008   4.891   0.509   2.842
 9370SOL    HW129009   4.808   0.516   2.788
 9370SOL    HW229010   4.970   0.496   2.782
 9371SOL     OW29011   1.949   4.770   0.893
 9371SOL    HW129012   1.954   4.727   0.802
 9371SOL    HW229013   1.894   4.713   0.954
 9372SOL     OW29014   5.442   5.709   3.157
 9372SOL    HW129015   5.473   5.804   3.146
 9372SOL    HW229016   5.414   5.673   3.068
 9373SOL     OW29017   4.580   2.290   2.760
 9373SOL    HW129018   4.581   2.214   2.824
 9373SOL    HW229019   4.596   2.376   2.810
 9374SOL     OW29020   6.460   3.401   0.584
 9374SOL    HW129021   6.553   3.392   0.619
 9374SOL    HW229022   6.396   3.404   0.661
 9375SOL     OW29023   6.822   1.925   3.087
 9375SOL    HW129024   6.860   2.009   3.047
 9375SOL    HW229025   6.845   1.848   3.029
 9376SOL     OW29026   2.275   4.133   1.321
 9376SOL    HW129027   2.230   4.105   1.237
 9376SOL    HW229028   2.374   4.123   1.311
 9377SOL     OW29029   1.405   5.631   3.590
 9377SOL    HW129030   1.410   5.723   3.630
 9377SOL    HW229031   1.317   5.590   3.612
 9378SOL     OW29032   0.413   0.265   5.093
 9378SOL    HW129033   0.428   0.168   5.070
 9378SOL    HW229034   0.448   0.282   5.185
 9379SOL     OW29035   4.568   5.136   5.326
 9379SOL    HW129036   4.542   5.169   5.235
 9379SOL    HW229037   4.486   5.107   5.375
 9380SOL     OW29038   5.617   4.354   4.882
 9380SOL    HW129039   5.546   4.380   4.816
 9380SOL    HW229040   5.685   4.296   4.837
 9381SOL     OW29041   2.759   3.308   5.663
 9381SOL    HW129042   2.797   3.386   5.613
 9381SOL    HW229043   2.755   3.229   5.602
 9382SOL     OW29044   3.405   1.470   3.501
 9382SOL    HW129045   3.450   1.478   3.590
 9382SOL    HW229046   3.408   1.374   3.472
 9383SOL     OW29047   2.082   6.054   4.401
 9383SOL    HW129048   2.133   6.006   4.329
 9383SOL    HW229049   2.144   6.079   4.475
 9384SOL     OW29050   3.271   6.000   1.450
 9384SOL    HW129051   3.295   5.905   1.469
 9384SOL    HW229052   3.259   6.049   1.536
 9385SOL     OW29053   4.274   0.850   2.994
 9385SOL    HW129054   4.234   0.768   2.953
 9385SOL    HW229055   4.201   0.906   3.034
 9386SOL     OW29056   2.279   6.399   4.776
 9386SOL    HW129057   2.359   6.431   4.724
 9386SOL    HW229058   2.246   6.314   4.737
 9387SOL     OW29059   2.901   1.035   6.950
 9387SOL    HW129060   2.992   1.013   6.915
 9387SOL    HW229061   2.832   1.015   6.880
 9388SOL     OW29062   2.450   5.682   3.149
 9388SOL    HW129063   2.423   5.640   3.236
 9388SOL    HW229064   2.485   5.612   3.087
 9389SOL     OW29065   1.523   6.725   4.828
 9389SOL    HW129066   1.493   6.790   4.898
 9389SOL    HW229067   1.619   6.741   4.805
 9390SOL     OW29068   3.942   5.326   5.084
 9390SOL    HW129069   3.906   5.235   5.105
 9390SOL    HW229070   4.015   5.318   5.016
 9391SOL     OW29071   2.384   0.786   5.137
 9391SOL    HW129072   2.392   0.825   5.045
 9391SOL    HW229073   2.465   0.810   5.190
 9392SOL     OW29074   6.879   0.448   5.130
 9392SOL    HW129075   6.915   0.459   5.223
 9392SOL    HW229076   6.876   0.538   5.085
 9393SOL     OW29077   2.822   0.418   4.941
 9393SOL    HW129078   2.844   0.322   4.960
 9393SOL    HW229079   2.792   0.463   5.025
 9394SOL     OW29080   0.109   1.596   2.044
 9394SOL    HW129081   0.145   1.537   1.972
 9394SOL    HW229082   0.161   1.682   2.045
 9395SOL     OW29083   2.358   1.664   0.061
 9395SOL    HW129084   2.447   1.689   0.021
 9395SOL    HW229085   2.292   1.735   0.040
 9396SOL     OW29086   1.410   5.282   3.418
 9396SOL    HW129087   1.423   5.284   3.319
 9396SOL    HW229088   1.314   5.301   3.440
 9397SOL     OW29089   3.202   0.077   0.243
 9397SOL    HW129090   3.246   0.157   0.283
 9397SOL    HW229091   3.257   7.012   0.261
 9398SOL     OW29092   0.536   0.224   5.342
 9398SOL    HW129093   0.588   0.144   5.312
 9398SOL    HW229094   0.496   0.206   5.431
 9399SOL     OW29095   6.963   1.627   6.453
 9399SOL    HW129096   6.975   1.724   6.429
 9399SOL    HW229097   6.944   1.575   6.370
 9400SOL     OW29098   4.079   2.399   1.796
 9400SOL    HW129099   4.023   2.354   1.866
 9400SOL    HW229100   4.172   2.410   1.831
 9401SOL     OW29101   4.922   0.048   3.386
 9401SOL    HW129102   4.833   0.009   3.409
 9401SOL    HW229103   4.911   0.145   3.364
 9402SOL     OW29104   1.323   4.934   3.608
 9402SOL    HW129105   1.259   4.874   3.655
 9402SOL    HW229106   1.327   4.910   3.511
 9403SOL     OW29107   5.656   1.336   2.871
 9403SOL    HW129108   5.607   1.316   2.786
 9403SOL    HW229109   5.754   1.328   2.855
 9404SOL     OW29110   0.794   3.182   6.517
 9404SOL    HW129111   0.764   3.087   6.511
 9404SOL    HW229112   0.892   3.187   6.495
 9405SOL     OW29113   0.357   5.618   2.145
 9405SOL    HW129114   0.448   5.654   2.161
 9405SOL    HW229115   0.336   5.622   2.047
 9406SOL     OW29116   6.981   2.632   6.422
 9406SOL    HW129117   6.911   2.632   6.351
 9406SOL    HW229118   6.944   2.674   6.505
 9407SOL     OW29119   3.019   5.373   3.280
 9407SOL    HW129120   3.067   5.366   3.367
 9407SOL    HW229121   2.986   5.283   3.253
 9408SOL     OW29122   4.097   1.681   6.135
 9408SOL    HW129123   4.002   1.655   6.151
 9408SOL    HW229124   4.151   1.664   6.217
 9409SOL     OW29125   5.809   4.800   6.527
 9409SOL    HW129126   5.876   4.731   6.554
 9409SOL    HW229127   5.844   4.891   6.547
 9410SOL     OW29128   2.814   6.304   1.828
 9410SOL    HW129129   2.837   6.332   1.735
 9410SOL    HW229130   2.890   6.254   1.868
 9411SOL     OW29131   4.062   3.707   1.779
 9411SOL    HW129132   4.075   3.717   1.681
 9411SOL    HW229133   4.040   3.611   1.800
 9412SOL     OW29134   0.007   3.002   1.654
 9412SOL    HW129135   0.062   2.929   1.613
 9412SOL    HW229136   0.003   3.080   1.592
 9413SOL     OW29137   3.381   6.222   4.663
 9413SOL    HW129138   3.319   6.298   4.685
 9413SOL    HW229139   3.332   6.136   4.667
 9414SOL     OW29140   3.243   0.833   3.770
 9414SOL    HW129141   3.160   0.807   3.720
 9414SOL    HW229142   3.271   0.925   3.743
 9415SOL     OW29143   2.855   7.000   1.992
 9415SOL    HW129144   2.860   6.968   1.898
 9415SOL    HW229145   2.782   0.052   2.000
 9416SOL     OW29146   0.609   1.820   1.209
 9416SOL    HW129147   0.613   1.895   1.144
 9416SOL    HW229148   0.678   1.834   1.281
 9417SOL     OW29149   3.835   6.741   5.647
 9417SOL    HW129150   3.818   6.800   5.726
 9417SOL    HW229151   3.855   6.648   5.678
 9418SOL     OW29152   3.458   6.191   1.788
 9418SOL    HW129153   3.501   6.176   1.699
 9418SOL    HW229154   3.523   6.234   1.850
 9419SOL     OW29155   3.065   4.721   5.772
 9419SOL    HW129156   3.017   4.721   5.684
 9419SOL    HW229157   3.006   4.759   5.843
 9420SOL     OW29158   0.269   2.462   5.064
 9420SOL    HW129159   0.172   2.444   5.044
 9420SOL    HW229160   0.278   2.550   5.109
 9421SOL     OW29161   1.863   6.396   4.872
 9421SOL    HW129162   1.914   6.390   4.958
 9421SOL    HW229163   1.926   6.385   4.795
 9422SOL     OW29164   5.108   6.293   3.265
 9422SOL    HW129165   5.141   6.198   3.262
 9422SOL    HW229166   5.135   6.334   3.352
 9423SOL     OW29167   4.263   0.328   3.435
 9423SOL    HW129168   4.253   0.229   3.421
 9423SOL    HW229169   4.357   0.355   3.413
 9424SOL     OW29170   4.999   0.791   4.836
 9424SOL    HW129171   5.050   0.851   4.898
 9424SOL    HW229172   4.903   0.789   4.863
 9425SOL     OW29173   6.780   3.398   6.525
 9425SOL    HW129174   6.739   3.486   6.549
 9425SOL    HW229175   6.804   3.398   6.427
 9426SOL     OW29176   2.657   2.023   0.065
 9426SOL    HW129177   2.707   2.080   0.000
 9426SOL    HW229178   2.635   1.936   0.021
 9427SOL     OW29179   2.810   5.531   4.468
 9427SOL    HW129180   2.811   5.624   4.505
 9427SOL    HW229181   2.725   5.516   4.416
 9428SOL     OW29182   5.385   0.543   1.066
 9428SOL    HW129183   5.482   0.556   1.042
 9428SOL    HW229184   5.348   0.628   1.102
 9429SOL     OW29185   2.029   3.800   2.137
 9429SOL    HW129186   2.057   3.704   2.141
 9429SOL    HW229187   2.096   3.856   2.186
 9430SOL     OW29188   0.232   4.344   2.130
 9430SOL    HW129189   0.272   4.257   2.160
 9430SOL    HW229190   0.182   4.386   2.206
 9431SOL     OW29191   5.719   3.856   1.258
 9431SOL    HW129192   5.647   3.804   1.210
 9431SOL    HW229193   5.778   3.792   1.308
 9432SOL     OW29194   5.119   1.192   3.137
 9432SOL    HW129195   5.040   1.252   3.119
 9432SOL    HW229196   5.162   1.166   3.050
 9433SOL     OW29197   3.762   5.001   3.525
 9433SOL    HW129198   3.680   4.947   3.507
 9433SOL    HW229199   3.835   4.941   3.560
 9434SOL     OW29200   5.277   5.140   3.426
 9434SOL    HW129201   5.282   5.115   3.522
 9434SOL    HW229202   5.355   5.101   3.377
 9435SOL     OW29203   0.503   2.597   4.746
 9435SOL    HW129204   0.518   2.692   4.775
 9435SOL    HW229205   0.530   2.535   4.820
 9436SOL     OW29206   0.969   3.189   1.984
 9436SOL    HW129207   1.018   3.149   2.061
 9436SOL    HW229208   1.025   3.261   1.942
 9437SOL     OW29209   2.594   6.382   3.382
 9437SOL    HW129210   2.498   6.359   3.399
 9437SOL    HW229211   2.621   6.457   3.443
 9438SOL     OW29212   0.474   0.020   1.523
 9438SOL    HW129213   0.557   0.061   1.561
 9438SOL    HW229214   0.412   0.093   1.494
 9439SOL     OW29215   0.508   2.751   1.641
 9439SOL    HW129216   0.604   2.765   1.666
 9439SOL    HW229217   0.482   2.656   1.659
 9440SOL     OW29218   4.299   5.263   4.210
 9440SOL    HW129219   4.228   5.309   4.263
 9440SOL    HW229220   4.277   5.166   4.202
 9441SOL     OW29221   1.639   3.719   5.149
 9441SOL    HW129222   1.727   3.683   5.119
 9441SOL    HW229223   1.631   3.815   5.121
 9442SOL     OW29224   4.513   3.109   0.275
 9442SOL    HW129225   4.513   3.038   0.204
 9442SOL    HW229226   4.574   3.183   0.248
 9443SOL     OW29227   2.492   4.881   1.607
 9443SOL    HW129228   2.439   4.955   1.566
 9443SOL    HW229229   2.533   4.913   1.693
 9444SOL     OW29230   1.022   3.994   6.762
 9444SOL    HW129231   0.957   3.973   6.835
 9444SOL    HW229232   0.980   4.058   6.698
 9445SOL     OW29233   5.878   3.416   2.841
 9445SOL    HW129234   5.886   3.485   2.913
 9445SOL    HW229235   5.913   3.454   2.755
 9446SOL     OW29236   6.714   6.657   4.259
 9446SOL    HW129237   6.778   6.609   4.319
 9446SOL    HW229238   6.727   6.626   4.165
 9447SOL     OW29239   6.186   3.516   4.063
 9447SOL    HW129240   6.282   3.507   4.089
 9447SOL    HW229241   6.161   3.613   4.063
 9448SOL     OW29242   6.796   6.649   6.335
 9448SOL    HW129243   6.808   6.745   6.360
 9448SOL    HW229244   6.859   6.593   6.388
 9449SOL     OW29245   0.082   5.863   7.000
 9449SOL    HW129246   0.125   5.826   6.917
 9449SOL    HW229247   0.147   5.925   0.029
 9450SOL     OW29248   3.128   5.671   4.910
 9450SOL    HW129249   3.105   5.607   4.837
 9450SOL    HW229250   3.049   5.683   4.970
 9451SOL     OW29251   3.970   6.617   6.046
 9451SOL    HW129252   3.976   6.545   6.114
 9451SOL    HW229253   3.875   6.625   6.014
 9452SOL     OW29254   1.299   3.963   0.509
 9452SOL    HW129255   1.269   3.958   0.604
 9452SOL    HW229256   1.222   3.988   0.451
 9453SOL     OW29257   2.138   5.209   3.431
 9453SOL    HW129258   2.191   5.233   3.512
 9453SOL    HW229259   2.087   5.289   3.399
 9454SOL     OW29260   2.172   3.541   6.990
 9454SOL    HW129261   2.195   3.630   6.950
 9454SOL    HW229262   2.145   3.478   6.917
 9455SOL     OW29263   3.813   1.764   2.627
 9455SOL    HW129264   3.754   1.761   2.708
 9455SOL    HW229265   3.765   1.811   2.553
 9456SOL     OW29266   0.487   3.701   0.953
 9456SOL    HW129267   0.410   3.641   0.929
 9456SOL    HW229268   0.452   3.783   0.998
 9457SOL     OW29269   2.311   4.056   5.374
 9457SOL    HW129270   2.235   4.121   5.371
 9457SOL    HW229271   2.319   4.009   5.286
 9458SOL     OW29272   1.496   3.447   0.093
 9458SOL    HW129273   1.399   3.460   0.110
 9458SOL    HW229274   1.511   3.428   7.013
 9459SOL     OW29275   5.358   4.605   2.615
 9459SOL    HW129276   5.360   4.705   2.628
 9459SOL    HW229277   5.402   4.561   2.693
 9460SOL     OW29278   0.177   2.630   4.029
 9460SOL    HW129279   0.093   2.622   4.083
 9460SOL    HW229280   0.207   2.725   4.027
 9461SOL     OW29281   6.639   1.737   2.700
 9461SOL    HW129282   6.688   1.713   2.615
 9461SOL    HW229283   6.541   1.725   2.686
 9462SOL     OW29284   2.131   3.751   2.522
 9462SOL    HW129285   2.141   3.651   2.518
 9462SOL    HW229286   2.157   3.784   2.613
 9463SOL     OW29287   0.226   0.942   1.507
 9463SOL    HW129288   0.147   0.956   1.566
 9463SOL    HW229289   0.287   0.874   1.548
 9464SOL     OW29290   5.788   0.005   0.963
 9464SOL    HW129291   5.815   6.973   0.880
 9464SOL    HW229292   5.829   0.096   0.964
 9465SOL     OW29293   1.157   5.671   3.416
 9465SOL    HW129294   1.216   5.747   3.389
 9465SOL    HW229295   1.089   5.704   3.482
 9466SOL     OW29296   4.445   4.819   5.564
 9466SOL    HW129297   4.417   4.915   5.560
 9466SOL    HW229298   4.449   4.782   5.471
 9467SOL     OW29299   1.350   2.596   1.513
 9467SOL    HW129300   1.343   2.499   1.488
 9467SOL    HW229301   1.348   2.604   1.612
 9468SOL     OW29302   6.191   2.124   6.171
 9468SOL    HW129303   6.127   2.176   6.114
 9468SOL    HW229304   6.141   2.071   6.239
 9469SOL     OW29305   6.093   6.242   1.468
 9469SOL    HW129306   6.012   6.283   1.509
 9469SOL    HW229307   6.065   6.172   1.401
 9470SOL     OW29308   4.464   4.049   5.347
 9470SOL    HW129309   4.526   3.974   5.368
 9470SOL    HW229310   4.418   4.079   5.431
 9471SOL     OW29311   6.597   1.528   4.722
 9471SOL    HW129312   6.663   1.593   4.759
 9471SOL    HW229313   6.645   1.459   4.669
 9472SOL     OW29314   5.971   3.130   4.385
 9472SOL    HW129315   6.007   3.221   4.362
 9472SOL    HW229316   5.876   3.123   4.354
 9473SOL     OW29317   2.817   5.553   5.175
 9473SOL    HW129318   2.830   5.545   5.274
 9473SOL    HW229319   2.860   5.638   5.144
 9474SOL     OW29320   6.753   3.340   0.448
 9474SOL    HW129321   6.775   3.359   0.544
 9474SOL    HW229322   6.797   3.409   0.390
 9475SOL     OW29323   2.847   3.662   0.202
 9475SOL    HW129324   2.753   3.655   0.167
 9475SOL    HW229325   2.902   3.589   0.164
 9476SOL     OW29326   2.905   3.626   5.212
 9476SOL    HW129327   3.002   3.627   5.238
 9476SOL    HW229328   2.857   3.557   5.266
 9477SOL     OW29329   0.212   3.776   2.505
 9477SOL    HW129330   0.250   3.863   2.534
 9477SOL    HW229331   0.128   3.757   2.556
 9478SOL     OW29332   5.461   3.101   6.156
 9478SOL    HW129333   5.553   3.062   6.152
 9478SOL    HW229334   5.464   3.196   6.124
 9479SOL     OW29335   4.568   6.382   6.814
 9479SOL    HW129336   4.645   6.442   6.790
 9479SOL    HW229337   4.546   6.394   6.911
 9480SOL     OW29338   5.202   3.657   0.730
 9480SOL    HW129339   5.115   3.657   0.781
 9480SOL    HW229340   5.236   3.750   0.721
 9481SOL     OW29341   5.543   3.690   2.317
 9481SOL    HW129342   5.514   3.715   2.225
 9481SOL    HW229343   5.634   3.726   2.335
 9482SOL     OW29344   6.770   0.752   3.253
 9482SOL    HW129345   6.849   0.691   3.260
 9482SOL    HW229346   6.795   0.833   3.201
 9483SOL     OW29347   0.910   1.499   1.750
 9483SOL    HW129348   0.970   1.513   1.672
 9483SOL    HW229349   0.821   1.466   1.718
 9484SOL     OW29350   4.233   0.867   3.348
 9484SOL    HW129351   4.318   0.893   3.303
 9484SOL    HW229352   4.157   0.881   3.285
 9485SOL     OW29353   0.605   0.330   2.017
 9485SOL    HW129354   0.510   0.345   2.045
 9485SOL    HW229355   0.618   0.233   1.994
 9486SOL     OW29356   2.632   5.531   1.368
 9486SOL    HW129357   2.649   5.621   1.329
 9486SOL    HW229358   2.653   5.531   1.465
 9487SOL     OW29359   2.892   3.398   3.300
 9487SOL    HW129360   2.856   3.452   3.224
 9487SOL    HW229361   2.873   3.444   3.386
 9488SOL     OW29362   1.428   6.502   1.164
 9488SOL    HW129363   1.494   6.507   1.089
 9488SOL    HW229364   1.476   6.480   1.249
 9489SOL     OW29365   4.240   4.058   1.472
 9489SOL    HW129366   4.256   3.960   1.458
 9489SOL    HW229367   4.323   4.109   1.450
 9490SOL     OW29368   6.531   5.495   0.829
 9490SOL    HW129369   6.543   5.495   0.928
 9490SOL    HW229370   6.442   5.536   0.806
 9491SOL     OW29371   6.798   3.801   3.767
 9491SOL    HW129372   6.818   3.758   3.679
 9491SOL    HW229373   6.702   3.829   3.770
 9492SOL     OW29374   3.627   2.895   2.945
 9492SOL    HW129375   3.536   2.866   2.917
 9492SOL    HW229376   3.620   2.958   3.022
 9493SOL     OW29377   3.825   5.480   3.874
 9493SOL    HW129378   3.872   5.396   3.847
 9493SOL    HW229379   3.754   5.459   3.941
 9494SOL     OW29380   4.400   4.652   1.652
 9494SOL    HW129381   4.303   4.651   1.676
 9494SOL    HW229382   4.429   4.745   1.631
 9495SOL     OW29383   6.363   1.672   3.897
 9495SOL    HW129384   6.386   1.758   3.851
 9495SOL    HW229385   6.411   1.596   3.853
 9496SOL     OW29386   5.697   4.999   1.249
 9496SOL    HW129387   5.778   5.026   1.197
 9496SOL    HW229388   5.620   4.984   1.186
 9497SOL     OW29389   6.450   5.444   6.546
 9497SOL    HW129390   6.521   5.462   6.614
 9497SOL    HW229391   6.395   5.365   6.574
 9498SOL     OW29392   5.333   0.226   4.907
 9498SOL    HW129393   5.342   0.316   4.867
 9498SOL    HW229394   5.298   0.234   5.001
 9499SOL     OW29395   2.300   5.167   6.740
 9499SOL    HW129396   2.260   5.100   6.803
 9499SOL    HW229397   2.274   5.144   6.646
 9500SOL     OW29398   5.115   6.744   1.480
 9500SOL    HW129399   5.128   6.823   1.421
 9500SOL    HW229400   5.023   6.748   1.520
 9501SOL     OW29401   2.540   1.315   4.821
 9501SOL    HW129402   2.454   1.328   4.772
 9501SOL    HW229403   2.584   1.403   4.837
 9502SOL     OW29404   0.305   2.167   5.167
 9502SOL    HW129405   0.370   2.112   5.115
 9502SOL    HW229406   0.325   2.264   5.155
 9503SOL     OW29407   0.388   1.648   0.798
 9503SOL    HW129408   0.424   1.669   0.889
 9503SOL    HW229409   0.334   1.726   0.765
 9504SOL     OW29410   0.159   2.094   0.864
 9504SOL    HW129411   0.125   2.032   0.792
 9504SOL    HW229412   0.111   2.181   0.857
 9505SOL     OW29413   5.498   4.759   3.439
 9505SOL    HW129414   5.486   4.706   3.355
 9505SOL    HW229415   5.412   4.763   3.489
 9506SOL     OW29416   0.263   2.648   6.671
 9506SOL    HW129417   0.235   2.707   6.595
 9506SOL    HW229418   0.313   2.703   6.739
 9507SOL     OW29419   1.188   1.529   3.165
 9507SOL    HW129420   1.101   1.513   3.118
 9507SOL    HW229421   1.171   1.545   3.262
 9508SOL     OW29422   6.310   3.675   0.771
 9508SOL    HW129423   6.257   3.760   0.775
 9508SOL    HW229424   6.258   3.605   0.722
 9509SOL     OW29425   0.641   0.669   5.101
 9509SOL    HW129426   0.625   0.639   5.195
 9509SOL    HW229427   0.638   0.769   5.097
 9510SOL     OW29428   1.329   3.589   2.135
 9510SOL    HW129429   1.298   3.557   2.046
 9510SOL    HW229430   1.288   3.534   2.207
 9511SOL     OW29431   0.308   1.487   6.874
 9511SOL    HW129432   0.290   1.508   6.970
 9511SOL    HW229433   0.229   1.514   6.819
 9512SOL     OW29434   5.439   1.495   1.722
 9512SOL    HW129435   5.413   1.468   1.629
 9512SOL    HW229436   5.457   1.593   1.724
 9513SOL     OW29437   1.788   3.142   5.746
 9513SOL    HW129438   1.854   3.185   5.684
 9513SOL    HW229439   1.699   3.135   5.700
 9514SOL     OW29440   2.084   4.490   0.120
 9514SOL    HW129441   2.158   4.558   0.118
 9514SOL    HW229442   2.012   4.518   0.056
 9515SOL     OW29443   1.497   5.992   0.950
 9515SOL    HW129444   1.486   5.955   0.858
 9515SOL    HW229445   1.433   6.068   0.963
 9516SOL     OW29446   5.606   3.392   4.991
 9516SOL    HW129447   5.554   3.460   5.043
 9516SOL    HW229448   5.568   3.301   5.007
 9517SOL     OW29449   0.759   4.513   1.014
 9517SOL    HW129450   0.811   4.590   0.976
 9517SOL    HW229451   0.822   4.438   1.034
 9518SOL     OW29452   1.063   1.965   0.046
 9518SOL    HW129453   1.041   2.056   0.080
 9518SOL    HW229454   1.147   1.969   7.009
 9519SOL     OW29455   3.401   3.780   4.424
 9519SOL    HW129456   3.346   3.718   4.369
 9519SOL    HW229457   3.491   3.792   4.381
 9520SOL     OW29458   0.697   1.564   3.293
 9520SOL    HW129459   0.768   1.631   3.313
 9520SOL    HW229460   0.607   1.604   3.310
 9521SOL     OW29461   3.738   4.792   1.241
 9521SOL    HW129462   3.680   4.761   1.166
 9521SOL    HW229463   3.790   4.873   1.212
 9522SOL     OW29464   4.106   5.251   1.599
 9522SOL    HW129465   4.070   5.322   1.539
 9522SOL    HW229466   4.173   5.292   1.662
 9523SOL     OW29467   2.507   5.440   4.431
 9523SOL    HW129468   2.495   5.371   4.360
 9523SOL    HW229469   2.429   5.438   4.493
 9524SOL     OW29470   2.417   3.088   0.666
 9524SOL    HW129471   2.325   3.128   0.660
 9524SOL    HW229472   2.417   3.012   0.729
 9525SOL     OW29473   2.769   1.835   5.771
 9525SOL    HW129474   2.738   1.740   5.782
 9525SOL    HW229475   2.781   1.876   5.861
 9526SOL     OW29476   5.642   4.509   0.878
 9526SOL    HW129477   5.619   4.573   0.951
 9526SOL    HW229478   5.722   4.543   0.828
 9527SOL     OW29479   0.761   0.628   4.209
 9527SOL    HW129480   0.763   0.647   4.308
 9527SOL    HW229481   0.779   0.531   4.193
 9528SOL     OW29482   6.748   1.780   1.023
 9528SOL    HW129483   6.831   1.811   0.976
 9528SOL    HW229484   6.670   1.832   0.990
 9529SOL     OW29485   6.273   3.434   6.079
 9529SOL    HW129486   6.202   3.434   6.008
 9529SOL    HW229487   6.301   3.340   6.098
 9530SOL     OW29488   1.653   3.014   3.320
 9530SOL    HW129489   1.568   3.066   3.328
 9530SOL    HW229490   1.698   3.037   3.234
 9531SOL     OW29491   4.998   4.440   2.623
 9531SOL    HW129492   5.028   4.358   2.671
 9531SOL    HW229493   4.984   4.420   2.526
 9532SOL     OW29494   0.158   6.061   1.116
 9532SOL    HW129495   0.130   6.121   1.041
 9532SOL    HW229496   0.152   6.112   1.202
 9533SOL     OW29497   0.247   5.658   4.740
 9533SOL    HW129498   0.227   5.666   4.838
 9533SOL    HW229499   0.162   5.664   4.688
 9534SOL     OW29500   6.463   4.143   5.019
 9534SOL    HW129501   6.425   4.234   5.036
 9534SOL    HW229502   6.394   4.073   5.037
 9535SOL     OW29503   1.541   0.657   5.743
 9535SOL    HW129504   1.496   0.578   5.783
 9535SOL    HW229505   1.524   0.738   5.798
 9536SOL     OW29506   2.985   3.952   5.462
 9536SOL    HW129507   2.978   3.937   5.363
 9536SOL    HW229508   3.008   4.048   5.480
 9537SOL     OW29509   2.697   0.001   4.431
 9537SOL    HW129510   2.703   6.952   4.356
 9537SOL    HW229511   2.619   0.061   4.418
 9538SOL     OW29512   5.721   0.683   3.744
 9538SOL    HW129513   5.678   0.606   3.697
 9538SOL    HW229514   5.730   0.761   3.681
 9539SOL     OW29515   3.661   3.687   4.147
 9539SOL    HW129516   3.678   3.771   4.198
 9539SOL    HW229517   3.712   3.690   4.061
 9540SOL     OW29518   6.173   4.724   4.154
 9540SOL    HW129519   6.078   4.699   4.134
 9540SOL    HW229520   6.205   4.790   4.086
 9541SOL     OW29521   3.240   0.260   6.072
 9541SOL    HW129522   3.185   0.330   6.028
 9541SOL    HW229523   3.314   0.232   6.012
 9542SOL     OW29524   4.755   4.380   4.998
 9542SOL    HW129525   4.779   4.286   4.977
 9542SOL    HW229526   4.694   4.416   4.927
 9543SOL     OW29527   3.638   0.754   5.404
 9543SOL    HW129528   3.637   0.654   5.414
 9543SOL    HW229529   3.699   0.794   5.474
 9544SOL     OW29530   6.405   1.906   3.789
 9544SOL    HW129531   6.491   1.947   3.757
 9544SOL    HW229532   6.329   1.969   3.771
 9545SOL     OW29533   5.667   5.933   4.209
 9545SOL    HW129534   5.581   5.881   4.216
 9545SOL    HW229535   5.706   5.920   4.118
 9546SOL     OW29536   3.731   2.017   5.381
 9546SOL    HW129537   3.725   1.948   5.309
 9546SOL    HW229538   3.772   2.100   5.344
 9547SOL     OW29539   2.805   5.087   4.399
 9547SOL    HW129540   2.860   5.005   4.416
 9547SOL    HW229541   2.865   5.165   4.383
 9548SOL     OW29542   5.846   4.459   5.616
 9548SOL    HW129543   5.867   4.395   5.542
 9548SOL    HW229544   5.892   4.547   5.598
 9549SOL     OW29545   2.899   2.639   1.354
 9549SOL    HW129546   2.982   2.610   1.306
 9549SOL    HW229547   2.854   2.559   1.393
 9550SOL     OW29548   0.147   1.362   0.413
 9550SOL    HW129549   0.074   1.408   0.361
 9550SOL    HW229550   0.205   1.430   0.457
 9551SOL     OW29551   5.677   2.011   5.946
 9551SOL    HW129552   5.691   2.049   6.038
 9551SOL    HW229553   5.635   2.080   5.888
 9552SOL     OW29554   1.642   6.374   4.273
 9552SOL    HW129555   1.593   6.361   4.359
 9552SOL    HW229556   1.604   6.454   4.225
 9553SOL     OW29557   6.281   2.266   6.766
 9553SOL    HW129558   6.190   2.298   6.741
 9553SOL    HW229559   6.318   2.209   6.693
 9554SOL     OW29560   2.676   0.189   2.038
 9554SOL    HW129561   2.704   0.244   1.960
 9554SOL    HW229562   2.616   0.243   2.097
 9555SOL     OW29563   1.169   0.844   2.671
 9555SOL    HW129564   1.248   0.879   2.723
 9555SOL    HW229565   1.200   0.816   2.580
 9556SOL     OW29566   1.920   3.938   1.696
 9556SOL    HW129567   1.962   3.892   1.618
 9556SOL    HW229568   1.861   4.012   1.663
 9557SOL     OW29569   6.751   5.701   2.164
 9557SOL    HW129570   6.757   5.704   2.064
 9557SOL    HW229571   6.829   5.650   2.201
 9558SOL     OW29572   5.811   6.202   5.367
 9558SOL    HW129573   5.754   6.121   5.380
 9558SOL    HW229574   5.889   6.178   5.308
 9559SOL     OW29575   0.089   4.846   1.127
 9559SOL    HW129576   0.142   4.920   1.086
 9559SOL    HW229577   0.131   4.819   1.213
 9560SOL     OW29578   2.032   1.803   3.187
 9560SOL    HW129579   2.074   1.877   3.240
 9560SOL    HW229580   2.012   1.836   3.095
 9561SOL     OW29581   1.932   0.425   0.613
 9561SOL    HW129582   1.850   0.481   0.605
 9561SOL    HW229583   2.009   0.473   0.570
 9562SOL     OW29584   2.519   0.355   5.554
 9562SOL    HW129585   2.583   0.409   5.608
 9562SOL    HW229586   2.543   0.259   5.560
 9563SOL     OW29587   6.891   6.437   0.570
 9563SOL    HW129588   6.953   6.497   0.620
 9563SOL    HW229589   6.943   6.372   0.514
 9564SOL     OW29590   2.750   0.438   0.276
 9564SOL    HW129591   2.715   0.388   0.355
 9564SOL    HW229592   2.800   0.375   0.217
 9565SOL     OW29593   3.677   0.534   4.822
 9565SOL    HW129594   3.615   0.478   4.766
 9565SOL    HW229595   3.718   0.606   4.765
 9566SOL     OW29596   2.651   4.988   0.096
 9566SOL    HW129597   2.730   4.955   0.045
 9566SOL    HW229598   2.680   5.061   0.159
 9567SOL     OW29599   5.091   5.308   0.942
 9567SOL    HW129600   5.126   5.215   0.930
 9567SOL    HW229601   4.995   5.312   0.914
 9568SOL     OW29602   4.396   2.530   6.390
 9568SOL    HW129603   4.323   2.588   6.426
 9568SOL    HW229604   4.363   2.437   6.380
 9569SOL     OW29605   0.028   1.403   2.242
 9569SOL    HW129606   0.102   1.409   2.310
 9569SOL    HW229607   0.041   1.474   2.173
 9570SOL     OW29608   0.767   3.341   1.969
 9570SOL    HW129609   0.798   3.430   1.934
 9570SOL    HW229610   0.844   3.277   1.969
 9571SOL     OW29611   3.558   4.336   6.259
 9571SOL    HW129612   3.460   4.327   6.242
 9571SOL    HW229613   3.598   4.397   6.190
 9572SOL     OW29614   2.054   4.888   1.939
 9572SOL    HW129615   2.045   4.803   1.887
 9572SOL    HW229616   2.092   4.959   1.879
 9573SOL     OW29617   0.366   3.074   6.761
 9573SOL    HW129618   0.388   3.141   6.833
 9573SOL    HW229619   0.363   3.121   6.673
 9574SOL     OW29620   3.987   3.528   3.371
 9574SOL    HW129621   3.943   3.592   3.434
 9574SOL    HW229622   3.918   3.465   3.335
 9575SOL     OW29623   0.777   0.991   1.215
 9575SOL    HW129624   0.871   1.024   1.221
 9575SOL    HW229625   0.729   1.040   1.143
 9576SOL     OW29626   2.001   0.789   1.732
 9576SOL    HW129627   1.921   0.835   1.770
 9576SOL    HW229628   1.973   0.730   1.656
 9577SOL     OW29629   1.184   0.634   6.217
 9577SOL    HW129630   1.232   0.639   6.129
 9577SOL    HW229631   1.106   0.572   6.209
 9578SOL     OW29632   0.407   3.819   3.415
 9578SOL    HW129633   0.468   3.760   3.361
 9578SOL    HW229634   0.313   3.786   3.407
 9579SOL     OW29635   1.682   4.982   2.630
 9579SOL    HW129636   1.707   5.069   2.674
 9579SOL    HW229637   1.693   4.991   2.531
 9580SOL     OW29638   4.637   4.074   0.622
 9580SOL    HW129639   4.705   4.145   0.640
 9580SOL    HW229640   4.625   4.064   0.523
 9581SOL     OW29641   0.160   5.258   5.936
 9581SOL    HW129642   0.089   5.318   5.900
 9581SOL    HW229643   0.158   5.259   6.036
 9582SOL     OW29644   5.021   5.185   6.234
 9582SOL    HW129645   4.947   5.221   6.177
 9582SOL    HW229646   4.983   5.141   6.315
 9583SOL     OW29647   3.874   4.093   1.285
 9583SOL    HW129648   3.777   4.086   1.262
 9583SOL    HW229649   3.928   4.099   1.201
 9584SOL     OW29650   0.142   5.451   0.079
 9584SOL    HW129651   0.096   5.503   0.151
 9584SOL    HW229652   0.167   5.361   0.114
 9585SOL     OW29653   0.005   0.443   4.657
 9585SOL    HW129654   6.973   0.505   4.594
 9585SOL    HW229655   0.057   0.376   4.604
 9586SOL     OW29656   5.440   4.930   1.888
 9586SOL    HW129657   5.522   4.942   1.833
 9586SOL    HW229658   5.453   4.974   1.977
 9587SOL     OW29659   0.606   0.874   1.731
 9587SOL    HW129660   0.534   0.854   1.665
 9587SOL    HW229661   0.651   0.789   1.758
 9588SOL     OW29662   6.529   1.470   1.391
 9588SOL    HW129663   6.595   1.531   1.348
 9588SOL    HW229664   6.438   1.487   1.354
 9589SOL     OW29665   1.978   4.864   6.884
 9589SOL    HW129666   2.015   4.790   6.828
 9589SOL    HW229667   2.023   4.863   6.974
 9590SOL     OW29668   6.607   3.302   2.077
 9590SOL    HW129669   6.600   3.397   2.108
 9590SOL    HW229670   6.700   3.268   2.095
 9591SOL     OW29671   3.021   6.296   5.925
 9591SOL    HW129672   3.102   6.354   5.919
 9591SOL    HW229673   2.941   6.352   5.946
 9592SOL     OW29674   3.974   4.135   1.023
 9592SOL    HW129675   4.062   4.157   0.982
 9592SOL    HW229676   3.911   4.212   1.011
 9593SOL     OW29677   0.230   0.810   5.526
 9593SOL    HW129678   0.191   0.742   5.464
 9593SOL    HW229679   0.234   0.773   5.618
 9594SOL     OW29680   1.753   5.823   2.442
 9594SOL    HW129681   1.848   5.795   2.451
 9594SOL    HW229682   1.695   5.762   2.496
 9595SOL     OW29683   0.717   4.440   5.083
 9595SOL    HW129684   0.766   4.383   5.016
 9595SOL    HW229685   0.777   4.460   5.160
 9596SOL     OW29686   6.836   5.685   6.294
 9596SOL    HW129687   6.898   5.739   6.351
 9596SOL    HW229688   6.872   5.678   6.202
 9597SOL     OW29689   0.636   4.322   1.546
 9597SOL    HW129690   0.696   4.387   1.592
 9597SOL    HW229691   0.609   4.250   1.609
 9598SOL     OW29692   1.204   3.678   4.034
 9598SOL    HW129693   1.303   3.690   4.046
 9598SOL    HW229694   1.185   3.643   3.942
 9599SOL     OW29695   4.336   0.288   4.578
 9599SOL    HW129696   4.308   0.205   4.530
 9599SOL    HW229697   4.392   0.344   4.517
 9600SOL     OW29698   1.998   0.022   6.453
 9600SOL    HW129699   2.064   7.007   6.521
 9600SOL    HW229700   2.025   7.005   6.363
 9601SOL     OW29701   5.392   3.983   1.318
 9601SOL    HW129702   5.405   4.024   1.228
 9601SOL    HW229703   5.463   3.915   1.335
 9602SOL     OW29704   6.752   5.170   6.182
 9602SOL    HW129705   6.746   5.261   6.223
 9602SOL    HW229706   6.755   5.178   6.083
 9603SOL     OW29707   3.875   1.508   3.921
 9603SOL    HW129708   3.878   1.574   3.996
 9603SOL    HW229709   3.833   1.551   3.841
 9604SOL     OW29710   4.111   0.150   0.074
 9604SOL    HW129711   4.037   0.083   0.078
 9604SOL    HW229712   4.193   0.107   0.037
 9605SOL     OW29713   0.892   5.294   3.522
 9605SOL    HW129714   0.935   5.217   3.475
 9605SOL    HW229715   0.841   5.349   3.456
 9606SOL     OW29716   1.836   6.396   6.265
 9606SOL    HW129717   1.793   6.306   6.271
 9606SOL    HW229718   1.848   6.434   6.357
 9607SOL     OW29719   1.944   1.634   0.033
 9607SOL    HW129720   1.894   1.654   6.966
 9607SOL    HW229721   1.887   1.654   0.113
 9608SOL     OW29722   6.625   5.899   2.322
 9608SOL    HW129723   6.677   5.828   2.275
 9608SOL    HW229724   6.679   5.984   2.323
 9609SOL     OW29725   1.988   4.057   6.356
 9609SOL    HW129726   1.998   3.962   6.384
 9609SOL    HW229727   1.973   4.114   6.437
 9610SOL     OW29728   1.691   5.175   4.102
 9610SOL    HW129729   1.668   5.130   4.016
 9610SOL    HW229730   1.636   5.258   4.112
 9611SOL     OW29731   0.191   6.332   6.744
 9611SOL    HW129732   0.210   6.358   6.838
 9611SOL    HW229733   0.095   6.307   6.734
 9612SOL     OW29734   0.722   4.017   1.988
 9612SOL    HW129735   0.818   4.041   1.978
 9612SOL    HW229736   0.707   3.973   2.077
 9613SOL     OW29737   4.841   6.560   3.692
 9613SOL    HW129738   4.854   6.539   3.595
 9613SOL    HW229739   4.760   6.512   3.726
 9614SOL     OW29740   3.118   1.926   0.378
 9614SOL    HW129741   3.217   1.921   0.362
 9614SOL    HW229742   3.096   2.007   0.432
 9615SOL     OW29743   0.627   0.246   0.931
 9615SOL    HW129744   0.573   0.267   1.012
 9615SOL    HW229745   0.715   0.208   0.958
 9616SOL     OW29746   4.570   3.351   1.424
 9616SOL    HW129747   4.565   3.258   1.387
 9616SOL    HW229748   4.537   3.350   1.519
 9617SOL     OW29749   2.254   2.720   3.894
 9617SOL    HW129750   2.226   2.681   3.806
 9617SOL    HW229751   2.248   2.820   3.889
 9618SOL     OW29752   4.081   6.730   5.437
 9618SOL    HW129753   4.087   6.641   5.392
 9618SOL    HW229754   4.007   6.729   5.503
 9619SOL     OW29755   1.212   6.731   0.124
 9619SOL    HW129756   1.281   6.779   0.070
 9619SOL    HW229757   1.121   6.766   0.100
 9620SOL     OW29758   4.083   2.118   6.994
 9620SOL    HW129759   4.161   2.180   7.005
 9620SOL    HW229760   4.032   2.113   0.063
 9621SOL     OW29761   0.733   0.897   2.291
 9621SOL    HW129762   0.678   0.979   2.272
 9621SOL    HW229763   0.713   0.863   2.383
 9622SOL     OW29764   6.651   0.612   0.234
 9622SOL    HW129765   6.558   0.578   0.218
 9622SOL    HW229766   6.713   0.534   0.241
 9623SOL     OW29767   2.985   4.467   5.986
 9623SOL    HW129768   2.897   4.420   5.982
 9623SOL    HW229769   2.972   4.565   5.975
 9624SOL     OW29770   6.647   4.647   2.776
 9624SOL    HW129771   6.742   4.620   2.789
 9624SOL    HW229772   6.640   4.705   2.695
 9625SOL     OW29773   4.961   5.843   0.400
 9625SOL    HW129774   4.990   5.769   0.461
 9625SOL    HW229775   4.951   5.807   0.307
 9626SOL     OW29776   3.063   6.252   6.852
 9626SOL    HW129777   3.113   6.309   6.786
 9626SOL    HW229778   3.024   6.174   6.805
 9627SOL     OW29779   0.111   4.875   3.034
 9627SOL    HW129780   0.182   4.853   2.967
 9627SOL    HW229781   0.118   4.971   3.060
 9628SOL     OW29782   5.734   5.116   6.528
 9628SOL    HW129783   5.675   5.124   6.447
 9628SOL    HW229784   5.743   5.205   6.572
 9629SOL     OW29785   0.420   6.548   2.743
 9629SOL    HW129786   0.501   6.569   2.798
 9629SOL    HW229787   0.408   6.449   2.739
 9630SOL     OW29788   6.376   6.142   5.521
 9630SOL    HW129789   6.387   6.042   5.527
 9630SOL    HW229790   6.376   6.181   5.613
 9631SOL     OW29791   5.823   0.441   0.116
 9631SOL    HW129792   5.851   0.354   0.075
 9631SOL    HW229793   5.873   0.516   0.071
 9632SOL     OW29794   2.429   5.510   2.759
 9632SOL    HW129795   2.463   5.420   2.729
 9632SOL    HW229796   2.331   5.516   2.739
 9633SOL     OW29797   4.987   4.880   6.929
 9633SOL    HW129798   4.993   4.975   6.901
 9633SOL    HW229799   5.078   4.846   6.953
 9634SOL     OW29800   0.999   6.961   4.527
 9634SOL    HW129801   0.961   6.872   4.554
 9634SOL    HW229802   0.934   7.008   4.468
 9635SOL     OW29803   1.231   4.597   5.782
 9635SOL    HW129804   1.172   4.535   5.730
 9635SOL    HW229805   1.279   4.546   5.852
 9636SOL     OW29806   4.294   1.838   5.952
 9636SOL    HW129807   4.352   1.909   5.915
 9636SOL    HW229808   4.220   1.818   5.888
 9637SOL     OW29809   2.510   1.887   6.691
 9637SOL    HW129810   2.570   1.965   6.707
 9637SOL    HW229811   2.455   1.870   6.773
 9638SOL     OW29812   6.900   3.211   0.017
 9638SOL    HW129813   6.837   3.133   0.018
 9638SOL    HW229814   6.897   3.255   6.944
 9639SOL     OW29815   3.931   1.934   2.273
 9639SOL    HW129816   3.842   1.961   2.236
 9639SOL    HW229817   3.956   1.996   2.348
 9640SOL     OW29818   3.165   1.884   3.026
 9640SOL    HW129819   3.187   1.870   3.123
 9640SOL    HW229820   3.075   1.844   3.006
 9641SOL     OW29821   5.389   6.391   0.985
 9641SOL    HW129822   5.438   6.330   0.924
 9641SOL    HW229823   5.455   6.453   1.029
 9642SOL     OW29824   2.583   6.149   4.739
 9642SOL    HW129825   2.543   6.185   4.823
 9642SOL    HW229826   2.681   6.171   4.737
 9643SOL     OW29827   6.305   4.435   3.963
 9643SOL    HW129828   6.296   4.461   3.867
 9643SOL    HW229829   6.289   4.515   4.021
 9644SOL     OW29830   0.707   5.027   4.597
 9644SOL    HW129831   0.714   4.997   4.692
 9644SOL    HW229832   0.632   4.979   4.552
 9645SOL     OW29833   3.589   4.887   3.738
 9645SOL    HW129834   3.626   4.980   3.747
 9645SOL    HW229835   3.520   4.885   3.666
 9646SOL     OW29836   2.893   4.798   2.158
 9646SOL    HW129837   2.843   4.714   2.139
 9646SOL    HW229838   2.971   4.805   2.095
 9647SOL     OW29839   0.354   5.763   1.309
 9647SOL    HW129840   0.375   5.714   1.224
 9647SOL    HW229841   0.255   5.775   1.316
 9648SOL     OW29842   3.567   2.069   0.199
 9648SOL    HW129843   3.646   2.015   0.168
 9648SOL    HW229844   3.566   2.156   0.149
 9649SOL     OW29845   2.954   5.347   6.807
 9649SOL    HW129846   2.983   5.386   6.895
 9649SOL    HW229847   2.884   5.406   6.767
 9650SOL     OW29848   4.701   4.483   3.215
 9650SOL    HW129849   4.620   4.425   3.202
 9650SOL    HW229850   4.762   4.472   3.137
 9651SOL     OW29851   6.581   0.747   6.823
 9651SOL    HW129852   6.508   0.781   6.881
 9651SOL    HW229853   6.658   0.811   6.826
 9652SOL     OW29854   1.792   4.362   0.877
 9652SOL    HW129855   1.830   4.382   0.967
 9652SOL    HW229856   1.833   4.423   0.809
 9653SOL     OW29857   4.381   5.453   4.870
 9653SOL    HW129858   4.400   5.467   4.967
 9653SOL    HW229859   4.462   5.414   4.825
 9654SOL     OW29860   3.862   3.330   2.439
 9654SOL    HW129861   3.895   3.329   2.345
 9654SOL    HW229862   3.888   3.246   2.485
 9655SOL     OW29863   6.878   0.798   0.183
 9655SOL    HW129864   6.871   0.897   0.193
 9655SOL    HW229865   6.789   0.756   0.199
 9656SOL     OW29866   3.768   2.271   0.909
 9656SOL    HW129867   3.822   2.208   0.966
 9656SOL    HW229868   3.693   2.309   0.964
 9657SOL     OW29869   5.918   1.735   2.925
 9657SOL    HW129870   5.895   1.698   3.015
 9657SOL    HW229871   5.929   1.660   2.860
 9658SOL     OW29872   5.462   1.532   2.682
 9658SOL    HW129873   5.548   1.582   2.675
 9658SOL    HW229874   5.438   1.497   2.592
 9659SOL     OW29875   6.754   3.674   0.718
 9659SOL    HW129876   6.835   3.730   0.700
 9659SOL    HW229877   6.678   3.734   0.744
 9660SOL     OW29878   6.907   6.152   2.137
 9660SOL    HW129879   6.858   6.118   2.057
 9660SOL    HW229880   6.986   6.207   2.107
 9661SOL     OW29881   3.170   6.440   1.830
 9661SOL    HW129882   3.224   6.374   1.880
 9661SOL    HW229883   3.123   6.501   1.894
 9662SOL     OW29884   4.778   2.486   5.048
 9662SOL    HW129885   4.870   2.488   5.087
 9662SOL    HW229886   4.726   2.566   5.080
 9663SOL     OW29887   0.368   6.122   3.658
 9663SOL    HW129888   0.364   6.065   3.741
 9663SOL    HW229889   0.288   6.103   3.601
 9664SOL     OW29890   5.589   6.456   4.097
 9664SOL    HW129891   5.621   6.417   4.011
 9664SOL    HW229892   5.546   6.384   4.153
 9665SOL     OW29893   5.058   6.527   0.078
 9665SOL    HW129894   5.143   6.575   0.058
 9665SOL    HW229895   5.055   6.503   0.175
 9666SOL     OW29896   5.953   3.751   1.379
 9666SOL    HW129897   5.968   3.652   1.384
 9666SOL    HW229898   6.036   3.795   1.345
 9667SOL     OW29899   4.043   3.255   5.157
 9667SOL    HW129900   4.027   3.164   5.118
 9667SOL    HW229901   3.986   3.268   5.238
 9668SOL     OW29902   0.014   0.651   5.954
 9668SOL    HW129903   0.053   0.656   6.046
 9668SOL    HW229904   0.080   0.683   5.887
 9669SOL     OW29905   1.204   0.377   2.147
 9669SOL    HW129906   1.114   0.390   2.105
 9669SOL    HW229907   1.263   0.327   2.084
 9670SOL     OW29908   6.086   4.737   6.672
 9670SOL    HW129909   6.057   4.833   6.670
 9670SOL    HW229910   6.161   4.723   6.608
 9671SOL     OW29911   6.004   5.002   6.624
 9671SOL    HW129912   5.992   5.063   6.546
 9671SOL    HW229913   6.036   5.055   6.703
 9672SOL     OW29914   1.603   5.972   4.099
 9672SOL    HW129915   1.524   6.034   4.097
 9672SOL    HW229916   1.590   5.900   4.030
 9673SOL     OW29917   5.253   3.768   0.433
 9673SOL    HW129918   5.246   3.669   0.448
 9673SOL    HW229919   5.349   3.796   0.443
 9674SOL     OW29920   2.753   6.007   3.407
 9674SOL    HW129921   2.701   5.962   3.334
 9674SOL    HW229922   2.835   5.952   3.427
 9675SOL     OW29923   5.709   2.228   0.233
 9675SOL    HW129924   5.660   2.228   0.320
 9675SOL    HW229925   5.645   2.208   0.158
 9676SOL     OW29926   1.280   3.833   5.589
 9676SOL    HW129927   1.208   3.795   5.532
 9676SOL    HW229928   1.317   3.916   5.546
 9677SOL     OW29929   1.266   5.076   4.840
 9677SOL    HW129930   1.259   5.142   4.765
 9677SOL    HW229931   1.356   5.084   4.882
 9678SOL     OW29932   3.187   3.511   3.303
 9678SOL    HW129933   3.106   3.570   3.311
 9678SOL    HW229934   3.159   3.415   3.308
 9679SOL     OW29935   2.407   1.109   2.138
 9679SOL    HW129936   2.367   1.164   2.212
 9679SOL    HW229937   2.353   1.124   2.054
 9680SOL     OW29938   4.777   1.082   3.009
 9680SOL    HW129939   4.840   1.123   2.943
 9680SOL    HW229940   4.820   1.003   3.052
 9681SOL     OW29941   3.102   1.124   0.188
 9681SOL    HW129942   3.056   1.035   0.180
 9681SOL    HW229943   3.132   1.136   0.282
 9682SOL     OW29944   5.136   4.841   4.090
 9682SOL    HW129945   5.054   4.894   4.066
 9682SOL    HW229946   5.169   4.792   4.009
 9683SOL     OW29947   2.687   5.532   0.745
 9683SOL    HW129948   2.606   5.567   0.793
 9683SOL    HW229949   2.748   5.609   0.724
 9684SOL     OW29950   0.452   3.103   5.429
 9684SOL    HW129951   0.421   3.043   5.355
 9684SOL    HW229952   0.389   3.180   5.438
 9685SOL     OW29953   2.508   4.337   1.082
 9685SOL    HW129954   2.606   4.318   1.085
 9685SOL    HW229955   2.490   4.424   1.128
 9686SOL     OW29956   6.507   1.332   6.742
 9686SOL    HW129957   6.422   1.385   6.745
 9686SOL    HW229958   6.501   1.264   6.669
 9687SOL     OW29959   1.740   0.604   4.308
 9687SOL    HW129960   1.728   0.597   4.407
 9687SOL    HW229961   1.695   0.687   4.275
 9688SOL     OW29962   0.474   2.704   2.553
 9688SOL    HW129963   0.447   2.655   2.636
 9688SOL    HW229964   0.467   2.803   2.568
 9689SOL     OW29965   1.509   5.591   6.865
 9689SOL    HW129966   1.418   5.561   6.837
 9689SOL    HW229967   1.578   5.539   6.816
 9690SOL     OW29968   6.114   5.974   6.778
 9690SOL    HW129969   6.031   5.920   6.789
 9690SOL    HW229970   6.114   6.019   6.689
 9691SOL     OW29971   2.833   5.062   1.548
 9691SOL    HW129972   2.818   4.993   1.618
 9691SOL    HW229973   2.749   5.115   1.534
 9692SOL     OW29974   3.629   5.572   2.757
 9692SOL    HW129975   3.725   5.599   2.763
 9692SOL    HW229976   3.613   5.493   2.817
 9693SOL     OW29977   5.981   4.911   1.550
 9693SOL    HW129978   5.993   4.990   1.490
 9693SOL    HW229979   6.025   4.929   1.638
 9694SOL     OW29980   1.923   0.826   0.239
 9694SOL    HW129981   1.908   0.918   0.203
 9694SOL    HW229982   1.872   0.815   0.324
 9695SOL     OW29983   0.147   3.787   2.231
 9695SOL    HW129984   0.222   3.745   2.180
 9695SOL    HW229985   0.174   3.796   2.327
 9696SOL     OW29986   5.297   3.508   0.528
 9696SOL    HW129987   5.248   3.551   0.604
 9696SOL    HW229988   5.314   3.412   0.549
 9697SOL     OW29989   0.499   5.929   6.656
 9697SOL    HW129990   0.416   5.985   6.661
 9697SOL    HW229991   0.558   5.962   6.582
 9698SOL     OW29992   4.353   0.973   5.882
 9698SOL    HW129993   4.355   1.069   5.907
 9698SOL    HW229994   4.416   0.922   5.940
 9699SOL     OW29995   6.911   5.316   6.570
 9699SOL    HW129996   7.004   5.294   6.539
 9699SOL    HW229997   6.866   5.372   6.502
 9700SOL     OW29998   4.451   5.145   5.054
 9700SOL    HW129999   4.479   5.088   4.976
 9700SOL    HW230000   4.385   5.095   5.109
 9701SOL     OW30001   4.003   4.871   5.061
 9701SOL    HW130002   3.930   4.934   5.085
 9701SOL    HW230003   4.012   4.801   5.133
 9702SOL     OW30004   4.661   0.212   7.004
 9702SOL    HW130005   4.673   0.173   0.079
 9702SOL    HW230006   4.685   0.144   6.934
 9703SOL     OW30007   4.275   4.740   4.002
 9703SOL    HW130008   4.324   4.806   4.059
 9703SOL    HW230009   4.177   4.747   4.021
 9704SOL     OW30010   3.304   0.871   2.890
 9704SOL    HW130011   3.263   0.854   2.980
 9704SOL    HW230012   3.264   0.809   2.822
 9705SOL     OW30013   5.887   4.747   6.068
 9705SOL    HW130014   5.850   4.801   6.144
 9705SOL    HW230015   5.852   4.653   6.074
 9706SOL     OW30016   0.510   2.982   1.111
 9706SOL    HW130017   0.553   3.008   1.198
 9706SOL    HW230018   0.560   2.906   1.070
 9707SOL     OW30019   6.454   4.745   1.678
 9707SOL    HW130020   6.446   4.671   1.745
 9707SOL    HW230021   6.363   4.773   1.649
 9708SOL     OW30022   1.283   2.080   2.510
 9708SOL    HW130023   1.261   2.093   2.606
 9708SOL    HW230024   1.228   2.142   2.454
 9709SOL     OW30025   6.077   6.125   3.157
 9709SOL    HW130026   6.089   6.033   3.120
 9709SOL    HW230027   6.123   6.191   3.097
 9710SOL     OW30028   0.163   1.428   1.849
 9710SOL    HW130029   0.221   1.358   1.808
 9710SOL    HW230030   0.067   1.400   1.843
 9711SOL     OW30031   2.075   4.750   6.277
 9711SOL    HW130032   2.068   4.651   6.269
 9711SOL    HW230033   2.097   4.789   6.188
 9712SOL     OW30034   6.192   4.451   6.369
 9712SOL    HW130035   6.143   4.439   6.283
 9712SOL    HW230036   6.132   4.427   6.446
 9713SOL     OW30037   1.423   5.005   3.148
 9713SOL    HW130038   1.421   5.104   3.138
 9713SOL    HW230039   1.476   4.964   3.073
 9714SOL     OW30040   2.981   0.530   0.393
 9714SOL    HW130041   2.901   0.503   0.341
 9714SOL    HW230042   2.953   0.587   0.471
 9715SOL     OW30043   5.432   3.995   6.407
 9715SOL    HW130044   5.500   4.017   6.337
 9715SOL    HW230045   5.346   4.040   6.385
 9716SOL     OW30046   3.709   3.200   0.124
 9716SOL    HW130047   3.644   3.276   0.122
 9716SOL    HW230048   3.786   3.220   0.064
 9717SOL     OW30049   5.122   6.178   6.096
 9717SOL    HW130050   5.025   6.163   6.113
 9717SOL    HW230051   5.169   6.090   6.087
 9718SOL     OW30052   5.143   2.360   0.392
 9718SOL    HW130053   5.238   2.357   0.424
 9718SOL    HW230054   5.081   2.348   0.470
 9719SOL     OW30055   6.468   1.587   6.419
 9719SOL    HW130056   6.384   1.637   6.440
 9719SOL    HW230057   6.540   1.615   6.483
 9720SOL     OW30058   6.977   5.491   2.238
 9720SOL    HW130059   0.015   5.573   2.223
 9720SOL    HW230060   6.995   5.456   2.330
 9721SOL     OW30061   0.142   2.164   1.731
 9721SOL    HW130062   0.232   2.193   1.698
 9721SOL    HW230063   0.141   2.065   1.743
 9722SOL     OW30064   6.602   0.431   4.061
 9722SOL    HW130065   6.626   0.335   4.045
 9722SOL    HW230066   6.578   0.444   4.157
 9723SOL     OW30067   2.276   6.336   3.157
 9723SOL    HW130068   2.370   6.327   3.125
 9723SOL    HW230069   2.226   6.396   3.095
 9724SOL     OW30070   1.428   4.279   0.416
 9724SOL    HW130071   1.521   4.306   0.439
 9724SOL    HW230072   1.372   4.275   0.499
 9725SOL     OW30073   3.637   4.687   6.309
 9725SOL    HW130074   3.643   4.638   6.396
 9725SOL    HW230075   3.648   4.622   6.234
 9726SOL     OW30076   5.388   0.061   3.888
 9726SOL    HW130077   5.467   0.028   3.939
 9726SOL    HW230078   5.328   0.112   3.948
 9727SOL     OW30079   0.643   3.829   5.606
 9727SOL    HW130080   0.593   3.830   5.519
 9727SOL    HW230081   0.594   3.773   5.672
 9728SOL     OW30082   0.305   0.832   6.414
 9728SOL    HW130083   0.390   0.877   6.387
 9728SOL    HW230084   0.300   0.827   6.513
 9729SOL     OW30085   0.994   4.459   3.128
 9729SOL    HW130086   1.036   4.460   3.219
 9729SOL    HW230087   1.048   4.400   3.067
 9730SOL     OW30088   0.676   3.305   3.442
 9730SOL    HW130089   0.657   3.223   3.497
 9730SOL    HW230090   0.590   3.349   3.418
 9731SOL     OW30091   4.490   4.209   1.074
 9731SOL    HW130092   4.400   4.165   1.082
 9731SOL    HW230093   4.561   4.139   1.066
 9732SOL     OW30094   6.114   5.563   2.900
 9732SOL    HW130095   6.200   5.614   2.894
 9732SOL    HW230096   6.095   5.520   2.812
 9733SOL     OW30097   5.594   5.049   0.774
 9733SOL    HW130098   5.616   5.145   0.759
 9733SOL    HW230099   5.659   4.992   0.724
 9734SOL     OW30100   6.322   1.367   2.328
 9734SOL    HW130101   6.419   1.363   2.354
 9734SOL    HW230102   6.277   1.441   2.377
 9735SOL     OW30103   2.613   4.638   3.106
 9735SOL    HW130104   2.636   4.541   3.098
 9735SOL    HW230105   2.632   4.670   3.199
 9736SOL     OW30106   6.250   2.051   6.538
 9736SOL    HW130107   6.339   2.019   6.507
 9736SOL    HW230108   6.190   2.066   6.460
 9737SOL     OW30109   5.911   2.705   4.131
 9737SOL    HW130110   5.862   2.653   4.201
 9737SOL    HW230111   5.866   2.691   4.043
 9738SOL     OW30112   1.649   0.120   1.403
 9738SOL    HW130113   1.681   0.027   1.420
 9738SOL    HW230114   1.558   0.118   1.361
 9739SOL     OW30115   5.862   4.887   2.256
 9739SOL    HW130116   5.876   4.942   2.174
 9739SOL    HW230117   5.770   4.850   2.256
 9740SOL     OW30118   6.504   2.195   3.132
 9740SOL    HW130119   6.534   2.269   3.193
 9740SOL    HW230120   6.430   2.228   3.073
 9741SOL     OW30121   5.076   1.714   3.335
 9741SOL    HW130122   5.085   1.668   3.246
 9741SOL    HW230123   4.979   1.722   3.357
 9742SOL     OW30124   4.304   0.001   1.234
 9742SOL    HW130125   4.256   6.999   1.148
 9742SOL    HW230126   4.331   6.931   1.277
 9743SOL     OW30127   0.708   1.815   4.890
 9743SOL    HW130128   0.663   1.877   4.825
 9743SOL    HW230129   0.731   1.865   4.973
 9744SOL     OW30130   0.445   0.405   3.076
 9744SOL    HW130131   0.376   0.334   3.061
 9744SOL    HW230132   0.440   0.473   3.003
 9745SOL     OW30133   6.347   2.547   6.280
 9745SOL    HW130134   6.391   2.508   6.199
 9745SOL    HW230135   6.402   2.525   6.361
 9746SOL     OW30136   6.586   1.089   5.833
 9746SOL    HW130137   6.640   1.053   5.758
 9746SOL    HW230138   6.489   1.070   5.817
 9747SOL     OW30139   2.092   0.633   1.222
 9747SOL    HW130140   2.109   0.724   1.259
 9747SOL    HW230141   2.062   0.640   1.127
 9748SOL     OW30142   0.468   1.720   3.336
 9748SOL    HW130143   0.471   1.751   3.241
 9748SOL    HW230144   0.500   1.792   3.397
 9749SOL     OW30145   1.959   1.622   5.192
 9749SOL    HW130146   1.909   1.556   5.135
 9749SOL    HW230147   2.004   1.689   5.133
 9750SOL     OW30148   5.898   4.493   3.672
 9750SOL    HW130149   5.828   4.444   3.620
 9750SOL    HW230150   5.931   4.570   3.618
 9751SOL     OW30151   0.888   0.696   0.499
 9751SOL    HW130152   0.865   0.666   0.592
 9751SOL    HW230153   0.931   0.620   0.450
 9752SOL     OW30154   5.147   1.724   6.028
 9752SOL    HW130155   5.086   1.664   6.080
 9752SOL    HW230156   5.097   1.806   6.000
 9753SOL     OW30157   5.995   6.014   5.652
 9753SOL    HW130158   6.083   5.976   5.681
 9753SOL    HW230159   5.993   6.112   5.669
 9754SOL     OW30160   0.777   1.251   6.630
 9754SOL    HW130161   0.779   1.347   6.601
 9754SOL    HW230162   0.860   1.205   6.598
 9755SOL     OW30163   4.362   3.652   5.345
 9755SOL    HW130164   4.290   3.714   5.377
 9755SOL    HW230165   4.358   3.646   5.245
 9756SOL     OW30166   5.891   3.151   0.588
 9756SOL    HW130167   5.989   3.136   0.588
 9756SOL    HW230168   5.852   3.114   0.672
 9757SOL     OW30169   5.829   3.777   3.569
 9757SOL    HW130170   5.898   3.723   3.521
 9757SOL    HW230171   5.747   3.721   3.584
 9758SOL     OW30172   2.569   0.039   6.939
 9758SOL    HW130173   2.650   0.036   6.880
 9758SOL    HW230174   2.514   0.119   6.916
 9759SOL     OW30175   2.118   6.852   6.621
 9759SOL    HW130176   2.210   6.874   6.652
 9759SOL    HW230177   2.053   6.867   6.695
 9760SOL     OW30178   4.850   3.101   5.213
 9760SOL    HW130179   4.946   3.074   5.207
 9760SOL    HW230180   4.841   3.197   5.189
 9761SOL     OW30181   6.520   0.492   2.577
 9761SOL    HW130182   6.469   0.578   2.569
 9761SOL    HW230183   6.458   0.420   2.609
 9762SOL     OW30184   3.740   1.630   4.375
 9762SOL    HW130185   3.788   1.587   4.452
 9762SOL    HW230186   3.648   1.657   4.403
 9763SOL     OW30187   4.887   2.164   1.906
 9763SOL    HW130188   4.925   2.182   1.815
 9763SOL    HW230189   4.937   2.217   1.974
 9764SOL     OW30190   0.445   2.947   3.190
 9764SOL    HW130191   0.531   2.995   3.209
 9764SOL    HW230192   0.369   3.011   3.200
 9765SOL     OW30193   6.864   1.394   3.064
 9765SOL    HW130194   6.842   1.360   2.973
 9765SOL    HW230195   6.792   1.456   3.096
 9766SOL     OW30196   2.763   0.342   3.521
 9766SOL    HW130197   2.685   0.401   3.545
 9766SOL    HW230198   2.735   0.246   3.528
 9767SOL     OW30199   5.126   1.481   5.402
 9767SOL    HW130200   5.180   1.526   5.331
 9767SOL    HW230201   5.131   1.534   5.487
 9768SOL     OW30202   5.535   1.853   2.508
 9768SOL    HW130203   5.474   1.792   2.459
 9768SOL    HW230204   5.553   1.934   2.452
 9769SOL     OW30205   2.595   0.375   2.688
 9769SOL    HW130206   2.500   0.404   2.700
 9769SOL    HW230207   2.602   0.319   2.606
 9770SOL     OW30208   5.467   6.973   6.894
 9770SOL    HW130209   5.524   6.918   6.955
 9770SOL    HW230210   5.428   0.033   6.946
 9771SOL     OW30211   2.946   5.376   0.912
 9771SOL    HW130212   2.884   5.358   0.836
 9771SOL    HW230213   2.894   5.378   0.998
 9772SOL     OW30214   1.427   6.194   2.842
 9772SOL    HW130215   1.442   6.211   2.744
 9772SOL    HW230216   1.335   6.224   2.866
 9773SOL     OW30217   5.263   6.393   4.170
 9773SOL    HW130218   5.285   6.485   4.137
 9773SOL    HW230219   5.309   6.377   4.257
 9774SOL     OW30220   6.572   5.044   1.749
 9774SOL    HW130221   6.545   5.058   1.845
 9774SOL    HW230222   6.506   4.983   1.705
 9775SOL     OW30223   2.251   0.826   3.934
 9775SOL    HW130224   2.343   0.787   3.943
 9775SOL    HW230225   2.258   0.925   3.926
 9776SOL     OW30226   0.951   5.021   4.213
 9776SOL    HW130227   0.921   5.102   4.161
 9776SOL    HW230228   0.972   5.047   4.307
 9777SOL     OW30229   5.076   4.367   6.080
 9777SOL    HW130230   5.156   4.425   6.094
 9777SOL    HW230231   5.094   4.276   6.116
 9778SOL     OW30232   0.577   0.794   3.247
 9778SOL    HW130233   0.573   0.835   3.155
 9778SOL    HW230234   0.602   0.698   3.239
 9779SOL     OW30235   2.069   0.741   4.882
 9779SOL    HW130236   2.141   0.671   4.883
 9779SOL    HW230237   2.035   0.755   4.975
 9780SOL     OW30238   2.231   1.354   1.046
 9780SOL    HW130239   2.324   1.387   1.032
 9780SOL    HW230240   2.200   1.304   0.965
 9781SOL     OW30241   1.494   3.718   4.328
 9781SOL    HW130242   1.495   3.672   4.239
 9781SOL    HW230243   1.577   3.694   4.379
 9782SOL     OW30244   6.911   0.591   1.746
 9782SOL    HW130245   6.864   0.637   1.821
 9782SOL    HW230246   6.975   0.524   1.782
 9783SOL     OW30247   5.194   2.013   3.406
 9783SOL    HW130248   5.136   1.932   3.417
 9783SOL    HW230249   5.223   2.020   3.310
 9784SOL     OW30250   4.036   1.315   4.313
 9784SOL    HW130251   4.108   1.356   4.255
 9784SOL    HW230252   4.003   1.231   4.270
 9785SOL     OW30253   6.775   3.961   5.660
 9785SOL    HW130254   6.753   4.017   5.580
 9785SOL    HW230255   6.696   3.961   5.723
 9786SOL     OW30256   2.485   4.681   6.915
 9786SOL    HW130257   2.431   4.625   6.978
 9786SOL    HW230258   2.443   4.771   6.904
 9787SOL     OW30259   4.447   3.361   1.668
 9787SOL    HW130260   4.367   3.406   1.629
 9787SOL    HW230261   4.419   3.277   1.715
 9788SOL     OW30262   0.794   0.626   3.722
 9788SOL    HW130263   0.878   0.667   3.685
 9788SOL    HW230264   0.756   0.686   3.792
 9789SOL     OW30265   1.219   5.638   0.393
 9789SOL    HW130266   1.306   5.677   0.365
 9789SOL    HW230267   1.204   5.551   0.345
 9790SOL     OW30268   5.645   3.979   5.441
 9790SOL    HW130269   5.563   4.014   5.396
 9790SOL    HW230270   5.721   3.979   5.376
 9791SOL     OW30271   0.339   1.635   2.952
 9791SOL    HW130272   0.271   1.643   3.025
 9791SOL    HW230273   0.345   1.540   2.923
 9792SOL     OW30274   5.392   5.705   1.968
 9792SOL    HW130275   5.462   5.759   1.922
 9792SOL    HW230276   5.436   5.630   2.018
 9793SOL     OW30277   5.238   4.849   3.578
 9793SOL    HW130278   5.173   4.861   3.503
 9793SOL    HW230279   5.227   4.924   3.644
 9794SOL     OW30280   6.269   4.156   0.214
 9794SOL    HW130281   6.367   4.140   0.205
 9794SOL    HW230282   6.242   4.230   0.152
 9795SOL     OW30283   1.601   2.182   4.004
 9795SOL    HW130284   1.518   2.170   4.060
 9795SOL    HW230285   1.575   2.200   3.909
 9796SOL     OW30286   4.166   2.552   1.348
 9796SOL    HW130287   4.081   2.602   1.333
 9796SOL    HW230288   4.153   2.456   1.323
 9797SOL     OW30289   3.326   5.175   6.555
 9797SOL    HW130290   3.381   5.092   6.551
 9797SOL    HW230291   3.383   5.253   6.528
 9798SOL     OW30292   2.712   0.412   1.204
 9798SOL    HW130293   2.807   0.444   1.215
 9798SOL    HW230294   2.674   0.390   1.294
 9799SOL     OW30295   3.358   3.854   3.342
 9799SOL    HW130296   3.435   3.793   3.327
 9799SOL    HW230297   3.290   3.841   3.271
 9800SOL     OW30298   3.629   6.245   5.071
 9800SOL    HW130299   3.701   6.310   5.097
 9800SOL    HW230300   3.636   6.225   4.974
 9801SOL     OW30301   4.798   4.310   0.634
 9801SOL    HW130302   4.796   4.291   0.536
 9801SOL    HW230303   4.866   4.382   0.653
 9802SOL     OW30304   0.785   2.727   1.699
 9802SOL    HW130305   0.833   2.814   1.704
 9802SOL    HW230306   0.803   2.673   1.782
 9803SOL     OW30307   6.201   1.567   0.172
 9803SOL    HW130308   6.176   1.604   0.083
 9803SOL    HW230309   6.138   1.493   0.197
 9804SOL     OW30310   0.880   6.240   2.805
 9804SOL    HW130311   0.867   6.155   2.855
 9804SOL    HW230312   0.914   6.220   2.713
 9805SOL     OW30313   0.989   6.021   5.360
 9805SOL    HW130314   0.907   5.967   5.378
 9805SOL    HW230315   1.022   6.063   5.445
 9806SOL     OW30316   1.432   1.660   0.421
 9806SOL    HW130317   1.372   1.698   0.492
 9806SOL    HW230318   1.523   1.645   0.458
 9807SOL     OW30319   2.046   3.246   0.195
 9807SOL    HW130320   1.972   3.286   0.250
 9807SOL    HW230321   2.010   3.219   0.105
 9808SOL     OW30322   5.848   1.622   5.419
 9808SOL    HW130323   5.860   1.701   5.360
 9808SOL    HW230324   5.767   1.571   5.390
 9809SOL     OW30325   0.756   1.965   6.842
 9809SOL    HW130326   0.749   1.889   6.778
 9809SOL    HW230327   0.685   1.957   6.911
 9810SOL     OW30328   2.491   2.524   4.135
 9810SOL    HW130329   2.446   2.442   4.097
 9810SOL    HW230330   2.426   2.600   4.133
 9811SOL     OW30331   5.482   5.602   3.906
 9811SOL    HW130332   5.431   5.686   3.888
 9811SOL    HW230333   5.470   5.539   3.830
 9812SOL     OW30334   3.029   2.127   5.492
 9812SOL    HW130335   3.073   2.215   5.511
 9812SOL    HW230336   3.037   2.106   5.395
 9813SOL     OW30337   5.880   0.542   6.788
 9813SOL    HW130338   5.899   0.445   6.774
 9813SOL    HW230339   5.793   0.565   6.745
 9814SOL     OW30340   0.390   0.984   0.223
 9814SOL    HW130341   0.304   0.992   0.172
 9814SOL    HW230342   0.465   0.969   0.159
 9815SOL     OW30343   5.830   3.892   2.765
 9815SOL    HW130344   5.763   3.846   2.823
 9815SOL    HW230345   5.890   3.949   2.821
 9816SOL     OW30346   0.370   1.856   5.961
 9816SOL    HW130347   0.298   1.846   6.030
 9816SOL    HW230348   0.435   1.926   5.989
 9817SOL     OW30349   2.541   5.741   2.690
 9817SOL    HW130350   2.613   5.723   2.624
 9817SOL    HW230351   2.501   5.654   2.720
 9818SOL     OW30352   1.862   0.843   4.467
 9818SOL    HW130353   1.900   0.780   4.398
 9818SOL    HW230354   1.845   0.793   4.552
 9819SOL     OW30355   4.722   2.888   4.811
 9819SOL    HW130356   4.786   2.842   4.872
 9819SOL    HW230357   4.648   2.826   4.786
 9820SOL     OW30358   3.642   3.263   6.152
 9820SOL    HW130359   3.649   3.170   6.188
 9820SOL    HW230360   3.668   3.329   6.222
 9821SOL     OW30361   4.776   0.824   0.490
 9821SOL    HW130362   4.872   0.839   0.470
 9821SOL    HW230363   4.761   0.824   0.589
 9822SOL     OW30364   2.819   5.289   3.695
 9822SOL    HW130365   2.760   5.360   3.657
 9822SOL    HW230366   2.785   5.199   3.667
 9823SOL     OW30367   2.192   6.932   1.816
 9823SOL    HW130368   2.194   0.002   1.764
 9823SOL    HW230369   2.246   6.863   1.768
 9824SOL     OW30370   2.082   5.462   4.399
 9824SOL    HW130371   2.147   5.538   4.399
 9824SOL    HW230372   2.021   5.471   4.321
 9825SOL     OW30373   5.529   6.726   4.728
 9825SOL    HW130374   5.478   6.805   4.693
 9825SOL    HW230375   5.541   6.736   4.827
 9826SOL     OW30376   3.518   6.415   5.665
 9826SOL    HW130377   3.478   6.353   5.732
 9826SOL    HW230378   3.518   6.372   5.575
 9827SOL     OW30379   2.080   3.984   3.245
 9827SOL    HW130380   2.037   3.928   3.174
 9827SOL    HW230381   2.119   3.925   3.316
 9828SOL     OW30382   2.907   2.450   5.284
 9828SOL    HW130383   3.000   2.443   5.247
 9828SOL    HW230384   2.850   2.380   5.242
 9829SOL     OW30385   4.661   5.774   6.244
 9829SOL    HW130386   4.713   5.811   6.167
 9829SOL    HW230387   4.701   5.687   6.272
 9830SOL     OW30388   5.144   1.535   1.905
 9830SOL    HW130389   5.230   1.564   1.946
 9830SOL    HW230390   5.162   1.492   1.816
 9831SOL     OW30391   1.074   4.682   2.430
 9831SOL    HW130392   0.979   4.659   2.408
 9831SOL    HW230393   1.112   4.611   2.490
 9832SOL     OW30394   4.658   5.619   1.890
 9832SOL    HW130395   4.719   5.621   1.970
 9832SOL    HW230396   4.653   5.527   1.853
 9833SOL     OW30397   3.244   3.284   3.490
 9833SOL    HW130398   3.263   3.242   3.579
 9833SOL    HW230399   3.170   3.234   3.445
 9834SOL     OW30400   1.958   4.619   5.442
 9834SOL    HW130401   2.027   4.560   5.484
 9834SOL    HW230402   1.930   4.689   5.507
 9835SOL     OW30403   3.715   3.225   4.177
 9835SOL    HW130404   3.765   3.140   4.162
 9835SOL    HW230405   3.635   3.229   4.117
 9836SOL     OW30406   0.672   4.157   4.346
 9836SOL    HW130407   0.695   4.202   4.432
 9836SOL    HW230408   0.695   4.060   4.353
 9837SOL     OW30409   4.776   0.581   2.426
 9837SOL    HW130410   4.719   0.535   2.357
 9837SOL    HW230411   4.822   0.513   2.482
 9838SOL     OW30412   1.639   6.547   0.583
 9838SOL    HW130413   1.704   6.556   0.508
 9838SOL    HW230414   1.640   6.454   0.619
 9839SOL     OW30415   4.843   6.241   3.135
 9839SOL    HW130416   4.853   6.178   3.058
 9839SOL    HW230417   4.933   6.280   3.157
 9840SOL     OW30418   4.813   1.519   0.588
 9840SOL    HW130419   4.724   1.542   0.549
 9840SOL    HW230420   4.875   1.596   0.577
 9841SOL     OW30421   1.770   4.503   3.810
 9841SOL    HW130422   1.841   4.535   3.747
 9841SOL    HW230423   1.682   4.498   3.762
 9842SOL     OW30424   3.403   3.318   0.979
 9842SOL    HW130425   3.367   3.412   0.975
 9842SOL    HW230426   3.331   3.254   0.953
 9843SOL     OW30427   0.058   6.778   1.595
 9843SOL    HW130428   0.053   6.874   1.569
 9843SOL    HW230429   0.004   6.763   1.678
 9844SOL     OW30430   6.102   1.042   4.104
 9844SOL    HW130431   6.177   1.063   4.041
 9844SOL    HW230432   6.139   1.024   4.195
 9845SOL     OW30433   1.446   2.421   2.833
 9845SOL    HW130434   1.511   2.398   2.906
 9845SOL    HW230435   1.454   2.517   2.810
 9846SOL     OW30436   4.294   1.838   0.906
 9846SOL    HW130437   4.385   1.797   0.916
 9846SOL    HW230438   4.292   1.892   0.822
 9847SOL     OW30439   4.068   3.217   2.245
 9847SOL    HW130440   4.099   3.173   2.330
 9847SOL    HW230441   4.096   3.313   2.245
 9848SOL     OW30442   3.946   5.050   6.025
 9848SOL    HW130443   4.018   5.098   5.974
 9848SOL    HW230444   3.880   5.012   5.960
 9849SOL     OW30445   0.823   6.937   6.482
 9849SOL    HW130446   0.782   6.846   6.485
 9849SOL    HW230447   0.828   6.968   6.388
 9850SOL     OW30448   0.238   0.687   3.636
 9850SOL    HW130449   0.320   0.744   3.625
 9850SOL    HW230450   0.170   0.737   3.691
 9851SOL     OW30451   2.146   6.569   4.567
 9851SOL    HW130452   2.089   6.559   4.485
 9851SOL    HW230453   2.142   6.485   4.621
 9852SOL     OW30454   1.669   1.758   5.420
 9852SOL    HW130455   1.765   1.740   5.441
 9852SOL    HW230456   1.658   1.769   5.321
 9853SOL     OW30457   6.419   3.351   5.342
 9853SOL    HW130458   6.401   3.304   5.427
 9853SOL    HW230459   6.443   3.447   5.361
 9854SOL     OW30460   0.511   5.220   4.283
 9854SOL    HW130461   0.486   5.239   4.378
 9854SOL    HW230462   0.521   5.307   4.234
 9855SOL     OW30463   1.607   3.768   0.742
 9855SOL    HW130464   1.570   3.703   0.809
 9855SOL    HW230465   1.690   3.731   0.701
 9856SOL     OW30466   5.510   4.779   4.153
 9856SOL    HW130467   5.546   4.831   4.076
 9856SOL    HW230468   5.433   4.724   4.123
 9857SOL     OW30469   5.750   2.947   2.787
 9857SOL    HW130470   5.746   3.033   2.837
 9857SOL    HW230471   5.667   2.936   2.732
 9858SOL     OW30472   0.498   6.788   1.404
 9858SOL    HW130473   0.475   6.873   1.451
 9858SOL    HW230474   0.414   6.744   1.372
 9859SOL     OW30475   6.611   4.469   4.171
 9859SOL    HW130476   6.564   4.556   4.187
 9859SOL    HW230477   6.620   4.454   4.073
 9860SOL     OW30478   1.679   2.296   4.677
 9860SOL    HW130479   1.632   2.287   4.764
 9860SOL    HW230480   1.721   2.386   4.670
 9861SOL     OW30481   3.003   0.500   3.522
 9861SOL    HW130482   2.924   0.441   3.508
 9861SOL    HW230483   3.068   0.455   3.584
 9862SOL     OW30484   2.647   3.757   0.778
 9862SOL    HW130485   2.732   3.746   0.830
 9862SOL    HW230486   2.588   3.678   0.794
 9863SOL     OW30487   3.354   5.886   0.961
 9863SOL    HW130488   3.346   5.986   0.955
 9863SOL    HW230489   3.407   5.862   1.042
 9864SOL     OW30490   3.397   0.480   5.208
 9864SOL    HW130491   3.485   0.506   5.167
 9864SOL    HW230492   3.366   0.553   5.269
 9865SOL     OW30493   0.994   6.370   4.510
 9865SOL    HW130494   0.949   6.393   4.424
 9865SOL    HW230495   1.049   6.447   4.541
 9866SOL     OW30496   6.022   4.295   4.798
 9866SOL    HW130497   6.120   4.314   4.785
 9866SOL    HW230498   5.971   4.381   4.795
 9867SOL     OW30499   6.324   2.078   2.628
 9867SOL    HW130500   6.344   1.981   2.615
 9867SOL    HW230501   6.228   2.096   2.608
 9868SOL     OW30502   0.302   3.648   4.449
 9868SOL    HW130503   0.213   3.640   4.405
 9868SOL    HW230504   0.332   3.557   4.479
 9869SOL     OW30505   0.453   2.703   0.803
 9869SOL    HW130506   0.497   2.706   0.893
 9869SOL    HW230507   0.506   2.756   0.738
 9870SOL     OW30508   4.093   0.170   2.797
 9870SOL    HW130509   4.158   0.115   2.849
 9870SOL    HW230510   4.084   0.131   2.705
 9871SOL     OW30511   6.401   3.188   5.753
 9871SOL    HW130512   6.390   3.093   5.782
 9871SOL    HW230513   6.497   3.203   5.727
 9872SOL     OW30514   2.587   5.180   4.878
 9872SOL    HW130515   2.567   5.082   4.870
 9872SOL    HW230516   2.619   5.215   4.789
 9873SOL     OW30517   2.464   2.217   6.416
 9873SOL    HW130518   2.448   2.119   6.428
 9873SOL    HW230519   2.563   2.235   6.417
 9874SOL     OW30520   0.277   3.311   5.771
 9874SOL    HW130521   0.193   3.362   5.791
 9874SOL    HW230522   0.257   3.213   5.771
 9875SOL     OW30523   6.867   5.822   2.691
 9875SOL    HW130524   6.877   5.898   2.756
 9875SOL    HW230525   6.771   5.815   2.662
 9876SOL     OW30526   5.344   1.087   3.577
 9876SOL    HW130527   5.341   1.077   3.477
 9876SOL    HW230528   5.379   1.002   3.618
 9877SOL     OW30529   6.822   4.396   4.367
 9877SOL    HW130530   6.733   4.428   4.334
 9877SOL    HW230531   6.834   4.422   4.462
 9878SOL     OW30532   2.632   3.661   6.147
 9878SOL    HW130533   2.728   3.657   6.175
 9878SOL    HW230534   2.607   3.575   6.101
 9879SOL     OW30535   6.964   4.643   5.021
 9879SOL    HW130536   0.039   4.603   5.035
 9879SOL    HW230537   6.925   4.606   4.937
 9880SOL     OW30538   2.349   0.158   1.118
 9880SOL    HW130539   2.439   0.154   1.075
 9880SOL    HW230540   2.329   0.252   1.145
 9881SOL     OW30541   6.740   1.562   4.340
 9881SOL    HW130542   6.765   1.619   4.419
 9881SOL    HW230543   6.783   1.472   4.349
 9882SOL     OW30544   3.293   3.816   5.288
 9882SOL    HW130545   3.380   3.772   5.268
 9882SOL    HW230546   3.267   3.875   5.211
 9883SOL     OW30547   1.057   5.768   1.530
 9883SOL    HW130548   1.014   5.785   1.442
 9883SOL    HW230549   1.154   5.745   1.516
 9884SOL     OW30550   3.585   2.113   0.565
 9884SOL    HW130551   3.600   2.113   0.466
 9884SOL    HW230552   3.667   2.079   0.611
 9885SOL     OW30553   0.333   3.235   4.264
 9885SOL    HW130554   0.391   3.249   4.184
 9885SOL    HW230555   0.260   3.303   4.264
 9886SOL     OW30556   6.604   6.454   1.859
 9886SOL    HW130557   6.702   6.454   1.838
 9886SOL    HW230558   6.557   6.520   1.799
 9887SOL     OW30559   3.385   0.274   0.338
 9887SOL    HW130560   3.337   0.352   0.298
 9887SOL    HW230561   3.356   0.264   0.433
 9888SOL     OW30562   5.905   5.705   3.324
 9888SOL    HW130563   5.967   5.783   3.313
 9888SOL    HW230564   5.930   5.654   3.406
 9889SOL     OW30565   1.357   5.231   2.509
 9889SOL    HW130566   1.317   5.319   2.486
 9889SOL    HW230567   1.327   5.204   2.601
 9890SOL     OW30568   6.514   2.989   1.133
 9890SOL    HW130569   6.491   3.040   1.050
 9890SOL    HW230570   6.553   3.050   1.201
 9891SOL     OW30571   5.274   4.761   1.237
 9891SOL    HW130572   5.284   4.662   1.225
 9891SOL    HW230573   5.287   4.785   1.333
 9892SOL     OW30574   2.332   5.536   3.715
 9892SOL    HW130575   2.234   5.551   3.702
 9892SOL    HW230576   2.349   5.439   3.730
 9893SOL     OW30577   6.390   6.385   2.771
 9893SOL    HW130578   6.394   6.479   2.806
 9893SOL    HW230579   6.340   6.383   2.685
 9894SOL     OW30580   2.650   1.242   6.670
 9894SOL    HW130581   2.562   1.207   6.639
 9894SOL    HW230582   2.649   1.255   6.769
 9895SOL     OW30583   6.316   1.930   5.741
 9895SOL    HW130584   6.316   1.888   5.832
 9895SOL    HW230585   6.403   1.977   5.726
 9896SOL     OW30586   5.034   2.138   0.274
 9896SOL    HW130587   4.941   2.147   0.239
 9896SOL    HW230588   5.062   2.223   0.318
 9897SOL     OW30589   5.100   0.900   2.253
 9897SOL    HW130590   5.141   0.990   2.251
 9897SOL    HW230591   5.011   0.904   2.298
 9898SOL     OW30592   0.616   5.529   4.966
 9898SOL    HW130593   0.626   5.592   5.042
 9898SOL    HW230594   0.705   5.488   4.945
 9899SOL     OW30595   6.119   4.784   2.217
 9899SOL    HW130596   6.138   4.688   2.233
 9899SOL    HW230597   6.046   4.815   2.279
 9900SOL     OW30598   2.003   1.878   2.916
 9900SOL    HW130599   2.054   1.886   2.830
 9900SOL    HW230600   1.996   1.967   2.959
 9901SOL     OW30601   1.347   2.429   0.312
 9901SOL    HW130602   1.338   2.430   0.212
 9901SOL    HW230603   1.380   2.340   0.342
 9902SOL     OW30604   3.219   3.177   1.345
 9902SOL    HW130605   3.311   3.203   1.316
 9902SOL    HW230606   3.208   3.197   1.443
 9903SOL     OW30607   4.533   6.964   2.156
 9903SOL    HW130608   4.497   6.887   2.208
 9903SOL    HW230609   4.631   6.950   2.139
 9904SOL     OW30610   6.634   3.403   6.893
 9904SOL    HW130611   6.632   3.346   6.975
 9904SOL    HW230612   6.684   3.488   6.912
 9905SOL     OW30613   1.996   6.307   0.310
 9905SOL    HW130614   2.005   6.218   0.265
 9905SOL    HW230615   2.034   6.302   0.402
 9906SOL     OW30616   1.660   3.508   0.488
 9906SOL    HW130617   1.672   3.563   0.406
 9906SOL    HW230618   1.581   3.448   0.477
 9907SOL     OW30619   2.648   0.081   3.549
 9907SOL    HW130620   2.569   0.092   3.610
 9907SOL    HW230621   2.644   7.007   3.505
 9908SOL     OW30622   0.483   3.586   5.499
 9908SOL    HW130623   0.521   3.584   5.591
 9908SOL    HW230624   0.447   3.676   5.479
 9909SOL     OW30625   3.455   0.233   3.269
 9909SOL    HW130626   3.445   0.326   3.232
 9909SOL    HW230627   3.525   0.184   3.217
 9910SOL     OW30628   0.668   5.080   1.845
 9910SOL    HW130629   0.648   5.004   1.906
 9910SOL    HW230630   0.717   5.151   1.896
 9911SOL     OW30631   4.845   5.492   3.041
 9911SOL    HW130632   4.803   5.517   2.954
 9911SOL    HW230633   4.914   5.560   3.066
 9912SOL     OW30634   4.353   0.916   1.983
 9912SOL    HW130635   4.274   0.958   2.028
 9912SOL    HW230636   4.437   0.955   2.020
 9913SOL     OW30637   6.357   3.125   2.307
 9913SOL    HW130638   6.456   3.136   2.315
 9913SOL    HW230639   6.312   3.212   2.328
 9914SOL     OW30640   0.552   0.527   6.119
 9914SOL    HW130641   0.535   0.520   6.218
 9914SOL    HW230642   0.581   0.620   6.098
 9915SOL     OW30643   4.812   3.059   4.334
 9915SOL    HW130644   4.870   3.112   4.396
 9915SOL    HW230645   4.760   3.122   4.276
 9916SOL     OW30646   2.838   2.212   3.573
 9916SOL    HW130647   2.792   2.258   3.498
 9916SOL    HW230648   2.774   2.195   3.647
 9917SOL     OW30649   3.154   3.031   4.424
 9917SOL    HW130650   3.242   3.008   4.382
 9917SOL    HW230651   3.153   2.996   4.518
 9918SOL     OW30652   0.780   1.865   0.617
 9918SOL    HW130653   0.767   1.955   0.658
 9918SOL    HW230654   0.751   1.794   0.681
 9919SOL     OW30655   2.320   5.248   2.011
 9919SOL    HW130656   2.233   5.198   2.019
 9919SOL    HW230657   2.389   5.202   2.067
 9920SOL     OW30658   3.419   1.185   3.199
 9920SOL    HW130659   3.346   1.149   3.141
 9920SOL    HW230660   3.436   1.281   3.176
 9921SOL     OW30661   5.853   5.922   4.399
 9921SOL    HW130662   5.777   5.914   4.335
 9921SOL    HW230663   5.827   5.983   4.474
 9922SOL     OW30664   4.858   4.371   0.981
 9922SOL    HW130665   4.900   4.320   0.906
 9922SOL    HW230666   4.920   4.372   1.059
 9923SOL     OW30667   6.759   3.102   0.784
 9923SOL    HW130668   6.670   3.142   0.761
 9923SOL    HW230669   6.831   3.149   0.733
 9924SOL     OW30670   5.631   2.097   2.301
 9924SOL    HW130671   5.661   2.163   2.370
 9924SOL    HW230672   5.576   2.143   2.232
 9925SOL     OW30673   2.220   4.232   5.132
 9925SOL    HW130674   2.133   4.258   5.091
 9925SOL    HW230675   2.246   4.141   5.101
 9926SOL     OW30676   3.199   2.362   1.420
 9926SOL    HW130677   3.273   2.331   1.480
 9926SOL    HW230678   3.117   2.309   1.439
 9927SOL     OW30679   0.836   2.591   1.456
 9927SOL    HW130680   0.813   2.630   1.546
 9927SOL    HW230681   0.825   2.662   1.386
 9928SOL     OW30682   6.230   4.473   2.272
 9928SOL    HW130683   6.181   4.396   2.232
 9928SOL    HW230684   6.302   4.439   2.332
 9929SOL     OW30685   2.798   4.171   5.319
 9929SOL    HW130686   2.713   4.144   5.364
 9929SOL    HW230687   2.837   4.093   5.271
 9930SOL     OW30688   0.103   0.286   5.630
 9930SOL    HW130689   0.108   0.288   5.530
 9930SOL    HW230690   0.075   0.195   5.661
 9931SOL     OW30691   0.206   5.256   4.675
 9931SOL    HW130692   0.143   5.285   4.747
 9931SOL    HW230693   0.297   5.294   4.694
 9932SOL     OW30694   1.825   2.169   0.524
 9932SOL    HW130695   1.835   2.231   0.446
 9932SOL    HW230696   1.729   2.163   0.549
 9933SOL     OW30697   1.817   0.925   4.130
 9933SOL    HW130698   1.885   0.869   4.083
 9933SOL    HW230699   1.740   0.868   4.156
 9934SOL     OW30700   6.041   1.915   0.190
 9934SOL    HW130701   6.099   1.861   0.250
 9934SOL    HW230702   5.956   1.865   0.170
 9935SOL     OW30703   2.537   1.292   0.700
 9935SOL    HW130704   2.474   1.223   0.663
 9935SOL    HW230705   2.498   1.383   0.685
 9936SOL     OW30706   5.889   4.920   5.872
 9936SOL    HW130707   5.902   4.848   5.940
 9936SOL    HW230708   5.793   4.946   5.868
 9937SOL     OW30709   1.439   0.716   3.015
 9937SOL    HW130710   1.339   0.715   3.011
 9937SOL    HW230711   1.475   0.722   2.922
 9938SOL     OW30712   5.867   0.252   3.839
 9938SOL    HW130713   5.886   0.334   3.786
 9938SOL    HW230714   5.953   0.201   3.854
 9939SOL     OW30715   1.871   2.791   1.234
 9939SOL    HW130716   1.824   2.879   1.247
 9939SOL    HW230717   1.912   2.789   1.142
 9940SOL     OW30718   0.575   0.573   3.536
 9940SOL    HW130719   0.596   0.570   3.438
 9940SOL    HW230720   0.658   0.552   3.588
 9941SOL     OW30721   2.973   5.469   5.993
 9941SOL    HW130722   3.068   5.470   6.023
 9941SOL    HW230723   2.969   5.482   5.894
 9942SOL     OW30724   4.638   5.327   2.706
 9942SOL    HW130725   4.677   5.415   2.731
 9942SOL    HW230726   4.709   5.269   2.666
 9943SOL     OW30727   0.269   4.346   5.863
 9943SOL    HW130728   0.271   4.257   5.817
 9943SOL    HW230729   0.323   4.341   5.947
 9944SOL     OW30730   6.990   5.924   6.156
 9944SOL    HW130731   6.916   5.984   6.124
 9944SOL    HW230732   6.995   5.928   6.256
 9945SOL     OW30733   5.537   3.948   6.920
 9945SOL    HW130734   5.449   3.921   6.882
 9945SOL    HW230735   5.604   3.959   6.846
 9946SOL     OW30736   6.252   0.039   3.534
 9946SOL    HW130737   6.239   0.015   3.437
 9946SOL    HW230738   6.163   0.050   3.577
 9947SOL     OW30739   1.755   1.796   3.855
 9947SOL    HW130740   1.802   1.875   3.895
 9947SOL    HW230741   1.775   1.791   3.757
 9948SOL     OW30742   6.974   5.637   4.930
 9948SOL    HW130743   6.907   5.568   4.901
 9948SOL    HW230744   6.945   5.727   4.899
 9949SOL     OW30745   0.053   4.982   4.084
 9949SOL    HW130746   0.026   5.067   4.129
 9949SOL    HW230747   7.009   4.908   4.114
 9950SOL     OW30748   6.540   5.297   5.921
 9950SOL    HW130749   6.618   5.242   5.890
 9950SOL    HW230750   6.574   5.376   5.972
 9951SOL     OW30751   1.454   2.104   2.815
 9951SOL    HW130752   1.452   2.201   2.792
 9951SOL    HW230753   1.511   2.055   2.748
 9952SOL     OW30754   1.359   3.965   1.341
 9952SOL    HW130755   1.315   3.875   1.348
 9952SOL    HW230756   1.363   4.007   1.431
 9953SOL     OW30757   5.528   2.490   3.235
 9953SOL    HW130758   5.498   2.395   3.227
 9953SOL    HW230759   5.451   2.551   3.215
 9954SOL     OW30760   1.608   0.756   4.811
 9954SOL    HW130761   1.588   0.659   4.804
 9954SOL    HW230762   1.560   0.795   4.889
 9955SOL     OW30763   4.597   3.798   6.928
 9955SOL    HW130764   4.656   3.800   7.008
 9955SOL    HW230765   4.648   3.766   6.849
 9956SOL     OW30766   0.004   4.084   2.561
 9956SOL    HW130767   6.978   4.151   2.622
 9956SOL    HW230768   0.097   4.064   2.593
 9957SOL     OW30769   5.544   6.875   1.605
 9957SOL    HW130770   5.474   6.848   1.540
 9957SOL    HW230771   5.548   6.975   1.611
 9958SOL     OW30772   2.840   5.640   5.784
 9958SOL    HW130773   2.749   5.670   5.753
 9958SOL    HW230774   2.857   5.675   5.876
 9959SOL     OW30775   4.150   3.268   1.967
 9959SOL    HW130776   4.184   3.180   1.934
 9959SOL    HW230777   4.183   3.283   2.061
 9960SOL     OW30778   0.272   6.504   1.571
 9960SOL    HW130779   0.210   6.583   1.572
 9960SOL    HW230780   0.325   6.504   1.487
 9961SOL     OW30781   2.354   4.348   2.499
 9961SOL    HW130782   2.312   4.282   2.560
 9961SOL    HW230783   2.454   4.346   2.511
 9962SOL     OW30784   3.938   0.909   2.125
 9962SOL    HW130785   3.931   0.944   2.032
 9962SOL    HW230786   3.864   0.949   2.180
 9963SOL     OW30787   2.324   3.655   6.653
 9963SOL    HW130788   2.326   3.706   6.739
 9963SOL    HW230789   2.367   3.709   6.581
 9964SOL     OW30790   3.656   5.150   5.308
 9964SOL    HW130791   3.568   5.129   5.265
 9964SOL    HW230792   3.651   5.127   5.406
 9965SOL     OW30793   3.355   5.505   4.716
 9965SOL    HW130794   3.366   5.518   4.814
 9965SOL    HW230795   3.258   5.497   4.694
 9966SOL     OW30796   2.687   5.435   2.134
 9966SOL    HW130797   2.658   5.525   2.168
 9966SOL    HW230798   2.762   5.401   2.190
 9967SOL     OW30799   6.359   5.282   2.828
 9967SOL    HW130800   6.372   5.323   2.918
 9967SOL    HW230801   6.351   5.354   2.759
 9968SOL     OW30802   3.922   5.319   0.138
 9968SOL    HW130803   3.929   5.255   0.062
 9968SOL    HW230804   3.843   5.296   0.195
 9969SOL     OW30805   1.489   3.228   4.695
 9969SOL    HW130806   1.545   3.285   4.756
 9969SOL    HW230807   1.542   3.148   4.668
 9970SOL     OW30808   6.288   5.114   0.937
 9970SOL    HW130809   6.373   5.087   0.893
 9970SOL    HW230810   6.242   5.034   0.974
 9971SOL     OW30811   2.228   2.668   1.376
 9971SOL    HW130812   2.324   2.670   1.404
 9971SOL    HW230813   2.221   2.635   1.282
 9972SOL     OW30814   2.667   4.170   0.838
 9972SOL    HW130815   2.747   4.123   0.874
 9972SOL    HW230816   2.584   4.118   0.861
 9973SOL     OW30817   4.205   2.195   4.386
 9973SOL    HW130818   4.226   2.109   4.338
 9973SOL    HW230819   4.121   2.234   4.349
 9974SOL     OW30820   0.382   2.893   2.900
 9974SOL    HW130821   0.300   2.873   2.846
 9974SOL    HW230822   0.379   2.843   2.986
 9975SOL     OW30823   0.461   5.200   6.334
 9975SOL    HW130824   0.369   5.228   6.359
 9975SOL    HW230825   0.467   5.101   6.331
 9976SOL     OW30826   1.082   5.064   5.255
 9976SOL    HW130827   1.156   5.041   5.318
 9976SOL    HW230828   1.060   5.161   5.264
 9977SOL     OW30829   5.577   4.528   5.827
 9977SOL    HW130830   5.548   4.493   5.738
 9977SOL    HW230831   5.645   4.466   5.867
 9978SOL     OW30832   6.726   1.546   5.414
 9978SOL    HW130833   6.773   1.461   5.439
 9978SOL    HW230834   6.744   1.616   5.482
 9979SOL     OW30835   6.514   3.867   6.601
 9979SOL    HW130836   6.539   3.864   6.504
 9979SOL    HW230837   6.544   3.955   6.639
 9980SOL     OW30838   1.750   0.168   0.714
 9980SOL    HW130839   1.797   0.255   0.700
 9980SOL    HW230840   1.742   0.149   0.812
 9981SOL     OW30841   2.819   1.949   0.498
 9981SOL    HW130842   2.891   1.995   0.550
 9981SOL    HW230843   2.735   1.948   0.552
 9982SOL     OW30844   1.197   1.164   4.355
 9982SOL    HW130845   1.221   1.248   4.404
 9982SOL    HW230846   1.099   1.163   4.335
 9983SOL     OW30847   0.606   1.339   1.946
 9983SOL    HW130848   0.523   1.367   1.993
 9983SOL    HW230849   0.591   1.250   1.902
 9984SOL     OW30850   1.059   6.311   0.185
 9984SOL    HW130851   1.152   6.302   0.148
 9984SOL    HW230852   1.040   6.235   0.247
 9985SOL     OW30853   2.705   6.350   1.302
 9985SOL    HW130854   2.682   6.436   1.257
 9985SOL    HW230855   2.755   6.291   1.238
 9986SOL     OW30856   5.523   4.953   1.028
 9986SOL    HW130857   5.427   4.926   1.018
 9986SOL    HW230858   5.560   4.978   0.939
 9987SOL     OW30859   6.390   2.347   2.687
 9987SOL    HW130860   6.303   2.388   2.716
 9987SOL    HW230861   6.372   2.260   2.642
 9988SOL     OW30862   6.705   5.146   4.145
 9988SOL    HW130863   6.664   5.161   4.055
 9988SOL    HW230864   6.638   5.167   4.217
 9989SOL     OW30865   6.278   4.196   2.505
 9989SOL    HW130866   6.302   4.293   2.498
 9989SOL    HW230867   6.350   4.142   2.461
 9990SOL     OW30868   2.332   6.927   3.356
 9990SOL    HW130869   2.347   6.931   3.257
 9990SOL    HW230870   2.313   6.832   3.382
 9991SOL     OW30871   2.150   3.294   3.833
 9991SOL    HW130872   2.166   3.358   3.909
 9991SOL    HW230873   2.102   3.341   3.759
 9992SOL     OW30874   3.724   3.726   0.742
 9992SOL    HW130875   3.807   3.676   0.718
 9992SOL    HW230876   3.681   3.683   0.822
 9993SOL     OW30877   3.825   6.699   3.498
 9993SOL    HW130878   3.903   6.700   3.435
 9993SOL    HW230879   3.842   6.632   3.571
 9994SOL     OW30880   6.682   4.506   2.453
 9994SOL    HW130881   6.743   4.569   2.502
 9994SOL    HW230882   6.698   4.515   2.355
 9995SOL     OW30883   3.372   1.194   3.500
 9995SOL    HW130884   3.352   1.154   3.589
 9995SOL    HW230885   3.430   1.131   3.448
 9996SOL     OW30886   2.664   3.466   1.672
 9996SOL    HW130887   2.568   3.466   1.701
 9996SOL    HW230888   2.717   3.409   1.734
 9997SOL     OW30889   5.235   0.738   2.046
 9997SOL    HW130890   5.202   0.824   2.086
 9997SOL    HW230891   5.273   0.680   2.119
 9998SOL     OW30892   5.773   3.481   2.437
 9998SOL    HW130893   5.788   3.384   2.457
 9998SOL    HW230894   5.676   3.503   2.448
 9999SOL     OW30895   0.414   5.876   5.087
 9999SOL    HW130896   0.483   5.880   5.160
 9999SOL    HW230897   0.389   5.781   5.070
10000SOL     OW30898   5.519   1.928   0.401
10000SOL    HW130899   5.437   1.928   0.458
10000SOL    HW230900   5.598   1.957   0.455
10001SOL     OW30901   3.998   0.618   1.272
10001SOL    HW130902   3.927   0.611   1.342
10001SOL    HW230903   3.977   0.693   1.209
10002SOL     OW30904   2.097   1.049   1.629
10002SOL    HW130905   2.081   0.957   1.664
10002SOL    HW230906   2.013   1.103   1.637
10003SOL     OW30907   2.910   2.201   2.300
10003SOL    HW130908   2.873   2.273   2.358
10003SOL    HW230909   2.926   2.237   2.208
10004SOL     OW30910   5.415   2.894   5.156
10004SOL    HW130911   5.502   2.847   5.172
10004SOL    HW230912   5.377   2.924   5.243
10005SOL     OW30913   3.644   5.503   2.280
10005SOL    HW130914   3.702   5.425   2.303
10005SOL    HW230915   3.601   5.538   2.363
10006SOL     OW30916   6.203   0.221   5.181
10006SOL    HW130917   6.260   0.149   5.141
10006SOL    HW230918   6.227   0.309   5.138
10007SOL     OW30919   0.590   2.802   3.968
10007SOL    HW130920   0.593   2.794   4.067
10007SOL    HW230921   0.668   2.756   3.927
10008SOL     OW30922   4.684   0.909   3.835
10008SOL    HW130923   4.673   0.942   3.741
10008SOL    HW230924   4.780   0.887   3.851
10009SOL     OW30925   1.264   4.317   1.513
10009SOL    HW130926   1.333   4.387   1.501
10009SOL    HW230927   1.303   4.239   1.562
10010SOL     OW30928   2.704   6.165   0.349
10010SOL    HW130929   2.703   6.130   0.443
10010SOL    HW230930   2.626   6.128   0.299
10011SOL     OW30931   0.642   4.225   6.045
10011SOL    HW130932   0.639   4.324   6.035
10011SOL    HW230933   0.549   4.189   6.051
10012SOL     OW30934   5.435   0.359   2.115
10012SOL    HW130935   5.378   0.355   2.197
10012SOL    HW230936   5.486   0.445   2.115
10013SOL     OW30937   1.860   2.051   3.961
10013SOL    HW130938   1.779   2.103   3.986
10013SOL    HW230939   1.907   2.020   4.044
10014SOL     OW30940   1.121   1.309   1.309
10014SOL    HW130941   1.111   1.310   1.209
10014SOL    HW230942   1.215   1.331   1.333
10015SOL     OW30943   4.101   5.188   0.366
10015SOL    HW130944   4.042   5.112   0.338
10015SOL    HW230945   4.079   5.269   0.311
10016SOL     OW30946   1.311   0.633   4.899
10016SOL    HW130947   1.215   0.613   4.919
10016SOL    HW230948   1.342   0.708   4.959
10017SOL     OW30949   1.648   1.673   3.149
10017SOL    HW130950   1.597   1.600   3.193
10017SOL    HW230951   1.741   1.641   3.129
10018SOL     OW30952   6.764   5.131   5.835
10018SOL    HW130953   6.698   5.063   5.867
10018SOL    HW230954   6.811   5.095   5.754
10019SOL     OW30955   0.466   2.058   3.145
10019SOL    HW130956   0.493   1.988   3.078
10019SOL    HW230957   0.391   2.023   3.202
10020SOL     OW30958   0.666   0.789   1.343
10020SOL    HW130959   0.646   0.697   1.309
10020SOL    HW230960   0.729   0.835   1.280
10021SOL     OW30961   1.010   2.434   2.441
10021SOL    HW130962   0.955   2.404   2.519
10021SOL    HW230963   1.051   2.355   2.395
10022SOL     OW30964   3.581   0.029   0.831
10022SOL    HW130965   3.575   0.083   0.747
10022SOL    HW230966   3.573   6.948   0.809
10023SOL     OW30967   2.590   4.562   4.528
10023SOL    HW130968   2.560   4.470   4.502
10023SOL    HW230969   2.559   4.628   4.459
10024SOL     OW30970   2.069   5.747   1.901
10024SOL    HW130971   2.072   5.648   1.889
10024SOL    HW230972   2.162   5.782   1.912
10025SOL     OW30973   1.766   2.781   2.155
10025SOL    HW130974   1.707   2.855   2.189
10025SOL    HW230975   1.774   2.788   2.056
10026SOL     OW30976   5.093   7.015   3.164
10026SOL    HW130977   5.043   0.008   3.249
10026SOL    HW230978   5.137   0.086   3.141
10027SOL     OW30979   0.387   3.018   5.175
10027SOL    HW130980   0.318   3.088   5.158
10027SOL    HW230981   0.452   3.016   5.099
10028SOL     OW30982   1.894   1.596   2.313
10028SOL    HW130983   1.883   1.589   2.214
10028SOL    HW230984   1.879   1.691   2.342
10029SOL     OW30985   1.745   2.091   3.432
10029SOL    HW130986   1.671   2.157   3.416
10029SOL    HW230987   1.761   2.038   3.348
10030SOL     OW30988   3.281   0.409   4.851
10030SOL    HW130989   3.331   0.487   4.812
10030SOL    HW230990   3.345   0.347   4.896
10031SOL     OW30991   5.696   4.741   4.744
10031SOL    HW130992   5.604   4.740   4.704
10031SOL    HW230993   5.690   4.770   4.840
10032SOL     OW30994   4.348   0.293   5.046
10032SOL    HW130995   4.363   0.392   5.052
10032SOL    HW230996   4.393   0.257   4.964
10033SOL     OW30997   4.386   2.405   3.748
10033SOL    HW130998   4.447   2.388   3.670
10033SOL    HW230999   4.422   2.482   3.802
10034SOL     OW31000   3.227   0.239   3.901
10034SOL    HW131001   3.184   0.296   3.971
10034SOL    HW231002   3.222   0.285   3.812
10035SOL     OW31003   6.594   4.774   1.212
10035SOL    HW131004   6.654   4.732   1.145
10035SOL    HW231005   6.597   4.721   1.297
10036SOL     OW31006   6.416   0.492   0.289
10036SOL    HW131007   6.347   0.532   0.229
10036SOL    HW231008   6.418   0.541   0.376
10037SOL     OW31009   5.836   0.992   0.435
10037SOL    HW131010   5.851   0.959   0.529
10037SOL    HW231011   5.746   1.034   0.429
10038SOL     OW31012   4.355   0.074   6.649
10038SOL    HW131013   4.335   0.001   6.584
10038SOL    HW231014   4.273   0.128   6.665
10039SOL     OW31015   4.418   6.823   5.019
10039SOL    HW131016   4.399   6.811   4.922
10039SOL    HW231017   4.369   6.754   5.072
10040SOL     OW31018   4.228   5.711   6.093
10040SOL    HW131019   4.232   5.758   6.182
10040SOL    HW231020   4.204   5.777   6.022
10041SOL     OW31021   4.237   6.146   6.813
10041SOL    HW131022   4.322   6.095   6.820
10041SOL    HW231023   4.234   6.196   6.726
10042SOL     OW31024   1.555   2.206   4.889
10042SOL    HW131025   1.467   2.158   4.883
10042SOL    HW231026   1.610   2.167   4.961
10043SOL     OW31027   0.630   2.329   4.469
10043SOL    HW131028   0.543   2.323   4.516
10043SOL    HW231029   0.623   2.286   4.378
10044SOL     OW31030   2.969   1.412   4.565
10044SOL    HW131031   2.937   1.476   4.495
10044SOL    HW231032   3.067   1.399   4.555
10045SOL     OW31033   4.930   6.952   3.946
10045SOL    HW131034   4.892   6.871   3.992
10045SOL    HW231035   4.932   0.012   4.010
10046SOL     OW31036   1.523   3.817   1.129
10046SOL    HW131037   1.549   3.722   1.148
10046SOL    HW231038   1.514   3.866   1.215
10047SOL     OW31039   6.311   3.193   5.169
10047SOL    HW131040   6.344   3.196   5.075
10047SOL    HW231041   6.354   3.266   5.222
10048SOL     OW31042   5.876   1.967   2.561
10048SOL    HW131043   5.834   1.949   2.649
10048SOL    HW231044   5.830   2.046   2.518
10049SOL     OW31045   0.657   0.344   6.630
10049SOL    HW131046   0.629   0.253   6.599
10049SOL    HW231047   0.675   0.341   6.728
10050SOL     OW31048   6.367   2.547   4.882
10050SOL    HW131049   6.379   2.589   4.972
10050SOL    HW231050   6.457   2.526   4.843
10051SOL     OW31051   6.271   2.306   4.978
10051SOL    HW131052   6.295   2.394   4.939
10051SOL    HW231053   6.348   2.269   5.029
10052SOL     OW31054   2.916   2.259   2.869
10052SOL    HW131055   2.965   2.227   2.788
10052SOL    HW231056   2.973   2.244   2.950
10053SOL     OW31057   3.436   5.932   1.942
10053SOL    HW131058   3.450   5.987   2.024
10053SOL    HW231059   3.406   5.990   1.866
10054SOL     OW31060   5.260   5.117   6.399
10054SOL    HW131061   5.161   5.113   6.390
10054SOL    HW231062   5.285   5.102   6.495
10055SOL     OW31063   6.245   2.078   4.826
10055SOL    HW131064   6.251   2.168   4.869
10055SOL    HW231065   6.156   2.037   4.846
10056SOL     OW31066   5.389   4.483   2.235
10056SOL    HW131067   5.384   4.569   2.286
10056SOL    HW231068   5.440   4.415   2.288
10057SOL     OW31069   3.855   1.930   4.484
10057SOL    HW131070   3.880   1.833   4.487
10057SOL    HW231071   3.811   1.950   4.396
10058SOL     OW31072   0.433   3.850   4.593
10058SOL    HW131073   0.384   3.773   4.552
10058SOL    HW231074   0.374   3.930   4.594
10059SOL     OW31075   5.309   0.217   0.956
10059SOL    HW131076   5.299   0.254   1.048
10059SOL    HW231077   5.221   0.178   0.926
10060SOL     OW31078   1.430   1.573   1.540
10060SOL    HW131079   1.528   1.573   1.560
10060SOL    HW231080   1.412   1.511   1.463
10061SOL     OW31081   5.041   1.580   4.312
10061SOL    HW131082   5.037   1.529   4.398
10061SOL    HW231083   5.121   1.641   4.313
10062SOL     OW31084   6.702   0.154   4.506
10062SOL    HW131085   6.657   0.069   4.477
10062SOL    HW231086   6.764   0.186   4.434
10063SOL     OW31087   2.237   1.092   3.920
10063SOL    HW131088   2.159   1.118   3.977
10063SOL    HW231089   2.216   1.110   3.824
10064SOL     OW31090   4.958   6.815   0.311
10064SOL    HW131091   4.858   6.810   0.306
10064SOL    HW231092   4.997   6.805   0.219
10065SOL     OW31093   2.103   6.787   2.279
10065SOL    HW131094   2.023   6.728   2.289
10065SOL    HW231095   2.153   6.760   2.196
10066SOL     OW31096   1.172   2.650   3.644
10066SOL    HW131097   1.095   2.684   3.590
10066SOL    HW231098   1.231   2.727   3.669
10067SOL     OW31099   6.475   4.030   4.758
10067SOL    HW131100   6.452   4.072   4.846
10067SOL    HW231101   6.463   3.931   4.765
10068SOL     OW31102   0.336   3.447   3.080
10068SOL    HW131103   0.253   3.500   3.095
10068SOL    HW231104   0.313   3.358   3.040
10069SOL     OW31105   2.345   5.298   3.217
10069SOL    HW131106   2.253   5.260   3.225
10069SOL    HW231107   2.359   5.367   3.288
10070SOL     OW31108   6.413   6.836   5.359
10070SOL    HW131109   6.314   6.836   5.341
10070SOL    HW231110   6.460   6.788   5.286
10071SOL     OW31111   6.039   5.792   3.920
10071SOL    HW131112   6.115   5.758   3.863
10071SOL    HW231113   6.045   5.750   4.010
10072SOL     OW31114   6.948   6.340   4.009
10072SOL    HW131115   0.031   6.338   3.992
10072SOL    HW231116   6.906   6.258   3.969
10073SOL     OW31117   5.547   4.079   5.663
10073SOL    HW131118   5.468   4.019   5.675
10073SOL    HW231119   5.601   4.049   5.584
10074SOL     OW31120   1.523   0.983   5.368
10074SOL    HW131121   1.443   0.925   5.382
10074SOL    HW231122   1.606   0.931   5.389
10075SOL     OW31123   1.974   3.045   2.838
10075SOL    HW131124   1.948   2.986   2.915
10075SOL    HW231125   2.067   3.021   2.809
10076SOL     OW31126   0.110   0.060   3.939
10076SOL    HW131127   0.032   0.122   3.951
10076SOL    HW231128   0.195   0.109   3.953
10077SOL     OW31129   4.020   3.205   6.506
10077SOL    HW131130   4.103   3.180   6.556
10077SOL    HW231131   4.005   3.141   6.431
10078SOL     OW31132   0.549   5.054   4.073
10078SOL    HW131133   0.523   5.111   4.151
10078SOL    HW231134   0.470   5.000   4.043
10079SOL     OW31135   6.819   3.912   2.976
10079SOL    HW131136   6.742   3.919   3.040
10079SOL    HW231137   6.784   3.918   2.882
10080SOL     OW31138   4.587   1.307   5.554
10080SOL    HW131139   4.631   1.262   5.476
10080SOL    HW231140   4.528   1.381   5.521
10081SOL     OW31141   0.117   0.379   0.658
10081SOL    HW131142   0.121   0.280   0.671
10081SOL    HW231143   0.062   0.401   0.578
10082SOL     OW31144   6.925   4.731   1.513
10082SOL    HW131145   6.859   4.790   1.467
10082SOL    HW231146   7.011   4.781   1.525
10083SOL     OW31147   4.675   0.893   3.329
10083SOL    HW131148   4.603   0.923   3.266
10083SOL    HW231149   4.763   0.925   3.296
10084SOL     OW31150   2.096   0.881   5.321
10084SOL    HW131151   2.194   0.862   5.335
10084SOL    HW231152   2.052   0.892   5.410
10085SOL     OW31153   2.153   5.546   1.485
10085SOL    HW131154   2.187   5.522   1.394
10085SOL    HW231155   2.125   5.642   1.486
10086SOL     OW31156   4.403   5.678   2.271
10086SOL    HW131157   4.415   5.763   2.220
10086SOL    HW231158   4.356   5.697   2.357
10087SOL     OW31159   6.807   0.140   4.031
10087SOL    HW131160   6.792   0.048   4.068
10087SOL    HW231161   6.757   0.150   3.945
10088SOL     OW31162   6.196   0.386   1.347
10088SOL    HW131163   6.121   0.438   1.389
10088SOL    HW231164   6.248   0.340   1.419
10089SOL     OW31165   2.831   1.939   2.261
10089SOL    HW131166   2.855   2.033   2.282
10089SOL    HW231167   2.914   1.889   2.233
10090SOL     OW31168   1.441   4.907   1.473
10090SOL    HW131169   1.484   4.849   1.543
10090SOL    HW231170   1.511   4.954   1.421
10091SOL     OW31171   0.375   4.182   6.348
10091SOL    HW131172   0.333   4.238   6.420
10091SOL    HW231173   0.324   4.097   6.337
10092SOL     OW31174   2.360   2.433   5.362
10092SOL    HW131175   2.302   2.365   5.318
10092SOL    HW231176   2.303   2.506   5.400
10093SOL     OW31177   6.447   3.203   4.933
10093SOL    HW131178   6.433   3.203   4.834
10093SOL    HW231179   6.535   3.247   4.954
10094SOL     OW31180   2.623   5.717   2.167
10094SOL    HW131181   2.640   5.816   2.167
10094SOL    HW231182   2.524   5.700   2.168
10095SOL     OW31183   6.126   1.834   5.269
10095SOL    HW131184   6.134   1.773   5.348
10095SOL    HW231185   6.049   1.806   5.212
10096SOL     OW31186   4.348   5.271   3.051
10096SOL    HW131187   4.327   5.229   3.140
10096SOL    HW231188   4.435   5.234   3.017
10097SOL     OW31189   0.978   1.267   0.237
10097SOL    HW131190   0.992   1.359   0.273
10097SOL    HW231191   0.934   1.210   0.307
10098SOL     OW31192   2.826   0.517   4.677
10098SOL    HW131193   2.810   0.480   4.768
10098SOL    HW231194   2.907   0.576   4.678
10099SOL     OW31195   0.224   5.083   1.140
10099SOL    HW131196   0.150   5.131   1.093
10099SOL    HW231197   0.306   5.086   1.082
10100SOL     OW31198   5.062   6.983   4.686
10100SOL    HW131199   5.133   6.912   4.677
10100SOL    HW231200   5.097   0.053   4.648
10101SOL     OW31201   6.437   3.847   1.733
10101SOL    HW131202   6.516   3.796   1.696
10101SOL    HW231203   6.353   3.801   1.706
10102SOL     OW31204   0.876   1.563   2.690
10102SOL    HW131205   0.852   1.528   2.599
10102SOL    HW231206   0.832   1.507   2.760
10103SOL     OW31207   2.677   0.292   5.947
10103SOL    HW131208   2.622   0.211   5.927
10103SOL    HW231209   2.773   0.265   5.957
10104SOL     OW31210   2.462   1.675   3.704
10104SOL    HW131211   2.397   1.649   3.633
10104SOL    HW231212   2.527   1.601   3.718
10105SOL     OW31213   1.433   1.303   0.664
10105SOL    HW131214   1.384   1.278   0.748
10105SOL    HW231215   1.376   1.281   0.585
10106SOL     OW31216   4.186   6.367   0.354
10106SOL    HW131217   4.167   6.280   0.308
10106SOL    HW231218   4.123   6.380   0.430
10107SOL     OW31219   6.421   1.493   6.185
10107SOL    HW131220   6.442   1.527   6.277
10107SOL    HW231221   6.502   1.500   6.127
10108SOL     OW31222   6.412   0.310   6.971
10108SOL    HW131223   6.377   0.269   0.039
10108SOL    HW231224   6.337   0.321   6.906
10109SOL     OW31225   5.500   6.869   0.696
10109SOL    HW131226   5.437   6.897   0.625
10109SOL    HW231227   5.461   6.889   0.786
10110SOL     OW31228   3.690   5.390   4.987
10110SOL    HW131229   3.784   5.393   5.021
10110SOL    HW231230   3.681   5.451   4.909
10111SOL     OW31231   5.706   3.409   3.507
10111SOL    HW131232   5.683   3.315   3.482
10111SOL    HW231233   5.622   3.461   3.524
10112SOL     OW31234   5.452   3.265   3.737
10112SOL    HW131235   5.414   3.281   3.828
10112SOL    HW231236   5.546   3.232   3.745
10113SOL     OW31237   4.181   0.371   6.882
10113SOL    HW131238   4.280   0.357   6.878
10113SOL    HW231239   4.136   0.308   6.819
10114SOL     OW31240   5.094   1.421   1.130
10114SOL    HW131241   5.013   1.451   1.079
10114SOL    HW231242   5.068   1.351   1.196
10115SOL     OW31243   3.555   1.004   4.534
10115SOL    HW131244   3.651   1.030   4.525
10115SOL    HW231245   3.514   1.053   4.612
10116SOL     OW31246   0.602   6.485   0.288
10116SOL    HW131247   0.618   6.489   0.387
10116SOL    HW231248   0.688   6.464   0.241
10117SOL     OW31249   6.404   5.872   5.567
10117SOL    HW131250   6.372   5.845   5.477
10117SOL    HW231251   6.475   5.809   5.598
10118SOL     OW31252   2.195   4.597   2.506
10118SOL    HW131253   2.264   4.531   2.535
10118SOL    HW231254   2.104   4.561   2.528
10119SOL     OW31255   0.531   5.430   4.099
10119SOL    HW131256   0.511   5.378   4.016
10119SOL    HW231257   0.466   5.505   4.109
10120SOL     OW31258   1.844   3.568   5.053
10120SOL    HW131259   1.924   3.513   5.029
10120SOL    HW231260   1.861   3.664   5.028
10121SOL     OW31261   6.199   3.566   6.806
10121SOL    HW131262   6.132   3.580   6.880
10121SOL    HW231263   6.260   3.645   6.802
10122SOL     OW31264   6.132   3.452   1.864
10122SOL    HW131265   6.091   3.532   1.907
10122SOL    HW231266   6.133   3.375   1.929
10123SOL     OW31267   5.035   6.501   6.704
10123SOL    HW131268   5.133   6.495   6.724
10123SOL    HW231269   5.009   6.423   6.647
10124SOL     OW31270   1.126   4.320   0.408
10124SOL    HW131271   1.141   4.334   0.506
10124SOL    HW231272   1.071   4.395   0.372
10125SOL     OW31273   1.867   0.919   2.245
10125SOL    HW131274   1.900   0.851   2.179
10125SOL    HW231275   1.894   1.010   2.214
10126SOL     OW31276   7.007   6.515   6.476
10126SOL    HW131277   0.033   6.495   6.565
10126SOL    HW231278   0.041   6.466   6.405
10127SOL     OW31279   2.662   4.305   6.478
10127SOL    HW131280   2.673   4.404   6.466
10127SOL    HW231281   2.568   4.279   6.459
10128SOL     OW31282   3.001   1.076   0.817
10128SOL    HW131283   2.910   1.107   0.792
10128SOL    HW231284   3.068   1.149   0.800
10129SOL     OW31285   5.878   1.895   2.206
10129SOL    HW131286   5.925   1.821   2.158
10129SOL    HW231287   5.845   1.862   2.294
10130SOL     OW31288   1.143   3.391   1.875
10130SOL    HW131289   1.117   3.420   1.783
10130SOL    HW231290   1.241   3.370   1.877
10131SOL     OW31291   1.111   7.000   4.788
10131SOL    HW131292   1.159   6.942   4.854
10131SOL    HW231293   1.076   6.945   4.713
10132SOL     OW31294   3.986   0.904   3.928
10132SOL    HW131295   3.901   0.878   3.974
10132SOL    HW231296   4.049   0.944   3.994
10133SOL     OW31297   3.698   6.574   0.779
10133SOL    HW131298   3.716   6.564   0.681
10133SOL    HW231299   3.607   6.539   0.800
10134SOL     OW31300   0.178   6.352   3.010
10134SOL    HW131301   0.193   6.332   2.914
10134SOL    HW231302   0.210   6.444   3.031
10135SOL     OW31303   4.899   3.268   3.570
10135SOL    HW131304   4.821   3.221   3.611
10135SOL    HW231305   4.880   3.287   3.473
10136SOL     OW31306   5.481   0.948   2.470
10136SOL    HW131307   5.522   1.009   2.403
10136SOL    HW231308   5.508   0.854   2.450
10137SOL     OW31309   6.842   3.397   4.444
10137SOL    HW131310   6.897   3.409   4.362
10137SOL    HW231311   6.789   3.480   4.462
10138SOL     OW31312   5.313   3.668   0.042
10138SOL    HW131313   5.289   3.592   0.103
10138SOL    HW231314   5.275   3.753   0.080
10139SOL     OW31315   2.858   3.530   3.549
10139SOL    HW131316   2.950   3.539   3.586
10139SOL    HW231317   2.795   3.502   3.622
10140SOL     OW31318   6.196   5.693   6.803
10140SOL    HW131319   6.151   5.622   6.748
10140SOL    HW231320   6.158   5.782   6.779
10141SOL     OW31321   3.894   1.200   5.581
10141SOL    HW131322   3.910   1.184   5.484
10141SOL    HW231323   3.863   1.115   5.624
10142SOL     OW31324   6.467   6.799   5.649
10142SOL    HW131325   6.386   6.807   5.708
10142SOL    HW231326   6.443   6.828   5.556
10143SOL     OW31327   5.540   1.153   6.786
10143SOL    HW131328   5.581   1.122   6.872
10143SOL    HW231329   5.443   1.132   6.785
10144SOL     OW31330   3.100   0.456   5.916
10144SOL    HW131331   3.032   0.483   5.848
10144SOL    HW231332   3.189   0.496   5.893
10145SOL     OW31333   3.243   5.147   4.261
10145SOL    HW131334   3.163   5.200   4.289
10145SOL    HW231335   3.215   5.076   4.196
10146SOL     OW31336   4.586   4.607   4.882
10146SOL    HW131337   4.532   4.572   4.959
10146SOL    HW231338   4.532   4.673   4.830
10147SOL     OW31339   5.418   3.593   5.227
10147SOL    HW131340   5.356   3.606   5.150
10147SOL    HW231341   5.366   3.592   5.312
10148SOL     OW31342   4.970   4.657   6.164
10148SOL    HW131343   4.938   4.562   6.156
10148SOL    HW231344   4.911   4.717   6.111
10149SOL     OW31345   5.992   3.395   0.880
10149SOL    HW131346   5.972   3.419   0.785
10149SOL    HW231347   5.954   3.305   0.900
10150SOL     OW31348   3.461   3.405   0.381
10150SOL    HW131349   3.540   3.458   0.348
10150SOL    HW231350   3.433   3.341   0.310
10151SOL     OW31351   0.662   5.748   0.157
10151SOL    HW131352   0.695   5.834   0.119
10151SOL    HW231353   0.689   5.673   0.097
10152SOL     OW31354   0.176   5.771   4.068
10152SOL    HW131355   0.207   5.809   3.981
10152SOL    HW231356   0.174   5.672   4.063
10153SOL     OW31357   4.646   5.934   3.643
10153SOL    HW131358   4.616   5.863   3.706
10153SOL    HW231359   4.584   5.936   3.564
10154SOL     OW31360   4.310   6.318   5.264
10154SOL    HW131361   4.373   6.368   5.324
10154SOL    HW231362   4.349   6.314   5.171
10155SOL     OW31363   3.919   2.181   6.133
10155SOL    HW131364   3.971   2.247   6.078
10155SOL    HW231365   3.949   2.089   6.112
10156SOL     OW31366   6.210   0.729   2.273
10156SOL    HW131367   6.271   0.743   2.352
10156SOL    HW231368   6.183   0.818   2.236
10157SOL     OW31369   6.906   1.675   0.637
10157SOL    HW131370   6.919   1.723   0.723
10157SOL    HW231371   6.938   1.581   0.646
10158SOL     OW31372   6.105   5.791   0.579
10158SOL    HW131373   6.078   5.812   0.485
10158SOL    HW231374   6.161   5.866   0.615
10159SOL     OW31375   1.913   3.176   0.569
10159SOL    HW131376   1.864   3.138   0.491
10159SOL    HW231377   1.883   3.270   0.584
10160SOL     OW31378   1.874   3.245   2.143
10160SOL    HW131379   1.800   3.267   2.080
10160SOL    HW231380   1.838   3.195   2.221
10161SOL     OW31381   3.819   3.166   0.904
10161SOL    HW131382   3.894   3.101   0.915
10161SOL    HW231383   3.772   3.177   0.992
10162SOL     OW31384   3.672   4.664   0.946
10162SOL    HW131385   3.733   4.642   0.870
10162SOL    HW231386   3.636   4.757   0.933
10163SOL     OW31387   5.947   4.125   6.835
10163SOL    HW131388   5.904   4.047   6.879
10163SOL    HW231389   5.880   4.198   6.823
10164SOL     OW31390   6.216   3.241   4.156
10164SOL    HW131391   6.165   3.321   4.188
10164SOL    HW231392   6.308   3.269   4.128
10165SOL     OW31393   6.518   1.315   3.191
10165SOL    HW131394   6.529   1.383   3.119
10165SOL    HW231395   6.487   1.359   3.275
10166SOL     OW31396   3.127   1.765   1.797
10166SOL    HW131397   3.213   1.742   1.751
10166SOL    HW231398   3.146   1.824   1.876
10167SOL     OW31399   1.374   4.500   6.927
10167SOL    HW131400   1.448   4.500   6.994
10167SOL    HW231401   1.301   4.439   6.958
10168SOL     OW31402   5.783   2.662   6.479
10168SOL    HW131403   5.862   2.720   6.457
10168SOL    HW231404   5.761   2.672   6.576
10169SOL     OW31405   6.682   4.619   3.348
10169SOL    HW131406   6.782   4.615   3.347
10169SOL    HW231407   6.645   4.548   3.288
10170SOL     OW31408   6.698   5.429   5.281
10170SOL    HW131409   6.699   5.489   5.361
10170SOL    HW231410   6.776   5.449   5.222
10171SOL     OW31411   0.107   2.178   4.407
10171SOL    HW131412   0.194   2.146   4.369
10171SOL    HW231413   0.074   2.113   4.475
10172SOL     OW31414   0.752   5.899   5.439
10172SOL    HW131415   0.660   5.927   5.411
10172SOL    HW231416   0.773   5.938   5.528
10173SOL     OW31417   1.990   2.412   0.614
10173SOL    HW131418   2.077   2.399   0.568
10173SOL    HW231419   1.937   2.327   0.610
10174SOL     OW31420   5.105   4.467   3.535
10174SOL    HW131421   5.067   4.389   3.485
10174SOL    HW231422   5.205   4.463   3.532
10175SOL     OW31423   5.591   1.874   2.990
10175SOL    HW131424   5.602   1.775   2.996
10175SOL    HW231425   5.662   1.919   3.045
10176SOL     OW31426   0.342   3.370   5.483
10176SOL    HW131427   0.314   3.367   5.579
10176SOL    HW231428   0.408   3.443   5.469
10177SOL     OW31429   2.424   1.350   1.836
10177SOL    HW131430   2.434   1.422   1.905
10177SOL    HW231431   2.514   1.324   1.802
10178SOL     OW31432   0.218   0.843   6.862
10178SOL    HW131433   0.279   0.844   6.783
10178SOL    HW231434   0.272   0.855   6.946
10179SOL     OW31435   0.508   2.673   6.396
10179SOL    HW131436   0.421   2.709   6.432
10179SOL    HW231437   0.584   2.720   6.440
10180SOL     OW31438   3.787   0.907   5.614
10180SOL    HW131439   3.720   0.907   5.689
10180SOL    HW231440   3.870   0.859   5.642
10181SOL     OW31441   6.433   3.461   1.501
10181SOL    HW131442   6.393   3.404   1.573
10181SOL    HW231443   6.421   3.416   1.412
10182SOL     OW31444   4.691   0.774   1.579
10182SOL    HW131445   4.740   0.687   1.582
10182SOL    HW231446   4.631   0.781   1.659
10183SOL     OW31447   6.493   2.855   6.440
10183SOL    HW131448   6.436   2.782   6.478
10183SOL    HW231449   6.484   2.937   6.498
10184SOL     OW31450   4.080   1.007   6.181
10184SOL    HW131451   4.061   1.023   6.084
10184SOL    HW231452   4.022   0.932   6.215
10185SOL     OW31453   6.199   6.261   2.960
10185SOL    HW131454   6.108   6.269   2.918
10185SOL    HW231455   6.262   6.323   2.914
10186SOL     OW31456   5.609   3.602   3.967
10186SOL    HW131457   5.709   3.611   3.968
10186SOL    HW231458   5.580   3.549   4.046
10187SOL     OW31459   1.129   3.605   0.368
10187SOL    HW131460   1.212   3.647   0.404
10187SOL    HW231461   1.132   3.506   0.385
10188SOL     OW31462   4.098   4.497   0.357
10188SOL    HW131463   4.111   4.459   0.266
10188SOL    HW231464   4.001   4.515   0.372
10189SOL     OW31465   0.461   1.174   6.500
10189SOL    HW131466   0.548   1.125   6.502
10189SOL    HW231467   0.389   1.117   6.538
10190SOL     OW31468   4.879   3.100   1.146
10190SOL    HW131469   4.883   3.100   1.245
10190SOL    HW231470   4.822   3.176   1.115
10191SOL     OW31471   4.245   5.891   6.311
10191SOL    HW131472   4.338   5.877   6.343
10191SOL    HW231473   4.185   5.909   6.390
10192SOL     OW31474   4.411   1.555   5.437
10192SOL    HW131475   4.426   1.600   5.349
10192SOL    HW231476   4.317   1.523   5.443
10193SOL     OW31477   3.678   2.954   2.172
10193SOL    HW131478   3.773   2.982   2.180
10193SOL    HW231479   3.652   2.900   2.252
10194SOL     OW31480   5.221   6.306   5.874
10194SOL    HW131481   5.292   6.372   5.897
10194SOL    HW231482   5.176   6.275   5.958
10195SOL     OW31483   6.502   6.035   0.320
10195SOL    HW131484   6.485   5.985   0.235
10195SOL    HW231485   6.420   6.087   0.345
10196SOL     OW31486   4.291   2.221   3.977
10196SOL    HW131487   4.370   2.183   4.026
10196SOL    HW231488   4.317   2.240   3.882
10197SOL     OW31489   5.480   1.891   4.642
10197SOL    HW131490   5.432   1.954   4.702
10197SOL    HW231491   5.447   1.902   4.548
10198SOL     OW31492   2.651   6.870   2.751
10198SOL    HW131493   2.724   6.937   2.735
10198SOL    HW231494   2.646   6.808   2.673
10199SOL     OW31495   1.338   2.849   0.692
10199SOL    HW131496   1.377   2.915   0.756
10199SOL    HW231497   1.244   2.826   0.720
10200SOL     OW31498   4.889   2.789   6.219
10200SOL    HW131499   4.883   2.762   6.123
10200SOL    HW231500   4.817   2.855   6.240
10201SOL     OW31501   1.131   5.159   0.204
10201SOL    HW131502   1.065   5.210   0.150
10201SOL    HW231503   1.223   5.174   0.168
10202SOL     OW31504   3.130   5.128   0.761
10202SOL    HW131505   3.110   5.038   0.798
10202SOL    HW231506   3.172   5.185   0.832
10203SOL     OW31507   6.773   2.671   2.624
10203SOL    HW131508   6.726   2.712   2.546
10203SOL    HW231509   6.871   2.666   2.604
10204SOL     OW31510   4.189   5.580   6.735
10204SOL    HW131511   4.203   5.487   6.702
10204SOL    HW231512   4.092   5.603   6.733
10205SOL     OW31513   2.424   0.865   1.938
10205SOL    HW131514   2.470   0.905   1.859
10205SOL    HW231515   2.468   0.779   1.962
10206SOL     OW31516   6.808   6.826   6.697
10206SOL    HW131517   6.793   6.730   6.721
10206SOL    HW231518   6.845   6.874   6.776
10207SOL     OW31519   0.854   2.321   6.991
10207SOL    HW131520   0.766   2.276   7.007
10207SOL    HW231521   0.853   2.412   0.016
10208SOL     OW31522   6.408   5.110   4.024
10208SOL    HW131523   6.470   5.141   3.952
10208SOL    HW231524   6.366   5.024   3.997
10209SOL     OW31525   0.154   6.779   6.739
10209SOL    HW131526   0.096   6.702   6.766
10209SOL    HW231527   0.216   6.750   6.667
10210SOL     OW31528   4.810   6.552   1.919
10210SOL    HW131529   4.777   6.546   1.824
10210SOL    HW231530   4.800   6.646   1.951
10211SOL     OW31531   4.958   6.446   4.393
10211SOL    HW131532   4.987   6.540   4.376
10211SOL    HW231533   5.039   6.388   4.405
10212SOL     OW31534   0.413   6.923   5.464
10212SOL    HW131535   0.330   6.952   5.513
10212SOL    HW231536   0.389   6.899   5.370
10213SOL     OW31537   5.682   2.465   1.735
10213SOL    HW131538   5.752   2.405   1.697
10213SOL    HW231539   5.675   2.548   1.679
10214SOL     OW31540   0.225   1.681   1.463
10214SOL    HW131541   0.248   1.764   1.412
10214SOL    HW231542   0.130   1.657   1.446
10215SOL     OW31543   3.876   3.392   3.876
10215SOL    HW131544   3.804   3.324   3.890
10215SOL    HW231545   3.965   3.349   3.889
10216SOL     OW31546   7.002   1.260   1.558
10216SOL    HW131547   0.086   1.256   1.559
10216SOL    HW231548   6.970   1.282   1.466
10217SOL     OW31549   2.629   1.366   3.447
10217SOL    HW131550   2.650   1.387   3.542
10217SOL    HW231551   2.709   1.386   3.390
10218SOL     OW31552   0.641   1.131   1.672
10218SOL    HW131553   0.737   1.144   1.650
10218SOL    HW231554   0.625   1.038   1.703
10219SOL     OW31555   0.133   2.170   2.722
10219SOL    HW131556   0.210   2.128   2.770
10219SOL    HW231557   0.161   2.192   2.628
10220SOL     OW31558   4.505   1.742   1.032
10220SOL    HW131559   4.459   1.742   1.121
10220SOL    HW231560   4.510   1.648   0.998
10221SOL     OW31561   1.977   4.264   4.609
10221SOL    HW131562   1.997   4.185   4.550
10221SOL    HW231563   1.880   4.263   4.632
10222SOL     OW31564   2.961   4.407   5.387
10222SOL    HW131565   2.942   4.475   5.317
10222SOL    HW231566   2.915   4.321   5.364
10223SOL     OW31567   2.685   5.083   1.139
10223SOL    HW131568   2.746   5.156   1.170
10223SOL    HW231569   2.646   5.108   1.050
10224SOL     OW31570   6.166   2.456   6.038
10224SOL    HW131571   6.208   2.472   5.949
10224SOL    HW231572   6.225   2.493   6.110
10225SOL     OW31573   1.572   6.132   5.261
10225SOL    HW131574   1.660   6.166   5.227
10225SOL    HW231575   1.534   6.198   5.325
10226SOL     OW31576   2.172   0.556   6.071
10226SOL    HW131577   2.088   0.581   6.022
10226SOL    HW231578   2.208   0.471   6.033
10227SOL     OW31579   5.325   4.965   0.460
10227SOL    HW131580   5.400   4.913   0.420
10227SOL    HW231581   5.360   5.049   0.501
10228SOL     OW31582   0.457   6.010   1.926
10228SOL    HW131583   0.458   5.934   1.861
10228SOL    HW231584   0.542   6.062   1.918
10229SOL     OW31585   1.979   3.151   5.193
10229SOL    HW131586   1.935   3.238   5.216
10229SOL    HW231587   1.996   3.099   5.277
10230SOL     OW31588   6.405   6.258   3.200
10230SOL    HW131589   6.452   6.256   3.112
10230SOL    HW231590   6.346   6.339   3.204
10231SOL     OW31591   6.371   4.831   4.931
10231SOL    HW131592   6.398   4.809   5.025
10231SOL    HW231593   6.281   4.792   4.913
10232SOL     OW31594   3.216   1.516   3.912
10232SOL    HW131595   3.243   1.598   3.861
10232SOL    HW231596   3.117   1.516   3.926
10233SOL     OW31597   3.766   4.206   5.319
10233SOL    HW131598   3.783   4.135   5.388
10233SOL    HW231599   3.668   4.220   5.309
10234SOL     OW31600   5.269   0.916   0.721
10234SOL    HW131601   5.339   0.918   0.792
10234SOL    HW231602   5.218   0.831   0.727
10235SOL     OW31603   3.350   2.127   1.348
10235SOL    HW131604   3.368   2.108   1.252
10235SOL    HW231605   3.252   2.117   1.366
10236SOL     OW31606   1.873   1.286   1.340
10236SOL    HW131607   1.817   1.334   1.272
10236SOL    HW231608   1.903   1.199   1.302
10237SOL     OW31609   0.068   4.760   6.259
10237SOL    HW131610   6.999   4.804   6.286
10237SOL    HW231611   0.059   4.724   6.166
10238SOL     OW31612   3.946   3.825   2.251
10238SOL    HW131613   3.912   3.915   2.278
10238SOL    HW231614   3.961   3.769   2.333
10239SOL     OW31615   2.447   3.847   5.887
10239SOL    HW131616   2.460   3.774   5.819
10239SOL    HW231617   2.388   3.813   5.961
10240SOL     OW31618   1.984   4.266   2.480
10240SOL    HW131619   2.020   4.186   2.432
10240SOL    HW231620   2.033   4.279   2.566
10241SOL     OW31621   0.417   6.417   3.469
10241SOL    HW131622   0.351   6.388   3.399
10241SOL    HW231623   0.370   6.430   3.556
10242SOL     OW31624   0.377   1.224   1.738
10242SOL    HW131625   0.330   1.242   1.652
10242SOL    HW231626   0.471   1.195   1.720
10243SOL     OW31627   2.502   4.515   2.850
10243SOL    HW131628   2.539   4.526   2.758
10243SOL    HW231629   2.564   4.559   2.916
10244SOL     OW31630   1.363   4.412   1.147
10244SOL    HW131631   1.352   4.314   1.162
10244SOL    HW231632   1.365   4.430   1.049
10245SOL     OW31633   3.938   3.942   1.546
10245SOL    HW131634   3.853   3.903   1.580
10245SOL    HW231635   3.927   3.968   1.450
10246SOL     OW31636   3.486   3.157   3.627
10246SOL    HW131637   3.460   3.066   3.594
10246SOL    HW231638   3.420   3.187   3.696
10247SOL     OW31639   6.887   4.379   6.262
10247SOL    HW131640   6.978   4.376   6.221
10247SOL    HW231641   6.817   4.384   6.190
10248SOL     OW31642   1.730   6.411   2.784
10248SOL    HW131643   1.643   6.457   2.796
10248SOL    HW231644   1.755   6.413   2.687
10249SOL     OW31645   2.390   6.090   6.378
10249SOL    HW131646   2.411   6.093   6.476
10249SOL    HW231647   2.466   6.047   6.329
10250SOL     OW31648   6.474   2.506   1.856
10250SOL    HW131649   6.483   2.540   1.762
10250SOL    HW231650   6.484   2.406   1.856
10251SOL     OW31651   2.138   1.239   4.955
10251SOL    HW131652   2.162   1.175   4.882
10251SOL    HW231653   2.168   1.201   5.043
10252SOL     OW31654   3.773   4.918   5.851
10252SOL    HW131655   3.856   4.882   5.807
10252SOL    HW231656   3.716   4.842   5.882
10253SOL     OW31657   2.636   0.232   0.780
10253SOL    HW131658   2.562   0.298   0.768
10253SOL    HW231659   2.724   0.279   0.776
10254SOL     OW31660   4.895   1.103   5.620
10254SOL    HW131661   4.936   1.185   5.661
10254SOL    HW231662   4.798   1.099   5.643
10255SOL     OW31663   2.507   5.919   1.129
10255SOL    HW131664   2.535   5.923   1.224
10255SOL    HW231665   2.426   5.860   1.120
10256SOL     OW31666   4.987   1.749   1.789
10256SOL    HW131667   5.065   1.689   1.807
10256SOL    HW231668   5.016   1.825   1.731
10257SOL     OW31669   1.534   4.804   4.670
10257SOL    HW131670   1.477   4.727   4.644
10257SOL    HW231671   1.592   4.831   4.592
10258SOL     OW31672   3.327   1.094   3.765
10258SOL    HW131673   3.265   1.142   3.828
10258SOL    HW231674   3.419   1.095   3.803
10259SOL     OW31675   1.188   5.035   2.991
10259SOL    HW131676   1.096   5.000   3.009
10259SOL    HW231677   1.251   5.003   3.061
10260SOL     OW31678   1.743   1.226   3.731
10260SOL    HW131679   1.667   1.243   3.668
10260SOL    HW231680   1.829   1.225   3.679
10261SOL     OW31681   6.826   5.036   2.433
10261SOL    HW131682   6.922   5.054   2.412
10261SOL    HW231683   6.769   5.056   2.353
10262SOL     OW31684   2.763   6.883   5.425
10262SOL    HW131685   2.857   6.892   5.392
10262SOL    HW231686   2.726   6.973   5.446
10263SOL     OW31687   5.724   6.720   6.571
10263SOL    HW131688   5.769   6.752   6.655
10263SOL    HW231689   5.764   6.633   6.543
10264SOL     OW31690   6.114   6.830   6.726
10264SOL    HW131691   6.164   6.820   6.812
10264SOL    HW231692   6.172   6.805   6.649
10265SOL     OW31693   2.608   2.921   1.581
10265SOL    HW131694   2.622   3.014   1.612
10265SOL    HW231695   2.691   2.868   1.595
10266SOL     OW31696   4.119   3.489   4.061
10266SOL    HW131697   4.118   3.450   3.969
10266SOL    HW231698   4.026   3.487   4.099
10267SOL     OW31699   5.745   2.718   6.756
10267SOL    HW131700   5.744   2.622   6.784
10267SOL    HW231701   5.805   2.770   6.817
10268SOL     OW31702   6.031   5.717   2.547
10268SOL    HW131703   6.001   5.800   2.594
10268SOL    HW231704   5.998   5.719   2.452
10269SOL     OW31705   6.899   3.608   6.986
10269SOL    HW131706   6.984   3.592   6.937
10269SOL    HW231707   6.861   3.696   6.958
10270SOL     OW31708   3.997   4.997   2.605
10270SOL    HW131709   4.010   4.917   2.547
10270SOL    HW231710   4.074   5.059   2.594
10271SOL     OW31711   3.552   2.294   6.433
10271SOL    HW131712   3.482   2.363   6.446
10271SOL    HW231713   3.528   2.210   6.482
10272SOL     OW31714   1.423   1.402   5.294
10272SOL    HW131715   1.442   1.443   5.205
10272SOL    HW231716   1.504   1.353   5.326
10273SOL     OW31717   3.032   5.479   2.783
10273SOL    HW131718   3.064   5.460   2.876
10273SOL    HW231719   2.992   5.570   2.779
10274SOL     OW31720   0.813   5.638   5.463
10274SOL    HW131721   0.796   5.736   5.456
10274SOL    HW231722   0.834   5.601   5.372
10275SOL     OW31723   0.209   6.495   2.382
10275SOL    HW131724   0.303   6.528   2.382
10275SOL    HW231725   0.189   6.451   2.295
10276SOL     OW31726   5.197   5.226   5.481
10276SOL    HW131727   5.279   5.269   5.519
10276SOL    HW231728   5.222   5.139   5.439
10277SOL     OW31729   1.438   5.526   3.898
10277SOL    HW131730   1.524   5.482   3.922
10277SOL    HW231731   1.403   5.487   3.813
10278SOL     OW31732   0.808   2.020   4.039
10278SOL    HW131733   0.861   2.100   4.013
10278SOL    HW231734   0.736   2.004   3.971
10279SOL     OW31735   2.060   5.037   4.086
10279SOL    HW131736   1.979   5.034   4.145
10279SOL    HW231737   2.068   4.951   4.035
10280SOL     OW31738   6.984   3.230   0.706
10280SOL    HW131739   6.991   3.130   0.705
10280SOL    HW231740   0.037   3.268   0.768
10281SOL     OW31741   5.725   1.139   2.610
10281SOL    HW131742   5.646   1.090   2.648
10281SOL    HW231743   5.692   1.216   2.554
10282SOL     OW31744   5.185   3.099   4.421
10282SOL    HW131745   5.171   3.009   4.380
10282SOL    HW231746   5.172   3.093   4.520
10283SOL     OW31747   1.183   3.097   0.935
10283SOL    HW131748   1.116   3.035   0.894
10283SOL    HW231749   1.264   3.046   0.962
10284SOL     OW31750   5.399   2.524   4.958
10284SOL    HW131751   5.418   2.539   5.055
10284SOL    HW231752   5.474   2.473   4.916
10285SOL     OW31753   5.972   0.065   2.809
10285SOL    HW131754   6.025   6.997   2.801
10285SOL    HW231755   5.933   0.089   2.720
10286SOL     OW31756   3.471   1.655   3.127
10286SOL    HW131757   3.476   1.685   3.032
10286SOL    HW231758   3.494   1.558   3.132
10287SOL     OW31759   2.006   6.738   1.531
10287SOL    HW131760   2.047   6.699   1.614
10287SOL    HW231761   2.006   6.669   1.459
10288SOL     OW31762   4.822   5.878   3.244
10288SOL    HW131763   4.800   5.962   3.293
10288SOL    HW231764   4.786   5.799   3.294
10289SOL     OW31765   2.288   6.328   0.179
10289SOL    HW131766   2.213   6.380   0.220
10289SOL    HW231767   2.333   6.384   0.109
10290SOL     OW31768   3.198   3.890   2.790
10290SOL    HW131769   3.205   3.974   2.736
10290SOL    HW231770   3.113   3.843   2.766
10291SOL     OW31771   4.358   1.629   2.772
10291SOL    HW131772   4.403   1.539   2.770
10291SOL    HW231773   4.288   1.629   2.843
10292SOL     OW31774   1.628   1.239   5.327
10292SOL    HW131775   1.572   1.156   5.328
10292SOL    HW231776   1.717   1.219   5.368
10293SOL     OW31777   2.261   4.183   2.695
10293SOL    HW131778   2.331   4.157   2.761
10293SOL    HW231779   2.185   4.227   2.743
10294SOL     OW31780   5.750   3.098   3.171
10294SOL    HW131781   5.847   3.082   3.188
10294SOL    HW231782   5.700   3.012   3.183
10295SOL     OW31783   0.242   4.658   5.551
10295SOL    HW131784   0.322   4.667   5.492
10295SOL    HW231785   0.208   4.564   5.545
10296SOL     OW31786   5.336   1.434   0.009
10296SOL    HW131787   5.416   1.435   6.966
10296SOL    HW231788   5.324   1.524   0.050
10297SOL     OW31789   1.690   0.192   6.279
10297SOL    HW131790   1.733   0.151   6.199
10297SOL    HW231791   1.611   0.246   6.250
10298SOL     OW31792   2.721   4.548   1.645
10298SOL    HW131793   2.785   4.535   1.721
10298SOL    HW231794   2.630   4.568   1.682
10299SOL     OW31795   5.028   4.854   2.925
10299SOL    HW131796   5.077   4.936   2.897
10299SOL    HW231797   4.934   4.859   2.891
10300SOL     OW31798   1.381   4.228   2.612
10300SOL    HW131799   1.466   4.222   2.560
10300SOL    HW231800   1.343   4.136   2.625
10301SOL     OW31801   5.039   2.338   4.142
10301SOL    HW131802   4.942   2.360   4.132
10301SOL    HW231803   5.091   2.422   4.159
10302SOL     OW31804   1.897   0.032   4.095
10302SOL    HW131805   1.808   0.077   4.100
10302SOL    HW231806   1.965   0.095   4.061
10303SOL     OW31807   1.967   6.181   2.908
10303SOL    HW131808   2.006   6.268   2.939
10303SOL    HW231809   1.868   6.182   2.922
10304SOL     OW31810   5.921   6.658   1.420
10304SOL    HW131811   5.865   6.589   1.374
10304SOL    HW231812   5.880   6.748   1.408
10305SOL     OW31813   1.049   4.553   6.688
10305SOL    HW131814   1.036   4.476   6.751
10305SOL    HW231815   1.055   4.638   6.740
10306SOL     OW31816   4.621   6.890   6.260
10306SOL    HW131817   4.655   6.887   6.354
10306SOL    HW231818   4.547   6.824   6.249
10307SOL     OW31819   2.572   2.419   5.178
10307SOL    HW131820   2.569   2.509   5.136
10307SOL    HW231821   2.489   2.403   5.231
10308SOL     OW31822   1.908   4.101   3.450
10308SOL    HW131823   1.957   4.188   3.442
10308SOL    HW231824   1.930   4.043   3.373
10309SOL     OW31825   6.917   1.352   5.477
10309SOL    HW131826   6.912   1.327   5.380
10309SOL    HW231827   6.929   1.269   5.531
10310SOL     OW31828   3.342   3.571   0.970
10310SOL    HW131829   3.335   3.561   0.870
10310SOL    HW231830   3.284   3.647   1.000
10311SOL     OW31831   6.980   6.190   0.443
10311SOL    HW131832   0.025   6.220   0.369
10311SOL    HW231833   6.901   6.142   0.404
10312SOL     OW31834   3.676   6.116   2.453
10312SOL    HW131835   3.692   6.158   2.364
10312SOL    HW231836   3.647   6.187   2.519
10313SOL     OW31837   4.556   6.669   1.607
10313SOL    HW131838   4.470   6.624   1.631
10313SOL    HW231839   4.629   6.600   1.603
10314SOL     OW31840   6.455   0.926   2.186
10314SOL    HW131841   6.355   0.928   2.175
10314SOL    HW231842   6.488   0.832   2.173
10315SOL     OW31843   4.936   5.962   5.048
10315SOL    HW131844   5.003   5.956   5.121
10315SOL    HW231845   4.982   5.961   4.960
10316SOL     OW31846   6.361   1.456   4.093
10316SOL    HW131847   6.376   1.512   4.011
10316SOL    HW231848   6.263   1.450   4.112
10317SOL     OW31849   4.902   5.902   4.477
10317SOL    HW131850   4.935   5.992   4.507
10317SOL    HW231851   4.844   5.914   4.396
10318SOL     OW31852   5.230   6.200   6.800
10318SOL    HW131853   5.192   6.187   6.891
10318SOL    HW231854   5.200   6.126   6.740
10319SOL     OW31855   1.086   2.650   5.515
10319SOL    HW131856   1.112   2.746   5.500
10319SOL    HW231857   1.162   2.601   5.556
10320SOL     OW31858   0.089   1.150   2.895
10320SOL    HW131859   7.009   1.166   2.918
10320SOL    HW231860   0.095   1.077   2.827
10321SOL     OW31861   4.116   2.005   1.788
10321SOL    HW131862   4.083   2.095   1.817
10321SOL    HW231863   4.105   1.940   1.863
10322SOL     OW31864   6.586   5.764   5.234
10322SOL    HW131865   6.511   5.815   5.276
10322SOL    HW231866   6.596   5.676   5.279
10323SOL     OW31867   6.007   2.764   5.659
10323SOL    HW131868   6.082   2.793   5.599
10323SOL    HW231869   5.922   2.809   5.631
10324SOL     OW31870   3.210   3.332   2.485
10324SOL    HW131871   3.202   3.431   2.501
10324SOL    HW231872   3.306   3.309   2.472
10325SOL     OW31873   0.040   4.003   2.118
10325SOL    HW131874   0.065   3.915   2.159
10325SOL    HW231875   6.982   4.045   2.171
10326SOL     OW31876   3.443   4.385   0.345
10326SOL    HW131877   3.412   4.467   0.298
10326SOL    HW231878   3.543   4.381   0.343
10327SOL     OW31879   2.605   1.841   1.465
10327SOL    HW131880   2.579   1.884   1.552
10327SOL    HW231881   2.605   1.741   1.477
10328SOL     OW31882   5.551   2.917   0.936
10328SOL    HW131883   5.603   2.955   0.859
10328SOL    HW231884   5.486   2.850   0.902
10329SOL     OW31885   3.738   0.116   4.035
10329SOL    HW131886   3.752   0.073   4.124
10329SOL    HW231887   3.640   0.127   4.018
10330SOL     OW31888   4.758   0.250   2.253
10330SOL    HW131889   4.760   0.287   2.346
10330SOL    HW231890   4.667   0.262   2.214
10331SOL     OW31891   0.011   1.007   5.434
10331SOL    HW131892   0.080   0.940   5.462
10331SOL    HW231893   6.998   1.059   5.514
10332SOL     OW31894   6.373   0.648   0.502
10332SOL    HW131895   6.279   0.632   0.472
10332SOL    HW231896   6.377   0.732   0.556
10333SOL     OW31897   6.580   4.172   4.487
10333SOL    HW131898   6.559   4.135   4.578
10333SOL    HW231899   6.521   4.250   4.468
10334SOL     OW31900   3.938   6.584   3.736
10334SOL    HW131901   3.908   6.646   3.809
10334SOL    HW231902   4.030   6.610   3.707
10335SOL     OW31903   2.920   4.416   6.880
10335SOL    HW131904   2.965   4.487   6.826
10335SOL    HW231905   2.876   4.350   6.818
10336SOL     OW31906   6.862   6.173   2.786
10336SOL    HW131907   6.831   6.168   2.691
10336SOL    HW231908   6.877   6.268   2.811
10337SOL     OW31909   6.818   6.477   5.632
10337SOL    HW131910   6.763   6.458   5.550
10337SOL    HW231911   6.817   6.575   5.651
10338SOL     OW31912   2.153   6.145   2.446
10338SOL    HW131913   2.145   6.134   2.545
10338SOL    HW231914   2.246   6.122   2.417
10339SOL     OW31915   3.556   4.736   0.087
10339SOL    HW131916   3.511   4.767   0.171
10339SOL    HW231917   3.501   4.664   0.044
10340SOL     OW31918   1.961   4.752   1.297
10340SOL    HW131919   2.060   4.755   1.292
10340SOL    HW231920   1.923   4.735   1.206
10341SOL     OW31921   1.922   3.376   1.547
10341SOL    HW131922   1.926   3.434   1.466
10341SOL    HW231923   2.003   3.391   1.603
10342SOL     OW31924   1.023   7.010   5.579
10342SOL    HW131925   1.043   0.091   5.563
10342SOL    HW231926   1.024   6.961   5.492
10343SOL     OW31927   3.493   6.002   6.858
10343SOL    HW131928   3.505   5.908   6.888
10343SOL    HW231929   3.518   6.064   6.933
10344SOL     OW31930   4.556   4.081   1.673
10344SOL    HW131931   4.493   4.122   1.739
10344SOL    HW231932   4.646   4.071   1.714
10345SOL     OW31933   1.613   1.523   0.052
10345SOL    HW131934   1.580   1.456   7.001
10345SOL    HW231935   1.576   1.613   0.029
10346SOL     OW31936   6.391   7.001   1.916
10346SOL    HW131937   6.454   6.948   1.974
10346SOL    HW231938   6.382   6.956   1.827
10347SOL     OW31939   4.830   2.329   2.603
10347SOL    HW131940   4.742   2.339   2.649
10347SOL    HW231941   4.883   2.413   2.615
10348SOL     OW31942   6.501   1.349   0.390
10348SOL    HW131943   6.475   1.313   0.301
10348SOL    HW231944   6.421   1.390   0.434
10349SOL     OW31945   6.646   1.013   1.215
10349SOL    HW131946   6.603   0.927   1.185
10349SOL    HW231947   6.713   0.993   1.287
10350SOL     OW31948   2.071   6.813   5.359
10350SOL    HW131949   2.105   6.800   5.266
10350SOL    HW231950   1.980   6.855   5.356
10351SOL     OW31951   4.690   5.517   6.489
10351SOL    HW131952   4.789   5.510   6.475
10351SOL    HW231953   4.650   5.426   6.487
10352SOL     OW31954   4.272   2.291   6.419
10352SOL    HW131955   4.314   2.218   6.366
10352SOL    HW231956   4.216   2.252   6.492
10353SOL     OW31957   0.496   2.688   5.839
10353SOL    HW131958   0.500   2.594   5.806
10353SOL    HW231959   0.490   2.751   5.762
10354SOL     OW31960   6.131   2.548   1.852
10354SOL    HW131961   6.200   2.612   1.886
10354SOL    HW231962   6.111   2.568   1.756
10355SOL     OW31963   1.721   6.962   1.942
10355SOL    HW131964   1.666   6.962   2.026
10355SOL    HW231965   1.818   6.960   1.967
10356SOL     OW31966   0.017   4.668   6.012
10356SOL    HW131967   6.958   4.723   5.974
10356SOL    HW231968   0.081   4.645   5.939
10357SOL     OW31969   2.985   3.242   6.111
10357SOL    HW131970   3.047   3.293   6.170
10357SOL    HW231971   2.976   3.290   6.023
10358SOL     OW31972   6.472   2.995   3.564
10358SOL    HW131973   6.391   3.039   3.602
10358SOL    HW231974   6.476   2.899   3.592
10359SOL     OW31975   6.637   1.647   1.609
10359SOL    HW131976   6.683   1.727   1.570
10359SOL    HW231977   6.540   1.649   1.584
10360SOL     OW31978   4.329   5.837   2.532
10360SOL    HW131979   4.363   5.911   2.591
10360SOL    HW231980   4.290   5.876   2.449
10361SOL     OW31981   2.846   0.498   3.087
10361SOL    HW131982   2.944   0.514   3.091
10361SOL    HW231983   2.818   0.483   2.992
10362SOL     OW31984   0.710   4.728   3.989
10362SOL    HW131985   0.702   4.778   4.076
10362SOL    HW231986   0.671   4.637   4.000
10363SOL     OW31987   4.454   2.132   0.655
10363SOL    HW131988   4.483   2.037   0.645
10363SOL    HW231989   4.441   2.152   0.752
10364SOL     OW31990   3.914   3.652   2.448
10364SOL    HW131991   3.835   3.601   2.416
10364SOL    HW231992   3.969   3.594   2.508
10365SOL     OW31993   5.152   4.606   5.537
10365SOL    HW131994   5.062   4.648   5.541
10365SOL    HW231995   5.146   4.518   5.490
10366SOL     OW31996   4.839   0.155   3.788
10366SOL    HW131997   4.910   0.223   3.804
10366SOL    HW231998   4.832   0.095   3.868
10367SOL     OW31999   6.866   1.370   1.777
10367SOL    HW132000   6.914   1.335   1.696
10367SOL    HW232001   6.790   1.309   1.799
10368SOL     OW32002   1.988   0.687   2.097
10368SOL    HW132003   2.085   0.672   2.075
10368SOL    HW232004   1.940   0.599   2.094
10369SOL     OW32005   4.092   1.273   5.122
10369SOL    HW132006   4.178   1.321   5.136
10369SOL    HW232007   4.107   1.191   5.067
10370SOL     OW32008   5.623   1.826   5.090
10370SOL    HW132009   5.627   1.800   5.187
10370SOL    HW232010   5.554   1.896   5.077
10371SOL     OW32011   1.863   5.867   4.082
10371SOL    HW132012   1.946   5.921   4.065
10371SOL    HW232013   1.783   5.927   4.081
10372SOL     OW32014   1.706   1.319   0.627
10372SOL    HW132015   1.736   1.253   0.558
10372SOL    HW232016   1.607   1.312   0.640
10373SOL     OW32017   1.943   6.710   4.354
10373SOL    HW132018   1.916   6.706   4.450
10373SOL    HW232019   1.970   6.619   4.323
10374SOL     OW32020   4.238   0.913   2.665
10374SOL    HW132021   4.306   0.974   2.705
10374SOL    HW232022   4.280   0.860   2.591
10375SOL     OW32023   2.967   1.521   6.394
10375SOL    HW132024   2.977   1.581   6.314
10375SOL    HW232025   2.900   1.559   6.457
10376SOL     OW32026   1.201   5.915   3.891
10376SOL    HW132027   1.162   5.959   3.972
10376SOL    HW232028   1.132   5.912   3.819
10377SOL     OW32029   6.780   1.212   3.724
10377SOL    HW132030   6.696   1.207   3.669
10377SOL    HW232031   6.834   1.130   3.709
10378SOL     OW32032   5.876   0.307   5.946
10378SOL    HW132033   5.826   0.281   6.028
10378SOL    HW232034   5.860   0.404   5.926
10379SOL     OW32035   3.001   6.959   4.559
10379SOL    HW132036   3.063   6.903   4.614
10379SOL    HW232037   3.004   6.928   4.464
10380SOL     OW32038   0.785   2.022   4.449
10380SOL    HW132039   0.844   2.096   4.481
10380SOL    HW232040   0.702   2.061   4.407
10381SOL     OW32041   4.381   4.491   0.401
10381SOL    HW132042   4.283   4.492   0.421
10381SOL    HW232043   4.397   4.527   0.309
10382SOL     OW32044   1.892   4.544   0.668
10382SOL    HW132045   1.831   4.590   0.603
10382SOL    HW232046   1.983   4.586   0.664
10383SOL     OW32047   6.534   3.842   0.787
10383SOL    HW132048   6.503   3.935   0.769
10383SOL    HW232049   6.463   3.778   0.757
10384SOL     OW32050   0.541   6.930   0.625
10384SOL    HW132051   0.624   6.907   0.574
10384SOL    HW232052   0.514   6.853   0.682
10385SOL     OW32053   3.257   6.440   5.891
10385SOL    HW132054   3.194   6.473   5.821
10385SOL    HW232055   3.342   6.493   5.888
10386SOL     OW32056   6.623   2.064   5.884
10386SOL    HW132057   6.535   2.109   5.899
10386SOL    HW232058   6.688   2.129   5.845
10387SOL     OW32059   4.889   2.073   2.966
10387SOL    HW132060   4.937   2.161   2.960
10387SOL    HW232061   4.791   2.089   2.973
10388SOL     OW32062   2.219   5.637   2.464
10388SOL    HW132063   2.230   5.717   2.522
10388SOL    HW232064   2.197   5.666   2.371
10389SOL     OW32065   0.174   6.742   1.334
10389SOL    HW132066   0.127   6.725   1.247
10389SOL    HW232067   0.140   6.827   1.375
10390SOL     OW32068   2.010   2.601   1.811
10390SOL    HW132069   1.999   2.510   1.770
10390SOL    HW232070   2.108   2.618   1.827
10391SOL     OW32071   1.168   5.755   4.267
10391SOL    HW132072   1.164   5.669   4.318
10391SOL    HW232073   1.173   5.736   4.169
10392SOL     OW32074   6.757   4.274   0.135
10392SOL    HW132075   6.724   4.333   0.209
10392SOL    HW232076   6.857   4.277   0.134
10393SOL     OW32077   2.118   2.253   2.634
10393SOL    HW132078   2.182   2.220   2.564
10393SOL    HW232079   2.147   2.343   2.665
10394SOL     OW32080   2.225   6.160   4.630
10394SOL    HW132081   2.306   6.154   4.572
10394SOL    HW232082   2.223   6.084   4.694
10395SOL     OW32083   7.016   0.809   3.493
10395SOL    HW132084   6.983   0.742   3.560
10395SOL    HW232085   6.941   0.832   3.431
10396SOL     OW32086   2.469   0.397   4.190
10396SOL    HW132087   2.475   0.427   4.095
10396SOL    HW232088   2.493   0.472   4.251
10397SOL     OW32089   3.134   1.843   3.648
10397SOL    HW132090   3.101   1.928   3.688
10397SOL    HW232091   3.057   1.783   3.629
10398SOL     OW32092   5.629   2.207   0.498
10398SOL    HW132093   5.672   2.276   0.556
10398SOL    HW232094   5.671   2.118   0.514
10399SOL     OW32095   4.106   1.875   4.621
10399SOL    HW132096   4.145   1.801   4.566
10399SOL    HW232097   4.014   1.896   4.588
10400SOL     OW32098   3.701   5.874   0.893
10400SOL    HW132099   3.667   5.967   0.881
10400SOL    HW232100   3.711   5.854   0.990
10401SOL     OW32101   0.152   0.098   2.650
10401SOL    HW132102   0.087   0.172   2.665
10401SOL    HW232103   0.211   0.089   2.730
10402SOL     OW32104   0.206   2.514   5.857
10402SOL    HW132105   0.224   2.525   5.759
10402SOL    HW232106   0.286   2.543   5.909
10403SOL     OW32107   5.306   1.523   2.903
10403SOL    HW132108   5.367   1.483   2.971
10403SOL    HW232109   5.357   1.538   2.818
10404SOL     OW32110   0.275   6.535   3.957
10404SOL    HW132111   0.237   6.534   3.865
10404SOL    HW232112   0.231   6.607   4.011
10405SOL     OW32113   1.293   5.509   4.814
10405SOL    HW132114   1.392   5.502   4.810
10405SOL    HW232115   1.262   5.497   4.909
10406SOL     OW32116   2.118   3.444   5.009
10406SOL    HW132117   2.118   3.346   4.989
10406SOL    HW232118   2.183   3.463   5.083
10407SOL     OW32119   2.006   0.558   6.736
10407SOL    HW132120   2.061   0.607   6.668
10407SOL    HW232121   1.915   0.542   6.699
10408SOL     OW32122   3.594   6.362   1.972
10408SOL    HW132123   3.657   6.438   1.984
10408SOL    HW232124   3.500   6.393   1.987
10409SOL     OW32125   0.199   3.699   0.776
10409SOL    HW132126   0.198   3.648   0.861
10409SOL    HW232127   0.252   3.649   0.707
10410SOL     OW32128   5.202   1.839   1.387
10410SOL    HW132129   5.189   1.822   1.289
10410SOL    HW232130   5.114   1.836   1.433
10411SOL     OW32131   3.910   5.348   4.649
10411SOL    HW132132   3.906   5.445   4.627
10411SOL    HW232133   3.906   5.336   4.748
10412SOL     OW32134   0.578   1.088   0.747
10412SOL    HW132135   0.629   1.165   0.707
10412SOL    HW232136   0.483   1.091   0.717
10413SOL     OW32137   6.975   1.798   0.893
10413SOL    HW132138   7.006   1.848   0.811
10413SOL    HW232139   7.008   1.845   0.975
10414SOL     OW32140   4.305   6.512   6.013
10414SOL    HW132141   4.398   6.511   5.976
10414SOL    HW232142   4.240   6.534   5.940
10415SOL     OW32143   2.324   4.288   4.018
10415SOL    HW132144   2.297   4.239   3.935
10415SOL    HW232145   2.381   4.228   4.075
10416SOL     OW32146   6.093   0.631   5.387
10416SOL    HW132147   6.135   0.596   5.471
10416SOL    HW232148   6.026   0.701   5.410
10417SOL     OW32149   4.745   4.133   4.164
10417SOL    HW132150   4.692   4.113   4.082
10417SOL    HW232151   4.718   4.222   4.201
10418SOL     OW32152   5.996   4.025   5.565
10418SOL    HW132153   6.084   4.000   5.525
10418SOL    HW232154   5.957   3.945   5.612
10419SOL     OW32155   3.133   0.448   5.457
10419SOL    HW132156   3.082   0.527   5.423
10419SOL    HW232157   3.171   0.397   5.379
10420SOL     OW32158   6.835   3.338   3.746
10420SOL    HW132159   6.751   3.358   3.797
10420SOL    HW232160   6.816   3.266   3.679
10421SOL     OW32161   1.693   3.376   4.845
10421SOL    HW132162   1.698   3.462   4.895
10421SOL    HW232163   1.762   3.312   4.880
10422SOL     OW32164   6.411   3.582   5.527
10422SOL    HW132165   6.346   3.545   5.593
10422SOL    HW232166   6.504   3.562   5.556
10423SOL     OW32167   4.215   4.737   5.214
10423SOL    HW132168   4.257   4.828   5.209
10423SOL    HW232169   4.214   4.695   5.124
10424SOL     OW32170   4.177   2.359   0.202
10424SOL    HW132171   4.115   2.431   0.168
10424SOL    HW232172   4.132   2.309   0.276
10425SOL     OW32173   0.649   6.020   1.678
10425SOL    HW132174   0.643   6.003   1.579
10425SOL    HW232175   0.707   6.100   1.695
10426SOL     OW32176   5.277   3.582   5.462
10426SOL    HW132177   5.275   3.646   5.538
10426SOL    HW232178   5.183   3.558   5.436
10427SOL     OW32179   4.987   6.753   6.803
10427SOL    HW132180   5.068   6.800   6.767
10427SOL    HW232181   4.996   6.655   6.786
10428SOL     OW32182   2.389   1.912   4.523
10428SOL    HW132183   2.414   1.883   4.616
10428SOL    HW232184   2.472   1.935   4.473
10429SOL     OW32185   0.981   3.622   3.192
10429SOL    HW132186   0.962   3.720   3.184
10429SOL    HW232187   0.968   3.578   3.103
10430SOL     OW32188   4.056   6.289   4.877
10430SOL    HW132189   4.017   6.377   4.903
10430SOL    HW232190   3.999   6.215   4.912
10431SOL     OW32191   2.851   0.871   4.173
10431SOL    HW132192   2.945   0.904   4.183
10431SOL    HW232193   2.843   0.822   4.086
10432SOL     OW32194   0.286   1.591   5.486
10432SOL    HW132195   0.186   1.595   5.476
10432SOL    HW232196   0.329   1.601   5.396
10433SOL     OW32197   7.000   6.299   2.505
10433SOL    HW132198   0.004   6.308   2.407
10433SOL    HW232199   6.982   6.203   2.526
10434SOL     OW32200   4.536   6.365   4.830
10434SOL    HW132201   4.568   6.277   4.795
10434SOL    HW232202   4.495   6.417   4.755
10435SOL     OW32203   1.833   2.130   6.097
10435SOL    HW132204   1.886   2.046   6.084
10435SOL    HW232205   1.875   2.204   6.043
10436SOL     OW32206   6.488   3.888   3.760
10436SOL    HW132207   6.498   3.940   3.845
10436SOL    HW232208   6.406   3.831   3.765
10437SOL     OW32209   5.700   4.822   5.004
10437SOL    HW132210   5.794   4.810   5.037
10437SOL    HW232211   5.662   4.906   5.042
10438SOL     OW32212   0.108   6.330   5.842
10438SOL    HW132213   0.089   6.375   5.755
10438SOL    HW232214   0.201   6.295   5.842
10439SOL     OW32215   5.877   1.547   5.046
10439SOL    HW132216   5.848   1.459   5.082
10439SOL    HW232217   5.853   1.553   4.949
10440SOL     OW32218   6.875   6.926   6.954
10440SOL    HW132219   6.929   6.854   6.997
10440SOL    HW232220   6.816   6.968   0.006
10441SOL     OW32221   2.954   1.242   1.118
10441SOL    HW132222   2.989   1.267   1.208
10441SOL    HW232223   2.985   1.150   1.093
10442SOL     OW32224   4.486   0.213   4.788
10442SOL    HW132225   4.492   0.114   4.782
10442SOL    HW232226   4.425   0.248   4.717
10443SOL     OW32227   6.462   2.719   2.989
10443SOL    HW132228   6.387   2.734   2.925
10443SOL    HW232229   6.535   2.667   2.943
10444SOL     OW32230   3.735   5.044   2.349
10444SOL    HW132231   3.727   5.002   2.439
10444SOL    HW232232   3.652   5.024   2.296
10445SOL     OW32233   0.353   3.946   2.882
10445SOL    HW132234   0.394   3.855   2.887
10445SOL    HW232235   0.387   4.002   2.958
10446SOL     OW32236   2.104   3.825   6.456
10446SOL    HW132237   2.184   3.805   6.400
10446SOL    HW232238   2.080   3.745   6.510
10447SOL     OW32239   6.782   0.320   2.337
10447SOL    HW132240   6.862   0.381   2.334
10447SOL    HW232241   6.742   0.322   2.429
10448SOL     OW32242   3.233   0.455   2.676
10448SOL    HW132243   3.291   0.508   2.737
10448SOL    HW232244   3.148   0.430   2.724
10449SOL     OW32245   2.587   5.718   6.493
10449SOL    HW132246   2.576   5.629   6.448
10449SOL    HW232247   2.504   5.741   6.543
10450SOL     OW32248   6.912   1.036   6.450
10450SOL    HW132249   6.902   0.977   6.531
10450SOL    HW232250   6.884   1.129   6.473
10451SOL     OW32251   3.233   6.945   2.910
10451SOL    HW132252   3.166   6.938   2.984
10451SOL    HW232253   3.309   7.002   2.940
10452SOL     OW32254   6.756   3.359   2.729
10452SOL    HW132255   6.671   3.364   2.676
10452SOL    HW232256   6.799   3.271   2.713
10453SOL     OW32257   4.789   6.111   2.132
10453SOL    HW132258   4.835   6.196   2.106
10453SOL    HW232259   4.857   6.047   2.170
10454SOL     OW32260   5.310   1.416   0.963
10454SOL    HW132261   5.390   1.405   1.022
10454SOL    HW232262   5.227   1.404   1.017
10455SOL     OW32263   0.291   5.835   3.833
10455SOL    HW132264   0.351   5.777   3.778
10455SOL    HW232265   0.196   5.823   3.804
10456SOL     OW32266   0.560   5.953   1.060
10456SOL    HW132267   0.591   6.013   1.134
10456SOL    HW232268   0.608   5.976   0.976
10457SOL     OW32269   4.037   2.649   0.362
10457SOL    HW132270   3.962   2.662   0.428
10457SOL    HW232271   4.122   2.631   0.412
10458SOL     OW32272   6.192   6.787   6.987
10458SOL    HW132273   6.209   6.878   0.007
10458SOL    HW232274   6.263   6.724   0.002
10459SOL     OW32275   4.738   5.355   1.362
10459SOL    HW132276   4.653   5.319   1.325
10459SOL    HW232277   4.756   5.446   1.322
10460SOL     OW32278   0.605   3.879   2.203
10460SOL    HW132279   0.650   3.928   2.278
10460SOL    HW232280   0.507   3.899   2.203
10461SOL     OW32281   5.982   4.846   5.572
10461SOL    HW132282   6.069   4.855   5.524
10461SOL    HW232283   5.993   4.877   5.667
10462SOL     OW32284   6.015   2.406   2.625
10462SOL    HW132285   6.093   2.468   2.617
10462SOL    HW232286   5.933   2.448   2.586
10463SOL     OW32287   4.500   2.017   5.884
10463SOL    HW132288   4.521   2.111   5.911
10463SOL    HW232289   4.513   1.956   5.963
10464SOL     OW32290   5.822   6.366   2.034
10464SOL    HW132291   5.918   6.383   2.014
10464SOL    HW232292   5.768   6.378   1.951
10465SOL     OW32293   4.638   5.931   1.410
10465SOL    HW132294   4.632   5.984   1.325
10465SOL    HW232295   4.732   5.899   1.422
10466SOL     OW32296   4.920   4.748   5.501
10466SOL    HW132297   4.905   4.794   5.589
10466SOL    HW232298   4.971   4.809   5.440
10467SOL     OW32299   1.624   2.380   0.858
10467SOL    HW132300   1.620   2.472   0.821
10467SOL    HW232301   1.718   2.358   0.884
10468SOL     OW32302   4.256   4.978   4.211
10468SOL    HW132303   4.183   4.950   4.149
10468SOL    HW232304   4.291   4.898   4.260
10469SOL     OW32305   4.247   3.975   5.795
10469SOL    HW132306   4.322   4.028   5.835
10469SOL    HW232307   4.276   3.880   5.785
10470SOL     OW32308   2.388   1.244   3.365
10470SOL    HW132309   2.389   1.168   3.300
10470SOL    HW232310   2.480   1.284   3.370
10471SOL     OW32311   2.384   0.072   0.457
10471SOL    HW132312   2.397   0.028   0.546
10471SOL    HW232313   2.434   0.021   0.387
10472SOL     OW32314   2.942   5.832   0.317
10472SOL    HW132315   3.020   5.770   0.319
10472SOL    HW232316   2.933   5.872   0.226
10473SOL     OW32317   5.901   6.785   5.865
10473SOL    HW132318   5.943   6.765   5.953
10473SOL    HW232319   5.968   6.828   5.804
10474SOL     OW32320   4.672   1.050   4.087
10474SOL    HW132321   4.744   1.119   4.085
10474SOL    HW232322   4.667   1.004   3.998
10475SOL     OW32323   3.156   6.730   2.211
10475SOL    HW132324   3.250   6.723   2.242
10475SOL    HW232325   3.131   6.826   2.200
10476SOL     OW32326   5.338   6.526   5.979
10476SOL    HW132327   5.338   6.588   5.901
10476SOL    HW232328   5.415   6.549   6.039
10477SOL     OW32329   6.889   0.888   5.249
10477SOL    HW132330   6.795   0.922   5.259
10477SOL    HW232331   6.946   0.925   5.322
10478SOL     OW32332   6.647   6.756   0.053
10478SOL    HW132333   6.644   6.856   0.043
10478SOL    HW232334   6.684   6.732   0.143
10479SOL     OW32335   6.887   1.628   1.885
10479SOL    HW132336   6.963   1.618   1.950
10479SOL    HW232337   6.867   1.538   1.845
10480SOL     OW32338   1.035   1.011   2.217
10480SOL    HW132339   1.087   0.931   2.187
10480SOL    HW232340   0.968   0.984   2.286
10481SOL     OW32341   2.114   6.333   3.560
10481SOL    HW132342   2.068   6.354   3.646
10481SOL    HW232343   2.047   6.327   3.487
10482SOL     OW32344   6.681   5.249   4.413
10482SOL    HW132345   6.705   5.211   4.502
10482SOL    HW232346   6.629   5.333   4.425
10483SOL     OW32347   5.242   5.276   0.610
10483SOL    HW132348   5.155   5.290   0.563
10483SOL    HW232349   5.237   5.192   0.664
10484SOL     OW32350   4.961   1.627   2.117
10484SOL    HW132351   5.018   1.585   2.046
10484SOL    HW232352   4.968   1.574   2.202
10485SOL     OW32353   3.304   4.587   0.470
10485SOL    HW132354   3.210   4.609   0.446
10485SOL    HW232355   3.305   4.536   0.556
10486SOL     OW32356   0.307   0.472   0.325
10486SOL    HW132357   0.251   0.532   0.382
10486SOL    HW232358   0.398   0.463   0.365
10487SOL     OW32359   4.633   0.248   1.492
10487SOL    HW132360   4.567   0.250   1.416
10487SOL    HW232361   4.605   0.313   1.562
10488SOL     OW32362   3.334   1.662   5.389
10488SOL    HW132363   3.293   1.720   5.319
10488SOL    HW232364   3.367   1.718   5.465
10489SOL     OW32365   0.752   6.737   5.199
10489SOL    HW132366   0.721   6.832   5.188
10489SOL    HW232367   0.825   6.717   5.133
10490SOL     OW32368   6.007   1.644   1.211
10490SOL    HW132369   6.007   1.552   1.172
10490SOL    HW232370   5.994   1.711   1.138
10491SOL     OW32371   1.886   3.170   7.012
10491SOL    HW132372   1.816   3.157   0.067
10491SOL    HW232373   1.842   3.172   6.922
10492SOL     OW32374   5.922   4.263   5.405
10492SOL    HW132375   5.948   4.185   5.462
10492SOL    HW232376   5.841   4.239   5.351
10493SOL     OW32377   3.511   0.489   1.806
10493SOL    HW132378   3.512   0.577   1.759
10493SOL    HW232379   3.574   0.491   1.884
10494SOL     OW32380   5.097   3.533   6.058
10494SOL    HW132381   5.082   3.445   6.013
10494SOL    HW232382   5.140   3.597   5.994
10495SOL     OW32383   2.447   6.869   0.067
10495SOL    HW132384   2.482   6.946   0.013
10495SOL    HW232385   2.417   6.796   0.006
10496SOL     OW32386   0.209   4.333   6.497
10496SOL    HW132387   0.112   4.319   6.513
10496SOL    HW232388   0.224   4.425   6.460
10497SOL     OW32389   2.285   0.084   2.214
10497SOL    HW132390   2.297   7.012   2.259
10497SOL    HW232391   2.337   0.085   2.128
10498SOL     OW32392   3.365   5.759   1.479
10498SOL    HW132393   3.316   5.689   1.531
10498SOL    HW232394   3.382   5.726   1.386
10499SOL     OW32395   3.498   6.894   2.730
10499SOL    HW132396   3.411   6.929   2.765
10499SOL    HW232397   3.542   6.839   2.800
10500SOL     OW32398   6.975   1.385   6.209
10500SOL    HW132399   6.963   1.303   6.153
10500SOL    HW232400   0.036   1.372   6.272
10501SOL     OW32401   2.262   5.866   3.025
10501SOL    HW132402   2.317   5.814   3.091
10501SOL    HW232403   2.312   5.948   2.997
10502SOL     OW32404   2.616   0.176   1.060
10502SOL    HW132405   2.651   0.177   0.966
10502SOL    HW232406   2.646   0.260   1.107
10503SOL     OW32407   4.037   2.887   0.698
10503SOL    HW132408   3.962   2.855   0.639
10503SOL    HW232409   4.115   2.912   0.641
10504SOL     OW32410   1.772   1.636   6.812
10504SOL    HW132411   1.680   1.657   6.846
10504SOL    HW232412   1.777   1.659   6.714
10505SOL     OW32413   5.334   6.369   0.543
10505SOL    HW132414   5.306   6.362   0.639
10505SOL    HW232415   5.257   6.402   0.488
10506SOL     OW32416   6.991   5.576   0.287
10506SOL    HW132417   6.977   5.519   0.368
10506SOL    HW232418   0.061   5.627   0.296
10507SOL     OW32419   2.085   0.127   0.181
10507SOL    HW132420   1.991   0.155   0.163
10507SOL    HW232421   2.131   0.108   0.095
10508SOL     OW32422   6.134   6.756   4.678
10508SOL    HW132423   6.233   6.749   4.688
10508SOL    HW232424   6.095   6.664   4.674
10509SOL     OW32425   0.979   6.098   4.560
10509SOL    HW132426   1.062   6.044   4.543
10509SOL    HW232427   1.001   6.195   4.550
10510SOL     OW32428   4.954   5.805   6.434
10510SOL    HW132429   4.889   5.731   6.419
10510SOL    HW232430   5.009   5.818   6.351
10511SOL     OW32431   4.347   1.832   1.653
10511SOL    HW132432   4.323   1.904   1.718
10511SOL    HW232433   4.416   1.867   1.589
10512SOL     OW32434   3.949   0.060   5.608
10512SOL    HW132435   3.974   0.016   5.522
10512SOL    HW232436   3.996   0.014   5.684
10513SOL     OW32437   6.451   2.838   4.334
10513SOL    HW132438   6.380   2.896   4.296
10513SOL    HW232439   6.422   2.802   4.423
10514SOL     OW32440   6.798   3.948   0.130
10514SOL    HW132441   6.798   4.024   0.195
10514SOL    HW232442   6.766   3.865   0.176
10515SOL     OW32443   0.720   3.372   2.796
10515SOL    HW132444   0.806   3.323   2.811
10515SOL    HW232445   0.681   3.399   2.884
10516SOL     OW32446   3.866   1.176   0.574
10516SOL    HW132447   3.766   1.188   0.574
10516SOL    HW232448   3.890   1.102   0.511
10517SOL     OW32449   0.630   2.687   2.341
10517SOL    HW132450   0.595   2.687   2.435
10517SOL    HW232451   0.647   2.593   2.312
10518SOL     OW32452   1.400   5.187   6.569
10518SOL    HW132453   1.406   5.284   6.547
10518SOL    HW232454   1.343   5.141   6.501
10519SOL     OW32455   2.116   3.546   6.545
10519SOL    HW132456   2.193   3.594   6.588
10519SOL    HW232457   2.051   3.518   6.615
10520SOL     OW32458   1.023   2.842   6.746
10520SOL    HW132459   1.072   2.756   6.733
10520SOL    HW232460   1.069   2.915   6.697
10521SOL     OW32461   5.671   6.167   2.177
10521SOL    HW132462   5.609   6.203   2.246
10521SOL    HW232463   5.754   6.224   2.174
10522SOL     OW32464   6.596   0.511   6.113
10522SOL    HW132465   6.566   0.606   6.122
10522SOL    HW232466   6.613   0.473   6.204
10523SOL     OW32467   0.436   4.836   3.852
10523SOL    HW132468   0.434   4.883   3.764
10523SOL    HW232469   0.531   4.813   3.875
10524SOL     OW32470   1.962   0.482   4.645
10524SOL    HW132471   1.959   0.477   4.545
10524SOL    HW232472   1.943   0.575   4.675
10525SOL     OW32473   3.439   6.721   6.166
10525SOL    HW132474   3.379   6.668   6.226
10525SOL    HW232475   3.435   6.818   6.191
10526SOL     OW32476   0.938   6.839   3.634
10526SOL    HW132477   0.937   6.760   3.695
10526SOL    HW232478   0.844   6.871   3.619
10527SOL     OW32479   6.788   1.712   4.803
10527SOL    HW132480   6.844   1.757   4.872
10527SOL    HW232481   6.834   1.718   4.714
10528SOL     OW32482   2.066   3.537   6.171
10528SOL    HW132483   2.001   3.588   6.227
10528SOL    HW232484   2.048   3.556   6.074
10529SOL     OW32485   2.331   5.719   3.948
10529SOL    HW132486   2.325   5.672   3.860
10529SOL    HW232487   2.380   5.661   4.013
10530SOL     OW32488   2.162   0.492   6.394
10530SOL    HW132489   2.235   0.442   6.440
10530SOL    HW232490   2.174   0.590   6.410
10531SOL     OW32491   1.373   2.905   3.638
10531SOL    HW132492   1.281   2.944   3.645
10531SOL    HW232493   1.439   2.972   3.672
10532SOL     OW32494   1.492   4.699   6.168
10532SOL    HW132495   1.579   4.681   6.122
10532SOL    HW232496   1.453   4.784   6.133
10533SOL     OW32497   2.581   1.061   4.872
10533SOL    HW132498   2.662   1.024   4.826
10533SOL    HW232499   2.573   1.158   4.852
10534SOL     OW32500   6.073   5.629   1.574
10534SOL    HW132501   6.068   5.605   1.671
10534SOL    HW232502   6.155   5.588   1.534
10535SOL     OW32503   0.803   2.134   1.404
10535SOL    HW132504   0.859   2.051   1.404
10535SOL    HW232505   0.857   2.211   1.372
10536SOL     OW32506   3.940   0.619   2.880
10536SOL    HW132507   3.910   0.637   2.973
10536SOL    HW232508   3.881   0.667   2.815
10537SOL     OW32509   4.031   5.355   4.355
10537SOL    HW132510   3.972   5.313   4.285
10537SOL    HW232511   3.992   5.340   4.445
10538SOL     OW32512   5.076   1.858   0.333
10538SOL    HW132513   5.026   1.799   0.270
10538SOL    HW232514   5.077   1.952   0.298
10539SOL     OW32515   0.059   3.870   0.124
10539SOL    HW132516   0.058   3.793   0.188
10539SOL    HW232517   6.982   3.885   0.089
10540SOL     OW32518   1.416   3.034   4.886
10540SOL    HW132519   1.327   2.989   4.893
10540SOL    HW232520   1.409   3.113   4.825
10541SOL     OW32521   3.832   4.029   2.386
10541SOL    HW132522   3.771   3.969   2.437
10541SOL    HW232523   3.883   4.087   2.450
10542SOL     OW32524   6.822   0.524   5.420
10542SOL    HW132525   6.773   0.474   5.491
10542SOL    HW232526   6.757   0.574   5.363
10543SOL     OW32527   0.382   1.011   5.390
10543SOL    HW132528   0.385   1.106   5.421
10543SOL    HW232529   0.321   0.959   5.449
10544SOL     OW32530   2.162   6.296   2.088
10544SOL    HW132531   2.214   6.345   2.157
10544SOL    HW232532   2.223   6.234   2.039
10545SOL     OW32533   5.889   1.112   2.812
10545SOL    HW132534   5.847   1.113   2.721
10545SOL    HW232535   5.979   1.070   2.806
10546SOL     OW32536   1.525   0.840   6.927
10546SOL    HW132537   1.624   0.838   6.910
10546SOL    HW232538   1.489   0.929   6.900
10547SOL     OW32539   5.939   2.887   2.263
10547SOL    HW132540   5.939   2.839   2.176
10547SOL    HW232541   5.899   2.978   2.252
10548SOL     OW32542   5.309   4.548   4.350
10548SOL    HW132543   5.258   4.582   4.271
10548SOL    HW232544   5.272   4.589   4.433
10549SOL     OW32545   6.697   0.085   1.869
10549SOL    HW132546   6.597   0.076   1.861
10549SOL    HW232547   6.735   0.103   1.778
10550SOL     OW32548   4.238   6.186   4.276
10550SOL    HW132549   4.238   6.269   4.220
10550SOL    HW232550   4.322   6.182   4.331
10551SOL     OW32551   1.581   2.554   6.540
10551SOL    HW132552   1.547   2.538   6.448
10551SOL    HW232553   1.574   2.470   6.594
10552SOL     OW32554   3.094   1.275   6.416
10552SOL    HW132555   3.047   1.361   6.432
10552SOL    HW232556   3.081   1.247   6.321
10553SOL     OW32557   0.742   5.005   1.419
10553SOL    HW132558   0.822   4.984   1.475
10553SOL    HW232559   0.691   5.080   1.460
10554SOL     OW32560   5.417   5.282   0.225
10554SOL    HW132561   5.405   5.194   0.180
10554SOL    HW232562   5.439   5.268   0.321
10555SOL     OW32563   1.876   3.779   0.646
10555SOL    HW132564   1.972   3.770   0.618
10555SOL    HW232565   1.841   3.868   0.616
10556SOL     OW32566   2.278   2.060   5.321
10556SOL    HW132567   2.295   2.052   5.419
10556SOL    HW232568   2.287   2.156   5.294
10557SOL     OW32569   2.564   2.168   3.154
10557SOL    HW132570   2.532   2.082   3.194
10557SOL    HW232571   2.649   2.151   3.103
10558SOL     OW32572   3.835   0.934   3.504
10558SOL    HW132573   3.863   1.008   3.565
10558SOL    HW232574   3.886   0.851   3.527
10559SOL     OW32575   5.061   0.189   1.161
10559SOL    HW132576   5.146   0.234   1.188
10559SOL    HW232577   5.036   0.217   1.069
10560SOL     OW32578   3.596   5.962   3.606
10560SOL    HW132579   3.590   6.062   3.600
10560SOL    HW232580   3.686   5.932   3.574
10561SOL     OW32581   3.383   4.614   0.901
10561SOL    HW132582   3.477   4.580   0.899
10561SOL    HW232583   3.383   4.714   0.891
10562SOL     OW32584   4.774   5.754   0.138
10562SOL    HW132585   4.691   5.809   0.149
10562SOL    HW232586   4.752   5.668   0.091
10563SOL     OW32587   0.636   1.516   3.728
10563SOL    HW132588   0.650   1.455   3.805
10563SOL    HW232589   0.724   1.555   3.700
10564SOL     OW32590   5.470   6.713   2.063
10564SOL    HW132591   5.517   6.718   2.150
10564SOL    HW232592   5.477   6.620   2.025
10565SOL     OW32593   6.644   0.691   6.452
10565SOL    HW132594   6.699   0.695   6.536
10565SOL    HW232595   6.620   0.596   6.432
10566SOL     OW32596   3.895   2.455   0.022
10566SOL    HW132597   3.944   2.502   6.965
10566SOL    HW232598   3.850   2.523   0.081
10567SOL     OW32599   2.885   1.891   3.963
10567SOL    HW132600   2.946   1.830   4.013
10567SOL    HW232601   2.924   1.983   3.961
10568SOL     OW32602   6.116   2.288   0.984
10568SOL    HW132603   6.215   2.276   0.978
10568SOL    HW232604   6.072   2.245   0.905
10569SOL     OW32605   5.673   2.161   1.636
10569SOL    HW132606   5.701   2.085   1.694
10569SOL    HW232607   5.751   2.223   1.623
10570SOL     OW32608   1.943   4.989   3.397
10570SOL    HW132609   2.036   5.023   3.409
10570SOL    HW232610   1.887   5.061   3.355
10571SOL     OW32611   6.988   5.315   5.239
10571SOL    HW132612   6.990   5.243   5.170
10571SOL    HW232613   0.049   5.304   5.301
10572SOL     OW32614   0.045   3.836   3.561
10572SOL    HW132615   0.032   3.781   3.643
10572SOL    HW232616   0.066   3.775   3.484
10573SOL     OW32617   4.571   0.028   5.070
10573SOL    HW132618   4.537   0.093   5.137
10573SOL    HW232619   4.504   6.970   5.059
10574SOL     OW32620   1.309   1.542   3.879
10574SOL    HW132621   1.353   1.457   3.906
10574SOL    HW232622   1.371   1.619   3.898
10575SOL     OW32623   0.094   1.444   2.883
10575SOL    HW132624   0.025   1.385   2.842
10575SOL    HW232625   0.181   1.395   2.889
10576SOL     OW32626   0.291   5.710   5.299
10576SOL    HW132627   0.362   5.655   5.343
10576SOL    HW232628   0.269   5.788   5.356
10577SOL     OW32629   1.541   2.628   0.292
10577SOL    HW132630   1.486   2.568   0.351
10577SOL    HW232631   1.509   2.722   0.301
10578SOL     OW32632   5.669   0.945   3.032
10578SOL    HW132633   5.633   0.987   3.114
10578SOL    HW232634   5.743   1.001   2.994
10579SOL     OW32635   4.356   2.206   1.308
10579SOL    HW132636   4.421   2.132   1.324
10579SOL    HW232637   4.392   2.268   1.238
10580SOL     OW32638   6.759   0.246   0.009
10580SOL    HW132639   6.748   0.345   7.013
10580SOL    HW232640   6.832   0.213   6.965
10581SOL     OW32641   0.289   0.201   3.140
10581SOL    HW132642   0.245   0.273   3.194
10581SOL    HW232643   0.252   0.112   3.165
10582SOL     OW32644   5.375   5.038   0.050
10582SOL    HW132645   5.323   4.998   6.991
10582SOL    HW232646   5.472   5.043   0.026
10583SOL     OW32647   3.962   1.562   5.195
10583SOL    HW132648   3.995   1.474   5.162
10583SOL    HW232649   4.030   1.633   5.174
10584SOL     OW32650   6.602   6.226   1.399
10584SOL    HW132651   6.546   6.241   1.480
10584SOL    HW232652   6.544   6.199   1.323
10585SOL     OW32653   2.182   3.108   6.039
10585SOL    HW132654   2.222   3.048   6.108
10585SOL    HW232655   2.107   3.062   5.993
10586SOL     OW32656   0.202   5.045   4.338
10586SOL    HW132657   0.251   4.990   4.270
10586SOL    HW232658   0.249   5.132   4.351
10587SOL     OW32659   5.841   3.844   6.969
10587SOL    HW132660   5.927   3.795   6.987
10587SOL    HW232661   5.764   3.781   6.976
10588SOL     OW32662   0.156   3.697   3.363
10588SOL    HW132663   0.128   3.638   3.287
10588SOL    HW232664   0.199   3.641   3.434
10589SOL     OW32665   6.020   1.271   4.516
10589SOL    HW132666   6.069   1.218   4.585
10589SOL    HW232667   5.931   1.300   4.552
10590SOL     OW32668   1.256   0.157   1.784
10590SOL    HW132669   1.308   0.203   1.856
10590SOL    HW232670   1.202   0.083   1.825
10591SOL     OW32671   0.991   1.582   6.415
10591SOL    HW132672   1.058   1.656   6.408
10591SOL    HW232673   1.031   1.498   6.379
10592SOL     OW32674   6.142   3.444   1.313
10592SOL    HW132675   6.062   3.408   1.360
10592SOL    HW232676   6.113   3.511   1.244
10593SOL     OW32677   1.996   5.131   0.550
10593SOL    HW132678   2.075   5.070   0.551
10593SOL    HW232679   2.018   5.213   0.498
10594SOL     OW32680   5.340   0.627   2.268
10594SOL    HW132681   5.397   0.658   2.344
10594SOL    HW232682   5.262   0.575   2.305
10595SOL     OW32683   4.008   6.846   5.012
10595SOL    HW132684   4.084   6.784   5.033
10595SOL    HW232685   4.031   6.938   5.043
10596SOL     OW32686   4.743   0.481   0.062
10596SOL    HW132687   4.736   0.382   0.063
10596SOL    HW232688   4.801   0.510   7.001
10597SOL     OW32689   3.616   1.533   4.812
10597SOL    HW132690   3.588   1.476   4.735
10597SOL    HW232691   3.546   1.601   4.832
10598SOL     OW32692   2.765   2.340   0.032
10598SOL    HW132693   2.726   2.311   0.120
10598SOL    HW232694   2.786   2.438   0.036
10599SOL     OW32695   4.634   2.440   6.473
10599SOL    HW132696   4.678   2.530   6.480
10599SOL    HW232697   4.535   2.452   6.477
10600SOL     OW32698   2.002   2.515   0.871
10600SOL    HW132699   1.971   2.448   0.939
10600SOL    HW232700   1.990   2.477   0.779
10601SOL     OW32701   1.388   4.096   6.095
10601SOL    HW132702   1.450   4.141   6.031
10601SOL    HW232703   1.367   4.158   6.171
10602SOL     OW32704   4.780   2.047   3.427
10602SOL    HW132705   4.837   2.035   3.508
10602SOL    HW232706   4.803   2.133   3.382
10603SOL     OW32707   2.866   5.578   3.891
10603SOL    HW132708   2.931   5.504   3.871
10603SOL    HW232709   2.859   5.639   3.813
10604SOL     OW32710   5.717   4.164   5.095
10604SOL    HW132711   5.632   4.113   5.097
10604SOL    HW232712   5.712   4.235   5.025
10605SOL     OW32713   1.997   5.246   1.329
10605SOL    HW132714   2.086   5.275   1.292
10605SOL    HW232715   1.953   5.183   1.266
10606SOL     OW32716   0.020   0.382   1.879
10606SOL    HW132717   6.959   0.346   1.931
10606SOL    HW232718   0.082   0.432   1.940
10607SOL     OW32719   4.111   4.824   6.200
10607SOL    HW132720   4.059   4.888   6.144
10607SOL    HW232721   4.060   4.804   6.283
10608SOL     OW32722   5.160   2.128   5.814
10608SOL    HW132723   5.182   2.201   5.750
10608SOL    HW232724   5.239   2.108   5.872
10609SOL     OW32725   3.007   6.672   1.429
10609SOL    HW132726   3.027   6.753   1.373
10609SOL    HW232727   3.075   6.663   1.501
10610SOL     OW32728   1.140   2.931   5.903
10610SOL    HW132729   1.109   2.986   5.826
10610SOL    HW232730   1.066   2.921   5.970
10611SOL     OW32731   4.000   3.813   5.894
10611SOL    HW132732   4.062   3.877   5.848
10611SOL    HW232733   4.033   3.719   5.881
10612SOL     OW32734   2.911   0.520   5.720
10612SOL    HW132735   2.913   0.451   5.648
10612SOL    HW232736   2.818   0.526   5.758
10613SOL     OW32737   6.123   6.914   5.702
10613SOL    HW132738   6.087   6.872   5.618
10613SOL    HW232739   6.201   6.972   5.680
10614SOL     OW32740   6.601   2.473   4.698
10614SOL    HW132741   6.587   2.375   4.707
10614SOL    HW232742   6.658   2.492   4.618
10615SOL     OW32743   3.131   5.960   5.810
10615SOL    HW132744   3.160   5.995   5.899
10615SOL    HW232745   3.131   6.034   5.743
10616SOL     OW32746   2.713   6.596   0.772
10616SOL    HW132747   2.716   6.510   0.823
10616SOL    HW232748   2.791   6.602   0.710
10617SOL     OW32749   2.457   2.384   0.733
10617SOL    HW132750   2.416   2.371   0.642
10617SOL    HW232751   2.386   2.407   0.799
10618SOL     OW32752   6.938   3.747   6.461
10618SOL    HW132753   6.844   3.774   6.479
10618SOL    HW232754   6.990   3.749   6.547
10619SOL     OW32755   6.892   4.146   2.300
10619SOL    HW132756   6.955   4.157   2.376
10619SOL    HW232757   6.811   4.204   2.315
10620SOL     OW32758   1.370   5.260   5.539
10620SOL    HW132759   1.414   5.208   5.466
10620SOL    HW232760   1.391   5.358   5.528
10621SOL     OW32761   1.185   6.640   1.739
10621SOL    HW132762   1.202   6.613   1.834
10621SOL    HW232763   1.240   6.584   1.678
10622SOL     OW32764   4.819   1.025   1.367
10622SOL    HW132765   4.839   1.001   1.462
10622SOL    HW232766   4.798   0.943   1.315
10623SOL     OW32767   0.117   4.598   4.264
10623SOL    HW132768   0.130   4.613   4.362
10623SOL    HW232769   0.127   4.501   4.244
10624SOL     OW32770   0.623   1.974   4.689
10624SOL    HW132771   0.572   2.057   4.712
10624SOL    HW232772   0.684   1.992   4.611
10625SOL     OW32773   0.516   4.270   0.061
10625SOL    HW132774   0.431   4.230   0.096
10625SOL    HW232775   0.526   4.247   6.980
10626SOL     OW32776   2.261   3.066   1.015
10626SOL    HW132777   2.355   3.080   0.983
10626SOL    HW232778   2.245   2.968   1.028
10627SOL     OW32779   5.559   6.211   0.864
10627SOL    HW132780   5.523   6.129   0.820
10627SOL    HW232781   5.576   6.281   0.795
10628SOL     OW32782   4.695   5.537   6.998
10628SOL    HW132783   4.618   5.474   6.994
10628SOL    HW232784   4.736   5.547   6.908
10629SOL     OW32785   2.843   4.877   4.854
10629SOL    HW132786   2.762   4.877   4.796
10629SOL    HW232787   2.838   4.801   4.920
10630SOL     OW32788   6.732   1.421   3.955
10630SOL    HW132789   6.730   1.512   3.997
10630SOL    HW232790   6.822   1.379   3.971
10631SOL     OW32791   2.286   5.140   4.919
10631SOL    HW132792   2.342   5.058   4.908
10631SOL    HW232793   2.291   5.172   5.014
10632SOL     OW32794   5.619   1.649   3.837
10632SOL    HW132795   5.594   1.617   3.746
10632SOL    HW232796   5.605   1.748   3.843
10633SOL     OW32797   2.606   3.751   1.693
10633SOL    HW132798   2.611   3.654   1.667
10633SOL    HW232799   2.510   3.778   1.702
10634SOL     OW32800   3.220   5.606   1.250
10634SOL    HW132801   3.261   5.517   1.231
10634SOL    HW232802   3.132   5.593   1.296
10635SOL     OW32803   3.679   1.503   1.273
10635SOL    HW132804   3.694   1.431   1.205
10635SOL    HW232805   3.658   1.589   1.227
10636SOL     OW32806   0.883   1.155   1.563
10636SOL    HW132807   0.948   1.080   1.548
10636SOL    HW232808   0.923   1.241   1.529
10637SOL     OW32809   2.927   4.734   5.541
10637SOL    HW132810   2.935   4.834   5.538
10637SOL    HW232811   2.875   4.702   5.462
10638SOL     OW32812   0.217   5.654   2.892
10638SOL    HW132813   0.293   5.655   2.957
10638SOL    HW232814   0.222   5.733   2.832
10639SOL     OW32815   0.911   3.179   2.795
10639SOL    HW132816   0.893   3.135   2.707
10639SOL    HW232817   0.861   3.130   2.867
10640SOL     OW32818   3.672   0.298   5.921
10640SOL    HW132819   3.661   0.353   6.003
10640SOL    HW232820   3.667   0.201   5.945
10641SOL     OW32821   3.777   2.369   0.289
10641SOL    HW132822   3.690   2.348   0.245
10641SOL    HW232823   3.760   2.419   0.374
10642SOL     OW32824   6.599   3.062   1.944
10642SOL    HW132825   6.673   3.040   1.881
10642SOL    HW232826   6.615   3.151   1.986
10643SOL     OW32827   2.348   5.097   5.317
10643SOL    HW132828   2.441   5.133   5.302
10643SOL    HW232829   2.288   5.130   5.244
10644SOL     OW32830   5.743   2.522   2.879
10644SOL    HW132831   5.710   2.594   2.940
10644SOL    HW232832   5.734   2.552   2.784
10645SOL     OW32833   0.772   1.439   5.077
10645SOL    HW132834   0.688   1.439   5.130
10645SOL    HW232835   0.763   1.375   5.000
10646SOL     OW32836   0.163   1.362   6.414
10646SOL    HW132837   0.170   1.262   6.413
10646SOL    HW232838   0.236   1.400   6.472
10647SOL     OW32839   3.541   5.289   6.851
10647SOL    HW132840   3.557   5.275   6.949
10647SOL    HW232841   3.605   5.234   6.799
10648SOL     OW32842   5.142   4.092   6.074
10648SOL    HW132843   5.235   4.061   6.055
10648SOL    HW232844   5.078   4.037   6.020
10649SOL     OW32845   0.722   4.100   3.324
10649SOL    HW132846   0.759   4.163   3.256
10649SOL    HW232847   0.635   4.135   3.359
10650SOL     OW32848   1.176   6.310   2.852
10650SOL    HW132849   1.219   6.381   2.796
10650SOL    HW232850   1.084   6.291   2.818
10651SOL     OW32851   4.758   6.793   6.029
10651SOL    HW132852   4.850   6.832   6.026
10651SOL    HW232853   4.716   6.814   6.117
10652SOL     OW32854   3.860   0.098   6.587
10652SOL    HW132855   3.763   0.123   6.587
10652SOL    HW232856   3.875   0.021   6.525
10653SOL     OW32857   5.576   3.728   4.373
10653SOL    HW132858   5.591   3.753   4.468
10653SOL    HW232859   5.531   3.803   4.325
10654SOL     OW32860   4.169   1.566   0.827
10654SOL    HW132861   4.194   1.524   0.739
10654SOL    HW232862   4.214   1.655   0.835
10655SOL     OW32863   2.966   5.494   1.378
10655SOL    HW132864   2.937   5.565   1.443
10655SOL    HW232865   3.009   5.419   1.428
10656SOL     OW32866   6.052   2.515   1.126
10656SOL    HW132867   5.955   2.524   1.103
10656SOL    HW232868   6.081   2.420   1.109
10657SOL     OW32869   6.570   0.237   6.726
10657SOL    HW132870   6.530   0.267   6.813
10657SOL    HW232871   6.541   0.143   6.707
10658SOL     OW32872   6.186   3.631   4.393
10658SOL    HW132873   6.177   3.666   4.486
10658SOL    HW232874   6.129   3.686   4.332
10659SOL     OW32875   0.062   6.242   0.877
10659SOL    HW132876   0.009   6.302   0.817
10659SOL    HW232877   0.151   6.223   0.835
10660SOL     OW32878   5.462   4.437   6.461
10660SOL    HW132879   5.503   4.417   6.372
10660SOL    HW232880   5.371   4.394   6.466
10661SOL     OW32881   0.263   6.326   2.730
10661SOL    HW132882   0.290   6.266   2.654
10661SOL    HW232883   0.216   6.406   2.694
10662SOL     OW32884   5.642   0.554   2.188
10662SOL    HW132885   5.720   0.506   2.229
10662SOL    HW232886   5.613   0.628   2.249
10663SOL     OW32887   0.497   0.578   1.797
10663SOL    HW132888   0.487   0.512   1.872
10663SOL    HW232889   0.594   0.604   1.789
10664SOL     OW32890   1.826   4.763   4.965
10664SOL    HW132891   1.871   4.766   5.054
10664SOL    HW232892   1.796   4.670   4.946
10665SOL     OW32893   0.816   0.955   0.608
10665SOL    HW132894   0.739   0.965   0.670
10665SOL    HW232895   0.845   0.860   0.604
10666SOL     OW32896   3.284   4.464   0.717
10666SOL    HW132897   3.326   4.525   0.784
10666SOL    HW232898   3.246   4.384   0.763
10667SOL     OW32899   3.889   3.038   5.486
10667SOL    HW132900   3.866   3.085   5.401
10667SOL    HW232901   3.856   2.943   5.481
10668SOL     OW32902   1.421   2.130   5.326
10668SOL    HW132903   1.401   2.050   5.270
10668SOL    HW232904   1.349   2.198   5.315
10669SOL     OW32905   6.099   6.664   0.686
10669SOL    HW132906   6.018   6.722   0.681
10669SOL    HW232907   6.175   6.717   0.723
10670SOL     OW32908   4.859   3.857   5.178
10670SOL    HW132909   4.858   3.786   5.108
10670SOL    HW232910   4.813   3.939   5.142
10671SOL     OW32911   2.547   2.134   2.623
10671SOL    HW132912   2.494   2.054   2.653
10671SOL    HW232913   2.532   2.149   2.526
10672SOL     OW32914   6.819   2.234   0.446
10672SOL    HW132915   6.805   2.324   0.406
10672SOL    HW232916   6.891   2.240   0.516
10673SOL     OW32917   1.456   2.006   7.005
10673SOL    HW132918   1.487   1.960   0.072
10673SOL    HW232919   1.474   2.104   7.013
10674SOL     OW32920   3.176   3.761   1.014
10674SOL    HW132921   3.094   3.740   1.068
10674SOL    HW232922   3.150   3.819   0.936
10675SOL     OW32923   1.625   0.592   5.496
10675SOL    HW132924   1.574   0.610   5.580
10675SOL    HW232925   1.704   0.535   5.517
10676SOL     OW32926   6.167   6.393   6.326
10676SOL    HW132927   6.238   6.426   6.264
10676SOL    HW232928   6.208   6.334   6.395
10677SOL     OW32929   0.828   0.425   1.907
10677SOL    HW132930   0.891   0.352   1.882
10677SOL    HW232931   0.749   0.387   1.954
10678SOL     OW32932   3.793   5.320   2.375
10678SOL    HW132933   3.772   5.224   2.356
10678SOL    HW232934   3.892   5.335   2.372
10679SOL     OW32935   5.029   4.561   5.844
10679SOL    HW132936   5.008   4.504   5.923
10679SOL    HW232937   4.992   4.519   5.761
10680SOL     OW32938   2.000   1.925   3.752
10680SOL    HW132939   2.071   1.886   3.812
10680SOL    HW232940   1.946   1.991   3.804
10681SOL     OW32941   7.002   4.138   6.477
10681SOL    HW132942   6.996   4.177   6.385
10681SOL    HW232943   6.915   4.094   6.500
10682SOL     OW32944   2.018   2.110   3.053
10682SOL    HW132945   2.035   2.200   3.012
10682SOL    HW232946   2.060   2.106   3.144
10683SOL     OW32947   3.669   1.707   3.745
10683SOL    HW132948   3.710   1.752   3.666
10683SOL    HW232949   3.643   1.775   3.813
10684SOL     OW32950   4.791   3.382   0.559
10684SOL    HW132951   4.835   3.467   0.588
10684SOL    HW232952   4.713   3.403   0.501
10685SOL     OW32953   6.049   4.270   2.216
10685SOL    HW132954   6.106   4.194   2.186
10685SOL    HW232955   5.988   4.238   2.289
10686SOL     OW32956   3.746   5.272   6.588
10686SOL    HW132957   3.660   5.322   6.594
10686SOL    HW232958   3.736   5.197   6.522
10687SOL     OW32959   6.983   5.150   1.664
10687SOL    HW132960   0.058   5.163   1.704
10687SOL    HW232961   6.990   5.153   1.564
10688SOL     OW32962   6.631   4.825   2.573
10688SOL    HW132963   6.578   4.898   2.616
10688SOL    HW232964   6.686   4.862   2.499
10689SOL     OW32965   0.350   0.183   3.982
10689SOL    HW132966   0.406   0.173   3.900
10689SOL    HW232967   0.408   0.207   4.060
10690SOL     OW32968   6.105   5.328   4.048
10690SOL    HW132969   6.111   5.264   3.971
10690SOL    HW232970   6.043   5.291   4.117
10691SOL     OW32971   0.027   1.728   2.527
10691SOL    HW132972   6.957   1.771   2.556
10691SOL    HW232973   0.066   1.781   2.451
10692SOL     OW32974   3.512   4.895   3.467
10692SOL    HW132975   3.414   4.894   3.487
10692SOL    HW232976   3.527   4.867   3.372
10693SOL     OW32977   1.756   0.585   1.927
10693SOL    HW132978   1.806   0.653   1.979
10693SOL    HW232979   1.820   0.524   1.880
10694SOL     OW32980   3.580   6.166   1.544
10694SOL    HW132981   3.635   6.097   1.497
10694SOL    HW232982   3.516   6.208   1.478
10695SOL     OW32983   6.158   2.084   2.881
10695SOL    HW132984   6.252   2.052   2.892
10695SOL    HW232985   6.144   2.113   2.786
10696SOL     OW32986   6.816   4.770   2.226
10696SOL    HW132987   6.889   4.805   2.169
10696SOL    HW232988   6.742   4.837   2.232
10697SOL     OW32989   0.050   6.231   4.471
10697SOL    HW132990   0.085   6.282   4.550
10697SOL    HW232991   0.017   6.296   4.402
10698SOL     OW32992   3.666   6.547   4.180
10698SOL    HW132993   3.694   6.451   4.171
10698SOL    HW232994   3.747   6.604   4.195
10699SOL     OW32995   4.050   1.931   2.663
10699SOL    HW132996   4.101   1.944   2.578
10699SOL    HW232997   3.960   1.893   2.643
10700SOL     OW32998   1.206   6.868   0.633
10700SOL    HW132999   1.289   6.817   0.612
10700SOL    HW233000   1.223   6.930   0.710
10701SOL     OW33001   3.694   5.639   0.166
10701SOL    HW133002   3.636   5.570   0.208
10701SOL    HW233003   3.779   5.649   0.218
10702SOL     OW33004   6.520   2.694   2.404
10702SOL    HW133005   6.448   2.717   2.339
10702SOL    HW233006   6.533   2.595   2.407
10703SOL     OW33007   4.085   3.216   4.213
10703SOL    HW133008   4.067   3.188   4.307
10703SOL    HW233009   4.145   3.297   4.213
10704SOL     OW33010   5.533   5.862   1.787
10704SOL    HW133011   5.494   5.952   1.807
10704SOL    HW233012   5.631   5.862   1.809
10705SOL     OW33013   0.282   3.615   1.273
10705SOL    HW133014   0.235   3.655   1.352
10705SOL    HW233015   0.375   3.650   1.269
10706SOL     OW33016   4.521   6.489   2.154
10706SOL    HW133017   4.488   6.527   2.068
10706SOL    HW233018   4.469   6.406   2.177
10707SOL     OW33019   0.642   0.432   4.948
10707SOL    HW133020   0.636   0.520   4.996
10707SOL    HW233021   0.589   0.363   4.996
10708SOL     OW33022   4.996   0.609   2.110
10708SOL    HW133023   5.076   0.643   2.060
10708SOL    HW233024   4.992   0.652   2.200
10709SOL     OW33025   6.809   1.219   5.220
10709SOL    HW133026   6.884   1.201   5.156
10709SOL    HW233027   6.732   1.258   5.171
10710SOL     OW33028   1.199   6.760   4.937
10710SOL    HW133029   1.218   6.668   4.903
10710SOL    HW233030   1.222   6.764   5.035
10711SOL     OW33031   2.435   0.021   3.727
10711SOL    HW133032   2.394   0.028   3.818
10711SOL    HW233033   2.453   6.942   3.705
10712SOL     OW33034   3.744   0.788   2.778
10712SOL    HW133035   3.810   0.862   2.787
10712SOL    HW233036   3.656   0.825   2.748
10713SOL     OW33037   1.524   4.731   2.023
10713SOL    HW133038   1.525   4.755   2.121
10713SOL    HW233039   1.594   4.662   2.005
10714SOL     OW33040   6.902   3.055   5.159
10714SOL    HW133041   6.839   3.129   5.182
10714SOL    HW233042   6.865   2.968   5.191
10715SOL     OW33043   4.519   0.784   2.798
10715SOL    HW133044   4.515   0.882   2.819
10715SOL    HW233045   4.478   0.732   2.873
10716SOL     OW33046   0.054   2.763   3.102
10716SOL    HW133047   0.135   2.705   3.096
10716SOL    HW233048   6.990   2.706   3.119
10717SOL     OW33049   0.679   2.003   1.020
10717SOL    HW133050   0.664   2.020   0.923
10717SOL    HW233051   0.777   1.986   1.036
10718SOL     OW33052   6.307   4.871   6.936
10718SOL    HW133053   6.368   4.929   6.990
10718SOL    HW233054   6.355   4.787   6.912
10719SOL     OW33055   4.546   6.136   1.701
10719SOL    HW133056   4.488   6.071   1.651
10719SOL    HW233057   4.594   6.194   1.636
10720SOL     OW33058   6.867   4.184   5.973
10720SOL    HW133059   6.937   4.158   5.905
10720SOL    HW233060   6.889   4.142   6.061
10721SOL     OW33061   6.684   2.481   4.428
10721SOL    HW133062   6.693   2.401   4.368
10721SOL    HW233063   6.587   2.505   4.435
10722SOL     OW33064   6.772   3.026   0.464
10722SOL    HW133065   6.798   3.116   0.430
10722SOL    HW233066   6.816   2.955   0.410
10723SOL     OW33067   5.746   3.882   6.683
10723SOL    HW133068   5.826   3.864   6.740
10723SOL    HW233069   5.739   3.812   6.612
10724SOL     OW33070   3.526   6.850   5.719
10724SOL    HW133071   3.590   6.823   5.646
10724SOL    HW233072   3.532   6.948   5.734
10725SOL     OW33073   7.002   5.280   3.918
10725SOL    HW133074   6.986   5.210   3.848
10725SOL    HW233075   6.981   5.242   4.008
10726SOL     OW33076   5.915   6.829   5.152
10726SOL    HW133077   5.864   6.763   5.207
10726SOL    HW233078   5.875   6.920   5.164
10727SOL     OW33079   1.715   5.114   5.297
10727SOL    HW133080   1.786   5.148   5.235
10727SOL    HW233081   1.631   5.165   5.282
10728SOL     OW33082   6.133   6.337   2.039
10728SOL    HW133083   6.129   6.361   2.136
10728SOL    HW233084   6.173   6.413   1.988
10729SOL     OW33085   6.669   1.473   2.725
10729SOL    HW133086   6.703   1.567   2.722
10729SOL    HW233087   6.601   1.465   2.798
10730SOL     OW33088   2.531   6.629   1.828
10730SOL    HW133089   2.512   6.560   1.898
10730SOL    HW233090   2.608   6.599   1.772
10731SOL     OW33091   2.648   5.541   0.176
10731SOL    HW133092   2.739   5.501   0.159
10731SOL    HW233093   2.632   5.616   0.112
10732SOL     OW33094   6.615   0.283   2.864
10732SOL    HW133095   6.565   0.204   2.900
10732SOL    HW233096   6.558   0.365   2.872
10733SOL     OW33097   5.613   2.136   7.009
10733SOL    HW133098   5.534   2.075   7.001
10733SOL    HW233099   5.697   2.085   6.992
10734SOL     OW33100   0.857   0.913   6.862
10734SOL    HW133101   0.846   0.890   6.765
10734SOL    HW233102   0.893   1.006   6.870
10735SOL     OW33103   1.165   4.865   2.263
10735SOL    HW133104   1.117   4.811   2.333
10735SOL    HW233105   1.246   4.906   2.304
10736SOL     OW33106   0.717   1.057   3.159
10736SOL    HW133107   0.814   1.042   3.174
10736SOL    HW233108   0.664   0.998   3.220
10737SOL     OW33109   0.844   2.493   0.565
10737SOL    HW133110   0.893   2.576   0.538
10737SOL    HW233111   0.805   2.505   0.656
10738SOL     OW33112   2.374   6.998   2.707
10738SOL    HW133113   2.451   6.942   2.739
10738SOL    HW233114   2.324   0.017   2.786
10739SOL     OW33115   0.000   1.845   2.779
10739SOL    HW133116   0.014   1.938   2.745
10739SOL    HW233117   0.064   1.784   2.733
10740SOL     OW33118   1.364   5.626   5.765
10740SOL    HW133119   1.320   5.716   5.764
10740SOL    HW233120   1.401   5.608   5.856
10741SOL     OW33121   1.321   1.540   3.601
10741SOL    HW133122   1.322   1.442   3.578
10741SOL    HW233123   1.306   1.550   3.699
10742SOL     OW33124   6.247   6.925   2.302
10742SOL    HW133125   6.234   7.011   2.252
10742SOL    HW233126   6.277   6.854   2.238
10743SOL     OW33127   3.140   2.197   3.996
10743SOL    HW133128   3.155   2.237   4.087
10743SOL    HW233129   3.044   2.206   3.971
10744SOL     OW33130   3.075   1.474   2.255
10744SOL    HW133131   3.157   1.431   2.216
10744SOL    HW233132   3.086   1.483   2.354
10745SOL     OW33133   2.067   4.744   0.586
10745SOL    HW133134   2.084   4.843   0.595
10745SOL    HW233135   2.105   4.711   0.500
10746SOL     OW33136   2.002   5.761   1.631
10746SOL    HW133137   2.001   5.775   1.730
10746SOL    HW233138   1.947   5.681   1.607
10747SOL     OW33139   5.456   1.759   3.273
10747SOL    HW133140   5.446   1.660   3.266
10747SOL    HW233141   5.366   1.802   3.274
10748SOL     OW33142   5.485   5.665   0.990
10748SOL    HW133143   5.400   5.624   0.957
10748SOL    HW233144   5.522   5.726   0.920
10749SOL     OW33145   0.066   5.164   2.989
10749SOL    HW133146   0.074   5.253   2.945
10749SOL    HW233147   0.054   5.176   3.088
10750SOL     OW33148   4.844   4.160   4.853
10750SOL    HW133149   4.842   4.098   4.774
10750SOL    HW233150   4.888   4.246   4.827
10751SOL     OW33151   1.084   3.347   4.883
10751SOL    HW133152   1.154   3.289   4.924
10751SOL    HW233153   1.113   3.442   4.886
10752SOL     OW33154   6.324   4.175   6.453
10752SOL    HW133155   6.249   4.229   6.492
10752SOL    HW233156   6.411   4.213   6.483
10753SOL     OW33157   6.104   0.133   3.889
10753SOL    HW133158   6.174   0.200   3.912
10753SOL    HW233159   6.126   0.090   3.802
10754SOL     OW33160   1.929   2.205   2.385
10754SOL    HW133161   1.957   2.285   2.439
10754SOL    HW233162   1.955   2.122   2.433
10755SOL     OW33163   6.755   2.028   0.770
10755SOL    HW133164   6.713   2.057   0.685
10755SOL    HW233165   6.685   1.996   0.834
10756SOL     OW33166   6.189   3.159   0.609
10756SOL    HW133167   6.188   3.207   0.521
10756SOL    HW233168   6.227   3.068   0.597
10757SOL     OW33169   7.003   3.722   0.435
10757SOL    HW133170   0.086   3.724   0.438
10757SOL    HW233171   6.966   3.780   0.508
10758SOL     OW33172   0.490   5.562   5.428
10758SOL    HW133173   0.502   5.463   5.422
10758SOL    HW233174   0.546   5.598   5.503
10759SOL     OW33175   2.159   3.244   6.623
10759SOL    HW133176   2.148   3.195   6.710
10759SOL    HW233177   2.142   3.341   6.637
10760SOL     OW33178   6.983   6.424   1.289
10760SOL    HW133179   0.025   6.504   1.275
10760SOL    HW233180   6.901   6.450   1.341
10761SOL     OW33181   1.201   2.885   6.525
10761SOL    HW133182   1.255   2.924   6.452
10761SOL    HW233183   1.260   2.832   6.586
10762SOL     OW33184   4.755   0.812   4.927
10762SOL    HW133185   4.674   0.757   4.906
10762SOL    HW233186   4.787   0.790   5.020
10763SOL     OW33187   4.204   0.482   1.415
10763SOL    HW133188   4.187   0.524   1.504
10763SOL    HW233189   4.162   0.537   1.343
10764SOL     OW33190   5.229   1.470   6.242
10764SOL    HW133191   5.145   1.448   6.192
10764SOL    HW233192   5.210   1.538   6.312
10765SOL     OW33193   5.746   1.395   1.808
10765SOL    HW133194   5.704   1.450   1.736
10765SOL    HW233195   5.705   1.304   1.809
10766SOL     OW33196   2.402   3.605   0.531
10766SOL    HW133197   2.400   3.505   0.533
10766SOL    HW233198   2.487   3.636   0.490
10767SOL     OW33199   1.215   6.993   0.884
10767SOL    HW133200   1.129   6.946   0.903
10767SOL    HW233201   1.204   0.075   0.903
10768SOL     OW33202   5.748   5.735   0.344
10768SOL    HW133203   5.810   5.744   0.266
10768SOL    HW233204   5.668   5.681   0.317
10769SOL     OW33205   2.627   4.897   5.468
10769SOL    HW133206   2.538   4.857   5.490
10769SOL    HW233207   2.685   4.826   5.427
10770SOL     OW33208   5.561   0.457   4.913
10770SOL    HW133209   5.583   0.375   4.860
10770SOL    HW233210   5.475   0.444   4.962
10771SOL     OW33211   4.506   0.176   5.317
10771SOL    HW133212   4.415   0.143   5.295
10771SOL    HW233213   4.499   0.265   5.362
10772SOL     OW33214   6.973   0.324   3.519
10772SOL    HW133215   6.992   0.392   3.589
10772SOL    HW233216   6.877   0.328   3.493
10773SOL     OW33217   6.754   5.037   6.917
10773SOL    HW133218   6.847   5.069   6.899
10773SOL    HW233219   6.751   4.991   7.006
10774SOL     OW33220   1.255   2.231   1.207
10774SOL    HW133221   1.345   2.228   1.165
10774SOL    HW233222   1.240   2.321   1.248
10775SOL     OW33223   2.123   4.424   0.773
10775SOL    HW133224   2.151   4.341   0.820
10775SOL    HW233225   2.129   4.502   0.835
10776SOL     OW33226   0.090   6.353   1.743
10776SOL    HW133227   0.150   6.281   1.779
10776SOL    HW233228   0.136   6.402   1.669
10777SOL     OW33229   3.923   0.180   3.127
10777SOL    HW133230   3.850   0.155   3.063
10777SOL    HW233231   3.884   0.228   3.205
10778SOL     OW33232   6.712   6.821   4.774
10778SOL    HW133233   6.752   6.789   4.688
10778SOL    HW233234   6.697   6.920   4.769
10779SOL     OW33235   0.036   4.915   2.190
10779SOL    HW133236   0.123   4.905   2.142
10779SOL    HW233237   0.045   4.986   2.260
10780SOL     OW33238   0.486   5.861   3.493
10780SOL    HW133239   0.509   5.876   3.397
10780SOL    HW233240   0.468   5.949   3.537
10781SOL     OW33241   4.595   1.688   4.590
10781SOL    HW133242   4.506   1.706   4.547
10781SOL    HW233243   4.584   1.619   4.662
10782SOL     OW33244   6.431   2.217   3.438
10782SOL    HW133245   6.480   2.299   3.468
10782SOL    HW233246   6.450   2.200   3.341
10783SOL     OW33247   2.065   3.222   2.355
10783SOL    HW133248   2.024   3.264   2.274
10783SOL    HW233249   2.020   3.135   2.374
10784SOL     OW33250   2.386   6.384   1.126
10784SOL    HW133251   2.466   6.425   1.168
10784SOL    HW233252   2.333   6.454   1.078
10785SOL     OW33253   1.771   4.662   1.740
10785SOL    HW133254   1.775   4.655   1.839
10785SOL    HW233255   1.853   4.709   1.707
10786SOL     OW33256   5.388   2.676   2.101
10786SOL    HW133257   5.399   2.639   2.009
10786SOL    HW233258   5.471   2.661   2.153
10787SOL     OW33259   3.482   1.415   4.581
10787SOL    HW133260   3.404   1.476   4.596
10787SOL    HW233261   3.497   1.403   4.483
10788SOL     OW33262   2.246   4.101   0.461
10788SOL    HW133263   2.221   4.162   0.386
10788SOL    HW233264   2.330   4.134   0.504
10789SOL     OW33265   5.873   0.872   0.687
10789SOL    HW133266   5.964   0.834   0.701
10789SOL    HW233267   5.847   0.928   0.766
10790SOL     OW33268   0.588   0.731   5.612
10790SOL    HW133269   0.552   0.811   5.661
10790SOL    HW233270   0.517   0.661   5.606
10791SOL     OW33271   1.578   1.699   1.949
10791SOL    HW133272   1.616   1.607   1.939
10791SOL    HW233273   1.529   1.724   1.866
10792SOL     OW33274   3.159   3.255   1.583
10792SOL    HW133275   3.067   3.242   1.618
10792SOL    HW233276   3.224   3.202   1.638
10793SOL     OW33277   5.534   2.298   3.650
10793SOL    HW133278   5.496   2.349   3.727
10793SOL    HW233279   5.597   2.229   3.684
10794SOL     OW33280   3.469   4.099   2.011
10794SOL    HW133281   3.527   4.158   1.955
10794SOL    HW233282   3.505   4.095   2.104
10795SOL     OW33283   6.362   4.237   2.869
10795SOL    HW133284   6.397   4.144   2.883
10795SOL    HW233285   6.265   4.232   2.846
10796SOL     OW33286   3.587   0.194   6.516
10796SOL    HW133287   3.523   0.165   6.587
10796SOL    HW233288   3.541   0.192   6.427
10797SOL     OW33289   4.099   2.401   0.665
10797SOL    HW133290   4.178   2.371   0.611
10797SOL    HW233291   4.016   2.393   0.610
10798SOL     OW33292   2.120   7.002   0.474
10798SOL    HW133293   2.210   0.029   0.465
10798SOL    HW233294   2.089   6.970   0.385
10799SOL     OW33295   3.444   2.114   2.441
10799SOL    HW133296   3.348   2.134   2.461
10799SOL    HW233297   3.473   2.167   2.361
10800SOL     OW33298   2.064   6.006   0.448
10800SOL    HW133299   2.138   6.072   0.460
10800SOL    HW233300   2.102   5.914   0.441
10801SOL     OW33301   1.541   0.553   3.968
10801SOL    HW133302   1.628   0.513   3.939
10801SOL    HW233303   1.479   0.481   3.999
10802SOL     OW33304   2.306   2.853   4.800
10802SOL    HW133305   2.345   2.900   4.879
10802SOL    HW233306   2.243   2.915   4.752
10803SOL     OW33307   5.071   4.620   5.203
10803SOL    HW133308   5.130   4.684   5.252
10803SOL    HW233309   5.009   4.670   5.142
10804SOL     OW33310   6.984   4.443   0.972
10804SOL    HW133311   6.983   4.394   0.885
10804SOL    HW233312   0.015   4.531   0.960
10805SOL     OW33313   3.469   0.745   6.812
10805SOL    HW133314   3.515   0.672   6.761
10805SOL    HW233315   3.477   0.727   6.910
10806SOL     OW33316   5.775   4.111   0.113
10806SOL    HW133317   5.763   4.177   0.039
10806SOL    HW233318   5.782   4.019   0.076
10807SOL     OW33319   3.165   6.605   3.401
10807SOL    HW133320   3.152   6.574   3.307
10807SOL    HW233321   3.104   6.683   3.419
10808SOL     OW33322   6.558   3.881   6.983
10808SOL    HW133323   6.621   3.953   7.011
10808SOL    HW233324   6.481   3.878   0.031
10809SOL     OW33325   2.809   0.470   4.248
10809SOL    HW133326   2.890   0.526   4.260
10809SOL    HW233327   2.827   0.377   4.280
10810SOL     OW33328   0.964   1.616   6.092
10810SOL    HW133329   1.018   1.667   6.158
10810SOL    HW233330   1.021   1.545   6.050
10811SOL     OW33331   3.891   5.236   5.531
10811SOL    HW133332   3.821   5.167   5.549
10811SOL    HW233333   3.848   5.316   5.488
10812SOL     OW33334   0.473   3.882   1.891
10812SOL    HW133335   0.566   3.918   1.885
10812SOL    HW233336   0.418   3.941   1.950
10813SOL     OW33337   2.702   6.352   0.882
10813SOL    HW133338   2.756   6.356   0.966
10813SOL    HW233339   2.624   6.291   0.895
10814SOL     OW33340   1.017   0.458   5.780
10814SOL    HW133341   0.934   0.465   5.725
10814SOL    HW233342   1.010   0.378   5.840
10815SOL     OW33343   4.970   4.802   3.500
10815SOL    HW133344   4.947   4.872   3.433
10815SOL    HW233345   4.911   4.722   3.486
10816SOL     OW33346   1.803   1.280   2.318
10816SOL    HW133347   1.807   1.380   2.311
10816SOL    HW233348   1.890   1.241   2.289
10817SOL     OW33349   5.608   6.661   3.008
10817SOL    HW133350   5.573   6.663   3.101
10817SOL    HW233351   5.664   6.743   2.992
10818SOL     OW33352   5.922   2.364   5.802
10818SOL    HW133353   5.831   2.404   5.810
10818SOL    HW233354   5.939   2.303   5.880
10819SOL     OW33355   0.534   4.062   6.661
10819SOL    HW133356   0.495   4.149   6.692
10819SOL    HW233357   0.579   4.077   6.573
10820SOL     OW33358   0.041   6.865   4.412
10820SOL    HW133359   0.040   6.889   4.315
10820SOL    HW233360   0.130   6.826   4.436
10821SOL     OW33361   6.050   6.584   3.052
10821SOL    HW133362   6.000   6.571   2.966
10821SOL    HW233363   6.037   6.677   3.084
10822SOL     OW33364   1.524   2.756   2.528
10822SOL    HW133365   1.474   2.676   2.562
10822SOL    HW233366   1.469   2.838   2.543
10823SOL     OW33367   1.861   4.932   1.561
10823SOL    HW133368   1.933   4.864   1.578
10823SOL    HW233369   1.888   4.991   1.485
10824SOL     OW33370   4.788   6.836   3.688
10824SOL    HW133371   4.831   6.746   3.698
10824SOL    HW233372   4.852   6.907   3.716
10825SOL     OW33373   2.649   0.784   0.780
10825SOL    HW133374   2.671   0.686   0.785
10825SOL    HW233375   2.632   0.809   0.685
10826SOL     OW33376   6.545   3.680   3.093
10826SOL    HW133377   6.632   3.666   3.141
10826SOL    HW233378   6.541   3.773   3.058
10827SOL     OW33379   5.998   3.305   3.649
10827SOL    HW133380   6.020   3.326   3.553
10827SOL    HW233381   5.980   3.207   3.658
10828SOL     OW33382   1.443   5.892   2.130
10828SOL    HW133383   1.418   5.836   2.050
10828SOL    HW233384   1.462   5.985   2.100
10829SOL     OW33385   2.956   3.346   1.125
10829SOL    HW133386   2.862   3.361   1.155
10829SOL    HW233387   3.019   3.400   1.181
10830SOL     OW33388   5.028   2.281   3.376
10830SOL    HW133389   5.029   2.330   3.463
10830SOL    HW233390   5.102   2.214   3.374
10831SOL     OW33391   4.926   6.788   1.730
10831SOL    HW133392   4.845   6.839   1.759
10831SOL    HW233393   5.007   6.824   1.776
10832SOL     OW33394   0.508   2.411   0.799
10832SOL    HW133395   0.458   2.495   0.776
10832SOL    HW233396   0.477   2.337   0.740
10833SOL     OW33397   1.763   0.513   3.840
10833SOL    HW133398   1.838   0.489   3.778
10833SOL    HW233399   1.704   0.581   3.795
10834SOL     OW33400   0.717   1.578   5.935
10834SOL    HW133401   0.713   1.624   5.846
10834SOL    HW233402   0.808   1.589   5.974
10835SOL     OW33403   5.584   1.464   1.083
10835SOL    HW133404   5.596   1.371   1.118
10835SOL    HW233405   5.650   1.525   1.126
10836SOL     OW33406   6.969   1.519   5.770
10836SOL    HW133407   6.892   1.465   5.738
10836SOL    HW233408   0.038   1.471   5.748
10837SOL     OW33409   6.879   4.714   0.019
10837SOL    HW133410   6.927   4.789   6.990
10837SOL    HW233411   6.944   4.657   0.068
10838SOL     OW33412   5.854   0.268   4.939
10838SOL    HW133413   5.870   0.366   4.926
10838SOL    HW233414   5.936   0.217   4.915
10839SOL     OW33415   2.882   3.225   0.607
10839SOL    HW133416   2.849   3.169   0.682
10839SOL    HW233417   2.912   3.166   0.532
10840SOL     OW33418   3.693   5.913   1.177
10840SOL    HW133419   3.653   5.822   1.181
10840SOL    HW233420   3.711   5.946   1.269
10841SOL     OW33421   3.120   5.691   5.824
10841SOL    HW133422   3.055   5.657   5.756
10841SOL    HW233423   3.121   5.791   5.823
10842SOL     OW33424   6.033   3.577   1.087
10842SOL    HW133425   6.009   3.514   1.014
10842SOL    HW233426   6.033   3.671   1.052
10843SOL     OW33427   0.471   1.636   1.911
10843SOL    HW133428   0.403   1.653   1.839
10843SOL    HW233429   0.526   1.556   1.886
10844SOL     OW33430   0.465   6.335   4.465
10844SOL    HW133431   0.535   6.271   4.495
10844SOL    HW233432   0.448   6.403   4.536
10845SOL     OW33433   1.997   1.078   1.227
10845SOL    HW133434   2.023   0.984   1.247
10845SOL    HW233435   1.931   1.079   1.152
10846SOL     OW33436   4.695   2.228   1.034
10846SOL    HW133437   4.699   2.219   0.935
10846SOL    HW233438   4.601   2.249   1.062
10847SOL     OW33439   2.490   1.623   6.562
10847SOL    HW133440   2.524   1.702   6.613
10847SOL    HW233441   2.511   1.539   6.612
10848SOL     OW33442   2.992   1.994   6.789
10848SOL    HW133443   3.031   2.083   6.813
10848SOL    HW233444   3.039   1.957   6.709
10849SOL     OW33445   4.012   4.812   4.054
10849SOL    HW133446   3.977   4.875   4.124
10849SOL    HW233447   3.942   4.799   3.984
10850SOL     OW33448   3.595   6.812   6.897
10850SOL    HW133449   3.500   6.845   6.903
10850SOL    HW233450   3.610   6.773   6.806
10851SOL     OW33451   2.757   2.413   6.252
10851SOL    HW133452   2.724   2.320   6.267
10851SOL    HW233453   2.850   2.422   6.288
10852SOL     OW33454   0.585   0.150   6.327
10852SOL    HW133455   0.489   0.166   6.302
10852SOL    HW233456   0.588   0.104   6.416
10853SOL     OW33457   3.955   1.590   4.606
10853SOL    HW133458   4.045   1.548   4.597
10853SOL    HW233459   3.928   1.590   4.702
10854SOL     OW33460   6.259   6.999   6.437
10854SOL    HW133461   6.162   6.989   6.414
10854SOL    HW233462   6.296   0.065   6.393
10855SOL     OW33463   2.799   6.167   2.685
10855SOL    HW133464   2.898   6.164   2.679
10855SOL    HW233465   2.771   6.194   2.777
10856SOL     OW33466   5.953   0.530   0.962
10856SOL    HW133467   5.996   0.589   0.894
10856SOL    HW233468   5.969   0.566   1.054
10857SOL     OW33469   5.871   2.852   3.475
10857SOL    HW133470   5.775   2.830   3.494
10857SOL    HW233471   5.911   2.899   3.553
10858SOL     OW33472   1.716   2.783   6.608
10858SOL    HW133473   1.713   2.830   6.520
10858SOL    HW233474   1.682   2.689   6.596
10859SOL     OW33475   1.844   3.791   3.383
10859SOL    HW133476   1.784   3.756   3.455
10859SOL    HW233477   1.791   3.807   3.300
10860SOL     OW33478   6.665   1.076   6.328
10860SOL    HW133479   6.683   1.055   6.231
10860SOL    HW233480   6.752   1.084   6.377
10861SOL     OW33481   3.708   2.562   1.659
10861SOL    HW133482   3.635   2.628   1.678
10861SOL    HW233483   3.686   2.475   1.703
10862SOL     OW33484   2.299   1.499   6.390
10862SOL    HW133485   2.346   1.566   6.447
10862SOL    HW233486   2.257   1.429   6.447
10863SOL     OW33487   3.549   1.196   2.667
10863SOL    HW133488   3.461   1.193   2.619
10863SOL    HW233489   3.618   1.237   2.607
10864SOL     OW33490   2.194   4.442   1.222
10864SOL    HW133491   2.157   4.439   1.315
10864SOL    HW233492   2.293   4.439   1.225
10865SOL     OW33493   6.030   2.533   3.212
10865SOL    HW133494   6.005   2.504   3.119
10865SOL    HW233495   6.122   2.572   3.211
10866SOL     OW33496   5.557   3.475   1.081
10866SOL    HW133497   5.588   3.380   1.075
10866SOL    HW233498   5.579   3.524   0.997
10867SOL     OW33499   2.377   2.750   0.419
10867SOL    HW133500   2.399   2.847   0.430
10867SOL    HW233501   2.293   2.729   0.469
10868SOL     OW33502   1.572   2.289   3.216
10868SOL    HW133503   1.533   2.205   3.254
10868SOL    HW233504   1.498   2.349   3.186
10869NA      NA33505   0.742   2.284   6.345
10870NA      NA33506   4.416   4.464   5.265
10871NA      NA33507   2.251   4.832   2.442
10872NA      NA33508   5.036   4.563   3.730
10873NA      NA33509   4.296   2.377   5.276
10874NA      NA33510   3.491   4.177   1.450
10875NA      NA33511   1.140   4.671   0.273
10876NA      NA33512   4.109   4.156   1.623
10877NA      NA33513   4.596   4.436   0.987
10878NA      NA33514   3.529   1.087   5.181
10879NA      NA33515   5.476   5.808   1.533
10880NA      NA33516   1.213   0.592   5.714
10881NA      NA33517   4.834   4.851   2.206
10882NA      NA33518   3.532   3.271   0.571
   7.01608   7.01608   7.01608
