Generated by trjconv : CNT in water t= 142.00000
33518
    1C        C    1   2.842   2.770   4.744
    1C        C    2   2.895   2.717   4.864
    1C        C    3   2.841   2.768   4.982
    1C        C    4   2.849   2.773   4.258
    1C        C    5   2.901   2.727   4.381
    1C        C    6   2.845   2.772   4.503
    1C        C    7   3.014   2.641   4.623
    1C        C    8   2.897   2.720   4.624
    1C        C    9   3.077   2.604   4.744
    1C        C   10   3.008   2.633   4.864
    1C        C   11   3.180   2.490   4.973
    1C        C   12   3.058   2.558   4.971
    1C        C   13   2.850   2.772   3.769
    1C        C   14   2.896   2.720   3.892
    1C        C   15   2.847   2.772   4.014
    1C        C   16   3.021   2.649   4.138
    1C        C   17   2.902   2.725   4.136
    1C        C   18   3.085   2.616   4.260
    1C        C   19   3.020   2.650   4.380
    1C        C   20   3.208   2.556   4.501
    1C        C   21   3.074   2.603   4.501
    1C        C   22   3.279   2.532   4.621
    1C        C   23   3.206   2.545   4.741
    1C        C   24   3.409   2.479   4.862
    1C        C   25   3.267   2.497   4.860
    1C        C   26   3.485   2.471   4.979
    1C        C   27   2.847   2.763   3.281
    1C        C   28   2.902   2.720   3.404
    1C        C   29   2.853   2.772   3.526
    1C        C   30   3.016   2.636   3.647
    1C        C   31   2.903   2.721   3.648
    1C        C   32   3.075   2.605   3.772
    1C        C   33   3.013   2.642   3.893
    1C        C   34   3.208   2.553   4.015
    1C        C   35   3.079   2.611   4.015
    1C        C   36   3.279   2.531   4.135
    1C        C   37   3.215   2.560   4.257
    1C        C   38   3.417   2.506   4.378
    1C        C   39   3.280   2.539   4.381
    1C        C   40   3.488   2.503   4.500
    1C        C   41   3.417   2.501   4.622
    1C        C   42   3.628   2.477   4.745
    1C        C   43   3.486   2.475   4.742
    1C        C   44   3.704   2.483   4.864
    1C        C   45   3.624   2.479   4.979
    1C        C   46   2.835   2.750   2.793
    1C        C   47   2.891   2.705   2.914
    1C        C   48   2.839   2.756   3.036
    1C        C   49   3.016   2.638   3.160
    1C        C   50   2.897   2.715   3.158
    1C        C   51   3.080   2.607   3.281
    1C        C   52   3.021   2.643   3.405
    1C        C   53   3.211   2.549   3.526
    1C        C   54   3.082   2.605   3.526
    1C        C   55   3.276   2.529   3.650
    1C        C   56   3.207   2.553   3.770
    1C        C   57   3.414   2.508   3.890
    1C        C   58   3.275   2.533   3.892
    1C        C   59   3.486   2.498   4.011
    1C        C   60   3.417   2.504   4.134
    1C        C   61   3.629   2.494   4.259
    1C        C   62   3.488   2.499   4.256
    1C        C   63   3.701   2.497   4.381
    1C        C   64   3.629   2.496   4.503
    1C        C   65   3.836   2.537   4.620
    1C        C   66   3.700   2.500   4.625
    1C        C   67   3.907   2.554   4.741
    1C        C   68   3.841   2.520   4.861
    1C        C   69   4.048   2.585   4.981
    1C        C   70   3.920   2.529   4.977
    1C        C   71   2.820   2.731   2.306
    1C        C   72   2.883   2.690   2.426
    1C        C   73   2.832   2.743   2.546
    1C        C   74   3.003   2.623   2.671
    1C        C   75   2.883   2.698   2.670
    1C        C   76   3.071   2.595   2.792
    1C        C   77   3.012   2.633   2.915
    1C        C   78   3.207   2.548   3.036
    1C        C   79   3.078   2.606   3.037
    1C        C   80   3.276   2.533   3.158
    1C        C   81   3.209   2.549   3.281
    1C        C   82   3.416   2.502   3.403
    1C        C   83   3.277   2.525   3.403
    1C        C   84   3.487   2.493   3.525
    1C        C   85   3.415   2.505   3.646
    1C        C   86   3.627   2.497   3.769
    1C        C   87   3.486   2.499   3.769
    1C        C   88   3.698   2.507   3.891
    1C        C   89   3.627   2.503   4.013
    1C        C   90   3.834   2.540   4.135
    1C        C   91   3.697   2.505   4.136
    1C        C   92   3.900   2.567   4.256
    1C        C   93   3.836   2.538   4.379
    1C        C   94   4.031   2.627   4.498
    1C        C   95   3.904   2.564   4.500
    1C        C   96   4.089   2.666   4.621
    1C        C   97   4.031   2.624   4.742
    1C        C   98   4.188   2.764   4.864
    1C        C   99   4.096   2.654   4.865
    1C        C  100   4.209   2.846   4.976
    1C        C  101   2.821   2.727   2.067
    1C        C  102   2.987   2.590   2.188
    1C        C  103   2.873   2.676   2.186
    1C        C  104   3.062   2.574   2.308
    1C        C  105   3.005   2.619   2.429
    1C        C  106   3.199   2.532   2.550
    1C        C  107   3.069   2.588   2.552
    1C        C  108   3.268   2.516   2.672
    1C        C  109   3.200   2.537   2.793
    1C        C  110   3.411   2.499   2.914
    1C        C  111   3.271   2.517   2.914
    1C        C  112   3.483   2.494   3.035
    1C        C  113   3.414   2.503   3.158
    1C        C  114   3.627   2.494   3.277
    1C        C  115   3.485   2.494   3.280
    1C        C  116   3.695   2.501   3.400
    1C        C  117   3.628   2.493   3.524
    1C        C  118   3.837   2.533   3.643
    1C        C  119   3.698   2.504   3.647
    1C        C  120   3.902   2.557   3.766
    1C        C  121   3.836   2.536   3.890
    1C        C  122   4.028   2.626   4.014
    1C        C  123   3.900   2.565   4.012
    1C        C  124   4.091   2.663   4.135
    1C        C  125   4.027   2.630   4.256
    1C        C  126   4.195   2.763   4.378
    1C        C  127   4.088   2.671   4.377
    1C        C  128   4.236   2.821   4.500
    1C        C  129   4.192   2.764   4.622
    1C        C  130   4.321   2.934   4.743
    1C        C  131   4.240   2.817   4.743
    1C        C  132   4.354   3.003   4.862
    1C        C  133   4.285   2.962   4.977
    1C        C  134   3.173   2.473   2.076
    1C        C  135   3.039   2.514   2.079
    1C        C  136   3.257   2.481   2.188
    1C        C  137   3.192   2.516   2.308
    1C        C  138   3.405   2.482   2.429
    1C        C  139   3.265   2.503   2.429
    1C        C  140   3.480   2.479   2.548
    1C        C  141   3.407   2.490   2.668
    1C        C  142   3.620   2.493   2.788
    1C        C  143   3.479   2.492   2.790
    1C        C  144   3.692   2.496   2.910
    1C        C  145   3.624   2.490   3.033
    1C        C  146   3.834   2.534   3.154
    1C        C  147   3.697   2.499   3.154
    1C        C  148   3.901   2.558   3.276
    1C        C  149   3.834   2.532   3.397
    1C        C  150   4.025   2.621   3.521
    1C        C  151   3.900   2.555   3.519
    1C        C  152   4.085   2.660   3.643
    1C        C  153   4.025   2.626   3.766
    1C        C  154   4.189   2.758   3.888
    1C        C  155   4.081   2.667   3.890
    1C        C  156   4.241   2.808   4.010
    1C        C  157   4.198   2.755   4.133
    1C        C  158   4.331   2.921   4.253
    1C        C  159   4.247   2.808   4.254
    1C        C  160   4.365   2.985   4.374
    1C        C  161   4.323   2.932   4.498
    1C        C  162   4.430   3.115   4.613
    1C        C  163   4.360   2.992   4.621
    1C        C  164   4.457   3.184   4.733
    1C        C  165   4.426   3.124   4.858
    1C        C  166   4.512   3.323   4.970
    1C        C  167   4.475   3.189   4.972
    1C        C  168   3.474   2.430   2.072
    1C        C  169   3.396   2.455   2.185
    1C        C  170   3.613   2.472   2.306
    1C        C  171   3.471   2.468   2.305
    1C        C  172   3.689   2.489   2.423
    1C        C  173   3.622   2.484   2.547
    1C        C  174   3.830   2.536   2.665
    1C        C  175   3.693   2.501   2.668
    1C        C  176   3.896   2.557   2.788
    1C        C  177   3.830   2.527   2.909
    1C        C  178   4.025   2.617   3.029
    1C        C  179   3.900   2.551   3.030
    1C        C  180   4.087   2.653   3.150
    1C        C  181   4.029   2.618   3.274
    1C        C  182   4.194   2.746   3.397
    1C        C  183   4.084   2.657   3.398
    1C        C  184   4.240   2.800   3.519
    1C        C  185   4.193   2.751   3.644
    1C        C  186   4.335   2.910   3.764
    1C        C  187   4.243   2.803   3.766
    1C        C  188   4.374   2.973   3.884
    1C        C  189   4.329   2.919   4.007
    1C        C  190   4.436   3.102   4.127
    1C        C  191   4.369   2.978   4.129
    1C        C  192   4.460   3.173   4.247
    1C        C  193   4.427   3.112   4.370
    1C        C  194   4.500   3.313   4.490
    1C        C  195   4.460   3.178   4.490
    1C        C  196   4.518   3.386   4.610
    1C        C  197   4.505   3.318   4.732
    1C        C  198   4.555   3.535   4.847
    1C        C  199   4.529   3.394   4.850
    1C        C  200   4.580   3.616   4.962
    1C        C  201   3.613   2.418   2.074
    1C        C  202   3.826   2.507   2.181
    1C        C  203   3.690   2.462   2.187
    1C        C  204   3.898   2.536   2.300
    1C        C  205   3.828   2.516   2.421
    1C        C  206   4.024   2.607   2.541
    1C        C  207   3.896   2.547   2.541
    1C        C  208   4.088   2.646   2.660
    1C        C  209   4.024   2.617   2.783
    1C        C  210   4.194   2.740   2.905
    1C        C  211   4.084   2.652   2.906
    1C        C  212   4.244   2.794   3.026
    1C        C  213   4.195   2.744   3.148
    1C        C  214   4.324   2.908   3.270
    1C        C  215   4.241   2.794   3.273
    1C        C  216   4.360   2.970   3.392
    1C        C  217   4.323   2.914   3.517
    1C        C  218   4.424   3.098   3.636
    1C        C  219   4.365   2.970   3.640
    1C        C  220   4.457   3.164   3.757
    1C        C  221   4.435   3.100   3.881
    1C        C  222   4.489   3.305   4.000
    1C        C  223   4.457   3.167   4.004
    1C        C  224   4.506   3.376   4.121
    1C        C  225   4.503   3.308   4.244
    1C        C  226   4.511   3.521   4.364
    1C        C  227   4.511   3.380   4.366
    1C        C  228   4.512   3.597   4.483
    1C        C  229   4.523   3.527   4.605
    1C        C  230   4.503   3.741   4.724
    1C        C  231   4.537   3.603   4.723
    1C        C  232   4.495   3.818   4.842
    1C        C  233   4.543   3.751   4.956
    1C        C  234   4.014   2.608   2.062
    1C        C  235   3.894   2.539   2.063
    1C        C  236   4.082   2.648   2.177
    1C        C  237   4.024   2.603   2.298
    1C        C  238   4.196   2.733   2.417
    1C        C  239   4.085   2.644   2.418
    1C        C  240   4.249   2.783   2.537
    1C        C  241   4.197   2.736   2.660
    1C        C  242   4.330   2.903   2.782
    1C        C  243   4.244   2.791   2.782
    1C        C  244   4.370   2.962   2.904
    1C        C  245   4.332   2.905   3.028
    1C        C  246   4.427   3.094   3.149
    1C        C  247   4.368   2.966   3.149
    1C        C  248   4.450   3.162   3.271
    1C        C  249   4.425   3.095   3.393
    1C        C  250   4.487   3.301   3.513
    1C        C  251   4.448   3.165   3.513
    1C        C  252   4.498   3.371   3.636
    1C        C  253   4.488   3.301   3.758
    1C        C  254   4.516   3.516   3.878
    1C        C  255   4.503   3.375   3.878
    1C        C  256   4.515   3.589   3.999
    1C        C  257   4.517   3.517   4.120
    1C        C  258   4.494   3.731   4.240
    1C        C  259   4.514   3.591   4.241
    1C        C  260   4.470   3.803   4.359
    1C        C  261   4.488   3.736   4.482
    1C        C  262   4.426   3.940   4.602
    1C        C  263   4.477   3.809   4.603
    1C        C  264   4.398   4.010   4.722
    1C        C  265   4.429   3.943   4.842
    1C        C  266   4.315   4.126   4.955
    1C        C  267   4.386   4.006   4.959
    1C        C  268   4.260   2.775   2.056
    1C        C  269   4.197   2.730   2.173
    1C        C  270   4.340   2.890   2.294
    1C        C  271   4.249   2.780   2.295
    1C        C  272   4.376   2.953   2.415
    1C        C  273   4.336   2.894   2.537
    1C        C  274   4.431   3.085   2.658
    1C        C  275   4.372   2.956   2.658
    1C        C  276   4.458   3.153   2.779
    1C        C  277   4.435   3.087   2.902
    1C        C  278   4.496   3.289   3.022
    1C        C  279   4.461   3.153   3.025
    1C        C  280   4.504   3.364   3.142
    1C        C  281   4.487   3.298   3.266
    1C        C  282   4.510   3.508   3.388
    1C        C  283   4.498   3.368   3.389
    1C        C  284   4.514   3.581   3.509
    1C        C  285   4.510   3.511   3.632
    1C        C  286   4.494   3.724   3.750
    1C        C  287   4.514   3.584   3.754
    1C        C  288   4.479   3.793   3.872
    1C        C  289   4.496   3.729   3.997
    1C        C  290   4.436   3.933   4.112
    1C        C  291   4.485   3.801   4.118
    1C        C  292   4.402   3.997   4.234
    1C        C  293   4.424   3.937   4.359
    1C        C  294   4.327   4.128   4.477
    1C        C  295   4.397   4.006   4.480
    1C        C  296   4.283   4.188   4.598
    1C        C  297   4.330   4.135   4.720
    1C        C  298   4.195   4.311   4.835
    1C        C  299   4.282   4.197   4.839
    1C        C  300   4.166   4.399   4.944
    1C        C  301   4.356   2.875   2.059
    1C        C  302   4.466   3.068   2.175
    1C        C  303   4.396   2.943   2.175
    1C        C  304   4.477   3.142   2.296
    1C        C  305   4.446   3.076   2.417
    1C        C  306   4.504   3.284   2.533
    1C        C  307   4.467   3.147   2.537
    1C        C  308   4.506   3.355   2.655
    1C        C  309   4.490   3.290   2.779
    1C        C  310   4.514   3.501   2.898
    1C        C  311   4.509   3.360   2.900
    1C        C  312   4.505   3.573   3.019
    1C        C  313   4.509   3.505   3.143
    1C        C  314   4.485   3.717   3.262
    1C        C  315   4.507   3.577   3.265
    1C        C  316   4.476   3.790   3.383
    1C        C  317   4.494   3.721   3.504
    1C        C  318   4.428   3.923   3.628
    1C        C  319   4.473   3.789   3.626
    1C        C  320   4.400   3.990   3.749
    1C        C  321   4.434   3.927   3.871
    1C        C  322   4.322   4.113   3.991
    1C        C  323   4.401   3.995   3.990
    1C        C  324   4.279   4.168   4.113
    1C        C  325   4.324   4.115   4.236
    1C        C  326   4.186   4.284   4.352
    1C        C  327   4.282   4.181   4.354
    1C        C  328   4.136   4.341   4.471
    1C        C  329   4.189   4.293   4.593
    1C        C  330   4.022   4.433   4.710
    1C        C  331   4.134   4.346   4.712
    1C        C  332   3.968   4.493   4.826
    1C        C  333   4.049   4.476   4.939
    1C        C  334   4.550   3.269   2.058
    1C        C  335   4.534   3.130   2.065
    1C        C  336   4.539   3.350   2.172
    1C        C  337   4.511   3.280   2.292
    1C        C  338   4.518   3.496   2.410
    1C        C  339   4.519   3.354   2.411
    1C        C  340   4.516   3.566   2.533
    1C        C  341   4.521   3.496   2.655
    1C        C  342   4.493   3.710   2.772
    1C        C  343   4.515   3.570   2.775
    1C        C  344   4.481   3.782   2.893
    1C        C  345   4.486   3.713   3.015
    1C        C  346   4.423   3.914   3.136
    1C        C  347   4.470   3.781   3.138
    1C        C  348   4.392   3.979   3.258
    1C        C  349   4.425   3.922   3.383
    1C        C  350   4.323   4.107   3.502
    1C        C  351   4.398   3.987   3.505
    1C        C  352   4.275   4.159   3.624
    1C        C  353   4.320   4.107   3.747
    1C        C  354   4.176   4.264   3.867
    1C        C  355   4.279   4.167   3.867
    1C        C  356   4.122   4.313   3.988
    1C        C  357   4.177   4.266   4.109
    1C        C  358   4.009   4.399   4.228
    1C        C  359   4.127   4.321   4.229
    1C        C  360   3.950   4.446   4.348
    1C        C  361   4.016   4.416   4.469
    1C        C  362   3.827   4.518   4.591
    1C        C  363   3.956   4.461   4.589
    1C        C  364   3.761   4.552   4.711
    1C        C  365   3.838   4.547   4.830
    1C        C  366   3.628   4.592   4.947
    1C        C  367   3.766   4.574   4.947
    1C        C  368   4.506   3.567   2.052
    1C        C  369   4.525   3.490   2.168
    1C        C  370   4.502   3.706   2.287
    1C        C  371   4.518   3.565   2.287
    1C        C  372   4.482   3.777   2.407
    1C        C  373   4.495   3.706   2.528
    1C        C  374   4.426   3.909   2.648
    1C        C  375   4.475   3.777   2.649
    1C        C  376   4.393   3.975   2.769
    1C        C  377   4.432   3.915   2.891
    1C        C  378   4.322   4.098   3.011
    1C        C  379   4.398   3.978   3.012
    1C        C  380   4.277   4.153   3.133
    1C        C  381   4.316   4.098   3.257
    1C        C  382   4.178   4.258   3.374
    1C        C  383   4.280   4.160   3.378
    1C        C  384   4.126   4.305   3.497
    1C        C  385   4.178   4.262   3.621
    1C        C  386   4.004   4.383   3.741
    1C        C  387   4.123   4.306   3.743
    1C        C  388   3.942   4.424   3.861
    1C        C  389   4.003   4.389   3.983
    1C        C  390   3.815   4.484   4.107
    1C        C  391   3.945   4.428   4.106
    1C        C  392   3.748   4.513   4.228
    1C        C  393   3.820   4.501   4.349
    1C        C  394   3.614   4.552   4.474
    1C        C  395   3.754   4.529   4.470
    1C        C  396   3.544   4.560   4.596
    1C        C  397   3.620   4.560   4.715
    1C        C  398   3.407   4.547   4.837
    1C        C  399   3.547   4.567   4.836
    1C        C  400   3.340   4.515   4.956
    1C        C  401   4.497   3.705   2.049
    1C        C  402   4.448   3.915   2.162
    1C        C  403   4.491   3.780   2.168
    1C        C  404   4.410   3.977   2.283
    1C        C  405   4.434   3.910   2.405
    1C        C  406   4.325   4.094   2.524
    1C        C  407   4.402   3.976   2.526
    1C        C  408   4.275   4.151   2.644
    1C        C  409   4.317   4.094   2.766
    1C        C  410   4.179   4.252   2.885
    1C        C  411   4.277   4.151   2.889
    1C        C  412   4.122   4.296   3.007
    1C        C  413   4.175   4.251   3.130
    1C        C  414   4.000   4.372   3.251
    1C        C  415   4.122   4.300   3.252
    1C        C  416   3.940   4.409   3.374
    1C        C  417   4.006   4.380   3.495
    1C        C  418   3.814   4.472   3.620
    1C        C  419   3.943   4.414   3.617
    1C        C  420   3.746   4.501   3.740
    1C        C  421   3.814   4.482   3.863
    1C        C  422   3.608   4.526   3.986
    1C        C  423   3.748   4.509   3.985
    1C        C  424   3.536   4.533   4.108
    1C        C  425   3.609   4.537   4.229
    1C        C  426   3.401   4.552   4.353
    1C        C  427   3.542   4.553   4.353
    1C        C  428   3.329   4.546   4.475
    1C        C  429   3.403   4.556   4.595
    1C        C  430   3.194   4.513   4.719
    1C        C  431   3.332   4.545   4.717
    1C        C  432   3.123   4.490   4.840
    1C        C  433   3.203   4.497   4.955
    1C        C  434   4.382   4.124   2.049
    1C        C  435   4.442   3.998   2.050
    1C        C  436   4.302   4.163   2.161
    1C        C  437   4.335   4.098   2.283
    1C        C  438   4.182   4.251   2.400
    1C        C  439   4.284   4.153   2.403
    1C        C  440   4.128   4.304   2.519
    1C        C  441   4.177   4.253   2.641
    1C        C  442   4.004   4.373   2.764
    1C        C  443   4.124   4.300   2.764
    1C        C  444   3.942   4.409   2.886
    1C        C  445   4.003   4.372   3.007
    1C        C  446   3.812   4.468   3.129
    1C        C  447   3.940   4.409   3.128
    1C        C  448   3.745   4.488   3.252
    1C        C  449   3.812   4.468   3.374
    1C        C  450   3.609   4.523   3.497
    1C        C  451   3.748   4.495   3.497
    1C        C  452   3.540   4.539   3.619
    1C        C  453   3.608   4.531   3.743
    1C        C  454   3.396   4.542   3.861
    1C        C  455   3.537   4.540   3.864
    1C        C  456   3.329   4.529   3.985
    1C        C  457   3.395   4.535   4.110
    1C        C  458   3.190   4.506   4.233
    1C        C  459   3.327   4.541   4.233
    1C        C  460   3.122   4.485   4.355
    1C        C  461   3.192   4.510   4.475
    1C        C  462   2.996   4.433   4.600
    1C        C  463   3.125   4.492   4.598
    1C        C  464   2.932   4.398   4.721
    1C        C  465   2.988   4.441   4.844
    1C        C  466   2.795   4.341   4.958
    1C        C  467   2.902   4.432   4.959
    1C        C  468   4.123   4.290   2.040
    1C        C  469   4.187   4.248   2.158
    1C        C  470   4.003   4.365   2.277
    1C        C  471   4.125   4.292   2.278
    1C        C  472   3.938   4.398   2.398
    1C        C  473   4.006   4.375   2.519
    1C        C  474   3.812   4.459   2.642
    1C        C  475   3.945   4.412   2.641
    1C        C  476   3.744   4.485   2.763
    1C        C  477   3.814   4.470   2.885
    1C        C  478   3.605   4.508   3.007
    1C        C  479   3.745   4.488   3.006
    1C        C  480   3.536   4.526   3.129
    1C        C  481   3.606   4.514   3.251
    1C        C  482   3.397   4.528   3.374
    1C        C  483   3.539   4.526   3.375
    1C        C  484   3.328   4.524   3.497
    1C        C  485   3.399   4.534   3.619
    1C        C  486   3.187   4.498   3.744
    1C        C  487   3.325   4.528   3.739
    1C        C  488   3.121   4.478   3.867
    1C        C  489   3.191   4.501   3.987
    1C        C  490   3.002   4.410   4.113
    1C        C  491   3.126   4.478   4.111
    1C        C  492   2.939   4.379   4.236
    1C        C  493   2.995   4.423   4.358
    1C        C  494   2.825   4.300   4.483
    1C        C  495   2.934   4.390   4.481
    1C        C  496   2.770   4.255   4.605
    1C        C  497   2.819   4.312   4.724
    1C        C  498   2.667   4.163   4.843
    1C        C  499   2.749   4.277   4.842
    1C        C  500   2.587   4.122   4.951
    1C        C  501   4.001   4.357   2.037
    1C        C  502   3.813   4.462   2.155
    1C        C  503   3.940   4.399   2.155
    1C        C  504   3.741   4.478   2.276
    1C        C  505   3.805   4.448   2.398
    1C        C  506   3.604   4.507   2.522
    1C        C  507   3.743   4.478   2.520
    1C        C  508   3.531   4.509   2.643
    1C        C  509   3.604   4.507   2.764
    1C        C  510   3.392   4.522   2.885
    1C        C  511   3.533   4.517   2.885
    1C        C  512   3.321   4.518   3.007
    1C        C  513   3.395   4.525   3.127
    1C        C  514   3.190   4.486   3.254
    1C        C  515   3.328   4.517   3.252
    1C        C  516   3.124   4.463   3.377
    1C        C  517   3.191   4.488   3.498
    1C        C  518   2.996   4.407   3.624
    1C        C  519   3.123   4.470   3.621
    1C        C  520   2.938   4.369   3.747
    1C        C  521   3.000   4.405   3.869
    1C        C  522   2.833   4.279   3.995
    1C        C  523   2.943   4.367   3.993
    1C        C  524   2.785   4.230   4.119
    1C        C  525   2.833   4.285   4.240
    1C        C  526   2.695   4.129   4.361
    1C        C  527   2.776   4.245   4.362
    1C        C  528   2.651   4.076   4.484
    1C        C  529   2.684   4.143   4.604
    1C        C  530   2.584   3.957   4.731
    1C        C  531   2.641   4.087   4.727
    1C        C  532   2.547   3.900   4.856
    1C        C  533   2.525   3.997   4.959
    1C        C  534   3.617   4.555   2.039
    1C        C  535   3.750   4.510   2.040
    1C        C  536   3.535   4.531   2.154
    1C        C  537   3.603   4.513   2.277
    1C        C  538   3.392   4.510   2.399
    1C        C  539   3.533   4.517   2.400
    1C        C  540   3.320   4.504   2.521
    1C        C  541   3.390   4.507   2.643
    1C        C  542   3.180   4.484   2.765
    1C        C  543   3.318   4.510   2.765
    1C        C  544   3.116   4.462   2.889
    1C        C  545   3.183   4.486   3.011
    1C        C  546   2.995   4.397   3.133
    1C        C  547   3.118   4.466   3.134
    1C        C  548   2.937   4.363   3.257
    1C        C  549   2.996   4.402   3.379
    1C        C  550   2.824   4.281   3.503
    1C        C  551   2.936   4.368   3.502
    1C        C  552   2.778   4.230   3.626
    1C        C  553   2.830   4.278   3.749
    1C        C  554   2.698   4.116   3.872
    1C        C  555   2.781   4.230   3.873
    1C        C  556   2.654   4.062   3.995
    1C        C  557   2.696   4.121   4.117
    1C        C  558   2.591   3.940   4.246
    1C        C  559   2.657   4.065   4.241
    1C        C  560   2.561   3.879   4.370
    1C        C  561   2.585   3.951   4.489
    1C        C  562   2.525   3.749   4.615
    1C        C  563   2.561   3.885   4.611
    1C        C  564   2.519   3.680   4.739
    1C        C  565   2.526   3.759   4.857
    1C        C  566   2.528   3.544   4.977
    1C        C  567   2.525   3.683   4.975
    1C        C  568   3.325   4.473   2.041
    1C        C  569   3.395   4.507   2.158
    1C        C  570   3.182   4.469   2.281
    1C        C  571   3.320   4.505   2.278
    1C        C  572   3.112   4.453   2.402
    1C        C  573   3.182   4.476   2.523
    1C        C  574   2.983   4.400   2.646
    1C        C  575   3.111   4.459   2.644
    1C        C  576   2.927   4.359   2.769
    1C        C  577   2.990   4.398   2.889
    1C        C  578   2.823   4.269   3.013
    1C        C  579   2.932   4.359   3.012
    1C        C  580   2.777   4.220   3.137
    1C        C  581   2.832   4.269   3.258
    1C        C  582   2.692   4.114   3.383
    1C        C  583   2.778   4.226   3.381
    1C        C  584   2.660   4.053   3.506
    1C        C  585   2.696   4.115   3.628
    1C        C  586   2.592   3.931   3.754
    1C        C  587   2.659   4.056   3.751
    1C        C  588   2.570   3.869   3.879
    1C        C  589   2.597   3.933   4.002
    1C        C  590   2.532   3.734   4.126
    1C        C  591   2.570   3.870   4.125
    1C        C  592   2.520   3.670   4.251
    1C        C  593   2.530   3.741   4.373
    1C        C  594   2.510   3.533   4.497
    1C        C  595   2.514   3.674   4.496
    1C        C  596   2.513   3.464   4.620
    1C        C  597   2.516   3.538   4.741
    1C        C  598   2.537   3.325   4.865
    1C        C  599   2.528   3.466   4.861
    1C        C  600   2.532   3.245   4.980
    1C        C  601   3.191   4.438   2.040
    1C        C  602   2.980   4.394   2.156
    1C        C  603   3.117   4.434   2.159
    1C        C  604   2.923   4.354   2.280
    1C        C  605   2.985   4.391   2.401
    1C        C  606   2.814   4.269   2.526
    1C        C  607   2.923   4.358   2.524
    1C        C  608   2.763   4.218   2.647
    1C        C  609   2.815   4.272   2.767
    1C        C  610   2.683   4.110   2.895
    1C        C  611   2.771   4.220   2.891
    1C        C  612   2.647   4.051   3.018
    1C        C  613   2.687   4.111   3.140
    1C        C  614   2.586   3.927   3.263
    1C        C  615   2.645   4.055   3.263
    1C        C  616   2.564   3.864   3.387
    1C        C  617   2.593   3.928   3.509
    1C        C  618   2.525   3.729   3.635
    1C        C  619   2.564   3.864   3.632
    1C        C  620   2.516   3.662   3.760
    1C        C  621   2.533   3.733   3.881
    1C        C  622   2.510   3.523   4.007
    1C        C  623   2.521   3.664   4.003
    1C        C  624   2.513   3.455   4.131
    1C        C  625   2.512   3.529   4.251
    1C        C  626   2.541   3.322   4.380
    1C        C  627   2.514   3.461   4.375
    1C        C  628   2.556   3.253   4.502
    1C        C  629   2.535   3.325   4.622
    1C        C  630   2.597   3.120   4.744
    1C        C  631   2.553   3.255   4.743
    1C        C  632   2.615   3.044   4.863
    1C        C  633   2.557   3.107   4.977
    1C        C  634   2.777   4.303   2.049
    1C        C  635   2.887   4.390   2.047
    1C        C  636   2.748   4.227   2.164
    1C        C  637   2.806   4.273   2.284
    1C        C  638   2.673   4.108   2.408
    1C        C  639   2.757   4.221   2.406
    1C        C  640   2.632   4.050   2.530
    1C        C  641   2.675   4.108   2.651
    1C        C  642   2.582   3.920   2.777
    1C        C  643   2.645   4.046   2.775
    1C        C  644   2.558   3.855   2.901
    1C        C  645   2.590   3.922   3.021
    1C        C  646   2.529   3.718   3.146
    1C        C  647   2.566   3.855   3.143
    1C        C  648   2.514   3.653   3.271
    1C        C  649   2.525   3.728   3.390
    1C        C  650   2.502   3.518   3.516
    1C        C  651   2.513   3.659   3.513
    1C        C  652   2.509   3.450   3.639
    1C        C  653   2.508   3.521   3.761
    1C        C  654   2.528   3.312   3.890
    1C        C  655   2.506   3.452   3.885
    1C        C  656   2.543   3.246   4.013
    1C        C  657   2.536   3.316   4.136
    1C        C  658   2.601   3.116   4.257
    1C        C  659   2.553   3.249   4.260
    1C        C  660   2.636   3.056   4.380
    1C        C  661   2.601   3.119   4.502
    1C        C  662   2.709   2.937   4.622
    1C        C  663   2.629   3.053   4.624
    1C        C  664   2.754   2.882   4.744
    1C        C  665   2.698   2.928   4.866
    1C        C  666   2.746   2.870   4.984
    1C        C  667   2.672   4.024   2.050
    1C        C  668   2.679   4.104   2.165
    1C        C  669   2.588   3.911   2.292
    1C        C  670   2.639   4.044   2.286
    1C        C  671   2.556   3.846   2.413
    1C        C  672   2.583   3.917   2.532
    1C        C  673   2.519   3.717   2.658
    1C        C  674   2.558   3.853   2.655
    1C        C  675   2.506   3.648   2.780
    1C        C  676   2.523   3.718   2.901
    1C        C  677   2.505   3.508   3.026
    1C        C  678   2.511   3.649   3.024
    1C        C  679   2.510   3.440   3.149
    1C        C  680   2.509   3.512   3.271
    1C        C  681   2.525   3.305   3.399
    1C        C  682   2.504   3.444   3.395
    1C        C  683   2.550   3.240   3.522
    1C        C  684   2.531   3.310   3.643
    1C        C  685   2.603   3.115   3.770
    1C        C  686   2.548   3.245   3.767
    1C        C  687   2.638   3.054   3.892
    1C        C  688   2.599   3.116   4.013
    1C        C  689   2.712   2.935   4.137
    1C        C  690   2.635   3.054   4.135
    1C        C  691   2.758   2.881   4.258
    1C        C  692   2.712   2.938   4.379
    1C        C  693   2.752   2.877   4.501
    1C        C  694   2.620   3.894   2.055
    1C        C  695   2.530   3.702   2.174
    1C        C  696   2.571   3.837   2.173
    1C        C  697   2.500   3.638   2.296
    1C        C  698   2.514   3.711   2.417
    1C        C  699   2.486   3.502   2.540
    1C        C  700   2.503   3.642   2.540
    1C        C  701   2.499   3.432   2.662
    1C        C  702   2.498   3.506   2.782
    1C        C  703   2.527   3.297   2.910
    1C        C  704   2.505   3.436   2.904
    1C        C  705   2.545   3.227   3.032
    1C        C  706   2.531   3.301   3.152
    1C        C  707   2.598   3.105   3.278
    1C        C  708   2.543   3.236   3.277
    1C        C  709   2.629   3.044   3.401
    1C        C  710   2.605   3.110   3.524
    1C        C  711   2.715   2.933   3.646
    1C        C  712   2.634   3.049   3.649
    1C        C  713   2.756   2.878   3.769
    1C        C  714   2.714   2.935   3.891
    1C        C  715   2.758   2.881   4.014
    1C        C  716   2.449   3.500   2.060
    1C        C  717   2.493   3.633   2.058
    1C        C  718   2.462   3.422   2.179
    1C        C  719   2.477   3.498   2.299
    1C        C  720   2.512   3.288   2.423
    1C        C  721   2.484   3.427   2.420
    1C        C  722   2.535   3.219   2.544
    1C        C  723   2.520   3.292   2.663
    1C        C  724   2.592   3.097   2.788
    1C        C  725   2.537   3.227   2.788
    1C        C  726   2.626   3.036   2.911
    1C        C  727   2.590   3.093   3.035
    1C        C  728   2.701   2.916   3.159
    1C        C  729   2.623   3.034   3.159
    1C        C  730   2.751   2.866   3.281
    1C        C  731   2.711   2.929   3.402
    1C        C  732   2.756   2.874   3.524
    1C        C  733   2.484   3.195   2.074
    1C        C  734   2.482   3.280   2.185
    1C        C  735   2.582   3.084   2.302
    1C        C  736   2.523   3.213   2.304
    1C        C  737   2.613   3.020   2.424
    1C        C  738   2.587   3.087   2.545
    1C        C  739   2.702   2.912   2.669
    1C        C  740   2.620   3.027   2.669
    1C        C  741   2.747   2.860   2.792
    1C        C  742   2.704   2.917   2.914
    1C        C  743   2.744   2.860   3.037
    1C        C  744   2.537   3.066   2.073
    1C        C  745   2.686   2.896   2.183
    1C        C  746   2.604   3.011   2.183
    1C        C  747   2.728   2.840   2.305
    1C        C  748   2.687   2.899   2.426
    1C        C  749   2.736   2.847   2.548
    1C        C  750   2.736   2.837   2.065
    1C        C  751   3.657   2.325   1.968
    1C        O  752   3.664   2.200   1.988
    1C        O  753   3.652   2.360   1.832
    1C        C  754   4.618   3.051   1.973
    1C        O  755   4.598   3.039   1.849
    1C        O  756   4.743   3.004   2.016
    1C        C  757   4.443   4.231   1.967
    1C        O  758   4.503   4.330   2.018
    1C        O  759   4.491   4.211   1.837
    1C        C  760   3.568   4.628   1.920
    1C        O  761   3.558   4.753   1.908
    1C        O  762   3.557   4.564   1.796
    1C        C  763   2.877   4.496   1.944
    1C        O  764   2.902   4.472   1.823
    1C        O  765   2.788   4.604   1.949
    1C        C  766   2.353   3.475   1.950
    1C        O  767   2.390   3.490   1.830
    1C        O  768   2.219   3.513   1.964
    1C        C  769   4.691   3.586   5.055
    1C        O  770   4.667   3.541   5.170
    1C        O  771   4.824   3.562   5.020
    1C        C  772   4.275   4.477   5.007
    1C        O  773   4.358   4.427   5.088
    1C        O  774   4.334   4.577   4.930
    1C        C  775   4.131   2.546   5.097
    1C        O  776   4.172   2.427   5.109
    1C        O  777   4.099   2.605   5.220
    1C        C  778   2.896   4.543   5.056
    1C        O  779   2.863   4.661   5.024
    1C        O  780   2.919   4.541   5.194
    1C        C  781   2.467   3.026   5.063
    1C        O  782   2.378   2.944   5.030
    1C        O  783   2.450   3.066   5.195
    1C        C  784   2.403   3.987   5.042
    1C        O  785   2.307   4.059   5.005
    1C        O  786   2.415   4.013   5.179
    1C        C  787   2.952   2.415   2.011
    1C        O  788   2.942   2.387   1.888
    1C        O  789   2.862   2.342   2.088
    1C        C  790   3.175   2.373   5.064
    1C        O  791   3.149   2.255   5.027
    1C        O  792   3.235   2.386   5.189
    1C        H  793   4.274   3.025   5.063
    1C        H  794   4.185   2.807   5.073
    1C        H  795   4.484   3.136   5.064
    1C        H  796   4.507   3.371   5.065
    1C        H  797   4.573   3.811   5.039
    1C        H  798   4.402   3.963   5.055
    1C        H  799   4.281   4.170   5.047
    1C        H  800   4.014   4.510   5.035
    1C        H  801   3.816   4.622   5.028
    1C        H  802   3.583   4.623   5.040
    1C        H  803   3.396   4.444   5.013
    1C        H  804   3.171   4.437   5.038
    1C        H  805   3.901   2.450   5.047
    1C        H  806   3.672   2.450   5.071
    1C        H  807   2.997   2.548   5.059
    1C        H  808   3.435   2.439   5.068
    1C        H  809   2.854   2.707   5.069
    1C        H  810   2.757   2.931   5.072
    1C        H  811   2.554   3.289   5.076
    1C        H  812   2.480   3.506   5.065
    1C        H  813   2.494   3.727   5.068
    1C        H  814   2.548   4.194   5.021
    1C        H  815   2.747   4.317   5.051
    1C        H  816   2.712   2.876   1.968
    1C        H  817   2.834   2.677   1.974
    1C        H  818   3.207   2.423   1.988
    1C        H  819   3.436   2.469   1.979
    1C        H  820   3.859   2.503   1.969
    1C        H  821   4.075   2.596   1.974
    1C        H  822   4.271   2.698   1.983
    1C        H  823   4.363   2.933   1.970
    1C        H  824   4.609   3.308   1.977
    1C        H  825   4.466   3.514   1.968
    1C        H  826   4.493   3.752   1.953
    1C        H  827   3.809   4.542   1.957
    1C        H  828   3.941   4.329   1.953
    1C        H  829   4.188   4.317   1.959
    1C        H  830   4.510   3.972   1.971
    1C        H  831   2.660   3.833   1.977
    1C        H  832   2.679   4.067   1.952
    1C        H  833   2.691   4.323   1.990
    1C        H  834   3.377   4.457   1.949
    1C        H  835   3.146   4.425   1.945
    1C        H  836   2.495   2.996   2.004
    1C        H  837   2.421   3.214   1.990
    1C        H  838   2.465   3.692   1.974
    2V3OU   H29  839   2.808   3.551   1.622
    2V3OU   C27  840   2.780   3.499   1.717
    2V3OU   H27  841   2.718   3.569   1.780
    2V3OU   H28  842   2.737   3.398   1.694
    2V3OU   O11  843   2.908   3.477   1.775
    2V3OU   C15  844   2.920   3.400   1.889
    2V3OU   C13  845   3.047   3.376   1.946
    2V3OU   C14  846   3.074   3.268   2.032
    2V3OU   C16  847   2.968   3.188   2.073
    2V3OU    H6  848   2.989   3.100   2.135
    2V3OU   C12  849   3.211   3.225   2.068
    2V3OU    O2  850   3.232   3.122   2.136
    2V3OU   C10  851   3.324   3.306   2.021
    2V3OU    C8  852   3.455   3.269   2.048
    2V3OU   O10  853   3.482   3.145   2.095
    2V3OU   H26  854   3.395   3.112   2.122
    2V3OU    C6  855   3.565   3.344   1.997
    2V3OU    C5  856   3.535   3.462   1.930
    2V3OU    C4  857   3.703   3.289   2.002
    2V3OU    H4  858   3.717   3.223   2.093
    2V3OU    H5  859   3.713   3.223   1.911
    2V3OU    C2  860   3.810   3.398   2.005
    2V3OU    O6  861   3.794   3.469   2.128
    2V3OU   H21  862   3.757   3.555   2.103
    2V3OU    C3  863   3.784   3.494   1.889
    2V3OU    H2  864   3.867   3.568   1.876
    2V3OU    H3  865   3.783   3.434   1.795
    2V3OU   C25  866   3.946   3.326   2.004
    2V3OU    O7  867   3.997   3.284   1.900
    2V3OU   C26  868   4.029   3.291   2.126
    2V3OU   H22  869   4.068   3.384   2.176
    2V3OU   H23  870   4.115   3.226   2.096
    2V3OU    O8  871   3.960   3.211   2.218
    2V3OU   H24  872   3.925   3.269   2.288
    2V3OU    C1  873   3.646   3.558   1.898
    2V3OU    H1  874   3.629   3.616   1.802
    2V3OU    O3  875   3.661   3.652   2.004
    2V3OU   C19  876   3.623   3.789   1.990
    2V3OU    H9  877   3.529   3.797   1.928
    2V3OU    O4  878   3.717   3.846   1.902
    2V3OU   C20  879   3.844   3.867   1.963
    2V3OU   H10  880   3.902   3.773   1.985
    2V3OU   C24  881   3.609   3.856   2.128
    2V3OU   H16  882   3.543   3.793   2.193
    2V3OU   H17  883   3.560   3.956   2.113
    2V3OU   C23  884   3.748   3.873   2.189
    2V3OU   H15  885   3.789   3.769   2.204
    2V3OU    N1  886   3.734   3.948   2.312
    2V3OU   H19  887   3.802   3.918   2.379
    2V3OU   H20  888   3.647   3.930   2.358
    2V3OU   C21  889   3.845   3.948   2.093
    2V3OU   H11  890   3.950   3.923   2.127
    2V3OU    O5  891   3.828   4.089   2.104
    2V3OU   H18  892   3.782   4.107   2.187
    2V3OU   C22  893   3.914   3.944   1.852
    2V3OU   H12  894   3.868   4.046   1.843
    2V3OU   H13  895   3.907   3.888   1.755
    2V3OU   H14  896   4.021   3.957   1.883
    2V3OU   C11  897   3.156   3.470   1.917
    2V3OU    O1  898   3.130   3.581   1.867
    2V3OU    C9  899   3.293   3.424   1.947
    2V3OU    C7  900   3.400   3.505   1.912
    2V3OU    O9  901   3.382   3.618   1.834
    2V3OU   H25  902   3.286   3.626   1.820
    2V3OU   C17  903   2.816   3.315   1.933
    2V3OU    H7  904   2.713   3.342   1.910
    2V3OU   C18  905   2.841   3.211   2.022
    2V3OU    H8  906   2.762   3.136   2.040
    3SOL     OW  907   2.485   4.193   0.833
    3SOL    HW1  908   2.535   4.185   0.747
    3SOL    HW2  909   2.451   4.287   0.843
    4SOL     OW  910   6.670   5.398   2.088
    4SOL    HW1  911   6.757   5.362   2.122
    4SOL    HW2  912   6.616   5.324   2.049
    5SOL     OW  913   3.811   1.276   2.321
    5SOL    HW1  914   3.744   1.270   2.394
    5SOL    HW2  915   3.865   1.192   2.317
    6SOL     OW  916   3.685   2.095   2.468
    6SOL    HW1  917   3.603   2.090   2.525
    6SOL    HW2  918   3.665   2.149   2.386
    7SOL     OW  919   6.391   2.941   1.297
    7SOL    HW1  920   6.479   2.973   1.261
    7SOL    HW2  921   6.342   2.891   1.226
    8SOL     OW  922   2.270   6.536   5.140
    8SOL    HW1  923   2.365   6.514   5.162
    8SOL    HW2  924   2.244   6.622   5.185
    9SOL     OW  925   1.126   5.447   5.780
    9SOL    HW1  926   1.145   5.501   5.698
    9SOL    HW2  927   1.209   5.439   5.834
   10SOL     OW  928   0.915   4.353   5.389
   10SOL    HW1  929   0.825   4.311   5.380
   10SOL    HW2  930   0.974   4.295   5.446
   11SOL     OW  931   2.796   0.491   0.503
   11SOL    HW1  932   2.779   0.397   0.474
   11SOL    HW2  933   2.708   0.538   0.516
   12SOL     OW  934   4.378   6.112   3.878
   12SOL    HW1  935   4.315   6.066   3.941
   12SOL    HW2  936   4.376   6.065   3.790
   13SOL     OW  937   3.628   5.860   4.358
   13SOL    HW1  938   3.533   5.893   4.364
   13SOL    HW2  939   3.628   5.760   4.352
   14SOL     OW  940   4.340   5.776   6.329
   14SOL    HW1  941   4.275   5.849   6.310
   14SOL    HW2  942   4.336   5.708   6.255
   15SOL     OW  943   1.662   5.763   7.015
   15SOL    HW1  944   1.633   5.678   6.971
   15SOL    HW2  945   1.582   5.811   0.031
   16SOL     OW  946   6.082   2.106   5.488
   16SOL    HW1  947   6.015   2.049   5.534
   16SOL    HW2  948   6.153   2.134   5.553
   17SOL     OW  949   5.202   6.189   4.458
   17SOL    HW1  950   5.300   6.209   4.448
   17SOL    HW2  951   5.189   6.131   4.538
   18SOL     OW  952   2.744   1.662   6.664
   18SOL    HW1  953   2.809   1.652   6.589
   18SOL    HW2  954   2.727   1.759   6.680
   19SOL     OW  955   6.842   6.572   3.280
   19SOL    HW1  956   6.777   6.541   3.349
   19SOL    HW2  957   6.919   6.508   3.275
   20SOL     OW  958   3.654   1.083   4.482
   20SOL    HW1  959   3.662   0.998   4.430
   20SOL    HW2  960   3.627   1.157   4.421
   21SOL     OW  961   2.940   2.013   2.979
   21SOL    HW1  962   2.915   1.953   2.903
   21SOL    HW2  963   3.002   1.965   3.041
   22SOL     OW  964   2.035   0.134   6.857
   22SOL    HW1  965   1.958   0.176   6.905
   22SOL    HW2  966   2.059   0.048   6.902
   23SOL     OW  967   4.439   6.401   3.439
   23SOL    HW1  968   4.446   6.329   3.370
   23SOL    HW2  969   4.467   6.488   3.400
   24SOL     OW  970   5.239   0.794   4.056
   24SOL    HW1  971   5.153   0.814   4.104
   24SOL    HW2  972   5.313   0.790   4.123
   25SOL     OW  973   3.286   5.969   6.347
   25SOL    HW1  974   3.295   5.943   6.251
   25SOL    HW2  975   3.207   6.029   6.358
   26SOL     OW  976   5.969   1.099   1.199
   26SOL    HW1  977   6.046   1.095   1.263
   26SOL    HW2  978   5.907   1.172   1.226
   27SOL     OW  979   0.144   0.688   1.962
   27SOL    HW1  980   0.083   0.708   2.039
   27SOL    HW2  981   0.196   0.770   1.939
   28SOL     OW  982   4.253   1.125   0.356
   28SOL    HW1  983   4.319   1.060   0.318
   28SOL    HW2  984   4.298   1.213   0.371
   29SOL     OW  985   5.180   2.652   2.292
   29SOL    HW1  986   5.161   2.743   2.255
   29SOL    HW2  987   5.099   2.595   2.285
   30SOL     OW  988   2.999   6.909   5.334
   30SOL    HW1  989   2.964   6.958   5.413
   30SOL    HW2  990   3.092   6.877   5.352
   31SOL     OW  991   0.824   1.213   5.385
   31SOL    HW1  992   0.783   1.264   5.460
   31SOL    HW2  993   0.871   1.132   5.422
   32SOL     OW  994   0.681   2.213   2.735
   32SOL    HW1  995   0.609   2.282   2.732
   32SOL    HW2  996   0.714   2.203   2.829
   33SOL     OW  997   1.909   2.830   6.746
   33SOL    HW1  998   1.828   2.887   6.731
   33SOL    HW2  999   1.991   2.883   6.724
   34SOL     OW 1000   1.942   0.785   4.377
   34SOL    HW1 1001   1.957   0.698   4.424
   34SOL    HW2 1002   1.880   0.842   4.430
   35SOL     OW 1003   4.434   2.121   6.799
   35SOL    HW1 1004   4.471   2.213   6.786
   35SOL    HW2 1005   4.396   2.088   6.713
   36SOL     OW 1006   0.985   0.909   6.318
   36SOL    HW1 1007   1.029   0.824   6.286
   36SOL    HW2 1008   1.040   0.987   6.290
   37SOL     OW 1009   2.361   0.251   0.937
   37SOL    HW1 1010   2.322   0.342   0.919
   37SOL    HW2 1011   2.327   0.187   0.868
   38SOL     OW 1012   0.557   5.706   2.981
   38SOL    HW1 1013   0.476   5.735   2.931
   38SOL    HW2 1014   0.528   5.661   3.066
   39SOL     OW 1015   6.861   4.029   6.478
   39SOL    HW1 1016   6.923   4.098   6.441
   39SOL    HW2 1017   6.850   4.043   6.576
   40SOL     OW 1018   6.212   2.378   1.970
   40SOL    HW1 1019   6.139   2.436   2.005
   40SOL    HW2 1020   6.179   2.284   1.960
   41SOL     OW 1021   1.760   6.322   4.200
   41SOL    HW1 1022   1.803   6.316   4.290
   41SOL    HW2 1023   1.703   6.404   4.196
   42SOL     OW 1024   3.166   6.704   6.348
   42SOL    HW1 1025   3.155   6.616   6.302
   42SOL    HW2 1026   3.244   6.699   6.411
   43SOL     OW 1027   5.759   6.098   5.958
   43SOL    HW1 1028   5.668   6.120   5.995
   43SOL    HW2 1029   5.749   6.052   5.870
   44SOL     OW 1030   6.060   2.460   6.733
   44SOL    HW1 1031   5.990   2.531   6.731
   44SOL    HW2 1032   6.094   2.450   6.826
   45SOL     OW 1033   3.036   0.546   3.884
   45SOL    HW1 1034   3.110   0.554   3.818
   45SOL    HW2 1035   3.068   0.495   3.964
   46SOL     OW 1036   1.081   3.674   4.440
   46SOL    HW1 1037   0.992   3.631   4.459
   46SOL    HW2 1038   1.149   3.603   4.421
   47SOL     OW 1039   5.581   3.361   3.384
   47SOL    HW1 1040   5.603   3.265   3.369
   47SOL    HW2 1041   5.545   3.400   3.300
   48SOL     OW 1042   0.982   2.431   4.653
   48SOL    HW1 1043   0.965   2.400   4.559
   48SOL    HW2 1044   0.992   2.530   4.654
   49SOL     OW 1045   4.674   4.075   1.692
   49SOL    HW1 1046   4.623   4.149   1.735
   49SOL    HW2 1047   4.691   4.003   1.759
   50SOL     OW 1048   6.380   2.334   5.405
   50SOL    HW1 1049   6.403   2.237   5.396
   50SOL    HW2 1050   6.297   2.354   5.353
   51SOL     OW 1051   3.142   5.877   2.619
   51SOL    HW1 1052   3.044   5.859   2.603
   51SOL    HW2 1053   3.156   5.907   2.713
   52SOL     OW 1054   4.158   1.682   3.471
   52SOL    HW1 1055   4.073   1.694   3.524
   52SOL    HW2 1056   4.235   1.673   3.534
   53SOL     OW 1057   4.572   0.408   4.070
   53SOL    HW1 1058   4.521   0.492   4.050
   53SOL    HW2 1059   4.651   0.430   4.127
   54SOL     OW 1060   2.932   5.149   6.827
   54SOL    HW1 1061   2.972   5.087   6.760
   54SOL    HW2 1062   2.954   5.243   6.804
   55SOL     OW 1063   3.659   1.273   6.237
   55SOL    HW1 1064   3.736   1.335   6.217
   55SOL    HW2 1065   3.574   1.326   6.238
   56SOL     OW 1066   1.578   0.624   1.336
   56SOL    HW1 1067   1.600   0.573   1.252
   56SOL    HW2 1068   1.661   0.637   1.389
   57SOL     OW 1069   4.852   0.217   0.817
   57SOL    HW1 1070   4.786   0.205   0.891
   57SOL    HW2 1071   4.928   0.154   0.829
   58SOL     OW 1072   0.373   5.908   6.148
   58SOL    HW1 1073   0.367   5.845   6.225
   58SOL    HW2 1074   0.442   5.876   6.083
   59SOL     OW 1075   1.614   1.076   6.509
   59SOL    HW1 1076   1.558   0.996   6.487
   59SOL    HW2 1077   1.654   1.113   6.425
   60SOL     OW 1078   5.318   0.717   5.458
   60SOL    HW1 1079   5.326   0.716   5.558
   60SOL    HW2 1080   5.404   0.749   5.418
   61SOL     OW 1081   5.064   1.045   4.219
   61SOL    HW1 1082   5.044   1.097   4.302
   61SOL    HW2 1083   5.150   1.077   4.179
   62SOL     OW 1084   0.566   1.300   3.652
   62SOL    HW1 1085   0.655   1.279   3.691
   62SOL    HW2 1086   0.521   1.215   3.623
   63SOL     OW 1087   6.121   1.817   3.865
   63SOL    HW1 1088   6.056   1.892   3.879
   63SOL    HW2 1089   6.110   1.779   3.773
   64SOL     OW 1090   0.335   4.111   6.852
   64SOL    HW1 1091   0.258   4.118   6.914
   64SOL    HW2 1092   0.321   4.174   6.775
   65SOL     OW 1093   6.561   4.492   4.961
   65SOL    HW1 1094   6.501   4.548   5.018
   65SOL    HW2 1095   6.516   4.406   4.939
   66SOL     OW 1096   3.371   0.737   6.797
   66SOL    HW1 1097   3.428   0.786   6.863
   66SOL    HW2 1098   3.275   0.742   6.825
   67SOL     OW 1099   5.674   5.726   5.334
   67SOL    HW1 1100   5.742   5.703   5.264
   67SOL    HW2 1101   5.602   5.656   5.334
   68SOL     OW 1102   6.811   1.388   0.056
   68SOL    HW1 1103   6.793   1.379   0.154
   68SOL    HW2 1104   6.769   1.311   0.008
   69SOL     OW 1105   1.704   3.975   6.454
   69SOL    HW1 1106   1.734   3.906   6.388
   69SOL    HW2 1107   1.714   4.066   6.414
   70SOL     OW 1108   6.241   5.418   2.836
   70SOL    HW1 1109   6.166   5.398   2.898
   70SOL    HW2 1110   6.205   5.461   2.753
   71SOL     OW 1111   2.942   1.949   3.325
   71SOL    HW1 1112   2.993   1.872   3.287
   71SOL    HW2 1113   2.847   1.923   3.337
   72SOL     OW 1114   2.603   6.158   4.767
   72SOL    HW1 1115   2.676   6.090   4.764
   72SOL    HW2 1116   2.618   6.220   4.844
   73SOL     OW 1117   3.148   1.810   0.130
   73SOL    HW1 1118   3.088   1.888   0.149
   73SOL    HW2 1119   3.122   1.734   0.189
   74SOL     OW 1120   5.398   6.645   6.897
   74SOL    HW1 1121   5.319   6.644   6.959
   74SOL    HW2 1122   5.413   6.553   6.860
   75SOL     OW 1123   3.683   5.656   5.736
   75SOL    HW1 1124   3.778   5.675   5.710
   75SOL    HW2 1125   3.671   5.557   5.746
   76SOL     OW 1126   1.850   2.650   1.445
   76SOL    HW1 1127   1.776   2.606   1.495
   76SOL    HW2 1128   1.812   2.719   1.383
   77SOL     OW 1129   4.880   5.644   4.029
   77SOL    HW1 1130   4.818   5.723   4.034
   77SOL    HW2 1131   4.929   5.635   4.115
   78SOL     OW 1132   6.269   6.569   5.874
   78SOL    HW1 1133   6.259   6.602   5.968
   78SOL    HW2 1134   6.203   6.616   5.815
   79SOL     OW 1135   2.883   0.028   0.516
   79SOL    HW1 1136   2.948   6.984   0.474
   79SOL    HW2 1137   2.790   0.003   0.489
   80SOL     OW 1138   5.794   0.774   4.263
   80SOL    HW1 1139   5.866   0.815   4.207
   80SOL    HW2 1140   5.732   0.845   4.295
   81SOL     OW 1141   2.429   0.176   2.874
   81SOL    HW1 1142   2.493   0.141   2.942
   81SOL    HW2 1143   2.345   0.205   2.919
   82SOL     OW 1144   6.956   5.065   0.447
   82SOL    HW1 1145   7.017   4.997   0.409
   82SOL    HW2 1146   6.958   5.148   0.391
   83SOL     OW 1147   6.387   0.223   1.021
   83SOL    HW1 1148   6.362   0.238   0.926
   83SOL    HW2 1149   6.338   0.289   1.079
   84SOL     OW 1150   4.924   3.483   3.501
   84SOL    HW1 1151   4.921   3.434   3.588
   84SOL    HW2 1152   4.918   3.418   3.425
   85SOL     OW 1153   1.018   1.876   5.121
   85SOL    HW1 1154   1.115   1.900   5.124
   85SOL    HW2 1155   0.967   1.935   5.182
   86SOL     OW 1156   0.928   0.466   5.689
   86SOL    HW1 1157   0.968   0.424   5.770
   86SOL    HW2 1158   0.832   0.489   5.707
   87SOL     OW 1159   4.634   2.786   0.866
   87SOL    HW1 1160   4.647   2.715   0.797
   87SOL    HW2 1161   4.700   2.860   0.850
   88SOL     OW 1162   4.331   1.636   7.001
   88SOL    HW1 1163   4.292   1.725   6.976
   88SOL    HW2 1164   4.343   1.580   6.919
   89SOL     OW 1165   1.717   3.012   6.664
   89SOL    HW1 1166   1.744   3.107   6.653
   89SOL    HW2 1167   1.692   2.974   6.574
   90SOL     OW 1168   4.805   6.836   3.909
   90SOL    HW1 1169   4.709   6.833   3.881
   90SOL    HW2 1170   4.864   6.815   3.831
   91SOL     OW 1171   4.559   4.538   4.082
   91SOL    HW1 1172   4.475   4.547   4.029
   91SOL    HW2 1173   4.638   4.542   4.021
   92SOL     OW 1174   3.142   4.435   0.312
   92SOL    HW1 1175   3.182   4.498   0.245
   92SOL    HW2 1176   3.121   4.348   0.268
   93SOL     OW 1177   2.606   4.568   6.347
   93SOL    HW1 1178   2.581   4.511   6.268
   93SOL    HW2 1179   2.637   4.657   6.315
   94SOL     OW 1180   2.534   5.887   6.154
   94SOL    HW1 1181   2.454   5.938   6.184
   94SOL    HW2 1182   2.505   5.807   6.101
   95SOL     OW 1183   0.676   2.005   3.401
   95SOL    HW1 1184   0.693   1.978   3.306
   95SOL    HW2 1185   0.578   2.018   3.414
   96SOL     OW 1186   2.936   6.780   5.938
   96SOL    HW1 1187   3.016   6.729   5.970
   96SOL    HW2 1188   2.945   6.797   5.840
   97SOL     OW 1189   0.429   4.172   5.631
   97SOL    HW1 1190   0.362   4.205   5.698
   97SOL    HW2 1191   0.454   4.078   5.652
   98SOL     OW 1192   6.467   3.780   0.104
   98SOL    HW1 1193   6.529   3.789   0.182
   98SOL    HW2 1194   6.504   3.715   0.038
   99SOL     OW 1195   4.389   3.928   1.269
   99SOL    HW1 1196   4.477   3.934   1.317
   99SOL    HW2 1197   4.316   3.913   1.335
  100SOL     OW 1198   0.531   6.732   5.956
  100SOL    HW1 1199   0.485   6.768   6.037
  100SOL    HW2 1200   0.556   6.636   5.972
  101SOL     OW 1201   1.175   6.124   2.594
  101SOL    HW1 1202   1.077   6.137   2.611
  101SOL    HW2 1203   1.217   6.211   2.570
  102SOL     OW 1204   5.005   0.967   2.063
  102SOL    HW1 1205   4.993   0.869   2.073
  102SOL    HW2 1206   4.918   1.009   2.037
  103SOL     OW 1207   4.315   0.985   1.925
  103SOL    HW1 1208   4.316   1.057   1.856
  103SOL    HW2 1209   4.405   0.941   1.929
  104SOL     OW 1210   0.347   5.366   2.832
  104SOL    HW1 1211   0.414   5.388   2.762
  104SOL    HW2 1212   0.258   5.402   2.806
  105SOL     OW 1213   6.701   1.693   6.749
  105SOL    HW1 1214   6.634   1.627   6.783
  105SOL    HW2 1215   6.784   1.644   6.722
  106SOL     OW 1216   3.236   6.770   5.736
  106SOL    HW1 1217   3.295   6.752   5.657
  106SOL    HW2 1218   3.142   6.782   5.704
  107SOL     OW 1219   1.741   2.212   2.026
  107SOL    HW1 1220   1.807   2.234   1.954
  107SOL    HW2 1221   1.648   2.216   1.988
  108SOL     OW 1222   4.372   4.788   6.548
  108SOL    HW1 1223   4.335   4.844   6.474
  108SOL    HW2 1224   4.463   4.755   6.523
  109SOL     OW 1225   0.596   0.436   1.532
  109SOL    HW1 1226   0.616   0.522   1.579
  109SOL    HW2 1227   0.608   0.448   1.434
  110SOL     OW 1228   4.009   6.389   5.746
  110SOL    HW1 1229   3.985   6.443   5.665
  110SOL    HW2 1230   3.958   6.424   5.825
  111SOL     OW 1231   3.931   0.740   4.962
  111SOL    HW1 1232   3.832   0.736   4.953
  111SOL    HW2 1233   3.967   0.648   4.981
  112SOL     OW 1234   6.400   6.362   6.142
  112SOL    HW1 1235   6.358   6.314   6.065
  112SOL    HW2 1236   6.330   6.384   6.210
  113SOL     OW 1237   6.775   5.080   3.468
  113SOL    HW1 1238   6.773   5.148   3.542
  113SOL    HW2 1239   6.704   5.101   3.401
  114SOL     OW 1240   1.111   6.922   0.849
  114SOL    HW1 1241   1.040   6.874   0.901
  114SOL    HW2 1242   1.187   6.861   0.832
  115SOL     OW 1243   4.641   1.177   4.450
  115SOL    HW1 1244   4.665   1.118   4.527
  115SOL    HW2 1245   4.641   1.273   4.480
  116SOL     OW 1246   6.075   5.407   2.134
  116SOL    HW1 1247   6.167   5.422   2.099
  116SOL    HW2 1248   6.017   5.370   2.061
  117SOL     OW 1249   0.733   1.450   6.157
  117SOL    HW1 1250   0.644   1.409   6.134
  117SOL    HW2 1251   0.771   1.403   6.237
  118SOL     OW 1252   0.502   1.822   2.303
  118SOL    HW1 1253   0.471   1.893   2.366
  118SOL    HW2 1254   0.519   1.738   2.354
  119SOL     OW 1255   0.947   1.941   6.381
  119SOL    HW1 1256   1.034   1.968   6.340
  119SOL    HW2 1257   0.892   1.891   6.314
  120SOL     OW 1258   6.691   6.668   0.167
  120SOL    HW1 1259   6.646   6.587   0.131
  120SOL    HW2 1260   6.677   6.744   0.104
  121SOL     OW 1261   2.535   3.463   0.040
  121SOL    HW1 1262   2.575   3.408   0.113
  121SOL    HW2 1263   2.440   3.486   0.065
  122SOL     OW 1264   1.938   4.526   5.876
  122SOL    HW1 1265   1.850   4.485   5.850
  122SOL    HW2 1266   1.928   4.571   5.965
  123SOL     OW 1267   0.335   1.739   1.455
  123SOL    HW1 1268   0.397   1.692   1.517
  123SOL    HW2 1269   0.329   1.835   1.480
  124SOL     OW 1270   5.204   3.174   0.070
  124SOL    HW1 1271   5.225   3.255   0.125
  124SOL    HW2 1272   5.173   3.101   0.130
  125SOL     OW 1273   2.486   1.824   2.179
  125SOL    HW1 1274   2.487   1.742   2.237
  125SOL    HW2 1275   2.502   1.905   2.236
  126SOL     OW 1276   3.070   4.634   0.747
  126SOL    HW1 1277   3.000   4.599   0.810
  126SOL    HW2 1278   3.159   4.636   0.794
  127SOL     OW 1279   0.363   4.995   6.200
  127SOL    HW1 1280   0.385   5.021   6.106
  127SOL    HW2 1281   0.447   4.993   6.254
  128SOL     OW 1282   4.112   2.742   1.306
  128SOL    HW1 1283   4.148   2.775   1.219
  128SOL    HW2 1284   4.131   2.645   1.316
  129SOL     OW 1285   4.701   3.857   6.047
  129SOL    HW1 1286   4.679   3.946   6.005
  129SOL    HW2 1287   4.787   3.864   6.096
  130SOL     OW 1288   0.609   1.208   4.404
  130SOL    HW1 1289   0.661   1.292   4.388
  130SOL    HW2 1290   0.575   1.207   4.498
  131SOL     OW 1291   5.436   1.254   2.069
  131SOL    HW1 1292   5.386   1.338   2.046
  131SOL    HW2 1293   5.374   1.189   2.112
  132SOL     OW 1294   1.987   3.146   0.897
  132SOL    HW1 1295   1.925   3.071   0.874
  132SOL    HW2 1296   1.973   3.173   0.993
  133SOL     OW 1297   5.276   6.701   3.457
  133SOL    HW1 1298   5.332   6.619   3.471
  133SOL    HW2 1299   5.298   6.769   3.527
  134SOL     OW 1300   5.804   2.277   3.059
  134SOL    HW1 1301   5.887   2.333   3.068
  134SOL    HW2 1302   5.768   2.255   3.149
  135SOL     OW 1303   5.446   2.741   2.409
  135SOL    HW1 1304   5.512   2.671   2.383
  135SOL    HW2 1305   5.355   2.716   2.377
  136SOL     OW 1306   4.049   3.623   6.690
  136SOL    HW1 1307   3.956   3.619   6.652
  136SOL    HW2 1308   4.044   3.643   6.788
  137SOL     OW 1309   4.674   0.510   5.263
  137SOL    HW1 1310   4.628   0.586   5.309
  137SOL    HW2 1311   4.746   0.474   5.321
  138SOL     OW 1312   0.466   4.478   3.670
  138SOL    HW1 1313   0.506   4.394   3.707
  138SOL    HW2 1314   0.526   4.515   3.598
  139SOL     OW 1315   2.350   6.218   5.115
  139SOL    HW1 1316   2.271   6.196   5.058
  139SOL    HW2 1317   2.321   6.276   5.191
  140SOL     OW 1318   0.211   6.248   3.589
  140SOL    HW1 1319   0.135   6.210   3.537
  140SOL    HW2 1320   0.292   6.253   3.530
  141SOL     OW 1321   6.858   2.732   5.532
  141SOL    HW1 1322   6.762   2.755   5.547
  141SOL    HW2 1323   6.881   2.743   5.435
  142SOL     OW 1324   1.695   5.778   0.533
  142SOL    HW1 1325   1.773   5.719   0.554
  142SOL    HW2 1326   1.723   5.874   0.539
  143SOL     OW 1327   5.646   4.174   1.702
  143SOL    HW1 1328   5.706   4.208   1.775
  143SOL    HW2 1329   5.554   4.160   1.738
  144SOL     OW 1330   1.219   0.058   6.391
  144SOL    HW1 1331   1.271   7.001   6.427
  144SOL    HW2 1332   1.133   0.025   6.351
  145SOL     OW 1333   0.521   4.792   0.516
  145SOL    HW1 1334   0.593   4.744   0.565
  145SOL    HW2 1335   0.505   4.881   0.559
  146SOL     OW 1336   4.909   6.965   5.640
  146SOL    HW1 1337   4.950   6.963   5.549
  146SOL    HW2 1338   4.963   6.909   5.702
  147SOL     OW 1339   6.323   2.773   0.124
  147SOL    HW1 1340   6.320   2.855   0.068
  147SOL    HW2 1341   6.262   2.704   0.086
  148SOL     OW 1342   0.551   5.179   6.062
  148SOL    HW1 1343   0.645   5.175   6.096
  148SOL    HW2 1344   0.553   5.178   5.962
  149SOL     OW 1345   2.473   1.198   4.404
  149SOL    HW1 1346   2.460   1.100   4.394
  149SOL    HW2 1347   2.495   1.220   4.499
  150SOL     OW 1348   5.986   4.814   6.231
  150SOL    HW1 1349   6.079   4.785   6.256
  150SOL    HW2 1350   5.962   4.896   6.283
  151SOL     OW 1351   3.489   1.927   1.478
  151SOL    HW1 1352   3.531   1.991   1.413
  151SOL    HW2 1353   3.498   1.834   1.443
  152SOL     OW 1354   1.712   1.372   4.442
  152SOL    HW1 1355   1.673   1.345   4.354
  152SOL    HW2 1356   1.730   1.290   4.497
  153SOL     OW 1357   2.771   0.207   2.019
  153SOL    HW1 1358   2.859   0.253   2.004
  153SOL    HW2 1359   2.783   0.109   2.007
  154SOL     OW 1360   0.414   3.227   2.774
  154SOL    HW1 1361   0.419   3.297   2.845
  154SOL    HW2 1362   0.365   3.264   2.694
  155SOL     OW 1363   0.407   1.770   3.248
  155SOL    HW1 1364   0.370   1.692   3.199
  155SOL    HW2 1365   0.403   1.753   3.347
  156SOL     OW 1366   6.846   1.768   1.621
  156SOL    HW1 1367   6.854   1.853   1.569
  156SOL    HW2 1368   6.928   1.754   1.676
  157SOL     OW 1369   5.763   3.707   2.135
  157SOL    HW1 1370   5.679   3.758   2.118
  157SOL    HW2 1371   5.816   3.700   2.051
  158SOL     OW 1372   2.790   0.343   2.491
  158SOL    HW1 1373   2.757   0.382   2.405
  158SOL    HW2 1374   2.882   0.378   2.511
  159SOL     OW 1375   4.480   4.329   1.150
  159SOL    HW1 1376   4.525   4.394   1.089
  159SOL    HW2 1377   4.534   4.320   1.234
  160SOL     OW 1378   0.276   4.735   6.504
  160SOL    HW1 1379   0.360   4.685   6.480
  160SOL    HW2 1380   0.289   4.832   6.483
  161SOL     OW 1381   1.279   4.978   4.412
  161SOL    HW1 1382   1.288   4.948   4.317
  161SOL    HW2 1383   1.357   5.036   4.436
  162SOL     OW 1384   4.241   6.400   0.069
  162SOL    HW1 1385   4.263   6.430   6.996
  162SOL    HW2 1386   4.306   6.331   0.099
  163SOL     OW 1387   5.124   5.570   1.415
  163SOL    HW1 1388   5.039   5.616   1.443
  163SOL    HW2 1389   5.134   5.485   1.468
  164SOL     OW 1390   6.743   3.989   1.398
  164SOL    HW1 1391   6.701   3.911   1.445
  164SOL    HW2 1392   6.676   4.063   1.391
  165SOL     OW 1393   5.302   2.949   1.245
  165SOL    HW1 1394   5.230   2.964   1.313
  165SOL    HW2 1395   5.308   3.030   1.186
  166SOL     OW 1396   0.085   4.943   3.502
  166SOL    HW1 1397   0.047   4.889   3.577
  166SOL    HW2 1398   0.052   5.037   3.508
  167SOL     OW 1399   5.865   1.806   0.633
  167SOL    HW1 1400   5.914   1.893   0.637
  167SOL    HW2 1401   5.805   1.799   0.713
  168SOL     OW 1402   2.962   3.245   1.010
  168SOL    HW1 1403   3.001   3.324   1.057
  168SOL    HW2 1404   3.033   3.199   0.957
  169SOL     OW 1405   3.622   0.214   2.257
  169SOL    HW1 1406   3.707   0.265   2.271
  169SOL    HW2 1407   3.571   0.211   2.343
  170SOL     OW 1408   0.163   1.922   3.339
  170SOL    HW1 1409   0.214   1.838   3.320
  170SOL    HW2 1410   0.115   1.912   3.426
  171SOL     OW 1411   3.847   4.209   0.354
  171SOL    HW1 1412   3.847   4.186   0.257
  171SOL    HW2 1413   3.916   4.279   0.372
  172SOL     OW 1414   6.183   1.870   4.542
  172SOL    HW1 1415   6.211   1.788   4.591
  172SOL    HW2 1416   6.153   1.939   4.608
  173SOL     OW 1417   6.576   0.835   4.261
  173SOL    HW1 1418   6.584   0.933   4.243
  173SOL    HW2 1419   6.542   0.789   4.179
  174SOL     OW 1420   2.702   5.490   4.171
  174SOL    HW1 1421   2.697   5.439   4.085
  174SOL    HW2 1422   2.684   5.587   4.154
  175SOL     OW 1423   1.842   6.791   1.933
  175SOL    HW1 1424   1.785   6.816   2.011
  175SOL    HW2 1425   1.819   6.698   1.903
  176SOL     OW 1426   1.398   4.072   0.369
  176SOL    HW1 1427   1.417   4.148   0.431
  176SOL    HW2 1428   1.431   3.987   0.409
  177SOL     OW 1429   5.938   2.837   2.677
  177SOL    HW1 1430   6.014   2.800   2.622
  177SOL    HW2 1431   5.947   2.937   2.682
  178SOL     OW 1432   4.824   3.284   5.790
  178SOL    HW1 1433   4.815   3.337   5.705
  178SOL    HW2 1434   4.886   3.331   5.852
  179SOL     OW 1435   2.983   1.816   6.046
  179SOL    HW1 1436   3.012   1.731   6.002
  179SOL    HW2 1437   2.951   1.797   6.138
  180SOL     OW 1438   1.272   0.482   6.638
  180SOL    HW1 1439   1.201   0.501   6.570
  180SOL    HW2 1440   1.283   0.561   6.698
  181SOL     OW 1441   3.510   1.367   6.973
  181SOL    HW1 1442   3.415   1.338   6.961
  181SOL    HW2 1443   3.537   1.423   6.895
  182SOL     OW 1444   4.058   2.082   4.731
  182SOL    HW1 1445   4.072   2.033   4.817
  182SOL    HW2 1446   4.100   2.173   4.736
  183SOL     OW 1447   3.664   1.205   3.762
  183SOL    HW1 1448   3.712   1.292   3.772
  183SOL    HW2 1449   3.587   1.216   3.700
  184SOL     OW 1450   1.335   5.686   3.769
  184SOL    HW1 1451   1.237   5.696   3.786
  184SOL    HW2 1452   1.350   5.646   3.679
  185SOL     OW 1453   1.185   2.599   6.425
  185SOL    HW1 1454   1.219   2.653   6.348
  185SOL    HW2 1455   1.091   2.626   6.446
  186SOL     OW 1456   6.588   1.258   3.789
  186SOL    HW1 1457   6.501   1.297   3.760
  186SOL    HW2 1458   6.657   1.274   3.718
  187SOL     OW 1459   4.739   1.026   3.132
  187SOL    HW1 1460   4.772   1.062   3.219
  187SOL    HW2 1461   4.792   1.065   3.057
  188SOL     OW 1462   6.128   1.939   3.451
  188SOL    HW1 1463   6.087   1.983   3.531
  188SOL    HW2 1464   6.223   1.968   3.442
  189SOL     OW 1465   1.633   5.497   3.132
  189SOL    HW1 1466   1.576   5.577   3.112
  189SOL    HW2 1467   1.696   5.519   3.207
  190SOL     OW 1468   4.096   1.404   5.078
  190SOL    HW1 1469   4.024   1.463   5.117
  190SOL    HW2 1470   4.058   1.314   5.057
  191SOL     OW 1471   5.509   5.433   6.391
  191SOL    HW1 1472   5.597   5.472   6.368
  191SOL    HW2 1473   5.450   5.431   6.310
  192SOL     OW 1474   0.141   5.711   1.979
  192SOL    HW1 1475   0.083   5.667   2.047
  192SOL    HW2 1476   0.133   5.663   1.892
  193SOL     OW 1477   4.848   2.731   5.506
  193SOL    HW1 1478   4.862   2.671   5.585
  193SOL    HW2 1479   4.779   2.801   5.530
  194SOL     OW 1480   3.453   0.949   3.026
  194SOL    HW1 1481   3.355   0.929   3.022
  194SOL    HW2 1482   3.503   0.868   3.059
  195SOL     OW 1483   2.105   5.878   3.595
  195SOL    HW1 1484   2.107   5.957   3.656
  195SOL    HW2 1485   2.197   5.839   3.589
  196SOL     OW 1486   2.277   2.360   7.011
  196SOL    HW1 1487   2.268   2.374   6.912
  196SOL    HW2 1488   2.223   2.429   0.040
  197SOL     OW 1489   2.499   1.386   0.751
  197SOL    HW1 1490   2.495   1.392   0.850
  197SOL    HW2 1491   2.414   1.346   0.716
  198SOL     OW 1492   4.173   1.629   3.173
  198SOL    HW1 1493   4.179   1.595   3.267
  198SOL    HW2 1494   4.115   1.711   3.171
  199SOL     OW 1495   1.325   2.426   3.950
  199SOL    HW1 1496   1.313   2.410   4.048
  199SOL    HW2 1497   1.362   2.518   3.936
  200SOL     OW 1498   1.053   3.170   1.000
  200SOL    HW1 1499   1.131   3.158   1.063
  200SOL    HW2 1500   1.086   3.208   0.914
  201SOL     OW 1501   0.603   6.968   5.612
  201SOL    HW1 1502   0.510   7.002   5.629
  201SOL    HW2 1503   0.661   0.025   5.585
  202SOL     OW 1504   4.090   1.485   6.841
  202SOL    HW1 1505   4.188   1.481   6.818
  202SOL    HW2 1506   4.062   1.580   6.849
  203SOL     OW 1507   5.761   2.178   5.457
  203SOL    HW1 1508   5.723   2.087   5.477
  203SOL    HW2 1509   5.838   2.195   5.518
  204SOL     OW 1510   0.555   0.031   5.233
  204SOL    HW1 1511   0.588   0.027   5.138
  204SOL    HW2 1512   0.631   0.051   5.294
  205SOL     OW 1513   1.660   2.715   2.672
  205SOL    HW1 1514   1.616   2.628   2.691
  205SOL    HW2 1515   1.716   2.742   2.751
  206SOL     OW 1516   0.803   3.178   1.425
  206SOL    HW1 1517   0.733   3.243   1.456
  206SOL    HW2 1518   0.758   3.100   1.381
  207SOL     OW 1519   5.213   0.894   3.223
  207SOL    HW1 1520   5.274   0.921   3.298
  207SOL    HW2 1521   5.152   0.971   3.201
  208SOL     OW 1522   0.127   4.293   5.428
  208SOL    HW1 1523   0.152   4.197   5.439
  208SOL    HW2 1524   0.196   4.340   5.373
  209SOL     OW 1525   6.568   4.385   3.197
  209SOL    HW1 1526   6.628   4.409   3.121
  209SOL    HW2 1527   6.530   4.294   3.182
  210SOL     OW 1528   4.405   1.737   0.697
  210SOL    HW1 1529   4.399   1.778   0.788
  210SOL    HW2 1530   4.312   1.722   0.662
  211SOL     OW 1531   0.840   6.904   2.394
  211SOL    HW1 1532   0.762   6.902   2.457
  211SOL    HW2 1533   0.854   6.997   2.362
  212SOL     OW 1534   1.452   3.711   2.402
  212SOL    HW1 1535   1.460   3.612   2.393
  212SOL    HW2 1536   1.507   3.742   2.480
  213SOL     OW 1537   1.802   5.847   0.898
  213SOL    HW1 1538   1.809   5.766   0.840
  213SOL    HW2 1539   1.810   5.930   0.842
  214SOL     OW 1540   3.598   5.116   2.449
  214SOL    HW1 1541   3.549   5.080   2.370
  214SOL    HW2 1542   3.532   5.143   2.520
  215SOL     OW 1543   2.476   4.217   1.463
  215SOL    HW1 1544   2.430   4.287   1.518
  215SOL    HW2 1545   2.477   4.131   1.513
  216SOL     OW 1546   0.668   6.559   3.004
  216SOL    HW1 1547   0.604   6.613   3.059
  216SOL    HW2 1548   0.622   6.530   2.920
  217SOL     OW 1549   1.297   2.430   5.176
  217SOL    HW1 1550   1.394   2.420   5.153
  217SOL    HW2 1551   1.243   2.429   5.092
  218SOL     OW 1552   0.695   2.144   4.418
  218SOL    HW1 1553   0.595   2.150   4.417
  218SOL    HW2 1554   0.725   2.109   4.506
  219SOL     OW 1555   4.446   0.446   0.565
  219SOL    HW1 1556   4.464   0.540   0.533
  219SOL    HW2 1557   4.484   0.434   0.656
  220SOL     OW 1558   2.528   6.844   1.064
  220SOL    HW1 1559   2.620   6.809   1.083
  220SOL    HW2 1560   2.524   6.941   1.086
  221SOL     OW 1561   6.219   4.404   1.568
  221SOL    HW1 1562   6.223   4.422   1.470
  221SOL    HW2 1563   6.124   4.388   1.595
  222SOL     OW 1564   1.640   4.245   6.394
  222SOL    HW1 1565   1.561   4.299   6.424
  222SOL    HW2 1566   1.720   4.304   6.387
  223SOL     OW 1567   6.762   2.768   5.207
  223SOL    HW1 1568   6.741   2.675   5.235
  223SOL    HW2 1569   6.772   2.771   5.107
  224SOL     OW 1570   3.219   1.476   6.630
  224SOL    HW1 1571   3.192   1.409   6.699
  224SOL    HW2 1572   3.208   1.436   6.539
  225SOL     OW 1573   4.348   3.796   6.358
  225SOL    HW1 1574   4.272   3.805   6.422
  225SOL    HW2 1575   4.373   3.887   6.323
  226SOL     OW 1576   0.600   1.750   5.826
  226SOL    HW1 1577   0.548   1.774   5.908
  226SOL    HW2 1578   0.559   1.670   5.783
  227SOL     OW 1579   2.296   4.345   2.766
  227SOL    HW1 1580   2.369   4.393   2.717
  227SOL    HW2 1581   2.226   4.316   2.701
  228SOL     OW 1582   2.048   0.577   3.046
  228SOL    HW1 1583   2.083   0.612   2.960
  228SOL    HW2 1584   1.948   0.578   3.045
  229SOL     OW 1585   5.248   5.371   6.220
  229SOL    HW1 1586   5.188   5.443   6.255
  229SOL    HW2 1587   5.238   5.289   6.277
  230SOL     OW 1588   4.488   5.852   4.174
  230SOL    HW1 1589   4.533   5.773   4.216
  230SOL    HW2 1590   4.456   5.828   4.082
  231SOL     OW 1591   6.016   0.881   6.885
  231SOL    HW1 1592   5.983   0.938   6.810
  231SOL    HW2 1593   6.080   0.933   6.942
  232SOL     OW 1594   0.135   3.027   6.535
  232SOL    HW1 1595   0.079   3.065   6.608
  232SOL    HW2 1596   0.203   2.964   6.574
  233SOL     OW 1597   3.589   1.812   3.522
  233SOL    HW1 1598   3.553   1.787   3.432
  233SOL    HW2 1599   3.569   1.739   3.587
  234SOL     OW 1600   6.338   0.804   6.196
  234SOL    HW1 1601   6.241   0.809   6.217
  234SOL    HW2 1602   6.390   0.785   6.279
  235SOL     OW 1603   5.103   3.446   2.501
  235SOL    HW1 1604   5.107   3.357   2.546
  235SOL    HW2 1605   5.184   3.458   2.443
  236SOL     OW 1606   5.074   3.148   6.863
  236SOL    HW1 1607   5.050   3.223   6.801
  236SOL    HW2 1608   5.118   3.185   6.945
  237SOL     OW 1609   0.165   4.304   2.214
  237SOL    HW1 1610   0.178   4.284   2.311
  237SOL    HW2 1611   0.084   4.256   2.181
  238SOL     OW 1612   6.300   1.252   0.551
  238SOL    HW1 1613   6.300   1.189   0.473
  238SOL    HW2 1614   6.239   1.217   0.622
  239SOL     OW 1615   1.117   3.847   6.971
  239SOL    HW1 1616   1.148   3.808   0.038
  239SOL    HW2 1617   1.136   3.945   6.969
  240SOL     OW 1618   0.098   2.951   3.250
  240SOL    HW1 1619   0.041   2.969   3.330
  240SOL    HW2 1620   0.192   2.981   3.268
  241SOL     OW 1621   2.853   2.248   4.658
  241SOL    HW1 1622   2.853   2.290   4.749
  241SOL    HW2 1623   2.765   2.205   4.640
  242SOL     OW 1624   3.698   3.532   3.499
  242SOL    HW1 1625   3.759   3.529   3.578
  242SOL    HW2 1626   3.632   3.607   3.511
  243SOL     OW 1627   4.660   1.753   0.304
  243SOL    HW1 1628   4.572   1.796   0.324
  243SOL    HW2 1629   4.734   1.809   0.341
  244SOL     OW 1630   6.085   3.615   5.739
  244SOL    HW1 1631   6.042   3.705   5.729
  244SOL    HW2 1632   6.158   3.604   5.672
  245SOL     OW 1633   4.480   1.843   3.782
  245SOL    HW1 1634   4.396   1.880   3.822
  245SOL    HW2 1635   4.509   1.900   3.706
  246SOL     OW 1636   5.163   1.592   3.423
  246SOL    HW1 1637   5.185   1.649   3.345
  246SOL    HW2 1638   5.184   1.496   3.401
  247SOL     OW 1639   2.566   1.624   1.210
  247SOL    HW1 1640   2.564   1.536   1.163
  247SOL    HW2 1641   2.660   1.652   1.225
  248SOL     OW 1642   2.355   1.217   2.871
  248SOL    HW1 1643   2.279   1.233   2.808
  248SOL    HW2 1644   2.329   1.145   2.936
  249SOL     OW 1645   5.587   6.707   5.467
  249SOL    HW1 1646   5.585   6.631   5.402
  249SOL    HW2 1647   5.514   6.772   5.443
  250SOL     OW 1648   4.155   3.987   0.610
  250SOL    HW1 1649   4.234   3.927   0.596
  250SOL    HW2 1650   4.135   3.995   0.708
  251SOL     OW 1651   4.629   3.371   5.365
  251SOL    HW1 1652   4.607   3.427   5.445
  251SOL    HW2 1653   4.686   3.424   5.302
  252SOL     OW 1654   6.480   6.742   5.392
  252SOL    HW1 1655   6.441   6.676   5.327
  252SOL    HW2 1656   6.468   6.707   5.485
  253SOL     OW 1657   3.828   4.932   6.280
  253SOL    HW1 1658   3.757   4.943   6.212
  253SOL    HW2 1659   3.909   4.891   6.238
  254SOL     OW 1660   6.780   2.411   3.543
  254SOL    HW1 1661   6.803   2.384   3.449
  254SOL    HW2 1662   6.771   2.510   3.548
  255SOL     OW 1663   2.154   4.338   5.899
  255SOL    HW1 1664   2.164   4.301   5.807
  255SOL    HW2 1665   2.066   4.385   5.906
  256SOL     OW 1666   5.922   3.284   6.376
  256SOL    HW1 1667   5.873   3.360   6.418
  256SOL    HW2 1668   5.892   3.275   6.281
  257SOL     OW 1669   5.302   0.007   2.836
  257SOL    HW1 1670   5.269   0.066   2.910
  257SOL    HW2 1671   5.232   0.002   2.764
  258SOL     OW 1672   2.383   4.090   5.470
  258SOL    HW1 1673   2.473   4.047   5.475
  258SOL    HW2 1674   2.357   4.100   5.374
  259SOL     OW 1675   6.007   0.943   2.070
  259SOL    HW1 1676   5.965   0.994   1.995
  259SOL    HW2 1677   6.105   0.959   2.071
  260SOL     OW 1678   4.201   6.034   3.229
  260SOL    HW1 1679   4.143   5.964   3.272
  260SOL    HW2 1680   4.143   6.106   3.192
  261SOL     OW 1681   5.060   3.896   1.648
  261SOL    HW1 1682   5.131   3.851   1.595
  261SOL    HW2 1683   4.985   3.833   1.665
  262SOL     OW 1684   1.133   3.809   0.227
  262SOL    HW1 1685   1.058   3.744   0.242
  262SOL    HW2 1686   1.103   3.901   0.252
  263SOL     OW 1687   1.678   0.950   4.424
  263SOL    HW1 1688   1.716   0.997   4.503
  263SOL    HW2 1689   1.603   1.004   4.386
  264SOL     OW 1690   6.843   2.644   0.410
  264SOL    HW1 1691   6.876   2.561   0.365
  264SOL    HW2 1692   6.752   2.629   0.448
  265SOL     OW 1693   6.198   6.783   2.371
  265SOL    HW1 1694   6.193   6.707   2.306
  265SOL    HW2 1695   6.222   6.747   2.462
  266SOL     OW 1696   4.563   2.904   5.851
  266SOL    HW1 1697   4.467   2.874   5.857
  266SOL    HW2 1698   4.572   2.996   5.889
  267SOL     OW 1699   0.758   1.922   5.687
  267SOL    HW1 1700   0.746   2.018   5.710
  267SOL    HW2 1701   0.706   1.865   5.751
  268SOL     OW 1702   2.816   0.890   6.235
  268SOL    HW1 1703   2.809   0.925   6.329
  268SOL    HW2 1704   2.737   0.921   6.182
  269SOL     OW 1705   2.117   3.994   0.808
  269SOL    HW1 1706   2.185   3.931   0.846
  269SOL    HW2 1707   2.067   3.948   0.735
  270SOL     OW 1708   0.676   6.132   0.484
  270SOL    HW1 1709   0.680   6.068   0.407
  270SOL    HW2 1710   0.668   6.080   0.569
  271SOL     OW 1711   0.267   1.650   6.212
  271SOL    HW1 1712   0.338   1.589   6.249
  271SOL    HW2 1713   0.208   1.599   6.150
  272SOL     OW 1714   3.706   6.871   3.644
  272SOL    HW1 1715   3.656   6.879   3.558
  272SOL    HW2 1716   3.719   6.962   3.685
  273SOL     OW 1717   2.109   4.556   4.953
  273SOL    HW1 1718   2.021   4.599   4.935
  273SOL    HW2 1719   2.094   4.460   4.978
  274SOL     OW 1720   3.391   1.466   3.501
  274SOL    HW1 1721   3.312   1.528   3.496
  274SOL    HW2 1722   3.381   1.394   3.433
  275SOL     OW 1723   6.092   6.053   2.579
  275SOL    HW1 1724   6.161   6.104   2.631
  275SOL    HW2 1725   6.018   6.115   2.552
  276SOL     OW 1726   0.121   6.810   3.887
  276SOL    HW1 1727   0.115   6.833   3.789
  276SOL    HW2 1728   0.175   6.879   3.934
  277SOL     OW 1729   2.124   4.034   0.077
  277SOL    HW1 1730   2.046   4.063   0.133
  277SOL    HW2 1731   2.200   4.097   0.090
  278SOL     OW 1732   6.970   3.528   2.486
  278SOL    HW1 1733   6.979   3.608   2.427
  278SOL    HW2 1734   7.015   3.546   2.574
  279SOL     OW 1735   5.872   2.909   4.577
  279SOL    HW1 1736   5.944   2.876   4.516
  279SOL    HW2 1737   5.876   2.860   4.663
  280SOL     OW 1738   3.222   5.657   1.556
  280SOL    HW1 1739   3.174   5.665   1.469
  280SOL    HW2 1740   3.203   5.567   1.596
  281SOL     OW 1741   2.173   4.519   1.947
  281SOL    HW1 1742   2.127   4.509   2.036
  281SOL    HW2 1743   2.252   4.458   1.943
  282SOL     OW 1744   2.853   1.331   5.654
  282SOL    HW1 1745   2.914   1.320   5.575
  282SOL    HW2 1746   2.795   1.251   5.663
  283SOL     OW 1747   6.236   2.267   6.649
  283SOL    HW1 1748   6.309   2.310   6.702
  283SOL    HW2 1749   6.148   2.304   6.677
  284SOL     OW 1750   1.581   3.400   3.950
  284SOL    HW1 1751   1.631   3.320   3.985
  284SOL    HW2 1752   1.559   3.461   4.026
  285SOL     OW 1753   5.440   4.795   4.025
  285SOL    HW1 1754   5.422   4.758   4.116
  285SOL    HW2 1755   5.382   4.876   4.009
  286SOL     OW 1756   3.179   4.329   6.784
  286SOL    HW1 1757   3.099   4.270   6.777
  286SOL    HW2 1758   3.227   4.310   6.870
  287SOL     OW 1759   1.280   2.908   1.170
  287SOL    HW1 1760   1.181   2.918   1.171
  287SOL    HW2 1761   1.323   2.994   1.196
  288SOL     OW 1762   3.667   1.469   6.774
  288SOL    HW1 1763   3.706   1.394   6.719
  288SOL    HW2 1764   3.727   1.549   6.769
  289SOL     OW 1765   1.700   4.067   5.378
  289SOL    HW1 1766   1.722   4.105   5.468
  289SOL    HW2 1767   1.645   3.984   5.389
  290SOL     OW 1768   6.219   1.809   4.902
  290SOL    HW1 1769   6.176   1.875   4.840
  290SOL    HW2 1770   6.234   1.723   4.854
  291SOL     OW 1771   0.614   1.848   4.216
  291SOL    HW1 1772   0.517   1.865   4.233
  291SOL    HW2 1773   0.649   1.915   4.151
  292SOL     OW 1774   1.598   1.077   3.015
  292SOL    HW1 1775   1.562   1.151   3.072
  292SOL    HW2 1776   1.622   1.113   2.925
  293SOL     OW 1777   4.463   6.179   3.259
  293SOL    HW1 1778   4.456   6.189   3.160
  293SOL    HW2 1779   4.378   6.139   3.295
  294SOL     OW 1780   5.867   5.679   6.885
  294SOL    HW1 1781   5.803   5.735   6.938
  294SOL    HW2 1782   5.851   5.694   6.787
  295SOL     OW 1783   3.570   0.485   2.831
  295SOL    HW1 1784   3.476   0.474   2.801
  295SOL    HW2 1785   3.623   0.403   2.808
  296SOL     OW 1786   3.479   1.099   2.765
  296SOL    HW1 1787   3.517   1.191   2.772
  296SOL    HW2 1788   3.447   1.069   2.855
  297SOL     OW 1789   2.219   4.907   3.567
  297SOL    HW1 1790   2.287   4.954   3.622
  297SOL    HW2 1791   2.263   4.865   3.488
  298SOL     OW 1792   4.766   6.094   1.311
  298SOL    HW1 1793   4.755   6.176   1.255
  298SOL    HW2 1794   4.728   6.015   1.263
  299SOL     OW 1795   6.070   3.058   5.439
  299SOL    HW1 1796   6.142   3.014   5.385
  299SOL    HW2 1797   6.101   3.147   5.471
  300SOL     OW 1798   6.567   0.864   3.096
  300SOL    HW1 1799   6.472   0.836   3.110
  300SOL    HW2 1800   6.628   0.794   3.134
  301SOL     OW 1801   5.347   3.831   0.015
  301SOL    HW1 1802   5.401   3.876   0.085
  301SOL    HW2 1803   5.395   3.836   6.947
  302SOL     OW 1804   1.347   0.448   3.534
  302SOL    HW1 1805   1.403   0.502   3.597
  302SOL    HW2 1806   1.265   0.499   3.509
  303SOL     OW 1807   5.293   0.619   2.068
  303SOL    HW1 1808   5.354   0.691   2.100
  303SOL    HW2 1809   5.254   0.571   2.146
  304SOL     OW 1810   1.930   0.252   3.224
  304SOL    HW1 1811   1.830   0.246   3.224
  304SOL    HW2 1812   1.967   0.169   3.182
  305SOL     OW 1813   0.510   3.918   6.963
  305SOL    HW1 1814   0.500   3.826   6.924
  305SOL    HW2 1815   0.439   3.978   6.928
  306SOL     OW 1816   1.611   1.346   4.194
  306SOL    HW1 1817   1.609   1.272   4.127
  306SOL    HW2 1818   1.659   1.425   4.156
  307SOL     OW 1819   4.782   0.042   1.107
  307SOL    HW1 1820   4.807   0.119   1.165
  307SOL    HW2 1821   4.861   7.001   1.096
  308SOL     OW 1822   0.296   5.535   3.783
  308SOL    HW1 1823   0.346   5.548   3.869
  308SOL    HW2 1824   0.342   5.586   3.711
  309SOL     OW 1825   3.830   4.340   5.202
  309SOL    HW1 1826   3.771   4.409   5.160
  309SOL    HW2 1827   3.841   4.263   5.139
  310SOL     OW 1828   6.662   6.647   5.866
  310SOL    HW1 1829   6.735   6.598   5.819
  310SOL    HW2 1830   6.699   6.729   5.909
  311SOL     OW 1831   6.471   5.324   1.737
  311SOL    HW1 1832   6.443   5.227   1.738
  311SOL    HW2 1833   6.391   5.381   1.759
  312SOL     OW 1834   4.730   1.527   4.770
  312SOL    HW1 1835   4.650   1.586   4.770
  312SOL    HW2 1836   4.813   1.581   4.754
  313SOL     OW 1837   2.522   3.964   1.562
  313SOL    HW1 1838   2.472   3.940   1.646
  313SOL    HW2 1839   2.577   3.885   1.533
  314SOL     OW 1840   3.591   5.437   0.338
  314SOL    HW1 1841   3.690   5.428   0.328
  314SOL    HW2 1842   3.570   5.501   0.411
  315SOL     OW 1843   0.535   2.619   3.269
  315SOL    HW1 1844   0.552   2.654   3.177
  315SOL    HW2 1845   0.500   2.526   3.263
  316SOL     OW 1846   2.289   2.907   4.048
  316SOL    HW1 1847   2.353   2.869   4.115
  316SOL    HW2 1848   2.213   2.843   4.034
  317SOL     OW 1849   0.595   1.125   0.112
  317SOL    HW1 1850   0.556   1.177   0.035
  317SOL    HW2 1851   0.557   1.161   0.197
  318SOL     OW 1852   1.423   4.930   1.095
  318SOL    HW1 1853   1.437   5.023   1.059
  318SOL    HW2 1854   1.376   4.936   1.183
  319SOL     OW 1855   0.996   6.619   1.822
  319SOL    HW1 1856   1.076   6.680   1.825
  319SOL    HW2 1857   0.972   6.592   1.915
  320SOL     OW 1858   6.056   2.675   6.998
  320SOL    HW1 1859   5.970   2.725   7.009
  320SOL    HW2 1860   6.050   2.587   0.026
  321SOL     OW 1861   1.831   1.767   1.968
  321SOL    HW1 1862   1.901   1.824   2.010
  321SOL    HW2 1863   1.823   1.788   1.871
  322SOL     OW 1864   3.725   2.942   4.320
  322SOL    HW1 1865   3.753   2.885   4.396
  322SOL    HW2 1866   3.640   2.989   4.343
  323SOL     OW 1867   0.580   4.160   0.860
  323SOL    HW1 1868   0.506   4.226   0.844
  323SOL    HW2 1869   0.611   4.167   0.954
  324SOL     OW 1870   0.712   2.663   4.414
  324SOL    HW1 1871   0.712   2.724   4.493
  324SOL    HW2 1872   0.783   2.691   4.350
  325SOL     OW 1873   2.009   3.347   1.075
  325SOL    HW1 1874   2.032   3.439   1.043
  325SOL    HW2 1875   2.044   3.334   1.168
  326SOL     OW 1876   1.775   6.426   6.671
  326SOL    HW1 1877   1.845   6.394   6.607
  326SOL    HW2 1878   1.786   6.378   6.758
  327SOL     OW 1879   0.364   4.605   4.566
  327SOL    HW1 1880   0.291   4.549   4.525
  327SOL    HW2 1881   0.410   4.554   4.637
  328SOL     OW 1882   3.838   5.408   2.559
  328SOL    HW1 1883   3.766   5.462   2.516
  328SOL    HW2 1884   3.843   5.318   2.516
  329SOL     OW 1885   3.076   3.693   3.519
  329SOL    HW1 1886   3.024   3.663   3.439
  329SOL    HW2 1887   3.151   3.753   3.489
  330SOL     OW 1888   3.082   6.777   1.681
  330SOL    HW1 1889   3.134   6.861   1.665
  330SOL    HW2 1890   3.145   6.700   1.694
  331SOL     OW 1891   4.312   5.549   6.142
  331SOL    HW1 1892   4.391   5.493   6.169
  331SOL    HW2 1893   4.229   5.511   6.182
  332SOL     OW 1894   3.158   1.594   3.338
  332SOL    HW1 1895   3.073   1.578   3.390
  332SOL    HW2 1896   3.172   1.520   3.273
  333SOL     OW 1897   4.221   6.904   5.955
  333SOL    HW1 1898   4.222   6.935   5.860
  333SOL    HW2 1899   4.309   6.924   5.997
  334SOL     OW 1900   3.406   6.804   2.239
  334SOL    HW1 1901   3.326   6.777   2.186
  334SOL    HW2 1902   3.389   6.893   2.281
  335SOL     OW 1903   3.760   5.960   3.604
  335SOL    HW1 1904   3.716   5.887   3.655
  335SOL    HW2 1905   3.772   5.932   3.509
  336SOL     OW 1906   2.039   0.932   2.950
  336SOL    HW1 1907   1.951   0.912   2.993
  336SOL    HW2 1908   2.023   0.976   2.861
  337SOL     OW 1909   0.183   3.267   1.604
  337SOL    HW1 1910   0.229   3.266   1.693
  337SOL    HW2 1911   0.251   3.257   1.531
  338SOL     OW 1912   3.094   2.953   1.848
  338SOL    HW1 1913   3.143   2.908   1.923
  338SOL    HW2 1914   3.060   3.041   1.879
  339SOL     OW 1915   3.748   0.345   3.106
  339SOL    HW1 1916   3.679   0.278   3.134
  339SOL    HW2 1917   3.795   0.312   3.023
  340SOL     OW 1918   5.581   4.515   4.712
  340SOL    HW1 1919   5.588   4.611   4.685
  340SOL    HW2 1920   5.655   4.463   4.668
  341SOL     OW 1921   5.191   6.437   4.202
  341SOL    HW1 1922   5.165   6.474   4.114
  341SOL    HW2 1923   5.263   6.369   4.190
  342SOL     OW 1924   5.559   4.492   6.870
  342SOL    HW1 1925   5.633   4.436   6.907
  342SOL    HW2 1926   5.483   4.433   6.841
  343SOL     OW 1927   3.340   6.557   1.941
  343SOL    HW1 1928   3.393   6.472   1.949
  343SOL    HW2 1929   3.363   6.603   1.855
  344SOL     OW 1930   1.977   5.188   0.464
  344SOL    HW1 1931   1.971   5.278   0.508
  344SOL    HW2 1932   1.934   5.120   0.523
  345SOL     OW 1933   0.783   0.609   5.359
  345SOL    HW1 1934   0.755   0.532   5.416
  345SOL    HW2 1935   0.703   0.649   5.315
  346SOL     OW 1936   1.575   0.057   3.168
  346SOL    HW1 1937   1.604   0.137   3.220
  346SOL    HW2 1938   1.611   0.064   3.075
  347SOL     OW 1939   5.866   6.701   6.400
  347SOL    HW1 1940   5.949   6.686   6.452
  347SOL    HW2 1941   5.786   6.684   6.459
  348SOL     OW 1942   4.026   5.330   1.287
  348SOL    HW1 1943   3.977   5.297   1.368
  348SOL    HW2 1944   4.123   5.307   1.296
  349SOL     OW 1945   0.359   4.259   2.670
  349SOL    HW1 1946   0.444   4.227   2.627
  349SOL    HW2 1947   0.362   4.240   2.768
  350SOL     OW 1948   3.931   3.692   1.575
  350SOL    HW1 1949   3.858   3.733   1.520
  350SOL    HW2 1950   3.985   3.765   1.618
  351SOL     OW 1951   2.700   1.749   0.394
  351SOL    HW1 1952   2.793   1.783   0.388
  351SOL    HW2 1953   2.684   1.709   0.484
  352SOL     OW 1954   3.596   0.477   5.542
  352SOL    HW1 1955   3.618   0.384   5.571
  352SOL    HW2 1956   3.502   0.498   5.569
  353SOL     OW 1957   2.071   6.465   0.646
  353SOL    HW1 1958   2.055   6.448   0.549
  353SOL    HW2 1959   2.027   6.551   0.672
  354SOL     OW 1960   4.145   2.353   0.471
  354SOL    HW1 1961   4.100   2.426   0.522
  354SOL    HW2 1962   4.127   2.265   0.516
  355SOL     OW 1963   0.103   3.103   2.932
  355SOL    HW1 1964   0.192   3.099   2.977
  355SOL    HW2 1965   0.105   3.045   2.851
  356SOL     OW 1966   4.668   4.987   4.885
  356SOL    HW1 1967   4.615   5.025   4.809
  356SOL    HW2 1968   4.668   5.051   4.962
  357SOL     OW 1969   0.418   5.768   5.305
  357SOL    HW1 1970   0.412   5.724   5.395
  357SOL    HW2 1971   0.481   5.845   5.309
  358SOL     OW 1972   6.766   0.412   1.490
  358SOL    HW1 1973   6.756   0.366   1.578
  358SOL    HW2 1974   6.770   0.511   1.504
  359SOL     OW 1975   1.280   2.660   2.584
  359SOL    HW1 1976   1.340   2.672   2.505
  359SOL    HW2 1977   1.266   2.748   2.630
  360SOL     OW 1978   4.312   0.015   6.526
  360SOL    HW1 1979   4.351   6.946   6.500
  360SOL    HW2 1980   4.294   0.015   6.625
  361SOL     OW 1981   4.991   5.760   3.123
  361SOL    HW1 1982   4.998   5.833   3.191
  361SOL    HW2 1983   5.060   5.774   3.052
  362SOL     OW 1984   2.854   4.455   0.287
  362SOL    HW1 1985   2.943   4.474   0.328
  362SOL    HW2 1986   2.855   4.482   0.190
  363SOL     OW 1987   3.693   4.984   4.372
  363SOL    HW1 1988   3.762   4.956   4.306
  363SOL    HW2 1989   3.719   4.951   4.463
  364SOL     OW 1990   0.910   5.659   5.749
  364SOL    HW1 1991   0.996   5.622   5.784
  364SOL    HW2 1992   0.882   5.608   5.668
  365SOL     OW 1993   5.185   5.597   2.455
  365SOL    HW1 1994   5.231   5.516   2.419
  365SOL    HW2 1995   5.092   5.574   2.481
  366SOL     OW 1996   6.468   1.324   0.123
  366SOL    HW1 1997   6.477   1.247   0.060
  366SOL    HW2 1998   6.425   1.401   0.075
  367SOL     OW 1999   5.364   3.237   1.195
  367SOL    HW1 2000   5.377   3.252   1.097
  367SOL    HW2 2001   5.388   3.319   1.245
  368SOL     OW 2002   1.567   4.304   5.159
  368SOL    HW1 2003   1.514   4.361   5.096
  368SOL    HW2 2004   1.596   4.221   5.113
  369SOL     OW 2005   6.567   4.191   1.633
  369SOL    HW1 2006   6.546   4.280   1.673
  369SOL    HW2 2007   6.585   4.125   1.706
  370SOL     OW 2008   2.510   0.396   5.746
  370SOL    HW1 2009   2.434   0.331   5.754
  370SOL    HW2 2010   2.474   0.485   5.717
  371SOL     OW 2011   2.860   3.138   0.294
  371SOL    HW1 2012   2.788   3.099   0.351
  371SOL    HW2 2013   2.939   3.161   0.351
  372SOL     OW 2014   0.064   0.002   5.452
  372SOL    HW1 2015   0.090   0.087   5.497
  372SOL    HW2 2016   0.145   6.965   5.437
  373SOL     OW 2017   0.082   5.898   0.059
  373SOL    HW1 2018   0.168   5.948   0.049
  373SOL    HW2 2019   0.005   5.959   0.036
  374SOL     OW 2020   3.314   0.415   2.759
  374SOL    HW1 2021   3.290   0.501   2.714
  374SOL    HW2 2022   3.244   0.346   2.741
  375SOL     OW 2023   6.070   4.734   3.157
  375SOL    HW1 2024   6.130   4.796   3.208
  375SOL    HW2 2025   6.062   4.647   3.206
  376SOL     OW 2026   1.644   2.445   3.950
  376SOL    HW1 2027   1.589   2.488   3.879
  376SOL    HW2 2028   1.732   2.417   3.912
  377SOL     OW 2029   4.955   2.014   2.648
  377SOL    HW1 2030   4.873   1.986   2.698
  377SOL    HW2 2031   4.962   1.961   2.564
  378SOL     OW 2032   4.144   3.651   5.747
  378SOL    HW1 2033   4.088   3.629   5.667
  378SOL    HW2 2034   4.240   3.660   5.719
  379SOL     OW 2035   5.933   3.466   1.567
  379SOL    HW1 2036   6.023   3.510   1.572
  379SOL    HW2 2037   5.939   3.382   1.513
  380SOL     OW 2038   1.074   1.330   1.142
  380SOL    HW1 2039   1.049   1.249   1.089
  380SOL    HW2 2040   1.129   1.302   1.221
  381SOL     OW 2041   3.376   4.864   1.260
  381SOL    HW1 2042   3.314   4.836   1.187
  381SOL    HW2 2043   3.471   4.850   1.230
  382SOL     OW 2044   3.212   6.010   0.364
  382SOL    HW1 2045   3.158   6.094   0.353
  382SOL    HW2 2046   3.283   6.025   0.432
  383SOL     OW 2047   6.592   2.840   6.951
  383SOL    HW1 2048   6.580   2.757   6.896
  383SOL    HW2 2049   6.507   2.858   7.001
  384SOL     OW 2050   0.418   5.562   5.522
  384SOL    HW1 2051   0.341   5.500   5.507
  384SOL    HW2 2052   0.500   5.508   5.542
  385SOL     OW 2053   4.404   6.098   0.603
  385SOL    HW1 2054   4.366   6.144   0.683
  385SOL    HW2 2055   4.485   6.045   0.629
  386SOL     OW 2056   3.986   6.374   5.189
  386SOL    HW1 2057   3.931   6.291   5.175
  386SOL    HW2 2058   3.980   6.431   5.107
  387SOL     OW 2059   6.923   0.793   4.653
  387SOL    HW1 2060   6.957   0.778   4.560
  387SOL    HW2 2061   6.957   0.721   4.713
  388SOL     OW 2062   6.912   2.774   5.792
  388SOL    HW1 2063   6.974   2.702   5.825
  388SOL    HW2 2064   6.884   2.754   5.699
  389SOL     OW 2065   4.502   4.228   1.410
  389SOL    HW1 2066   4.442   4.245   1.488
  389SOL    HW2 2067   4.548   4.140   1.421
  390SOL     OW 2068   3.741   1.348   0.452
  390SOL    HW1 2069   3.679   1.317   0.381
  390SOL    HW2 2070   3.743   1.281   0.526
  391SOL     OW 2071   3.327   3.266   6.457
  391SOL    HW1 2072   3.282   3.271   6.547
  391SOL    HW2 2073   3.277   3.202   6.399
  392SOL     OW 2074   1.508   4.254   2.109
  392SOL    HW1 2075   1.561   4.239   2.192
  392SOL    HW2 2076   1.413   4.274   2.133
  393SOL     OW 2077   0.773   4.525   0.896
  393SOL    HW1 2078   0.794   4.525   0.994
  393SOL    HW2 2079   0.806   4.440   0.855
  394SOL     OW 2080   6.718   2.110   6.536
  394SOL    HW1 2081   6.724   2.123   6.437
  394SOL    HW2 2082   6.809   2.091   6.572
  395SOL     OW 2083   4.718   4.389   1.850
  395SOL    HW1 2084   4.628   4.348   1.864
  395SOL    HW2 2085   4.772   4.378   1.934
  396SOL     OW 2086   2.761   1.719   2.935
  396SOL    HW1 2087   2.715   1.794   2.889
  396SOL    HW2 2088   2.857   1.716   2.906
  397SOL     OW 2089   4.547   1.531   5.355
  397SOL    HW1 2090   4.607   1.606   5.383
  397SOL    HW2 2091   4.523   1.542   5.258
  398SOL     OW 2092   1.880   0.341   4.716
  398SOL    HW1 2093   1.810   0.274   4.738
  398SOL    HW2 2094   1.843   0.408   4.651
  399SOL     OW 2095   5.058   5.746   3.839
  399SOL    HW1 2096   5.008   5.809   3.780
  399SOL    HW2 2097   4.996   5.710   3.910
  400SOL     OW 2098   6.421   0.556   4.715
  400SOL    HW1 2099   6.419   0.619   4.637
  400SOL    HW2 2100   6.421   0.462   4.682
  401SOL     OW 2101   6.599   6.235   5.767
  401SOL    HW1 2102   6.624   6.144   5.801
  401SOL    HW2 2103   6.678   6.295   5.772
  402SOL     OW 2104   6.732   0.355   2.771
  402SOL    HW1 2105   6.638   0.370   2.802
  402SOL    HW2 2106   6.734   0.282   2.702
  403SOL     OW 2107   2.636   0.543   6.395
  403SOL    HW1 2108   2.590   0.527   6.308
  403SOL    HW2 2109   2.569   0.544   6.469
  404SOL     OW 2110   3.673   5.221   5.238
  404SOL    HW1 2111   3.746   5.200   5.304
  404SOL    HW2 2112   3.675   5.154   5.164
  405SOL     OW 2113   2.275   4.120   3.633
  405SOL    HW1 2114   2.213   4.047   3.658
  405SOL    HW2 2115   2.303   4.109   3.538
  406SOL     OW 2116   0.377   4.944   5.753
  406SOL    HW1 2117   0.415   4.934   5.662
  406SOL    HW2 2118   0.437   4.899   5.820
  407SOL     OW 2119   1.475   3.018   3.995
  407SOL    HW1 2120   1.530   3.002   3.912
  407SOL    HW2 2121   1.520   2.976   4.073
  408SOL     OW 2122   2.835   1.429   3.773
  408SOL    HW1 2123   2.750   1.461   3.731
  408SOL    HW2 2124   2.851   1.480   3.858
  409SOL     OW 2125   1.348   4.029   2.715
  409SOL    HW1 2126   1.301   4.116   2.722
  409SOL    HW2 2127   1.284   3.958   2.687
  410SOL     OW 2128   1.455   1.998   1.392
  410SOL    HW1 2129   1.463   2.098   1.393
  410SOL    HW2 2130   1.452   1.966   1.298
  411SOL     OW 2131   0.580   2.327   1.403
  411SOL    HW1 2132   0.486   2.348   1.430
  411SOL    HW2 2133   0.626   2.410   1.371
  412SOL     OW 2134   1.852   4.970   2.541
  412SOL    HW1 2135   1.806   4.884   2.518
  412SOL    HW2 2136   1.933   4.980   2.482
  413SOL     OW 2137   4.102   4.943   2.651
  413SOL    HW1 2138   4.121   4.967   2.556
  413SOL    HW2 2139   4.036   5.007   2.689
  414SOL     OW 2140   2.977   6.423   3.864
  414SOL    HW1 2141   2.900   6.359   3.861
  414SOL    HW2 2142   2.954   6.506   3.813
  415SOL     OW 2143   6.680   0.923   0.274
  415SOL    HW1 2144   6.583   0.928   0.300
  415SOL    HW2 2145   6.737   0.935   0.355
  416SOL     OW 2146   4.906   3.220   4.802
  416SOL    HW1 2147   4.838   3.191   4.870
  416SOL    HW2 2148   4.948   3.306   4.832
  417SOL     OW 2149   3.538   2.251   6.676
  417SOL    HW1 2150   3.480   2.319   6.722
  417SOL    HW2 2151   3.480   2.181   6.634
  418SOL     OW 2152   3.708   6.380   4.181
  418SOL    HW1 2153   3.723   6.399   4.278
  418SOL    HW2 2154   3.669   6.460   4.136
  419SOL     OW 2155   1.015   7.012   1.761
  419SOL    HW1 2156   1.073   0.062   1.802
  419SOL    HW2 2157   1.071   6.942   1.718
  420SOL     OW 2158   6.407   0.519   6.172
  420SOL    HW1 2159   6.492   0.570   6.157
  420SOL    HW2 2160   6.335   0.583   6.200
  421SOL     OW 2161   5.183   3.888   3.530
  421SOL    HW1 2162   5.174   3.825   3.452
  421SOL    HW2 2163   5.171   3.982   3.499
  422SOL     OW 2164   5.341   2.712   1.932
  422SOL    HW1 2165   5.416   2.734   1.994
  422SOL    HW2 2166   5.377   2.669   1.849
  423SOL     OW 2167   3.496   1.625   6.562
  423SOL    HW1 2168   3.424   1.688   6.533
  423SOL    HW2 2169   3.468   1.578   6.646
  424SOL     OW 2170   1.299   4.449   2.983
  424SOL    HW1 2171   1.241   4.436   3.063
  424SOL    HW2 2172   1.383   4.396   2.994
  425SOL     OW 2173   2.841   0.016   5.594
  425SOL    HW1 2174   2.829   0.083   5.667
  425SOL    HW2 2175   2.755   6.987   5.578
  426SOL     OW 2176   2.353   2.785   4.308
  426SOL    HW1 2177   2.275   2.842   4.332
  426SOL    HW2 2178   2.383   2.734   4.389
  427SOL     OW 2179   3.921   2.030   3.581
  427SOL    HW1 2180   3.838   2.039   3.637
  427SOL    HW2 2181   3.903   2.066   3.490
  428SOL     OW 2182   2.534   1.457   5.096
  428SOL    HW1 2183   2.519   1.434   4.999
  428SOL    HW2 2184   2.610   1.404   5.132
  429SOL     OW 2185   1.011   5.947   3.986
  429SOL    HW1 2186   0.915   5.959   4.013
  429SOL    HW2 2187   1.019   5.864   3.929
  430SOL     OW 2188   1.360   6.925   3.292
  430SOL    HW1 2189   1.416   6.880   3.361
  430SOL    HW2 2190   1.405   7.009   3.261
  431SOL     OW 2191   2.853   1.881   2.252
  431SOL    HW1 2192   2.893   1.968   2.222
  431SOL    HW2 2193   2.866   1.812   2.181
  432SOL     OW 2194   4.012   2.264   1.376
  432SOL    HW1 2195   3.963   2.255   1.463
  432SOL    HW2 2196   3.963   2.328   1.317
  433SOL     OW 2197   2.309   6.599   0.245
  433SOL    HW1 2198   2.366   6.528   0.286
  433SOL    HW2 2199   2.320   6.684   0.296
  434SOL     OW 2200   4.037   6.378   3.818
  434SOL    HW1 2201   4.010   6.428   3.900
  434SOL    HW2 2202   3.993   6.288   3.818
  435SOL     OW 2203   2.687   1.649   5.973
  435SOL    HW1 2204   2.597   1.677   5.941
  435SOL    HW2 2205   2.756   1.675   5.905
  436SOL     OW 2206   4.759   0.051   3.139
  436SOL    HW1 2207   4.780   0.149   3.143
  436SOL    HW2 2208   4.666   0.039   3.106
  437SOL     OW 2209   6.376   6.979   4.306
  437SOL    HW1 2210   6.311   6.991   4.231
  437SOL    HW2 2211   6.326   6.956   4.390
  438SOL     OW 2212   0.505   4.510   2.820
  438SOL    HW1 2213   0.458   4.538   2.904
  438SOL    HW2 2214   0.456   4.433   2.779
  439SOL     OW 2215   5.498   0.513   2.928
  439SOL    HW1 2216   5.544   0.435   2.970
  439SOL    HW2 2217   5.488   0.586   2.996
  440SOL     OW 2218   4.471   0.953   0.466
  440SOL    HW1 2219   4.566   0.924   0.480
  440SOL    HW2 2220   4.454   1.037   0.517
  441SOL     OW 2221   0.227   4.448   2.969
  441SOL    HW1 2222   0.174   4.490   2.895
  441SOL    HW2 2223   0.228   4.510   3.048
  442SOL     OW 2224   6.042   3.170   5.901
  442SOL    HW1 2225   6.133   3.206   5.885
  442SOL    HW2 2226   6.015   3.111   5.825
  443SOL     OW 2227   4.951   3.457   2.807
  443SOL    HW1 2228   4.934   3.439   2.710
  443SOL    HW2 2229   5.049   3.464   2.823
  444SOL     OW 2230   4.467   1.055   1.257
  444SOL    HW1 2231   4.422   1.143   1.241
  444SOL    HW2 2232   4.441   1.019   1.346
  445SOL     OW 2233   1.557   5.521   2.519
  445SOL    HW1 2234   1.480   5.457   2.511
  445SOL    HW2 2235   1.561   5.578   2.437
  446SOL     OW 2236   5.508   6.969   1.900
  446SOL    HW1 2237   5.580   0.009   1.935
  446SOL    HW2 2238   5.463   7.013   1.823
  447SOL     OW 2239   6.198   4.273   0.534
  447SOL    HW1 2240   6.195   4.177   0.564
  447SOL    HW2 2241   6.116   4.293   0.481
  448SOL     OW 2242   2.491   6.588   3.318
  448SOL    HW1 2243   2.478   6.686   3.305
  448SOL    HW2 2244   2.588   6.565   3.307
  449SOL     OW 2245   2.211   3.126   4.563
  449SOL    HW1 2246   2.193   3.205   4.621
  449SOL    HW2 2247   2.265   3.059   4.614
  450SOL     OW 2248   0.624   4.521   3.458
  450SOL    HW1 2249   0.685   4.463   3.512
  450SOL    HW2 2250   0.678   4.579   3.397
  451SOL     OW 2251   0.703   2.100   2.499
  451SOL    HW1 2252   0.714   2.159   2.579
  451SOL    HW2 2253   0.710   2.154   2.416
  452SOL     OW 2254   4.760   5.984   2.783
  452SOL    HW1 2255   4.735   5.930   2.864
  452SOL    HW2 2256   4.750   6.081   2.804
  453SOL     OW 2257   3.656   0.527   0.220
  453SOL    HW1 2258   3.583   0.588   0.190
  453SOL    HW2 2259   3.664   0.450   0.157
  454SOL     OW 2260   0.034   4.014   6.726
  454SOL    HW1 2261   0.020   3.915   6.733
  454SOL    HW2 2262   0.075   4.047   6.811
  455SOL     OW 2263   6.409   4.520   6.311
  455SOL    HW1 2264   6.402   4.567   6.399
  455SOL    HW2 2265   6.505   4.514   6.284
  456SOL     OW 2266   2.598   0.888   2.196
  456SOL    HW1 2267   2.689   0.916   2.163
  456SOL    HW2 2268   2.573   0.801   2.152
  457SOL     OW 2269   2.358   6.998   6.465
  457SOL    HW1 2270   2.432   0.015   6.522
  457SOL    HW2 2271   2.270   0.012   6.499
  458SOL     OW 2272   2.213   1.360   3.352
  458SOL    HW1 2273   2.307   1.328   3.337
  458SOL    HW2 2274   2.150   1.284   3.341
  459SOL     OW 2275   2.490   0.324   4.305
  459SOL    HW1 2276   2.482   0.414   4.262
  459SOL    HW2 2277   2.405   0.302   4.353
  460SOL     OW 2278   1.275   1.991   5.130
  460SOL    HW1 2279   1.362   1.973   5.085
  460SOL    HW2 2280   1.250   2.087   5.118
  461SOL     OW 2281   0.839   5.355   5.768
  461SOL    HW1 2282   0.916   5.419   5.764
  461SOL    HW2 2283   0.824   5.327   5.863
  462SOL     OW 2284   3.014   3.912   4.310
  462SOL    HW1 2285   3.016   3.960   4.398
  462SOL    HW2 2286   2.964   3.826   4.320
  463SOL     OW 2287   5.631   7.016   2.429
  463SOL    HW1 2288   5.554   6.968   2.470
  463SOL    HW2 2289   5.712   6.959   2.433
  464SOL     OW 2290   4.174   6.052   6.392
  464SOL    HW1 2291   4.191   6.134   6.336
  464SOL    HW2 2292   4.091   6.006   6.359
  465SOL     OW 2293   1.473   3.177   0.187
  465SOL    HW1 2294   1.414   3.161   0.267
  465SOL    HW2 2295   1.418   3.174   0.104
  466SOL     OW 2296   4.153   5.535   4.911
  466SOL    HW1 2297   4.109   5.624   4.903
  466SOL    HW2 2298   4.103   5.478   4.977
  467SOL     OW 2299   6.157   0.613   1.682
  467SOL    HW1 2300   6.136   0.658   1.596
  467SOL    HW2 2301   6.254   0.586   1.683
  468SOL     OW 2302   3.880   0.126   6.929
  468SOL    HW1 2303   3.816   0.176   6.871
  468SOL    HW2 2304   3.974   0.154   6.908
  469SOL     OW 2305   3.042   5.108   5.736
  469SOL    HW1 2306   2.972   5.047   5.699
  469SOL    HW2 2307   3.053   5.187   5.676
  470SOL     OW 2308   2.094   5.435   2.916
  470SOL    HW1 2309   2.059   5.515   2.868
  470SOL    HW2 2310   2.155   5.383   2.856
  471SOL     OW 2311   2.568   2.458   4.586
  471SOL    HW1 2312   2.511   2.540   4.592
  471SOL    HW2 2313   2.596   2.431   4.678
  472SOL     OW 2314   5.878   4.189   6.029
  472SOL    HW1 2315   5.889   4.114   5.964
  472SOL    HW2 2316   5.928   4.269   5.996
  473SOL     OW 2317   7.019   3.394   2.882
  473SOL    HW1 2318   0.011   3.311   2.936
  473SOL    HW2 2319   6.936   3.442   2.911
  474SOL     OW 2320   4.989   6.016   4.219
  474SOL    HW1 2321   4.967   6.104   4.176
  474SOL    HW2 2322   5.038   6.033   4.305
  475SOL     OW 2323   5.790   1.441   1.094
  475SOL    HW1 2324   5.836   1.402   1.174
  475SOL    HW2 2325   5.740   1.524   1.122
  476SOL     OW 2326   0.754   5.107   1.142
  476SOL    HW1 2327   0.661   5.070   1.146
  476SOL    HW2 2328   0.751   5.205   1.162
  477SOL     OW 2329   1.241   4.631   3.763
  477SOL    HW1 2330   1.163   4.620   3.703
  477SOL    HW2 2331   1.306   4.556   3.748
  478SOL     OW 2332   4.794   5.808   1.700
  478SOL    HW1 2333   4.888   5.823   1.729
  478SOL    HW2 2334   4.740   5.777   1.779
  479SOL     OW 2335   3.978   3.953   3.993
  479SOL    HW1 2336   3.927   4.021   4.046
  479SOL    HW2 2337   4.038   3.902   4.054
  480SOL     OW 2338   1.785   6.657   3.102
  480SOL    HW1 2339   1.696   6.691   3.070
  480SOL    HW2 2340   1.820   6.719   3.173
  481SOL     OW 2341   0.328   6.629   0.906
  481SOL    HW1 2342   0.233   6.649   0.932
  481SOL    HW2 2343   0.351   6.681   0.824
  482SOL     OW 2344   4.555   5.189   1.658
  482SOL    HW1 2345   4.480   5.165   1.596
  482SOL    HW2 2346   4.589   5.105   1.701
  483SOL     OW 2347   5.193   2.205   3.448
  483SOL    HW1 2348   5.137   2.281   3.416
  483SOL    HW2 2349   5.181   2.127   3.386
  484SOL     OW 2350   2.213   4.170   4.312
  484SOL    HW1 2351   2.261   4.179   4.400
  484SOL    HW2 2352   2.278   4.183   4.237
  485SOL     OW 2353   5.182   2.931   1.913
  485SOL    HW1 2354   5.094   2.885   1.923
  485SOL    HW2 2355   5.256   2.866   1.927
  486SOL     OW 2356   6.080   6.718   6.037
  486SOL    HW1 2357   6.039   6.635   6.074
  486SOL    HW2 2358   6.162   6.742   6.089
  487SOL     OW 2359   6.896   6.892   5.070
  487SOL    HW1 2360   6.841   6.844   5.001
  487SOL    HW2 2361   6.946   6.967   5.026
  488SOL     OW 2362   1.479   5.828   3.392
  488SOL    HW1 2363   1.484   5.730   3.412
  488SOL    HW2 2364   1.564   5.872   3.420
  489SOL     OW 2365   0.698   5.647   5.929
  489SOL    HW1 2366   0.636   5.725   5.923
  489SOL    HW2 2367   0.773   5.659   5.863
  490SOL     OW 2368   1.481   4.436   5.645
  490SOL    HW1 2369   1.473   4.386   5.559
  490SOL    HW2 2370   1.392   4.437   5.691
  491SOL     OW 2371   0.528   2.386   0.823
  491SOL    HW1 2372   0.505   2.311   0.762
  491SOL    HW2 2373   0.576   2.351   0.903
  492SOL     OW 2374   1.082   1.921   5.931
  492SOL    HW1 2375   1.000   1.973   5.955
  492SOL    HW2 2376   1.066   1.869   5.847
  493SOL     OW 2377   2.179   5.923   4.594
  493SOL    HW1 2378   2.223   5.845   4.548
  493SOL    HW2 2379   2.220   5.935   4.684
  494SOL     OW 2380   2.560   6.300   4.983
  494SOL    HW1 2381   2.499   6.235   5.028
  494SOL    HW2 2382   2.580   6.375   5.046
  495SOL     OW 2383   3.694   4.830   5.817
  495SOL    HW1 2384   3.725   4.735   5.820
  495SOL    HW2 2385   3.625   4.840   5.746
  496SOL     OW 2386   5.181   1.336   2.812
  496SOL    HW1 2387   5.099   1.383   2.781
  496SOL    HW2 2388   5.200   1.359   2.907
  497SOL     OW 2389   3.224   1.023   0.250
  497SOL    HW1 2390   3.177   0.935   0.254
  497SOL    HW2 2391   3.288   1.029   0.327
  498SOL     OW 2392   0.590   6.061   1.670
  498SOL    HW1 2393   0.690   6.061   1.664
  498SOL    HW2 2394   0.552   6.056   1.578
  499SOL     OW 2395   3.139   6.318   6.633
  499SOL    HW1 2396   3.165   6.314   6.730
  499SOL    HW2 2397   3.085   6.401   6.617
  500SOL     OW 2398   6.308   1.956   0.133
  500SOL    HW1 2399   6.390   1.908   0.102
  500SOL    HW2 2400   6.251   1.979   0.054
  501SOL     OW 2401   0.902   0.495   3.401
  501SOL    HW1 2402   0.906   0.531   3.308
  501SOL    HW2 2403   0.912   0.570   3.466
  502SOL     OW 2404   2.138   4.997   6.461
  502SOL    HW1 2405   2.130   4.965   6.556
  502SOL    HW2 2406   2.047   5.007   6.422
  503SOL     OW 2407   3.499   4.666   6.665
  503SOL    HW1 2408   3.474   4.739   6.601
  503SOL    HW2 2409   3.510   4.706   6.756
  504SOL     OW 2410   6.191   6.834   1.812
  504SOL    HW1 2411   6.231   6.918   1.776
  504SOL    HW2 2412   6.217   6.757   1.755
  505SOL     OW 2413   5.275   6.717   5.006
  505SOL    HW1 2414   5.282   6.817   5.000
  505SOL    HW2 2415   5.233   6.692   5.093
  506SOL     OW 2416   4.124   5.224   3.000
  506SOL    HW1 2417   4.039   5.277   3.001
  506SOL    HW2 2418   4.183   5.258   2.926
  507SOL     OW 2419   3.494   0.662   0.666
  507SOL    HW1 2420   3.422   0.671   0.598
  507SOL    HW2 2421   3.457   0.619   0.749
  508SOL     OW 2422   6.852   5.008   3.913
  508SOL    HW1 2423   6.837   5.058   3.828
  508SOL    HW2 2424   6.772   5.020   3.973
  509SOL     OW 2425   4.680   6.733   5.521
  509SOL    HW1 2426   4.617   6.673   5.571
  509SOL    HW2 2427   4.688   6.820   5.568
  510SOL     OW 2428   6.969   3.717   0.004
  510SOL    HW1 2429   0.046   3.714   6.997
  510SOL    HW2 2430   6.941   3.627   0.039
  511SOL     OW 2431   0.935   1.758   0.697
  511SOL    HW1 2432   0.879   1.678   0.717
  511SOL    HW2 2433   0.876   1.832   0.663
  512SOL     OW 2434   6.692   2.619   6.436
  512SOL    HW1 2435   6.755   2.650   6.365
  512SOL    HW2 2436   6.743   2.581   6.512
  513SOL     OW 2437   5.437   0.920   2.348
  513SOL    HW1 2438   5.535   0.938   2.357
  513SOL    HW2 2439   5.406   0.949   2.258
  514SOL     OW 2440   6.609   6.382   4.104
  514SOL    HW1 2441   6.661   6.305   4.068
  514SOL    HW2 2442   6.514   6.374   4.075
  515SOL     OW 2443   3.935   0.144   6.522
  515SOL    HW1 2444   4.001   0.113   6.454
  515SOL    HW2 2445   3.857   0.082   6.525
  516SOL     OW 2446   2.270   5.832   1.504
  516SOL    HW1 2447   2.217   5.794   1.429
  516SOL    HW2 2448   2.313   5.918   1.475
  517SOL     OW 2449   3.524   5.319   2.004
  517SOL    HW1 2450   3.540   5.332   2.102
  517SOL    HW2 2451   3.588   5.250   1.969
  518SOL     OW 2452   2.124   3.332   3.593
  518SOL    HW1 2453   2.140   3.234   3.606
  518SOL    HW2 2454   2.125   3.379   3.681
  519SOL     OW 2455   0.498   0.055   3.298
  519SOL    HW1 2456   0.567   7.010   3.265
  519SOL    HW2 2457   0.491   0.047   3.398
  520SOL     OW 2458   1.301   3.215   0.414
  520SOL    HW1 2459   1.238   3.182   0.485
  520SOL    HW2 2460   1.265   3.300   0.375
  521SOL     OW 2461   5.574   5.498   5.128
  521SOL    HW1 2462   5.500   5.456   5.075
  521SOL    HW2 2463   5.616   5.429   5.187
  522SOL     OW 2464   3.849   4.157   1.626
  522SOL    HW1 2465   3.835   4.082   1.561
  522SOL    HW2 2466   3.778   4.153   1.696
  523SOL     OW 2467   0.126   6.467   2.029
  523SOL    HW1 2468   0.189   6.542   2.009
  523SOL    HW2 2469   0.173   6.380   2.018
  524SOL     OW 2470   0.072   2.269   1.818
  524SOL    HW1 2471   7.014   2.317   1.778
  524SOL    HW2 2472   0.066   2.171   1.798
  525SOL     OW 2473   1.937   3.617   6.154
  525SOL    HW1 2474   1.972   3.601   6.062
  525SOL    HW2 2475   1.997   3.574   6.221
  526SOL     OW 2476   3.164   0.016   4.652
  526SOL    HW1 2477   3.205   0.028   4.561
  526SOL    HW2 2478   3.133   6.941   4.662
  527SOL     OW 2479   0.695   1.665   0.391
  527SOL    HW1 2480   0.739   1.580   0.419
  527SOL    HW2 2481   0.759   1.741   0.404
  528SOL     OW 2482   6.643   3.353   4.336
  528SOL    HW1 2483   6.606   3.429   4.283
  528SOL    HW2 2484   6.628   3.369   4.434
  529SOL     OW 2485   1.931   0.418   6.171
  529SOL    HW1 2486   1.951   0.516   6.175
  529SOL    HW2 2487   1.887   0.389   6.256
  530SOL     OW 2488   3.774   3.342   0.952
  530SOL    HW1 2489   3.828   3.283   0.892
  530SOL    HW2 2490   3.799   3.324   1.047
  531SOL     OW 2491   1.952   0.426   1.610
  531SOL    HW1 2492   1.902   0.342   1.591
  531SOL    HW2 2493   1.981   0.427   1.706
  532SOL     OW 2494   3.078   2.320   0.735
  532SOL    HW1 2495   3.045   2.253   0.802
  532SOL    HW2 2496   3.009   2.331   0.663
  533SOL     OW 2497   3.758   0.364   4.205
  533SOL    HW1 2498   3.807   0.278   4.214
  533SOL    HW2 2499   3.660   0.346   4.191
  534SOL     OW 2500   1.207   5.141   1.420
  534SOL    HW1 2501   1.118   5.117   1.382
  534SOL    HW2 2502   1.195   5.184   1.509
  535SOL     OW 2503   5.273   3.418   3.977
  535SOL    HW1 2504   5.343   3.446   3.911
  535SOL    HW2 2505   5.186   3.460   3.953
  536SOL     OW 2506   6.006   5.944   2.837
  536SOL    HW1 2507   6.017   5.952   2.737
  536SOL    HW2 2508   5.916   5.980   2.863
  537SOL     OW 2509   3.405   1.077   4.573
  537SOL    HW1 2510   3.499   1.087   4.607
  537SOL    HW2 2511   3.403   1.010   4.499
  538SOL     OW 2512   2.762   4.616   5.571
  538SOL    HW1 2513   2.684   4.638   5.630
  538SOL    HW2 2514   2.740   4.537   5.515
  539SOL     OW 2515   1.012   6.420   0.005
  539SOL    HW1 2516   1.092   6.470   6.992
  539SOL    HW2 2517   0.934   6.483   0.011
  540SOL     OW 2518   0.892   0.524   4.189
  540SOL    HW1 2519   0.799   0.504   4.157
  540SOL    HW2 2520   0.955   0.518   4.112
  541SOL     OW 2521   4.442   6.348   4.371
  541SOL    HW1 2522   4.446   6.274   4.305
  541SOL    HW2 2523   4.374   6.415   4.342
  542SOL     OW 2524   3.400   0.123   6.776
  542SOL    HW1 2525   3.326   0.089   6.835
  542SOL    HW2 2526   3.374   0.213   6.740
  543SOL     OW 2527   5.395   2.165   4.304
  543SOL    HW1 2528   5.460   2.143   4.377
  543SOL    HW2 2529   5.445   2.181   4.219
  544SOL     OW 2530   1.217   4.149   1.057
  544SOL    HW1 2531   1.132   4.143   1.004
  544SOL    HW2 2532   1.195   4.152   1.155
  545SOL     OW 2533   5.777   1.324   1.780
  545SOL    HW1 2534   5.797   1.382   1.859
  545SOL    HW2 2535   5.679   1.325   1.762
  546SOL     OW 2536   0.808   3.997   2.609
  546SOL    HW1 2537   0.755   4.018   2.692
  546SOL    HW2 2538   0.864   3.916   2.625
  547SOL     OW 2539   4.441   1.700   6.651
  547SOL    HW1 2540   4.534   1.726   6.677
  547SOL    HW2 2541   4.385   1.781   6.638
  548SOL     OW 2542   3.206   3.050   6.964
  548SOL    HW1 2543   3.151   3.004   6.894
  548SOL    HW2 2544   3.187   3.009   0.033
  549SOL     OW 2545   5.902   2.344   1.062
  549SOL    HW1 2546   5.952   2.421   1.103
  549SOL    HW2 2547   5.835   2.310   1.128
  550SOL     OW 2548   0.025   5.413   3.288
  550SOL    HW1 2549   0.092   5.482   3.315
  550SOL    HW2 2550   0.045   5.327   3.335
  551SOL     OW 2551   6.782   1.263   0.291
  551SOL    HW1 2552   6.719   1.331   0.329
  551SOL    HW2 2553   6.814   1.203   0.364
  552SOL     OW 2554   5.945   5.234   5.598
  552SOL    HW1 2555   5.898   5.280   5.523
  552SOL    HW2 2556   5.955   5.298   5.675
  553SOL     OW 2557   2.942   1.002   5.449
  553SOL    HW1 2558   3.004   0.938   5.494
  553SOL    HW2 2559   2.988   1.044   5.371
  554SOL     OW 2560   5.703   5.475   0.989
  554SOL    HW1 2561   5.667   5.513   1.074
  554SOL    HW2 2562   5.777   5.412   1.009
  555SOL     OW 2563   2.367   5.205   5.477
  555SOL    HW1 2564   2.425   5.206   5.559
  555SOL    HW2 2565   2.271   5.198   5.504
  556SOL     OW 2566   4.917   1.207   3.684
  556SOL    HW1 2567   4.898   1.206   3.586
  556SOL    HW2 2568   4.912   1.114   3.720
  557SOL     OW 2569   6.442   4.660   5.938
  557SOL    HW1 2570   6.496   4.713   5.873
  557SOL    HW2 2571   6.348   4.653   5.906
  558SOL     OW 2572   3.457   3.930   2.464
  558SOL    HW1 2573   3.371   3.920   2.515
  558SOL    HW2 2574   3.485   3.841   2.429
  559SOL     OW 2575   6.445   6.266   5.495
  559SOL    HW1 2576   6.515   6.237   5.561
  559SOL    HW2 2577   6.368   6.306   5.545
  560SOL     OW 2578   6.482   3.317   3.063
  560SOL    HW1 2579   6.557   3.257   3.033
  560SOL    HW2 2580   6.397   3.265   3.064
  561SOL     OW 2581   0.517   2.978   6.386
  561SOL    HW1 2582   0.469   3.011   6.304
  561SOL    HW2 2583   0.566   3.054   6.428
  562SOL     OW 2584   3.943   0.529   5.880
  562SOL    HW1 2585   3.873   0.563   5.816
  562SOL    HW2 2586   3.929   0.432   5.897
  563SOL     OW 2587   1.672   2.137   4.296
  563SOL    HW1 2588   1.620   2.172   4.218
  563SOL    HW2 2589   1.610   2.092   4.360
  564SOL     OW 2590   0.098   2.140   5.092
  564SOL    HW1 2591   0.140   2.189   5.167
  564SOL    HW2 2592   0.036   2.202   5.043
  565SOL     OW 2593   3.747   3.242   3.550
  565SOL    HW1 2594   3.748   3.240   3.649
  565SOL    HW2 2595   3.719   3.333   3.518
  566SOL     OW 2596   3.440   6.141   2.932
  566SOL    HW1 2597   3.496   6.184   3.002
  566SOL    HW2 2598   3.389   6.211   2.881
  567SOL     OW 2599   2.071   3.064   6.583
  567SOL    HW1 2600   2.066   3.110   6.672
  567SOL    HW2 2601   2.022   3.119   6.515
  568SOL     OW 2602   6.760   0.567   0.700
  568SOL    HW1 2603   6.840   0.621   0.725
  568SOL    HW2 2604   6.688   0.579   0.768
  569SOL     OW 2605   0.305   1.753   0.529
  569SOL    HW1 2606   0.361   1.683   0.485
  569SOL    HW2 2607   0.290   1.729   0.625
  570SOL     OW 2608   2.860   0.004   6.057
  570SOL    HW1 2609   2.867   6.927   6.034
  570SOL    HW2 2610   2.805   0.051   5.988
  571SOL     OW 2611   2.552   4.868   3.091
  571SOL    HW1 2612   2.624   4.801   3.070
  571SOL    HW2 2613   2.580   4.922   3.170
  572SOL     OW 2614   2.524   6.683   3.985
  572SOL    HW1 2615   2.543   6.777   3.957
  572SOL    HW2 2616   2.544   6.673   4.082
  573SOL     OW 2617   6.629   2.224   5.751
  573SOL    HW1 2618   6.583   2.209   5.664
  573SOL    HW2 2619   6.712   2.169   5.756
  574SOL     OW 2620   2.864   1.769   5.432
  574SOL    HW1 2621   2.823   1.790   5.520
  574SOL    HW2 2622   2.794   1.772   5.361
  575SOL     OW 2623   3.048   3.562   0.289
  575SOL    HW1 2624   3.079   3.467   0.279
  575SOL    HW2 2625   2.949   3.566   0.283
  576SOL     OW 2626   2.014   3.007   2.855
  576SOL    HW1 2627   1.984   2.933   2.916
  576SOL    HW2 2628   1.989   3.095   2.895
  577SOL     OW 2629   1.030   1.656   1.891
  577SOL    HW1 2630   1.025   1.676   1.793
  577SOL    HW2 2631   1.089   1.576   1.905
  578SOL     OW 2632   1.977   5.404   6.514
  578SOL    HW1 2633   2.055   5.433   6.569
  578SOL    HW2 2634   2.009   5.369   6.426
  579SOL     OW 2635   2.430   4.518   2.350
  579SOL    HW1 2636   2.500   4.569   2.300
  579SOL    HW2 2637   2.467   4.490   2.439
  580SOL     OW 2638   4.264   5.459   5.254
  580SOL    HW1 2639   4.321   5.427   5.179
  580SOL    HW2 2640   4.248   5.558   5.245
  581SOL     OW 2641   1.022   3.007   3.548
  581SOL    HW1 2642   0.969   2.935   3.503
  581SOL    HW2 2643   1.118   2.978   3.555
  582SOL     OW 2644   5.349   5.440   3.358
  582SOL    HW1 2645   5.313   5.388   3.436
  582SOL    HW2 2646   5.276   5.456   3.292
  583SOL     OW 2647   3.320   4.921   5.894
  583SOL    HW1 2648   3.242   4.890   5.950
  583SOL    HW2 2649   3.340   4.851   5.825
  584SOL     OW 2650   3.976   0.706   6.903
  584SOL    HW1 2651   3.926   0.620   6.914
  584SOL    HW2 2652   4.022   0.706   6.814
  585SOL     OW 2653   2.662   6.757   1.889
  585SOL    HW1 2654   2.653   6.669   1.843
  585SOL    HW2 2655   2.737   6.809   1.849
  586SOL     OW 2656   4.284   0.257   1.038
  586SOL    HW1 2657   4.352   0.295   0.974
  586SOL    HW2 2658   4.316   0.169   1.071
  587SOL     OW 2659   5.323   1.944   1.720
  587SOL    HW1 2660   5.398   1.879   1.730
  587SOL    HW2 2661   5.357   2.037   1.738
  588SOL     OW 2662   0.643   5.318   2.123
  588SOL    HW1 2663   0.606   5.375   2.049
  588SOL    HW2 2664   0.690   5.238   2.083
  589SOL     OW 2665   3.434   5.847   1.222
  589SOL    HW1 2666   3.368   5.772   1.225
  589SOL    HW2 2667   3.482   5.854   1.309
  590SOL     OW 2668   5.217   1.308   0.403
  590SOL    HW1 2669   5.229   1.386   0.465
  590SOL    HW2 2670   5.120   1.299   0.380
  591SOL     OW 2671   4.174   5.487   4.020
  591SOL    HW1 2672   4.103   5.509   3.953
  591SOL    HW2 2673   4.259   5.532   3.994
  592SOL     OW 2674   4.282   1.975   4.527
  592SOL    HW1 2675   4.284   1.895   4.587
  592SOL    HW2 2676   4.225   2.046   4.569
  593SOL     OW 2677   3.699   1.832   5.502
  593SOL    HW1 2678   3.720   1.743   5.542
  593SOL    HW2 2679   3.663   1.820   5.410
  594SOL     OW 2680   5.864   1.500   1.586
  594SOL    HW1 2681   5.827   1.440   1.657
  594SOL    HW2 2682   5.846   1.596   1.611
  595SOL     OW 2683   5.209   6.090   2.573
  595SOL    HW1 2684   5.132   6.041   2.613
  595SOL    HW2 2685   5.188   6.188   2.571
  596SOL     OW 2686   6.807   4.027   3.879
  596SOL    HW1 2687   6.808   3.954   3.948
  596SOL    HW2 2688   6.778   3.989   3.791
  597SOL     OW 2689   2.852   0.027   6.740
  597SOL    HW1 2690   2.877   0.123   6.753
  597SOL    HW2 2691   2.806   7.013   6.822
  598SOL     OW 2692   2.871   3.466   5.056
  598SOL    HW1 2693   2.898   3.381   5.011
  598SOL    HW2 2694   2.779   3.456   5.093
  599SOL     OW 2695   1.017   5.923   2.363
  599SOL    HW1 2696   1.048   5.830   2.341
  599SOL    HW2 2697   0.975   5.924   2.453
  600SOL     OW 2698   6.900   4.077   4.862
  600SOL    HW1 2699   6.856   4.167   4.866
  600SOL    HW2 2700   6.864   4.019   4.935
  601SOL     OW 2701   1.563   0.812   5.329
  601SOL    HW1 2702   1.493   0.837   5.396
  601SOL    HW2 2703   1.636   0.761   5.374
  602SOL     OW 2704   3.156   6.464   4.678
  602SOL    HW1 2705   3.150   6.398   4.753
  602SOL    HW2 2706   3.112   6.425   4.597
  603SOL     OW 2707   1.690   1.046   5.324
  603SOL    HW1 2708   1.628   1.115   5.288
  603SOL    HW2 2709   1.650   0.956   5.312
  604SOL     OW 2710   6.751   2.317   1.872
  604SOL    HW1 2711   6.684   2.318   1.947
  604SOL    HW2 2712   6.756   2.225   1.833
  605SOL     OW 2713   0.396   4.456   2.199
  605SOL    HW1 2714   0.380   4.549   2.232
  605SOL    HW2 2715   0.309   4.408   2.192
  606SOL     OW 2716   3.558   0.075   5.059
  606SOL    HW1 2717   3.649   0.108   5.036
  606SOL    HW2 2718   3.520   0.023   4.983
  607SOL     OW 2719   1.084   5.073   5.874
  607SOL    HW1 2720   1.104   5.064   5.971
  607SOL    HW2 2721   1.169   5.076   5.822
  608SOL     OW 2722   3.245   0.270   5.663
  608SOL    HW1 2723   3.235   0.181   5.708
  608SOL    HW2 2724   3.305   0.328   5.717
  609SOL     OW 2725   3.887   2.714   1.475
  609SOL    HW1 2726   3.976   2.732   1.433
  609SOL    HW2 2727   3.877   2.769   1.558
  610SOL     OW 2728   4.682   2.923   0.549
  610SOL    HW1 2729   4.591   2.893   0.520
  610SOL    HW2 2730   4.751   2.864   0.507
  611SOL     OW 2731   3.831   0.388   2.277
  611SOL    HW1 2732   3.872   0.466   2.229
  611SOL    HW2 2733   3.835   0.404   2.376
  612SOL     OW 2734   3.797   4.587   5.848
  612SOL    HW1 2735   3.721   4.541   5.894
  612SOL    HW2 2736   3.811   4.547   5.758
  613SOL     OW 2737   4.708   5.418   5.464
  613SOL    HW1 2738   4.640   5.345   5.454
  613SOL    HW2 2739   4.790   5.381   5.506
  614SOL     OW 2740   5.091   5.739   5.851
  614SOL    HW1 2741   4.994   5.743   5.877
  614SOL    HW2 2742   5.098   5.723   5.753
  615SOL     OW 2743   0.308   4.809   1.234
  615SOL    HW1 2744   0.278   4.749   1.308
  615SOL    HW2 2745   0.229   4.855   1.194
  616SOL     OW 2746   6.005   2.859   3.110
  616SOL    HW1 2747   6.065   2.868   3.189
  616SOL    HW2 2748   6.024   2.773   3.063
  617SOL     OW 2749   2.545   5.246   5.950
  617SOL    HW1 2750   2.520   5.181   6.021
  617SOL    HW2 2751   2.479   5.322   5.951
  618SOL     OW 2752   1.404   1.087   1.856
  618SOL    HW1 2753   1.404   0.999   1.809
  618SOL    HW2 2754   1.437   1.075   1.950
  619SOL     OW 2755   1.447   1.585   6.406
  619SOL    HW1 2756   1.379   1.518   6.377
  619SOL    HW2 2757   1.500   1.616   6.327
  620SOL     OW 2758   4.724   2.798   0.130
  620SOL    HW1 2759   4.627   2.822   0.133
  620SOL    HW2 2760   4.771   2.859   0.066
  621SOL     OW 2761   0.473   4.890   0.089
  621SOL    HW1 2762   0.386   4.934   0.114
  621SOL    HW2 2763   0.545   4.920   0.151
  622SOL     OW 2764   1.841   1.571   0.377
  622SOL    HW1 2765   1.904   1.643   0.404
  622SOL    HW2 2766   1.755   1.612   0.346
  623SOL     OW 2767   1.114   4.770   6.473
  623SOL    HW1 2768   1.093   4.815   6.387
  623SOL    HW2 2769   1.113   4.837   6.547
  624SOL     OW 2770   0.939   3.061   2.487
  624SOL    HW1 2771   0.942   3.015   2.576
  624SOL    HW2 2772   0.981   3.002   2.418
  625SOL     OW 2773   2.593   1.394   2.709
  625SOL    HW1 2774   2.516   1.378   2.647
  625SOL    HW2 2775   2.578   1.342   2.793
  626SOL     OW 2776   2.024   6.615   3.914
  626SOL    HW1 2777   2.091   6.667   3.968
  626SOL    HW2 2778   2.064   6.589   3.826
  627SOL     OW 2779   5.566   0.804   0.013
  627SOL    HW1 2780   5.532   0.851   6.951
  627SOL    HW2 2781   5.616   0.869   0.070
  628SOL     OW 2782   4.910   4.299   4.171
  628SOL    HW1 2783   4.962   4.234   4.115
  628SOL    HW2 2784   4.841   4.249   4.224
  629SOL     OW 2785   0.531   6.868   0.925
  629SOL    HW1 2786   0.608   6.882   0.863
  629SOL    HW2 2787   0.557   6.801   0.995
  630SOL     OW 2788   4.317   1.311   1.169
  630SOL    HW1 2789   4.348   1.382   1.232
  630SOL    HW2 2790   4.322   1.345   1.075
  631SOL     OW 2791   2.231   6.994   5.581
  631SOL    HW1 2792   2.151   6.995   5.521
  631SOL    HW2 2793   2.311   0.003   5.529
  632SOL     OW 2794   2.319   0.900   0.683
  632SOL    HW1 2795   2.376   0.950   0.748
  632SOL    HW2 2796   2.291   0.961   0.609
  633SOL     OW 2797   3.341   6.592   6.976
  633SOL    HW1 2798   3.404   6.611   6.900
  633SOL    HW2 2799   3.357   6.499   7.010
  634SOL     OW 2800   4.100   5.985   0.941
  634SOL    HW1 2801   4.147   5.975   1.029
  634SOL    HW2 2802   4.104   5.898   0.892
  635SOL     OW 2803   2.905   7.000   3.045
  635SOL    HW1 2804   2.930   0.071   3.010
  635SOL    HW2 2805   2.947   6.929   2.989
  636SOL     OW 2806   5.202   5.117   6.346
  636SOL    HW1 2807   5.248   5.105   6.433
  636SOL    HW2 2808   5.147   5.036   6.325
  637SOL     OW 2809   4.751   4.692   1.392
  637SOL    HW1 2810   4.774   4.617   1.454
  637SOL    HW2 2811   4.827   4.708   1.330
  638SOL     OW 2812   4.801   1.150   1.900
  638SOL    HW1 2813   4.721   1.184   1.949
  638SOL    HW2 2814   4.786   1.160   1.802
  639SOL     OW 2815   4.195   4.621   1.916
  639SOL    HW1 2816   4.289   4.591   1.933
  639SOL    HW2 2817   4.144   4.546   1.872
  640SOL     OW 2818   3.059   4.186   5.553
  640SOL    HW1 2819   3.030   4.197   5.457
  640SOL    HW2 2820   3.156   4.207   5.561
  641SOL     OW 2821   6.941   5.928   4.873
  641SOL    HW1 2822   6.855   5.885   4.901
  641SOL    HW2 2823   7.016   5.863   4.881
  642SOL     OW 2824   0.233   4.749   4.878
  642SOL    HW1 2825   0.291   4.827   4.851
  642SOL    HW2 2826   0.155   4.743   4.817
  643SOL     OW 2827   6.059   5.329   6.180
  643SOL    HW1 2828   6.055   5.426   6.155
  643SOL    HW2 2829   6.022   5.274   6.106
  644SOL     OW 2830   1.117   6.319   2.998
  644SOL    HW1 2831   1.133   6.359   3.088
  644SOL    HW2 2832   1.135   6.221   3.001
  645SOL     OW 2833   4.818   2.467   3.880
  645SOL    HW1 2834   4.845   2.434   3.971
  645SOL    HW2 2835   4.758   2.399   3.837
  646SOL     OW 2836   1.065   1.070   4.513
  646SOL    HW1 2837   0.972   1.068   4.478
  646SOL    HW2 2838   1.078   0.997   4.580
  647SOL     OW 2839   6.139   2.442   0.415
  647SOL    HW1 2840   6.208   2.380   0.453
  647SOL    HW2 2841   6.105   2.502   0.487
  648SOL     OW 2842   5.755   4.064   2.117
  648SOL    HW1 2843   5.739   3.975   2.076
  648SOL    HW2 2844   5.695   4.132   2.075
  649SOL     OW 2845   3.908   4.680   1.232
  649SOL    HW1 2846   3.871   4.589   1.253
  649SOL    HW2 2847   3.996   4.691   1.278
  650SOL     OW 2848   4.581   3.871   0.603
  650SOL    HW1 2849   4.592   3.926   0.686
  650SOL    HW2 2850   4.670   3.835   0.575
  651SOL     OW 2851   0.670   6.243   0.925
  651SOL    HW1 2852   0.714   6.227   1.013
  651SOL    HW2 2853   0.700   6.174   0.859
  652SOL     OW 2854   4.495   0.949   2.697
  652SOL    HW1 2855   4.492   0.963   2.796
  652SOL    HW2 2856   4.552   1.020   2.655
  653SOL     OW 2857   3.330   5.270   4.149
  653SOL    HW1 2858   3.333   5.171   4.141
  653SOL    HW2 2859   3.259   5.297   4.214
  654SOL     OW 2860   0.105   4.738   6.718
  654SOL    HW1 2861   0.161   4.741   6.635
  654SOL    HW2 2862   0.010   4.762   6.695
  655SOL     OW 2863   0.777   0.184   1.251
  655SOL    HW1 2864   0.791   0.090   1.218
  655SOL    HW2 2865   0.815   0.193   1.343
  656SOL     OW 2866   2.351   6.410   2.114
  656SOL    HW1 2867   2.263   6.364   2.125
  656SOL    HW2 2868   2.370   6.466   2.195
  657SOL     OW 2869   3.222   1.327   0.619
  657SOL    HW1 2870   3.286   1.396   0.655
  657SOL    HW2 2871   3.194   1.266   0.693
  658SOL     OW 2872   3.137   3.830   0.056
  658SOL    HW1 2873   3.124   3.842   0.155
  658SOL    HW2 2874   3.158   3.734   0.037
  659SOL     OW 2875   3.025   0.183   6.957
  659SOL    HW1 2876   3.097   0.114   6.942
  659SOL    HW2 2877   2.951   0.143   7.011
  660SOL     OW 2878   3.500   5.938   2.597
  660SOL    HW1 2879   3.421   5.956   2.539
  660SOL    HW2 2880   3.470   5.897   2.683
  661SOL     OW 2881   4.417   6.213   2.982
  661SOL    HW1 2882   4.365   6.296   2.962
  661SOL    HW2 2883   4.366   6.133   2.949
  662SOL     OW 2884   3.593   1.541   6.071
  662SOL    HW1 2885   3.539   1.515   6.151
  662SOL    HW2 2886   3.628   1.634   6.084
  663SOL     OW 2887   2.263   5.200   4.860
  663SOL    HW1 2888   2.208   5.275   4.898
  663SOL    HW2 2889   2.315   5.157   4.934
  664SOL     OW 2890   0.099   0.166   6.630
  664SOL    HW1 2891   0.195   0.145   6.646
  664SOL    HW2 2892   0.066   0.230   6.699
  665SOL     OW 2893   3.110   5.230   3.540
  665SOL    HW1 2894   3.121   5.268   3.632
  665SOL    HW2 2895   3.065   5.297   3.481
  666SOL     OW 2896   3.886   0.616   2.148
  666SOL    HW1 2897   3.985   0.615   2.160
  666SOL    HW2 2898   3.861   0.680   2.075
  667SOL     OW 2899   0.648   5.867   2.107
  667SOL    HW1 2900   0.723   5.803   2.090
  667SOL    HW2 2901   0.590   5.832   2.181
  668SOL     OW 2902   5.568   4.512   6.251
  668SOL    HW1 2903   5.601   4.424   6.217
  668SOL    HW2 2904   5.553   4.574   6.173
  669SOL     OW 2905   5.746   1.491   2.714
  669SOL    HW1 2906   5.692   1.443   2.782
  669SOL    HW2 2907   5.753   1.588   2.738
  670SOL     OW 2908   1.653   2.136   3.900
  670SOL    HW1 2909   1.728   2.127   3.834
  670SOL    HW2 2910   1.566   2.138   3.851
  671SOL     OW 2911   2.374   6.400   1.818
  671SOL    HW1 2912   2.321   6.406   1.903
  671SOL    HW2 2913   2.326   6.342   1.753
  672SOL     OW 2914   0.264   6.226   1.997
  672SOL    HW1 2915   0.255   6.135   1.957
  672SOL    HW2 2916   0.349   6.268   1.965
  673SOL     OW 2917   5.512   6.363   0.847
  673SOL    HW1 2918   5.452   6.283   0.855
  673SOL    HW2 2919   5.457   6.446   0.847
  674SOL     OW 2920   6.753   1.598   5.104
  674SOL    HW1 2921   6.726   1.598   5.007
  674SOL    HW2 2922   6.689   1.543   5.156
  675SOL     OW 2923   5.612   2.591   2.263
  675SOL    HW1 2924   5.685   2.607   2.330
  675SOL    HW2 2925   5.645   2.528   2.192
  676SOL     OW 2926   2.376   4.675   5.508
  676SOL    HW1 2927   2.278   4.677   5.527
  676SOL    HW2 2928   2.396   4.596   5.449
  677SOL     OW 2929   4.691   0.987   1.112
  677SOL    HW1 2930   4.689   1.065   1.050
  677SOL    HW2 2931   4.605   0.983   1.163
  678SOL     OW 2932   2.305   4.286   5.631
  678SOL    HW1 2933   2.360   4.352   5.579
  678SOL    HW2 2934   2.310   4.197   5.586
  679SOL     OW 2935   5.364   1.175   5.321
  679SOL    HW1 2936   5.343   1.121   5.403
  679SOL    HW2 2937   5.280   1.214   5.285
  680SOL     OW 2938   5.435   0.221   4.128
  680SOL    HW1 2939   5.479   0.203   4.216
  680SOL    HW2 2940   5.502   0.214   4.054
  681SOL     OW 2941   5.270   6.316   2.041
  681SOL    HW1 2942   5.273   6.311   2.141
  681SOL    HW2 2943   5.203   6.251   2.007
  682SOL     OW 2944   1.086   0.709   2.452
  682SOL    HW1 2945   1.123   0.654   2.377
  682SOL    HW2 2946   0.997   0.674   2.479
  683SOL     OW 2947   4.203   3.501   1.134
  683SOL    HW1 2948   4.245   3.581   1.093
  683SOL    HW2 2949   4.182   3.434   1.063
  684SOL     OW 2950   6.178   0.610   6.377
  684SOL    HW1 2951   6.080   0.627   6.363
  684SOL    HW2 2952   6.192   0.512   6.393
  685SOL     OW 2953   3.357   1.301   3.728
  685SOL    HW1 2954   3.369   1.364   3.651
  685SOL    HW2 2955   3.286   1.337   3.789
  686SOL     OW 2956   4.258   1.267   4.312
  686SOL    HW1 2957   4.218   1.177   4.328
  686SOL    HW2 2958   4.347   1.256   4.267
  687SOL     OW 2959   1.011   1.923   4.330
  687SOL    HW1 2960   0.967   2.011   4.313
  687SOL    HW2 2961   0.984   1.889   4.420
  688SOL     OW 2962   6.932   1.549   6.707
  688SOL    HW1 2963   6.989   1.535   6.626
  688SOL    HW2 2964   6.982   1.605   6.773
  689SOL     OW 2965   1.110   5.174   5.617
  689SOL    HW1 2966   1.059   5.088   5.615
  689SOL    HW2 2967   1.097   5.219   5.705
  690SOL     OW 2968   6.034   3.694   2.792
  690SOL    HW1 2969   6.126   3.678   2.757
  690SOL    HW2 2970   6.021   3.643   2.877
  691SOL     OW 2971   4.039   1.790   6.840
  691SOL    HW1 2972   4.027   1.842   6.756
  691SOL    HW2 2973   3.966   1.814   6.905
  692SOL     OW 2974   3.223   1.636   5.168
  692SOL    HW1 2975   3.236   1.582   5.251
  692SOL    HW2 2976   3.230   1.733   5.190
  693SOL     OW 2977   5.001   6.051   3.249
  693SOL    HW1 2978   5.021   6.131   3.306
  693SOL    HW2 2979   4.902   6.043   3.238
  694SOL     OW 2980   3.924   5.995   4.764
  694SOL    HW1 2981   4.023   5.987   4.764
  694SOL    HW2 2982   3.898   6.091   4.753
  695SOL     OW 2983   3.132   6.062   3.849
  695SOL    HW1 2984   3.065   6.045   3.921
  695SOL    HW2 2985   3.219   6.089   3.890
  696SOL     OW 2986   4.870   3.861   3.220
  696SOL    HW1 2987   4.932   3.827   3.291
  696SOL    HW2 2988   4.879   3.804   3.138
  697SOL     OW 2989   0.924   4.413   2.012
  697SOL    HW1 2990   0.921   4.473   2.092
  697SOL    HW2 2991   0.839   4.422   1.960
  698SOL     OW 2992   4.542   0.055   1.505
  698SOL    HW1 2993   4.522   0.046   1.407
  698SOL    HW2 2994   4.530   6.986   1.550
  699SOL     OW 2995   2.925   2.359   0.529
  699SOL    HW1 2996   2.947   2.311   0.444
  699SOL    HW2 2997   2.899   2.453   0.508
  700SOL     OW 2998   3.192   0.023   2.845
  700SOL    HW1 2999   3.248   0.010   2.927
  700SOL    HW2 3000   3.176   0.120   2.830
  701SOL     OW 3001   6.427   4.506   1.105
  701SOL    HW1 3002   6.369   4.579   1.066
  701SOL    HW2 3003   6.370   4.441   1.155
  702SOL     OW 3004   2.826   1.180   4.407
  702SOL    HW1 3005   2.892   1.242   4.364
  702SOL    HW2 3006   2.867   1.089   4.417
  703SOL     OW 3007   2.833   2.926   5.863
  703SOL    HW1 3008   2.872   2.993   5.800
  703SOL    HW2 3009   2.800   2.847   5.812
  704SOL     OW 3010   1.332   2.765   6.278
  704SOL    HW1 3011   1.326   2.769   6.178
  704SOL    HW2 3012   1.372   2.850   6.312
  705SOL     OW 3013   6.938   6.014   4.008
  705SOL    HW1 3014   6.841   6.011   4.035
  705SOL    HW2 3015   6.952   5.955   3.929
  706SOL     OW 3016   4.139   0.868   5.478
  706SOL    HW1 3017   4.123   0.882   5.575
  706SOL    HW2 3018   4.161   0.955   5.435
  707SOL     OW 3019   3.591   5.032   3.707
  707SOL    HW1 3020   3.661   5.062   3.771
  707SOL    HW2 3021   3.595   5.088   3.624
  708SOL     OW 3022   2.758   0.634   3.344
  708SOL    HW1 3023   2.666   0.644   3.307
  708SOL    HW2 3024   2.781   0.537   3.350
  709SOL     OW 3025   2.088   0.122   1.645
  709SOL    HW1 3026   2.009   0.137   1.587
  709SOL    HW2 3027   2.061   0.066   1.724
  710SOL     OW 3028   4.918   2.922   1.599
  710SOL    HW1 3029   4.834   2.876   1.573
  710SOL    HW2 3030   4.898   2.991   1.669
  711SOL     OW 3031   0.409   2.595   5.640
  711SOL    HW1 3032   0.315   2.629   5.644
  711SOL    HW2 3033   0.472   2.672   5.637
  712SOL     OW 3034   4.240   2.659   1.007
  712SOL    HW1 3035   4.295   2.608   0.940
  712SOL    HW2 3036   4.280   2.749   1.021
  713SOL     OW 3037   3.917   2.832   5.219
  713SOL    HW1 3038   3.995   2.772   5.234
  713SOL    HW2 3039   3.848   2.784   5.165
  714SOL     OW 3040   6.092   4.463   3.297
  714SOL    HW1 3041   6.142   4.428   3.218
  714SOL    HW2 3042   6.151   4.524   3.350
  715SOL     OW 3043   6.394   5.295   5.538
  715SOL    HW1 3044   6.327   5.297   5.612
  715SOL    HW2 3045   6.477   5.344   5.566
  716SOL     OW 3046   2.038   1.031   2.526
  716SOL    HW1 3047   2.115   0.971   2.502
  716SOL    HW2 3048   2.072   1.121   2.553
  717SOL     OW 3049   5.373   5.097   3.537
  717SOL    HW1 3050   5.436   5.171   3.560
  717SOL    HW2 3051   5.393   5.018   3.595
  718SOL     OW 3052   5.179   1.856   4.282
  718SOL    HW1 3053   5.098   1.808   4.247
  718SOL    HW2 3054   5.177   1.951   4.251
  719SOL     OW 3055   6.575   0.590   2.908
  719SOL    HW1 3056   6.557   0.555   2.816
  719SOL    HW2 3057   6.643   0.663   2.902
  720SOL     OW 3058   1.869   1.015   6.611
  720SOL    HW1 3059   1.842   0.926   6.648
  720SOL    HW2 3060   1.793   1.055   6.562
  721SOL     OW 3061   0.323   2.630   2.448
  721SOL    HW1 3062   0.345   2.726   2.463
  721SOL    HW2 3063   0.237   2.607   2.492
  722SOL     OW 3064   4.122   0.175   6.779
  722SOL    HW1 3065   4.218   0.195   6.757
  722SOL    HW2 3066   4.066   0.190   6.698
  723SOL     OW 3067   2.108   6.333   3.536
  723SOL    HW1 3068   2.191   6.288   3.569
  723SOL    HW2 3069   2.028   6.280   3.563
  724SOL     OW 3070   1.005   1.232   3.566
  724SOL    HW1 3071   1.037   1.280   3.484
  724SOL    HW2 3072   1.029   1.286   3.647
  725SOL     OW 3073   2.198   4.659   2.388
  725SOL    HW1 3074   2.290   4.622   2.381
  725SOL    HW2 3075   2.203   4.755   2.416
  726SOL     OW 3076   2.278   5.173   0.412
  726SOL    HW1 3077   2.183   5.205   0.407
  726SOL    HW2 3078   2.324   5.218   0.488
  727SOL     OW 3079   4.315   5.186   5.978
  727SOL    HW1 3080   4.357   5.252   6.040
  727SOL    HW2 3081   4.238   5.141   6.024
  728SOL     OW 3082   0.122   3.418   4.692
  728SOL    HW1 3083   0.143   3.396   4.787
  728SOL    HW2 3084   0.049   3.357   4.659
  729SOL     OW 3085   0.197   3.189   1.048
  729SOL    HW1 3086   0.118   3.250   1.039
  729SOL    HW2 3087   0.257   3.223   1.120
  730SOL     OW 3088   4.445   0.749   3.006
  730SOL    HW1 3089   4.537   0.732   3.041
  730SOL    HW2 3090   4.435   0.847   2.987
  731SOL     OW 3091   4.554   4.451   6.885
  731SOL    HW1 3092   4.479   4.411   6.832
  731SOL    HW2 3093   4.641   4.414   6.853
  732SOL     OW 3094   4.937   1.560   2.816
  732SOL    HW1 3095   4.950   1.634   2.882
  732SOL    HW2 3096   4.842   1.559   2.785
  733SOL     OW 3097   5.570   6.336   3.285
  733SOL    HW1 3098   5.607   6.340   3.192
  733SOL    HW2 3099   5.604   6.253   3.330
  734SOL     OW 3100   6.164   5.009   2.697
  734SOL    HW1 3101   6.260   5.038   2.699
  734SOL    HW2 3102   6.115   5.048   2.775
  735SOL     OW 3103   5.899   0.551   1.798
  735SOL    HW1 3104   5.993   0.568   1.769
  735SOL    HW2 3105   5.888   0.581   1.893
  736SOL     OW 3106   1.463   1.168   4.372
  736SOL    HW1 3107   1.482   1.240   4.306
  736SOL    HW2 3108   1.409   1.204   4.448
  737SOL     OW 3109   5.987   1.297   6.314
  737SOL    HW1 3110   6.049   1.374   6.304
  737SOL    HW2 3111   6.039   1.212   6.313
  738SOL     OW 3112   2.565   4.136   1.230
  738SOL    HW1 3113   2.498   4.130   1.156
  738SOL    HW2 3114   2.522   4.180   1.310
  739SOL     OW 3115   2.783   6.925   5.171
  739SOL    HW1 3116   2.868   6.927   5.222
  739SOL    HW2 3117   2.766   7.015   5.130
  740SOL     OW 3118   5.814   2.269   2.777
  740SOL    HW1 3119   5.810   2.247   2.875
  740SOL    HW2 3120   5.722   2.261   2.738
  741SOL     OW 3121   2.474   0.566   4.180
  741SOL    HW1 3122   2.516   0.599   4.096
  741SOL    HW2 3123   2.376   0.553   4.165
  742SOL     OW 3124   1.577   6.380   0.567
  742SOL    HW1 3125   1.540   6.302   0.516
  742SOL    HW2 3126   1.548   6.375   0.662
  743SOL     OW 3127   1.015   6.664   3.955
  743SOL    HW1 3128   0.993   6.579   3.908
  743SOL    HW2 3129   0.958   6.738   3.918
  744SOL     OW 3130   5.633   1.364   0.469
  744SOL    HW1 3131   5.536   1.381   0.486
  744SOL    HW2 3132   5.653   1.267   0.481
  745SOL     OW 3133   2.459   5.537   4.896
  745SOL    HW1 3134   2.400   5.584   4.830
  745SOL    HW2 3135   2.538   5.498   4.848
  746SOL     OW 3136   5.670   4.412   5.001
  746SOL    HW1 3137   5.611   4.332   5.005
  746SOL    HW2 3138   5.641   4.471   4.925
  747SOL     OW 3139   5.373   5.252   3.007
  747SOL    HW1 3140   5.374   5.179   2.939
  747SOL    HW2 3141   5.461   5.299   3.007
  748SOL     OW 3142   5.397   5.777   2.366
  748SOL    HW1 3143   5.462   5.760   2.441
  748SOL    HW2 3144   5.307   5.742   2.392
  749SOL     OW 3145   4.955   4.247   3.540
  749SOL    HW1 3146   5.020   4.271   3.612
  749SOL    HW2 3147   4.863   4.241   3.580
  750SOL     OW 3148   2.456   1.788   1.610
  750SOL    HW1 3149   2.379   1.827   1.661
  750SOL    HW2 3150   2.422   1.719   1.547
  751SOL     OW 3151   4.627   1.494   0.386
  751SOL    HW1 3152   4.671   1.430   0.323
  751SOL    HW2 3153   4.648   1.588   0.358
  752SOL     OW 3154   3.409   2.441   5.367
  752SOL    HW1 3155   3.440   2.534   5.351
  752SOL    HW2 3156   3.345   2.414   5.294
  753SOL     OW 3157   3.821   3.764   5.291
  753SOL    HW1 3158   3.906   3.800   5.329
  753SOL    HW2 3159   3.841   3.686   5.232
  754SOL     OW 3160   5.609   0.606   6.552
  754SOL    HW1 3161   5.627   0.573   6.459
  754SOL    HW2 3162   5.618   0.529   6.616
  755SOL     OW 3163   2.976   4.292   5.296
  755SOL    HW1 3164   3.048   4.235   5.257
  755SOL    HW2 3165   2.975   4.381   5.249
  756SOL     OW 3166   2.631   5.491   6.802
  756SOL    HW1 3167   2.728   5.493   6.822
  756SOL    HW2 3168   2.596   5.584   6.792
  757SOL     OW 3169   1.909   6.647   2.219
  757SOL    HW1 3170   1.975   6.675   2.149
  757SOL    HW2 3171   1.889   6.550   2.210
  758SOL     OW 3172   3.957   1.330   4.297
  758SOL    HW1 3173   4.024   1.400   4.322
  758SOL    HW2 3174   3.953   1.261   4.369
  759SOL     OW 3175   0.474   3.399   3.853
  759SOL    HW1 3176   0.453   3.387   3.950
  759SOL    HW2 3177   0.574   3.399   3.840
  760SOL     OW 3178   0.221   0.114   3.748
  760SOL    HW1 3179   0.126   0.090   3.768
  760SOL    HW2 3180   0.246   0.079   3.658
  761SOL     OW 3181   5.212   3.852   5.424
  761SOL    HW1 3182   5.133   3.842   5.485
  761SOL    HW2 3183   5.213   3.945   5.387
  762SOL     OW 3184   2.799   5.910   5.534
  762SOL    HW1 3185   2.797   5.844   5.609
  762SOL    HW2 3186   2.886   5.959   5.536
  763SOL     OW 3187   5.994   0.513   0.069
  763SOL    HW1 3188   5.952   0.423   0.059
  763SOL    HW2 3189   5.938   0.581   0.021
  764SOL     OW 3190   5.628   0.086   5.363
  764SOL    HW1 3191   5.563   0.107   5.291
  764SOL    HW2 3192   5.721   0.102   5.330
  765SOL     OW 3193   0.754   6.609   1.069
  765SOL    HW1 3194   0.685   6.609   1.142
  765SOL    HW2 3195   0.709   6.591   0.981
  766SOL     OW 3196   1.753   2.192   5.035
  766SOL    HW1 3197   1.684   2.264   5.040
  766SOL    HW2 3198   1.792   2.191   4.943
  767SOL     OW 3199   6.990   6.942   4.187
  767SOL    HW1 3200   6.908   6.994   4.166
  767SOL    HW2 3201   0.042   6.965   4.121
  768SOL     OW 3202   2.307   6.004   2.304
  768SOL    HW1 3203   2.400   6.040   2.291
  768SOL    HW2 3204   2.246   6.078   2.331
  769SOL     OW 3205   3.133   1.729   4.871
  769SOL    HW1 3206   3.071   1.756   4.945
  769SOL    HW2 3207   3.090   1.748   4.783
  770SOL     OW 3208   2.400   4.761   4.330
  770SOL    HW1 3209   2.335   4.702   4.378
  770SOL    HW2 3210   2.360   4.789   4.243
  771SOL     OW 3211   1.314   5.418   2.550
  771SOL    HW1 3212   1.244   5.375   2.493
  771SOL    HW2 3213   1.292   5.514   2.563
  772SOL     OW 3214   4.933   5.042   6.640
  772SOL    HW1 3215   4.977   5.099   6.570
  772SOL    HW2 3216   4.978   5.058   6.728
  773SOL     OW 3217   0.947   3.528   3.734
  773SOL    HW1 3218   1.004   3.553   3.812
  773SOL    HW2 3219   0.961   3.432   3.712
  774SOL     OW 3220   1.772   1.853   3.498
  774SOL    HW1 3221   1.776   1.812   3.589
  774SOL    HW2 3222   1.777   1.781   3.428
  775SOL     OW 3223   2.259   4.062   3.942
  775SOL    HW1 3224   2.286   4.057   3.846
  775SOL    HW2 3225   2.218   3.976   3.970
  776SOL     OW 3226   1.339   6.803   6.418
  776SOL    HW1 3227   1.433   6.815   6.449
  776SOL    HW2 3228   1.334   6.814   6.318
  777SOL     OW 3229   1.903   3.649   6.948
  777SOL    HW1 3230   1.898   3.606   0.019
  777SOL    HW2 3231   1.980   3.713   6.947
  778SOL     OW 3232   3.501   6.602   1.661
  778SOL    HW1 3233   3.530   6.646   1.576
  778SOL    HW2 3234   3.577   6.549   1.699
  779SOL     OW 3235   0.218   2.623   2.125
  779SOL    HW1 3236   0.144   2.555   2.128
  779SOL    HW2 3237   0.293   2.592   2.184
  780SOL     OW 3238   1.584   1.936   5.024
  780SOL    HW1 3239   1.640   2.019   5.020
  780SOL    HW2 3240   1.640   1.857   5.000
  781SOL     OW 3241   0.739   4.225   0.661
  781SOL    HW1 3242   0.697   4.185   0.580
  781SOL    HW2 3243   0.687   4.197   0.742
  782SOL     OW 3244   1.836   3.858   6.221
  782SOL    HW1 3245   1.846   3.771   6.173
  782SOL    HW2 3246   1.915   3.916   6.203
  783SOL     OW 3247   5.352   4.362   6.764
  783SOL    HW1 3248   5.280   4.427   6.789
  783SOL    HW2 3249   5.357   4.354   6.664
  784SOL     OW 3250   3.436   6.195   1.473
  784SOL    HW1 3251   3.481   6.155   1.393
  784SOL    HW2 3252   3.392   6.281   1.447
  785SOL     OW 3253   0.705   0.247   4.317
  785SOL    HW1 3254   0.644   0.217   4.243
  785SOL    HW2 3255   0.785   0.189   4.320
  786SOL     OW 3256   6.486   1.598   3.449
  786SOL    HW1 3257   6.402   1.623   3.402
  786SOL    HW2 3258   6.560   1.584   3.382
  787SOL     OW 3259   2.502   6.984   0.018
  787SOL    HW1 3260   2.485   0.061   0.037
  787SOL    HW2 3261   2.464   6.928   0.091
  788SOL     OW 3262   3.789   3.212   1.208
  788SOL    HW1 3263   3.820   3.130   1.258
  788SOL    HW2 3264   3.805   3.292   1.265
  789SOL     OW 3265   4.380   5.672   1.493
  789SOL    HW1 3266   4.453   5.606   1.507
  789SOL    HW2 3267   4.419   5.762   1.476
  790SOL     OW 3268   0.368   3.157   2.177
  790SOL    HW1 3269   0.361   3.061   2.203
  790SOL    HW2 3270   0.426   3.166   2.096
  791SOL     OW 3271   3.105   5.057   5.272
  791SOL    HW1 3272   3.115   5.152   5.242
  791SOL    HW2 3273   3.008   5.038   5.287
  792SOL     OW 3274   1.066   1.093   1.025
  792SOL    HW1 3275   0.992   1.071   0.962
  792SOL    HW2 3276   1.151   1.051   0.992
  793SOL     OW 3277   3.900   5.639   3.485
  793SOL    HW1 3278   3.906   5.548   3.444
  793SOL    HW2 3279   3.868   5.632   3.580
  794SOL     OW 3280   3.112   3.135   3.823
  794SOL    HW1 3281   3.160   3.062   3.774
  794SOL    HW2 3282   3.078   3.202   3.757
  795SOL     OW 3283   3.918   1.113   6.520
  795SOL    HW1 3284   3.857   1.067   6.455
  795SOL    HW2 3285   3.965   1.188   6.474
  796SOL     OW 3286   1.835   3.272   6.611
  796SOL    HW1 3287   1.854   3.355   6.664
  796SOL    HW2 3288   1.878   3.279   6.522
  797SOL     OW 3289   4.869   0.134   0.144
  797SOL    HW1 3290   4.839   0.146   0.049
  797SOL    HW2 3291   4.817   0.060   0.186
  798SOL     OW 3292   3.826   6.399   1.054
  798SOL    HW1 3293   3.727   6.406   1.044
  798SOL    HW2 3294   3.862   6.334   0.987
  799SOL     OW 3295   1.342   1.666   6.668
  799SOL    HW1 3296   1.248   1.658   6.636
  799SOL    HW2 3297   1.403   1.618   6.605
  800SOL     OW 3298   6.434   1.942   1.965
  800SOL    HW1 3299   6.508   1.909   2.024
  800SOL    HW2 3300   6.460   2.029   1.924
  801SOL     OW 3301   2.106   5.259   5.525
  801SOL    HW1 3302   2.052   5.281   5.606
  801SOL    HW2 3303   2.056   5.287   5.443
  802SOL     OW 3304   5.326   2.543   0.325
  802SOL    HW1 3305   5.382   2.461   0.316
  802SOL    HW2 3306   5.344   2.605   0.249
  803SOL     OW 3307   2.706   1.139   5.486
  803SOL    HW1 3308   2.653   1.082   5.423
  803SOL    HW2 3309   2.803   1.131   5.465
  804SOL     OW 3310   6.411   0.572   1.555
  804SOL    HW1 3311   6.445   0.532   1.640
  804SOL    HW2 3312   6.475   0.642   1.523
  805SOL     OW 3313   2.984   1.252   4.016
  805SOL    HW1 3314   2.932   1.168   4.002
  805SOL    HW2 3315   2.982   1.277   4.113
  806SOL     OW 3316   1.290   6.602   5.374
  806SOL    HW1 3317   1.361   6.619   5.442
  806SOL    HW2 3318   1.333   6.582   5.285
  807SOL     OW 3319   0.360   6.332   5.147
  807SOL    HW1 3320   0.273   6.379   5.132
  807SOL    HW2 3321   0.407   6.320   5.060
  808SOL     OW 3322   5.578   3.082   0.475
  808SOL    HW1 3323   5.532   2.993   0.465
  808SOL    HW2 3324   5.588   3.124   0.385
  809SOL     OW 3325   1.000   5.321   0.292
  809SOL    HW1 3326   0.909   5.360   0.276
  809SOL    HW2 3327   1.069   5.383   0.256
  810SOL     OW 3328   2.698   3.379   0.253
  810SOL    HW1 3329   2.714   3.430   0.337
  810SOL    HW2 3330   2.759   3.300   0.250
  811SOL     OW 3331   5.555   5.106   4.570
  811SOL    HW1 3332   5.581   5.202   4.573
  811SOL    HW2 3333   5.542   5.078   4.475
  812SOL     OW 3334   0.581   2.286   2.324
  812SOL    HW1 3335   0.577   2.289   2.225
  812SOL    HW2 3336   0.494   2.255   2.361
  813SOL     OW 3337   1.489   1.507   4.813
  813SOL    HW1 3338   1.404   1.463   4.783
  813SOL    HW2 3339   1.480   1.606   4.806
  814SOL     OW 3340   0.652   5.854   3.270
  814SOL    HW1 3341   0.573   5.792   3.269
  814SOL    HW2 3342   0.673   5.883   3.177
  815SOL     OW 3343   5.060   2.090   4.142
  815SOL    HW1 3344   4.984   2.103   4.206
  815SOL    HW2 3345   5.104   2.178   4.123
  816SOL     OW 3346   5.205   3.252   0.494
  816SOL    HW1 3347   5.208   3.170   0.552
  816SOL    HW2 3348   5.271   3.319   0.527
  817SOL     OW 3349   1.480   5.348   0.633
  817SOL    HW1 3350   1.500   5.261   0.679
  817SOL    HW2 3351   1.500   5.424   0.694
  818SOL     OW 3352   5.725   2.963   3.651
  818SOL    HW1 3353   5.627   2.952   3.669
  818SOL    HW2 3354   5.758   2.883   3.601
  819SOL     OW 3355   5.057   2.355   1.714
  819SOL    HW1 3356   5.140   2.312   1.679
  819SOL    HW2 3357   5.080   2.411   1.794
  820SOL     OW 3358   2.125   1.739   4.812
  820SOL    HW1 3359   2.064   1.817   4.826
  820SOL    HW2 3360   2.198   1.740   4.880
  821SOL     OW 3361   5.627   3.973   5.376
  821SOL    HW1 3362   5.643   3.948   5.472
  821SOL    HW2 3363   5.593   3.893   5.326
  822SOL     OW 3364   0.982   4.373   3.781
  822SOL    HW1 3365   0.994   4.289   3.834
  822SOL    HW2 3366   0.969   4.450   3.844
  823SOL     OW 3367   0.748   3.672   6.079
  823SOL    HW1 3368   0.717   3.580   6.055
  823SOL    HW2 3369   0.809   3.667   6.158
  824SOL     OW 3370   5.809   1.026   5.180
  824SOL    HW1 3371   5.811   0.927   5.168
  824SOL    HW2 3372   5.848   1.050   5.269
  825SOL     OW 3373   6.599   6.103   0.963
  825SOL    HW1 3374   6.622   6.178   1.025
  825SOL    HW2 3375   6.678   6.084   0.904
  826SOL     OW 3376   3.858   1.352   5.776
  826SOL    HW1 3377   3.934   1.292   5.751
  826SOL    HW2 3378   3.790   1.300   5.827
  827SOL     OW 3379   3.333   3.873   4.270
  827SOL    HW1 3380   3.403   3.802   4.273
  827SOL    HW2 3381   3.261   3.852   4.337
  828SOL     OW 3382   5.954   5.804   4.569
  828SOL    HW1 3383   5.856   5.801   4.584
  828SOL    HW2 3384   5.981   5.727   4.511
  829SOL     OW 3385   3.454   2.872   3.349
  829SOL    HW1 3386   3.375   2.931   3.364
  829SOL    HW2 3387   3.423   2.784   3.313
  830SOL     OW 3388   6.746   4.511   6.946
  830SOL    HW1 3389   6.697   4.464   7.019
  830SOL    HW2 3390   6.804   4.583   6.985
  831SOL     OW 3391   5.388   6.349   1.251
  831SOL    HW1 3392   5.351   6.297   1.328
  831SOL    HW2 3393   5.480   6.317   1.230
  832SOL     OW 3394   3.386   1.878   4.987
  832SOL    HW1 3395   3.353   1.915   5.074
  832SOL    HW2 3396   3.323   1.806   4.956
  833SOL     OW 3397   1.716   3.403   6.132
  833SOL    HW1 3398   1.680   3.446   6.049
  833SOL    HW2 3399   1.785   3.463   6.173
  834SOL     OW 3400   4.741   3.910   6.887
  834SOL    HW1 3401   4.814   3.906   6.819
  834SOL    HW2 3402   4.703   3.818   6.901
  835SOL     OW 3403   1.196   0.358   3.948
  835SOL    HW1 3404   1.211   0.430   4.015
  835SOL    HW2 3405   1.113   0.307   3.971
  836SOL     OW 3406   3.405   1.321   5.591
  836SOL    HW1 3407   3.414   1.235   5.642
  836SOL    HW2 3408   3.350   1.304   5.509
  837SOL     OW 3409   1.329   0.268   0.806
  837SOL    HW1 3410   1.335   0.353   0.858
  837SOL    HW2 3411   1.369   0.194   0.860
  838SOL     OW 3412   2.069   5.597   3.757
  838SOL    HW1 3413   2.155   5.628   3.717
  838SOL    HW2 3414   1.993   5.627   3.700
  839SOL     OW 3415   1.603   1.535   1.252
  839SOL    HW1 3416   1.622   1.491   1.339
  839SOL    HW2 3417   1.629   1.632   1.257
  840SOL     OW 3418   5.736   5.321   0.294
  840SOL    HW1 3419   5.821   5.298   0.341
  840SOL    HW2 3420   5.753   5.330   0.196
  841SOL     OW 3421   3.791   4.754   5.274
  841SOL    HW1 3422   3.744   4.831   5.232
  841SOL    HW2 3423   3.841   4.786   5.355
  842SOL     OW 3424   2.955   0.334   0.298
  842SOL    HW1 3425   2.900   0.399   0.349
  842SOL    HW2 3426   3.014   0.283   0.361
  843SOL     OW 3427   1.429   1.663   1.799
  843SOL    HW1 3428   1.518   1.620   1.783
  843SOL    HW2 3429   1.440   1.763   1.805
  844SOL     OW 3430   6.823   0.070   1.096
  844SOL    HW1 3431   6.790   0.136   1.029
  844SOL    HW2 3432   6.849   0.117   1.180
  845SOL     OW 3433   3.381   1.646   2.654
  845SOL    HW1 3434   3.401   1.655   2.556
  845SOL    HW2 3435   3.295   1.693   2.674
  846SOL     OW 3436   2.438   1.684   0.240
  846SOL    HW1 3437   2.504   1.707   0.311
  846SOL    HW2 3438   2.478   1.617   0.178
  847SOL     OW 3439   2.610   3.630   1.506
  847SOL    HW1 3440   2.538   3.643   1.573
  847SOL    HW2 3441   2.575   3.576   1.429
  848SOL     OW 3442   6.567   6.548   6.115
  848SOL    HW1 3443   6.571   6.593   6.026
  848SOL    HW2 3444   6.501   6.473   6.112
  849SOL     OW 3445   5.833   3.819   0.093
  849SOL    HW1 3446   5.906   3.801   0.027
  849SOL    HW2 3447   5.767   3.882   0.053
  850SOL     OW 3448   6.981   0.741   5.398
  850SOL    HW1 3449   0.016   0.767   5.319
  850SOL    HW2 3450   6.884   0.758   5.379
  851SOL     OW 3451   6.510   3.102   6.366
  851SOL    HW1 3452   6.609   3.090   6.356
  851SOL    HW2 3453   6.466   3.012   6.367
  852SOL     OW 3454   0.009   3.798   1.826
  852SOL    HW1 3455   6.948   3.832   1.779
  852SOL    HW2 3456   0.033   3.707   1.792
  853SOL     OW 3457   1.915   4.134   0.220
  853SOL    HW1 3458   1.830   4.184   0.213
  853SOL    HW2 3459   1.992   4.198   0.225
  854SOL     OW 3460   6.411   6.262   6.845
  854SOL    HW1 3461   6.408   6.173   6.799
  854SOL    HW2 3462   6.507   6.287   6.861
  855SOL     OW 3463   7.013   1.056   0.168
  855SOL    HW1 3464   6.963   0.970   0.181
  855SOL    HW2 3465   6.948   1.133   0.169
  856SOL     OW 3466   2.148   6.585   6.580
  856SOL    HW1 3467   2.095   6.524   6.639
  856SOL    HW2 3468   2.168   6.670   6.628
  857SOL     OW 3469   0.070   4.890   3.989
  857SOL    HW1 3470   0.104   4.805   3.948
  857SOL    HW2 3471   7.014   4.925   3.933
  858SOL     OW 3472   3.869   3.968   0.590
  858SOL    HW1 3473   3.962   4.001   0.577
  858SOL    HW2 3474   3.866   3.907   0.670
  859SOL     OW 3475   3.946   6.975   5.151
  859SOL    HW1 3476   3.979   0.046   5.126
  859SOL    HW2 3477   4.012   6.931   5.211
  860SOL     OW 3478   5.113   2.705   5.339
  860SOL    HW1 3479   5.179   2.724   5.412
  860SOL    HW2 3480   5.021   2.721   5.373
  861SOL     OW 3481   1.970   5.782   2.968
  861SOL    HW1 3482   1.983   5.736   3.056
  861SOL    HW2 3483   1.997   5.721   2.894
  862SOL     OW 3484   1.687   4.598   3.737
  862SOL    HW1 3485   1.776   4.578   3.778
  862SOL    HW2 3486   1.620   4.533   3.771
  863SOL     OW 3487   0.062   0.367   5.915
  863SOL    HW1 3488   0.110   0.312   5.984
  863SOL    HW2 3489   6.985   0.342   5.913
  864SOL     OW 3490   4.996   6.977   5.193
  864SOL    HW1 3491   5.073   6.969   5.129
  864SOL    HW2 3492   4.970   0.053   5.202
  865SOL     OW 3493   1.981   5.708   4.640
  865SOL    HW1 3494   2.025   5.787   4.598
  865SOL    HW2 3495   1.975   5.634   4.574
  866SOL     OW 3496   2.380   6.660   1.877
  866SOL    HW1 3497   2.411   6.565   1.882
  866SOL    HW2 3498   2.459   6.721   1.877
  867SOL     OW 3499   5.665   2.009   0.558
  867SOL    HW1 3500   5.651   1.931   0.498
  867SOL    HW2 3501   5.704   1.979   0.645
  868SOL     OW 3502   6.841   2.557   1.936
  868SOL    HW1 3503   6.847   2.556   2.036
  868SOL    HW2 3504   6.803   2.470   1.904
  869SOL     OW 3505   0.117   3.843   4.222
  869SOL    HW1 3506   0.066   3.919   4.184
  869SOL    HW2 3507   0.155   3.870   4.311
  870SOL     OW 3508   3.264   5.050   1.406
  870SOL    HW1 3509   3.269   5.000   1.493
  870SOL    HW2 3510   3.301   4.993   1.333
  871SOL     OW 3511   4.822   1.511   3.588
  871SOL    HW1 3512   4.852   1.587   3.646
  871SOL    HW2 3513   4.875   1.429   3.611
  872SOL     OW 3514   6.717   2.478   4.413
  872SOL    HW1 3515   6.787   2.547   4.396
  872SOL    HW2 3516   6.635   2.500   4.360
  873SOL     OW 3517   4.062   6.587   5.314
  873SOL    HW1 3518   4.030   6.501   5.276
  873SOL    HW2 3519   4.147   6.614   5.268
  874SOL     OW 3520   5.497   3.855   0.260
  874SOL    HW1 3521   5.523   3.765   0.225
  874SOL    HW2 3522   5.577   3.900   0.300
  875SOL     OW 3523   5.030   5.368   1.020
  875SOL    HW1 3524   5.089   5.446   1.040
  875SOL    HW2 3525   5.073   5.284   1.053
  876SOL     OW 3526   0.146   5.464   2.231
  876SOL    HW1 3527   0.224   5.465   2.168
  876SOL    HW2 3528   0.067   5.509   2.188
  877SOL     OW 3529   2.922   4.570   0.001
  877SOL    HW1 3530   2.926   4.649   0.062
  877SOL    HW2 3531   2.940   4.599   6.926
  878SOL     OW 3532   4.126   6.826   3.998
  878SOL    HW1 3533   4.225   6.812   3.999
  878SOL    HW2 3534   4.099   6.872   3.914
  879SOL     OW 3535   4.504   0.406   0.854
  879SOL    HW1 3536   4.586   0.446   0.813
  879SOL    HW2 3537   4.530   0.353   0.935
  880SOL     OW 3538   2.901   3.608   3.718
  880SOL    HW1 3539   2.946   3.639   3.635
  880SOL    HW2 3540   2.934   3.662   3.796
  881SOL     OW 3541   4.457   2.636   5.152
  881SOL    HW1 3542   4.434   2.733   5.158
  881SOL    HW2 3543   4.411   2.586   5.225
  882SOL     OW 3544   0.901   3.225   4.821
  882SOL    HW1 3545   0.974   3.246   4.886
  882SOL    HW2 3546   0.866   3.310   4.781
  883SOL     OW 3547   3.103   0.260   2.707
  883SOL    HW1 3548   3.035   0.186   2.707
  883SOL    HW2 3549   3.071   0.334   2.648
  884SOL     OW 3550   4.825   3.062   5.054
  884SOL    HW1 3551   4.917   3.043   5.019
  884SOL    HW2 3552   4.824   3.049   5.153
  885SOL     OW 3553   2.843   1.652   5.755
  885SOL    HW1 3554   2.847   1.556   5.727
  885SOL    HW2 3555   2.763   1.695   5.715
  886SOL     OW 3556   3.400   0.609   0.113
  886SOL    HW1 3557   3.397   0.707   0.096
  886SOL    HW2 3558   3.319   0.565   0.074
  887SOL     OW 3559   3.693   0.108   3.812
  887SOL    HW1 3560   3.766   0.145   3.869
  887SOL    HW2 3561   3.634   0.049   3.867
  888SOL     OW 3562   0.705   0.709   3.228
  888SOL    HW1 3563   0.623   0.709   3.285
  888SOL    HW2 3564   0.697   0.780   3.158
  889SOL     OW 3565   0.448   3.761   0.233
  889SOL    HW1 3566   0.371   3.699   0.218
  889SOL    HW2 3567   0.502   3.768   0.148
  890SOL     OW 3568   1.728   5.505   3.924
  890SOL    HW1 3569   1.765   5.474   3.836
  890SOL    HW2 3570   1.681   5.593   3.911
  891SOL     OW 3571   5.109   5.619   1.137
  891SOL    HW1 3572   5.196   5.666   1.121
  891SOL    HW2 3573   5.086   5.623   1.235
  892SOL     OW 3574   2.558   3.972   5.705
  892SOL    HW1 3575   2.502   3.891   5.683
  892SOL    HW2 3576   2.654   3.946   5.709
  893SOL     OW 3577   2.482   6.257   2.587
  893SOL    HW1 3578   2.498   6.232   2.492
  893SOL    HW2 3579   2.412   6.197   2.626
  894SOL     OW 3580   0.939   3.501   1.820
  894SOL    HW1 3581   0.869   3.532   1.755
  894SOL    HW2 3582   0.954   3.571   1.890
  895SOL     OW 3583   0.299   5.201   3.306
  895SOL    HW1 3584   0.232   5.208   3.379
  895SOL    HW2 3585   0.255   5.166   3.223
  896SOL     OW 3586   5.951   5.267   0.465
  896SOL    HW1 3587   5.923   5.298   0.556
  896SOL    HW2 3588   5.983   5.172   0.470
  897SOL     OW 3589   5.021   1.028   0.503
  897SOL    HW1 3590   4.930   1.066   0.485
  897SOL    HW2 3591   5.091   1.090   0.466
  898SOL     OW 3592   3.518   6.215   2.519
  898SOL    HW1 3593   3.563   6.284   2.576
  898SOL    HW2 3594   3.543   6.124   2.552
  899SOL     OW 3595   0.313   5.524   6.140
  899SOL    HW1 3596   0.378   5.530   6.065
  899SOL    HW2 3597   0.344   5.582   6.216
  900SOL     OW 3598   6.045   6.840   6.994
  900SOL    HW1 3599   6.078   6.760   0.023
  900SOL    HW2 3600   6.122   6.892   6.957
  901SOL     OW 3601   2.243   0.438   2.720
  901SOL    HW1 3602   2.248   0.534   2.750
  901SOL    HW2 3603   2.326   0.415   2.669
  902SOL     OW 3604   6.928   3.405   0.423
  902SOL    HW1 3605   6.954   3.358   0.339
  902SOL    HW2 3606   6.959   3.352   0.502
  903SOL     OW 3607   0.005   2.051   6.400
  903SOL    HW1 3608   0.080   1.987   6.387
  903SOL    HW2 3609   6.980   2.069   6.312
  904SOL     OW 3610   2.860   2.229   3.766
  904SOL    HW1 3611   2.830   2.215   3.671
  904SOL    HW2 3612   2.791   2.282   3.816
  905SOL     OW 3613   5.489   2.350   0.196
  905SOL    HW1 3614   5.506   2.259   0.232
  905SOL    HW2 3615   5.424   2.344   0.120
  906SOL     OW 3616   0.472   2.271   5.943
  906SOL    HW1 3617   0.480   2.370   5.930
  906SOL    HW2 3618   0.512   2.245   6.031
  907SOL     OW 3619   4.939   3.193   0.527
  907SOL    HW1 3620   4.900   3.273   0.573
  907SOL    HW2 3621   5.033   3.214   0.498
  908SOL     OW 3622   2.587   4.899   2.357
  908SOL    HW1 3623   2.630   4.909   2.267
  908SOL    HW2 3624   2.643   4.839   2.414
  909SOL     OW 3625   4.063   5.425   6.250
  909SOL    HW1 3626   4.048   5.327   6.262
  909SOL    HW2 3627   4.104   5.463   6.333
  910SOL     OW 3628   2.780   3.029   1.518
  910SOL    HW1 3629   2.739   2.984   1.439
  910SOL    HW2 3630   2.823   3.114   1.490
  911SOL     OW 3631   1.962   5.820   6.027
  911SOL    HW1 3632   1.919   5.855   5.945
  911SOL    HW2 3633   1.932   5.874   6.106
  912SOL     OW 3634   5.297   2.784   3.583
  912SOL    HW1 3635   5.271   2.691   3.607
  912SOL    HW2 3636   5.300   2.794   3.484
  913SOL     OW 3637   5.187   6.218   3.112
  913SOL    HW1 3638   5.110   6.156   3.130
  913SOL    HW2 3639   5.192   6.237   3.014
  914SOL     OW 3640   2.353   0.285   6.638
  914SOL    HW1 3641   2.351   0.369   6.693
  914SOL    HW2 3642   2.436   0.285   6.582
  915SOL     OW 3643   6.004   4.557   0.307
  915SOL    HW1 3644   5.937   4.482   0.309
  915SOL    HW2 3645   6.056   4.557   0.392
  916SOL     OW 3646   1.409   2.490   2.194
  916SOL    HW1 3647   1.433   2.498   2.097
  916SOL    HW2 3648   1.477   2.432   2.240
  917SOL     OW 3649   7.006   6.409   0.584
  917SOL    HW1 3650   0.010   6.501   0.553
  917SOL    HW2 3651   6.922   6.380   0.540
  918SOL     OW 3652   2.334   6.677   1.138
  918SOL    HW1 3653   2.395   6.754   1.118
  918SOL    HW2 3654   2.359   6.599   1.081
  919SOL     OW 3655   5.789   1.289   3.567
  919SOL    HW1 3656   5.736   1.213   3.606
  919SOL    HW2 3657   5.809   1.355   3.639
  920SOL     OW 3658   2.276   4.524   1.437
  920SOL    HW1 3659   2.243   4.441   1.391
  920SOL    HW2 3660   2.330   4.497   1.517
  921SOL     OW 3661   5.165   5.571   4.528
  921SOL    HW1 3662   5.115   5.485   4.515
  921SOL    HW2 3663   5.121   5.624   4.601
  922SOL     OW 3664   3.766   3.620   4.232
  922SOL    HW1 3665   3.754   3.524   4.259
  922SOL    HW2 3666   3.858   3.631   4.192
  923SOL     OW 3667   2.301   3.048   5.825
  923SOL    HW1 3668   2.356   3.044   5.909
  923SOL    HW2 3669   2.356   3.017   5.748
  924SOL     OW 3670   6.571   3.777   2.552
  924SOL    HW1 3671   6.549   3.684   2.525
  924SOL    HW2 3672   6.489   3.834   2.547
  925SOL     OW 3673   6.933   1.591   0.277
  925SOL    HW1 3674   6.884   1.598   0.364
  925SOL    HW2 3675   0.008   1.561   0.295
  926SOL     OW 3676   0.068   1.330   1.432
  926SOL    HW1 3677   0.163   1.316   1.458
  926SOL    HW2 3678   0.044   1.426   1.445
  927SOL     OW 3679   5.933   3.730   4.239
  927SOL    HW1 3680   6.018   3.770   4.204
  927SOL    HW2 3681   5.948   3.699   4.333
  928SOL     OW 3682   3.265   6.256   6.856
  928SOL    HW1 3683   3.316   6.274   6.940
  928SOL    HW2 3684   3.229   6.163   6.859
  929SOL     OW 3685   6.541   1.413   6.518
  929SOL    HW1 3686   6.588   1.500   6.504
  929SOL    HW2 3687   6.586   1.363   6.592
  930SOL     OW 3688   3.901   4.965   5.923
  930SOL    HW1 3689   3.990   4.930   5.896
  930SOL    HW2 3690   3.830   4.923   5.867
  931SOL     OW 3691   6.129   2.665   3.556
  931SOL    HW1 3692   6.125   2.737   3.625
  931SOL    HW2 3693   6.208   2.607   3.573
  932SOL     OW 3694   3.580   0.746   3.373
  932SOL    HW1 3695   3.653   0.810   3.396
  932SOL    HW2 3696   3.583   0.724   3.276
  933SOL     OW 3697   1.166   5.087   2.772
  933SOL    HW1 3698   1.123   5.113   2.858
  933SOL    HW2 3699   1.260   5.122   2.770
  934SOL     OW 3700   2.373   5.452   6.060
  934SOL    HW1 3701   2.406   5.545   6.044
  934SOL    HW2 3702   2.380   5.429   6.157
  935SOL     OW 3703   5.161   4.147   3.409
  935SOL    HW1 3704   5.226   4.209   3.365
  935SOL    HW2 3705   5.098   4.199   3.466
  936SOL     OW 3706   1.179   0.687   5.955
  936SOL    HW1 3707   1.148   0.595   5.979
  936SOL    HW2 3708   1.127   0.720   5.877
  937SOL     OW 3709   4.306   1.152   5.583
  937SOL    HW1 3710   4.343   1.085   5.648
  937SOL    HW2 3711   4.374   1.223   5.566
  938SOL     OW 3712   6.738   5.503   3.777
  938SOL    HW1 3713   6.777   5.594   3.792
  938SOL    HW2 3714   6.718   5.460   3.865
  939SOL     OW 3715   6.873   6.521   4.854
  939SOL    HW1 3716   6.860   6.553   4.760
  939SOL    HW2 3717   6.967   6.490   4.866
  940SOL     OW 3718   1.270   4.881   0.615
  940SOL    HW1 3719   1.286   4.812   0.685
  940SOL    HW2 3720   1.357   4.916   0.581
  941SOL     OW 3721   4.175   0.519   6.271
  941SOL    HW1 3722   4.187   0.432   6.222
  941SOL    HW2 3723   4.077   0.536   6.286
  942SOL     OW 3724   6.797   5.972   0.755
  942SOL    HW1 3725   6.835   6.065   0.749
  942SOL    HW2 3726   6.871   5.906   0.750
  943SOL     OW 3727   2.969   4.984   2.731
  943SOL    HW1 3728   2.882   5.030   2.716
  943SOL    HW2 3729   2.981   4.912   2.662
  944SOL     OW 3730   0.301   6.211   4.344
  944SOL    HW1 3731   0.223   6.152   4.326
  944SOL    HW2 3732   0.287   6.261   4.430
  945SOL     OW 3733   0.341   5.703   5.740
  945SOL    HW1 3734   0.367   5.646   5.662
  945SOL    HW2 3735   0.258   5.666   5.782
  946SOL     OW 3736   4.903   4.993   4.327
  946SOL    HW1 3737   4.996   4.966   4.301
  946SOL    HW2 3738   4.847   4.911   4.341
  947SOL     OW 3739   3.893   3.504   3.715
  947SOL    HW1 3740   3.908   3.602   3.727
  947SOL    HW2 3741   3.886   3.460   3.804
  948SOL     OW 3742   4.773   1.259   2.381
  948SOL    HW1 3743   4.717   1.329   2.337
  948SOL    HW2 3744   4.721   1.173   2.388
  949SOL     OW 3745   3.111   6.587   0.120
  949SOL    HW1 3746   3.203   6.577   0.082
  949SOL    HW2 3747   3.115   6.643   0.202
  950SOL     OW 3748   6.529   5.845   2.048
  950SOL    HW1 3749   6.465   5.779   2.009
  950SOL    HW2 3750   6.478   5.916   2.097
  951SOL     OW 3751   1.437   0.191   3.623
  951SOL    HW1 3752   1.528   0.223   3.649
  951SOL    HW2 3753   1.377   0.270   3.609
  952SOL     OW 3754   4.136   2.136   2.465
  952SOL    HW1 3755   4.188   2.052   2.483
  952SOL    HW2 3756   4.134   2.153   2.366
  953SOL     OW 3757   0.036   5.539   4.757
  953SOL    HW1 3758   0.036   5.533   4.657
  953SOL    HW2 3759   0.074   5.628   4.784
  954SOL     OW 3760   4.978   5.316   2.062
  954SOL    HW1 3761   4.918   5.258   2.006
  954SOL    HW2 3762   5.063   5.268   2.082
  955SOL     OW 3763   1.402   4.384   6.758
  955SOL    HW1 3764   1.496   4.382   6.792
  955SOL    HW2 3765   1.374   4.292   6.734
  956SOL     OW 3766   0.678   0.397   0.837
  956SOL    HW1 3767   0.718   0.472   0.889
  956SOL    HW2 3768   0.672   0.315   0.894
  957SOL     OW 3769   6.317   2.340   3.498
  957SOL    HW1 3770   6.246   2.293   3.550
  957SOL    HW2 3771   6.402   2.342   3.550
  958SOL     OW 3772   5.216   6.874   2.415
  958SOL    HW1 3773   5.209   6.841   2.509
  958SOL    HW2 3774   5.127   6.864   2.370
  959SOL     OW 3775   3.460   6.985   3.930
  959SOL    HW1 3776   3.409   0.051   3.922
  959SOL    HW2 3777   3.455   6.952   4.024
  960SOL     OW 3778   1.030   0.443   0.021
  960SOL    HW1 3779   1.054   0.482   6.952
  960SOL    HW2 3780   1.113   0.428   0.075
  961SOL     OW 3781   3.259   6.285   3.214
  961SOL    HW1 3782   3.169   6.323   3.195
  961SOL    HW2 3783   3.329   6.354   3.198
  962SOL     OW 3784   6.610   0.056   4.763
  962SOL    HW1 3785   6.586   0.046   4.860
  962SOL    HW2 3786   6.616   6.985   4.721
  963SOL     OW 3787   4.581   2.018   1.436
  963SOL    HW1 3788   4.524   2.050   1.512
  963SOL    HW2 3789   4.532   1.948   1.384
  964SOL     OW 3790   5.015   4.541   4.730
  964SOL    HW1 3791   5.108   4.556   4.762
  964SOL    HW2 3792   4.975   4.628   4.702
  965SOL     OW 3793   5.592   2.228   2.647
  965SOL    HW1 3794   5.556   2.142   2.611
  965SOL    HW2 3795   5.519   2.297   2.647
  966SOL     OW 3796   5.232   1.960   3.625
  966SOL    HW1 3797   5.219   1.999   3.717
  966SOL    HW2 3798   5.182   2.015   3.559
  967SOL     OW 3799   4.691   4.332   6.156
  967SOL    HW1 3800   4.784   4.363   6.138
  967SOL    HW2 3801   4.630   4.368   6.085
  968SOL     OW 3802   3.990   0.151   2.001
  968SOL    HW1 3803   4.032   0.217   1.939
  968SOL    HW2 3804   3.945   0.199   2.076
  969SOL     OW 3805   3.388   4.641   5.387
  969SOL    HW1 3806   3.450   4.691   5.327
  969SOL    HW2 3807   3.299   4.632   5.344
  970SOL     OW 3808   6.271   7.019   5.331
  970SOL    HW1 3809   6.230   6.943   5.382
  970SOL    HW2 3810   6.285   6.992   5.236
  971SOL     OW 3811   6.958   4.376   3.354
  971SOL    HW1 3812   0.003   4.316   3.399
  971SOL    HW2 3813   6.902   4.423   3.424
  972SOL     OW 3814   7.010   2.319   1.020
  972SOL    HW1 3815   6.954   2.350   1.097
  972SOL    HW2 3816   0.087   2.325   1.045
  973SOL     OW 3817   0.546   4.343   5.988
  973SOL    HW1 3818   0.486   4.344   5.908
  973SOL    HW2 3819   0.507   4.285   6.059
  974SOL     OW 3820   0.294   4.871   4.508
  974SOL    HW1 3821   0.313   4.777   4.535
  974SOL    HW2 3822   0.300   4.879   4.408
  975SOL     OW 3823   2.121   6.669   2.032
  975SOL    HW1 3824   2.050   6.711   1.975
  975SOL    HW2 3825   2.204   6.656   1.977
  976SOL     OW 3826   6.355   4.392   2.237
  976SOL    HW1 3827   6.422   4.439   2.179
  976SOL    HW2 3828   6.398   4.312   2.279
  977SOL     OW 3829   0.546   1.363   2.412
  977SOL    HW1 3830   0.646   1.372   2.407
  977SOL    HW2 3831   0.504   1.453   2.415
  978SOL     OW 3832   5.370   2.168   2.283
  978SOL    HW1 3833   5.365   2.227   2.202
  978SOL    HW2 3834   5.310   2.206   2.354
  979SOL     OW 3835   0.095   3.367   0.046
  979SOL    HW1 3836   0.056   3.283   0.083
  979SOL    HW2 3837   0.051   3.388   6.978
  980SOL     OW 3838   3.886   1.576   5.135
  980SOL    HW1 3839   3.796   1.601   5.099
  980SOL    HW2 3840   3.916   1.644   5.201
  981SOL     OW 3841   0.010   0.333   4.870
  981SOL    HW1 3842   0.018   0.328   4.770
  981SOL    HW2 3843   0.044   0.248   4.911
  982SOL     OW 3844   0.702   1.900   4.966
  982SOL    HW1 3845   0.643   1.888   5.045
  982SOL    HW2 3846   0.796   1.916   4.996
  983SOL     OW 3847   0.565   3.822   3.683
  983SOL    HW1 3848   0.565   3.778   3.773
  983SOL    HW2 3849   0.483   3.795   3.633
  984SOL     OW 3850   1.685   2.296   2.926
  984SOL    HW1 3851   1.760   2.352   2.961
  984SOL    HW2 3852   1.633   2.258   3.002
  985SOL     OW 3853   6.413   3.624   4.455
  985SOL    HW1 3854   6.349   3.700   4.437
  985SOL    HW2 3855   6.390   3.548   4.395
  986SOL     OW 3856   5.343   4.223   1.194
  986SOL    HW1 3857   5.347   4.211   1.293
  986SOL    HW2 3858   5.258   4.269   1.169
  987SOL     OW 3859   5.876   5.074   3.539
  987SOL    HW1 3860   5.795   5.108   3.585
  987SOL    HW2 3861   5.858   4.984   3.499
  988SOL     OW 3862   3.581   3.911   1.643
  988SOL    HW1 3863   3.652   3.887   1.709
  988SOL    HW2 3864   3.501   3.946   1.691
  989SOL     OW 3865   0.200   2.125   0.778
  989SOL    HW1 3866   0.291   2.114   0.819
  989SOL    HW2 3867   0.175   2.221   0.779
  990SOL     OW 3868   3.316   0.593   3.030
  990SOL    HW1 3869   3.396   0.619   2.975
  990SOL    HW2 3870   3.284   0.503   3.001
  991SOL     OW 3871   6.758   3.834   4.069
  991SOL    HW1 3872   6.691   3.844   4.143
  991SOL    HW2 3873   6.830   3.770   4.096
  992SOL     OW 3874   0.717   2.592   1.335
  992SOL    HW1 3875   0.799   2.646   1.355
  992SOL    HW2 3876   0.640   2.653   1.317
  993SOL     OW 3877   1.700   4.791   1.030
  993SOL    HW1 3878   1.621   4.757   1.080
  993SOL    HW2 3879   1.705   4.891   1.040
  994SOL     OW 3880   3.230   6.556   1.656
  994SOL    HW1 3881   3.328   6.573   1.660
  994SOL    HW2 3882   3.196   6.578   1.565
  995SOL     OW 3883   5.129   3.645   5.728
  995SOL    HW1 3884   5.061   3.586   5.771
  995SOL    HW2 3885   5.083   3.722   5.683
  996SOL     OW 3886   3.849   6.261   5.408
  996SOL    HW1 3887   3.877   6.212   5.491
  996SOL    HW2 3888   3.930   6.297   5.362
  997SOL     OW 3889   1.266   6.116   4.156
  997SOL    HW1 3890   1.365   6.123   4.161
  997SOL    HW2 3891   1.226   6.146   4.242
  998SOL     OW 3892   5.933   0.536   6.258
  998SOL    HW1 3893   5.951   0.459   6.319
  998SOL    HW2 3894   5.967   0.515   6.166
  999SOL     OW 3895   4.770   3.300   1.550
  999SOL    HW1 3896   4.811   3.227   1.605
  999SOL    HW2 3897   4.744   3.376   1.609
 1000SOL     OW 3898   3.788   1.561   1.756
 1000SOL    HW1 3899   3.880   1.577   1.792
 1000SOL    HW2 3900   3.763   1.636   1.695
 1001SOL     OW 3901   2.896   6.931   2.246
 1001SOL    HW1 3902   2.815   6.956   2.194
 1001SOL    HW2 3903   2.868   6.891   2.334
 1002SOL     OW 3904   5.107   2.678   1.640
 1002SOL    HW1 3905   5.179   2.701   1.575
 1002SOL    HW2 3906   5.063   2.762   1.674
 1003SOL     OW 3907   1.452   6.256   2.319
 1003SOL    HW1 3908   1.399   6.318   2.262
 1003SOL    HW2 3909   1.403   6.170   2.330
 1004SOL     OW 3910   5.835   1.505   3.725
 1004SOL    HW1 3911   5.866   1.592   3.686
 1004SOL    HW2 3912   5.738   1.492   3.704
 1005SOL     OW 3913   1.679   4.620   4.743
 1005SOL    HW1 3914   1.707   4.651   4.834
 1005SOL    HW2 3915   1.731   4.669   4.673
 1006SOL     OW 3916   2.287   4.062   0.449
 1006SOL    HW1 3917   2.331   4.009   0.521
 1006SOL    HW2 3918   2.339   4.054   0.365
 1007SOL     OW 3919   4.677   1.809   6.723
 1007SOL    HW1 3920   4.740   1.741   6.684
 1007SOL    HW2 3921   4.693   1.816   6.821
 1008SOL     OW 3922   0.435   4.683   5.286
 1008SOL    HW1 3923   0.511   4.710   5.226
 1008SOL    HW2 3924   0.363   4.640   5.232
 1009SOL     OW 3925   5.691   5.072   5.067
 1009SOL    HW1 3926   5.744   4.987   5.070
 1009SOL    HW2 3927   5.656   5.087   4.975
 1010SOL     OW 3928   2.108   3.208   1.555
 1010SOL    HW1 3929   2.137   3.294   1.598
 1010SOL    HW2 3930   2.185   3.168   1.506
 1011SOL     OW 3931   0.828   5.038   2.621
 1011SOL    HW1 3932   0.928   5.030   2.624
 1011SOL    HW2 3933   0.796   5.013   2.530
 1012SOL     OW 3934   5.881   0.684   2.431
 1012SOL    HW1 3935   5.788   0.679   2.395
 1012SOL    HW2 3936   5.915   0.592   2.449
 1013SOL     OW 3937   6.947   0.801   5.727
 1013SOL    HW1 3938   6.970   0.756   5.640
 1013SOL    HW2 3939   6.849   0.818   5.731
 1014SOL     OW 3940   1.672   4.819   4.112
 1014SOL    HW1 3941   1.680   4.919   4.105
 1014SOL    HW2 3942   1.612   4.786   4.040
 1015SOL     OW 3943   3.535   0.026   6.097
 1015SOL    HW1 3944   3.458   6.982   6.089
 1015SOL    HW2 3945   3.577   0.015   6.187
 1016SOL     OW 3946   5.335   4.092   1.424
 1016SOL    HW1 3947   5.310   3.997   1.406
 1016SOL    HW2 3948   5.256   4.141   1.460
 1017SOL     OW 3949   1.982   1.520   1.897
 1017SOL    HW1 3950   2.055   1.456   1.921
 1017SOL    HW2 3951   1.921   1.532   1.976
 1018SOL     OW 3952   0.256   5.310   3.647
 1018SOL    HW1 3953   0.278   5.401   3.684
 1018SOL    HW2 3954   0.227   5.250   3.722
 1019SOL     OW 3955   6.959   5.042   0.740
 1019SOL    HW1 3956   6.890   4.980   0.777
 1019SOL    HW2 3957   6.979   5.016   0.645
 1020SOL     OW 3958   0.176   0.301   1.368
 1020SOL    HW1 3959   0.228   0.283   1.284
 1020SOL    HW2 3960   0.220   0.376   1.418
 1021SOL     OW 3961   6.227   6.135   1.748
 1021SOL    HW1 3962   6.167   6.140   1.828
 1021SOL    HW2 3963   6.210   6.049   1.700
 1022SOL     OW 3964   2.449   6.438   6.669
 1022SOL    HW1 3965   2.385   6.365   6.644
 1022SOL    HW2 3966   2.420   6.524   6.628
 1023SOL     OW 3967   0.259   1.686   2.811
 1023SOL    HW1 3968   0.223   1.655   2.723
 1023SOL    HW2 3969   0.346   1.640   2.830
 1024SOL     OW 3970   1.218   2.032   4.603
 1024SOL    HW1 3971   1.214   2.090   4.522
 1024SOL    HW2 3972   1.274   1.951   4.584
 1025SOL     OW 3973   5.172   3.858   6.671
 1025SOL    HW1 3974   5.221   3.771   6.678
 1025SOL    HW2 3975   5.148   3.890   6.762
 1026SOL     OW 3976   2.971   2.388   1.452
 1026SOL    HW1 3977   2.972   2.484   1.481
 1026SOL    HW2 3978   2.966   2.330   1.533
 1027SOL     OW 3979   1.310   6.084   1.526
 1027SOL    HW1 3980   1.226   6.039   1.556
 1027SOL    HW2 3981   1.313   6.177   1.563
 1028SOL     OW 3982   0.823   6.342   2.989
 1028SOL    HW1 3983   0.773   6.428   2.998
 1028SOL    HW2 3984   0.920   6.361   2.975
 1029SOL     OW 3985   1.250   2.103   5.803
 1029SOL    HW1 3986   1.176   2.058   5.853
 1029SOL    HW2 3987   1.294   2.037   5.742
 1030SOL     OW 3988   3.049   3.343   1.445
 1030SOL    HW1 3989   2.950   3.334   1.451
 1030SOL    HW2 3990   3.074   3.439   1.444
 1031SOL     OW 3991   3.567   3.495   1.231
 1031SOL    HW1 3992   3.583   3.532   1.140
 1031SOL    HW2 3993   3.655   3.476   1.275
 1032SOL     OW 3994   2.173   1.383   5.947
 1032SOL    HW1 3995   2.199   1.426   6.033
 1032SOL    HW2 3996   2.238   1.310   5.925
 1033SOL     OW 3997   0.766   6.289   2.456
 1033SOL    HW1 3998   0.728   6.222   2.392
 1033SOL    HW2 3999   0.701   6.364   2.469
 1034SOL     OW 4000   3.570   0.005   4.531
 1034SOL    HW1 4001   3.556   0.054   4.445
 1034SOL    HW2 4002   3.554   6.927   4.516
 1035SOL     OW 4003   0.708   1.415   5.695
 1035SOL    HW1 4004   0.636   1.458   5.640
 1035SOL    HW2 4005   0.781   1.481   5.711
 1036SOL     OW 4006   5.275   1.313   1.176
 1036SOL    HW1 4007   5.268   1.301   1.077
 1036SOL    HW2 4008   5.189   1.287   1.219
 1037SOL     OW 4009   1.970   2.482   2.486
 1037SOL    HW1 4010   2.051   2.501   2.541
 1037SOL    HW2 4011   1.915   2.411   2.531
 1038SOL     OW 4012   2.666   0.358   6.995
 1038SOL    HW1 4013   2.713   0.440   6.963
 1038SOL    HW2 4014   2.732   0.294   0.013
 1039SOL     OW 4015   3.426   3.189   3.660
 1039SOL    HW1 4016   3.453   3.097   3.632
 1039SOL    HW2 4017   3.377   3.234   3.586
 1040SOL     OW 4018   4.291   1.218   2.610
 1040SOL    HW1 4019   4.270   1.124   2.583
 1040SOL    HW2 4020   4.209   1.260   2.648
 1041SOL     OW 4021   6.588   6.104   4.811
 1041SOL    HW1 4022   6.626   6.080   4.900
 1041SOL    HW2 4023   6.488   6.094   4.814
 1042SOL     OW 4024   4.743   4.822   2.257
 1042SOL    HW1 4025   4.659   4.860   2.296
 1042SOL    HW2 4026   4.780   4.752   2.318
 1043SOL     OW 4027   3.455   0.991   3.568
 1043SOL    HW1 4028   3.521   1.049   3.518
 1043SOL    HW2 4029   3.504   0.919   3.616
 1044SOL     OW 4030   5.889   4.161   1.006
 1044SOL    HW1 4031   5.805   4.212   0.988
 1044SOL    HW2 4032   5.882   4.114   1.093
 1045SOL     OW 4033   2.109   0.739   3.708
 1045SOL    HW1 4034   2.139   0.829   3.679
 1045SOL    HW2 4035   2.013   0.742   3.736
 1046SOL     OW 4036   2.959   1.414   1.198
 1046SOL    HW1 4037   3.013   1.331   1.190
 1046SOL    HW2 4038   3.011   1.484   1.247
 1047SOL     OW 4039   3.023   6.907   3.593
 1047SOL    HW1 4040   3.058   6.868   3.678
 1047SOL    HW2 4041   3.099   6.937   3.536
 1048SOL     OW 4042   1.922   5.975   2.184
 1048SOL    HW1 4043   1.823   5.964   2.177
 1048SOL    HW2 4044   1.953   6.042   2.116
 1049SOL     OW 4045   3.797   7.006   4.695
 1049SOL    HW1 4046   3.787   6.949   4.777
 1049SOL    HW2 4047   3.708   7.017   4.651
 1050SOL     OW 4048   3.936   4.917   3.735
 1050SOL    HW1 4049   4.009   4.983   3.720
 1050SOL    HW2 4050   3.886   4.940   3.818
 1051SOL     OW 4051   6.954   6.780   0.237
 1051SOL    HW1 4052   6.947   6.806   0.333
 1051SOL    HW2 4053   6.864   6.757   0.201
 1052SOL     OW 4054   4.045   0.901   6.352
 1052SOL    HW1 4055   3.981   0.958   6.402
 1052SOL    HW2 4056   4.111   0.958   6.304
 1053SOL     OW 4057   5.691   3.412   2.259
 1053SOL    HW1 4058   5.647   3.485   2.207
 1053SOL    HW2 4059   5.677   3.428   2.357
 1054SOL     OW 4060   3.522   4.431   0.366
 1054SOL    HW1 4061   3.598   4.493   0.345
 1054SOL    HW2 4062   3.472   4.465   0.446
 1055SOL     OW 4063   4.568   5.753   6.897
 1055SOL    HW1 4064   4.488   5.772   6.839
 1055SOL    HW2 4065   4.649   5.795   6.857
 1056SOL     OW 4066   2.101   4.349   0.252
 1056SOL    HW1 4067   2.166   4.342   0.328
 1056SOL    HW2 4068   2.022   4.403   0.282
 1057SOL     OW 4069   3.372   1.954   1.720
 1057SOL    HW1 4070   3.410   1.928   1.631
 1057SOL    HW2 4071   3.356   2.053   1.721
 1058SOL     OW 4072   3.678   1.970   2.885
 1058SOL    HW1 4073   3.597   2.028   2.877
 1058SOL    HW2 4074   3.653   1.874   2.869
 1059SOL     OW 4075   1.975   6.126   1.931
 1059SOL    HW1 4076   2.028   6.184   1.994
 1059SOL    HW2 4077   2.037   6.060   1.889
 1060SOL     OW 4078   0.146   5.752   4.898
 1060SOL    HW1 4079   0.148   5.697   4.981
 1060SOL    HW2 4080   0.239   5.771   4.868
 1061SOL     OW 4081   6.519   4.156   0.222
 1061SOL    HW1 4082   6.568   4.068   0.224
 1061SOL    HW2 4083   6.509   4.186   0.128
 1062SOL     OW 4084   3.940   6.277   4.791
 1062SOL    HW1 4085   3.975   6.351   4.848
 1062SOL    HW2 4086   3.971   6.290   4.696
 1063SOL     OW 4087   1.282   6.932   5.587
 1063SOL    HW1 4088   1.327   6.936   5.498
 1063SOL    HW2 4089   1.214   7.005   5.594
 1064SOL     OW 4090   0.593   4.340   1.103
 1064SOL    HW1 4091   0.596   4.430   1.147
 1064SOL    HW2 4092   0.552   4.348   1.013
 1065SOL     OW 4093   3.766   0.625   4.368
 1065SOL    HW1 4094   3.754   0.538   4.322
 1065SOL    HW2 4095   3.741   0.616   4.464
 1066SOL     OW 4096   4.693   0.678   2.203
 1066SOL    HW1 4097   4.614   0.663   2.145
 1066SOL    HW2 4098   4.665   0.679   2.299
 1067SOL     OW 4099   2.878   1.070   0.571
 1067SOL    HW1 4100   2.896   1.107   0.480
 1067SOL    HW2 4101   2.964   1.061   0.621
 1068SOL     OW 4102   6.148   3.117   1.154
 1068SOL    HW1 4103   6.100   3.035   1.185
 1068SOL    HW2 4104   6.082   3.184   1.121
 1069SOL     OW 4105   5.910   4.231   0.733
 1069SOL    HW1 4106   5.973   4.159   0.703
 1069SOL    HW2 4107   5.888   4.217   0.829
 1070SOL     OW 4108   2.301   0.700   2.304
 1070SOL    HW1 4109   2.289   0.704   2.205
 1070SOL    HW2 4110   2.329   0.607   2.330
 1071SOL     OW 4111   6.768   2.797   4.933
 1071SOL    HW1 4112   6.731   2.704   4.939
 1071SOL    HW2 4113   6.781   2.822   4.837
 1072SOL     OW 4114   3.232   0.984   1.942
 1072SOL    HW1 4115   3.173   1.033   1.877
 1072SOL    HW2 4116   3.224   0.886   1.927
 1073SOL     OW 4117   5.469   1.810   3.285
 1073SOL    HW1 4118   5.370   1.806   3.273
 1073SOL    HW2 4119   5.512   1.840   3.200
 1074SOL     OW 4120   3.195   4.970   1.687
 1074SOL    HW1 4121   3.236   5.041   1.745
 1074SOL    HW2 4122   3.225   4.880   1.718
 1075SOL     OW 4123   5.893   2.027   5.100
 1075SOL    HW1 4124   5.875   1.939   5.143
 1075SOL    HW2 4125   5.899   2.015   5.000
 1076SOL     OW 4126   2.168   3.923   5.254
 1076SOL    HW1 4127   2.261   3.949   5.229
 1076SOL    HW2 4128   2.129   3.864   5.183
 1077SOL     OW 4129   7.016   0.623   6.832
 1077SOL    HW1 4130   6.922   0.603   6.857
 1077SOL    HW2 4131   0.008   0.721   6.818
 1078SOL     OW 4132   6.677   6.662   3.981
 1078SOL    HW1 4133   6.628   6.600   4.043
 1078SOL    HW2 4134   6.773   6.636   3.978
 1079SOL     OW 4135   1.301   5.855   2.150
 1079SOL    HW1 4136   1.230   5.795   2.185
 1079SOL    HW2 4137   1.342   5.814   2.068
 1080SOL     OW 4138   2.103   5.391   4.988
 1080SOL    HW1 4139   2.080   5.483   5.020
 1080SOL    HW2 4140   2.029   5.329   5.010
 1081SOL     OW 4141   6.316   5.481   4.327
 1081SOL    HW1 4142   6.333   5.395   4.279
 1081SOL    HW2 4143   6.316   5.557   4.262
 1082SOL     OW 4144   5.734   7.016   5.805
 1082SOL    HW1 4145   5.742   7.003   5.707
 1082SOL    HW2 4146   5.638   7.011   5.833
 1083SOL     OW 4147   4.911   3.962   1.009
 1083SOL    HW1 4148   5.007   3.942   1.025
 1083SOL    HW2 4149   4.894   4.060   1.017
 1084SOL     OW 4150   7.010   6.908   6.516
 1084SOL    HW1 4151   0.079   6.863   6.507
 1084SOL    HW2 4152   6.993   6.931   6.612
 1085SOL     OW 4153   1.678   3.808   4.132
 1085SOL    HW1 4154   1.734   3.793   4.213
 1085SOL    HW2 4155   1.657   3.905   4.123
 1086SOL     OW 4156   6.619   4.523   6.092
 1086SOL    HW1 4157   6.654   4.436   6.056
 1086SOL    HW2 4158   6.562   4.566   6.022
 1087SOL     OW 4159   1.780   0.370   5.799
 1087SOL    HW1 4160   1.791   0.436   5.724
 1087SOL    HW2 4161   1.740   0.415   5.878
 1088SOL     OW 4162   7.006   4.804   3.684
 1088SOL    HW1 4163   0.033   4.721   3.714
 1088SOL    HW2 4164   6.916   4.809   3.727
 1089SOL     OW 4165   7.019   5.033   4.605
 1089SOL    HW1 4166   6.965   5.021   4.688
 1089SOL    HW2 4167   0.048   5.120   4.609
 1090SOL     OW 4168   5.671   1.688   4.713
 1090SOL    HW1 4169   5.768   1.670   4.732
 1090SOL    HW2 4170   5.645   1.641   4.628
 1091SOL     OW 4171   2.084   3.440   3.846
 1091SOL    HW1 4172   2.158   3.421   3.911
 1091SOL    HW2 4173   2.018   3.503   3.887
 1092SOL     OW 4174   1.041   5.011   1.094
 1092SOL    HW1 4175   1.074   5.105   1.087
 1092SOL    HW2 4176   0.948   5.011   1.131
 1093SOL     OW 4177   2.634   6.654   1.498
 1093SOL    HW1 4178   2.611   6.629   1.592
 1093SOL    HW2 4179   2.583   6.736   1.472
 1094SOL     OW 4180   0.589   7.015   2.489
 1094SOL    HW1 4181   0.572   6.919   2.508
 1094SOL    HW2 4182   0.540   0.052   2.554
 1095SOL     OW 4183   0.046   2.701   6.781
 1095SOL    HW1 4184   0.024   2.785   6.830
 1095SOL    HW2 4185   6.980   2.655   6.755
 1096SOL     OW 4186   2.902   5.859   0.953
 1096SOL    HW1 4187   2.852   5.838   0.868
 1096SOL    HW2 4188   2.911   5.958   0.962
 1097SOL     OW 4189   2.293   5.211   3.709
 1097SOL    HW1 4190   2.338   5.130   3.746
 1097SOL    HW2 4191   2.208   5.228   3.760
 1098SOL     OW 4192   5.919   4.293   0.264
 1098SOL    HW1 4193   5.838   4.233   0.261
 1098SOL    HW2 4194   5.992   4.253   0.208
 1099SOL     OW 4195   4.480   1.604   6.376
 1099SOL    HW1 4196   4.473   1.635   6.471
 1099SOL    HW2 4197   4.393   1.563   6.348
 1100SOL     OW 4198   4.213   0.998   3.831
 1100SOL    HW1 4199   4.127   1.007   3.780
 1100SOL    HW2 4200   4.195   1.015   3.928
 1101SOL     OW 4201   5.854   3.115   5.644
 1101SOL    HW1 4202   5.894   3.081   5.558
 1101SOL    HW2 4203   5.871   3.214   5.650
 1102SOL     OW 4204   2.409   0.769   4.368
 1102SOL    HW1 4205   2.373   0.706   4.437
 1102SOL    HW2 4206   2.429   0.719   4.284
 1103SOL     OW 4207   2.861   0.696   6.440
 1103SOL    HW1 4208   2.845   0.758   6.364
 1103SOL    HW2 4209   2.779   0.641   6.457
 1104SOL     OW 4210   0.734   4.731   3.290
 1104SOL    HW1 4211   0.679   4.814   3.296
 1104SOL    HW2 4212   0.759   4.714   3.194
 1105SOL     OW 4213   5.620   1.741   5.069
 1105SOL    HW1 4214   5.550   1.741   5.141
 1105SOL    HW2 4215   5.575   1.741   4.979
 1106SOL     OW 4216   0.715   0.905   0.271
 1106SOL    HW1 4217   0.720   0.818   0.223
 1106SOL    HW2 4218   0.670   0.973   0.213
 1107SOL     OW 4219   1.256   1.066   6.448
 1107SOL    HW1 4220   1.272   1.117   6.532
 1107SOL    HW2 4221   1.313   0.983   6.448
 1108SOL     OW 4222   3.268   6.371   4.298
 1108SOL    HW1 4223   3.348   6.315   4.320
 1108SOL    HW2 4224   3.269   6.395   4.201
 1109SOL     OW 4225   5.310   1.300   4.020
 1109SOL    HW1 4226   5.251   1.229   3.983
 1109SOL    HW2 4227   5.313   1.377   3.956
 1110SOL     OW 4228   3.216   0.915   2.732
 1110SOL    HW1 4229   3.304   0.958   2.711
 1110SOL    HW2 4230   3.200   0.918   2.831
 1111SOL     OW 4231   4.785   4.035   6.270
 1111SOL    HW1 4232   4.869   4.027   6.216
 1111SOL    HW2 4233   4.783   3.962   6.339
 1112SOL     OW 4234   6.523   0.494   2.641
 1112SOL    HW1 4235   6.535   0.579   2.590
 1112SOL    HW2 4236   6.429   0.462   2.632
 1113SOL     OW 4237   6.243   4.163   3.051
 1113SOL    HW1 4238   6.264   4.133   2.958
 1113SOL    HW2 4239   6.325   4.155   3.108
 1114SOL     OW 4240   4.252   2.446   6.215
 1114SOL    HW1 4241   4.253   2.481   6.121
 1114SOL    HW2 4242   4.194   2.364   6.219
 1115SOL     OW 4243   3.471   3.950   5.769
 1115SOL    HW1 4244   3.507   3.862   5.739
 1115SOL    HW2 4245   3.428   3.997   5.692
 1116SOL     OW 4246   5.067   1.094   0.044
 1116SOL    HW1 4247   5.016   1.177   0.025
 1116SOL    HW2 4248   5.155   1.097   7.016
 1117SOL     OW 4249   0.972   2.498   1.783
 1117SOL    HW1 4250   1.004   2.532   1.694
 1117SOL    HW2 4251   0.987   2.400   1.789
 1118SOL     OW 4252   2.937   5.453   6.848
 1118SOL    HW1 4253   3.029   5.435   6.883
 1118SOL    HW2 4254   2.944   5.494   6.757
 1119SOL     OW 4255   4.097   4.725   3.457
 1119SOL    HW1 4256   4.005   4.695   3.481
 1119SOL    HW2 4257   4.160   4.701   3.530
 1120SOL     OW 4258   6.463   5.271   1.155
 1120SOL    HW1 4259   6.511   5.244   1.072
 1120SOL    HW2 4260   6.496   5.215   1.232
 1121SOL     OW 4261   0.909   5.326   4.430
 1121SOL    HW1 4262   0.818   5.289   4.448
 1121SOL    HW2 4263   0.944   5.287   4.344
 1122SOL     OW 4264   5.559   2.796   2.095
 1122SOL    HW1 4265   5.546   2.871   2.161
 1122SOL    HW2 4266   5.579   2.711   2.145
 1123SOL     OW 4267   3.930   2.064   3.306
 1123SOL    HW1 4268   3.844   2.074   3.255
 1123SOL    HW2 4269   3.986   2.145   3.291
 1124SOL     OW 4270   1.965   2.871   4.919
 1124SOL    HW1 4271   1.890   2.898   4.859
 1124SOL    HW2 4272   1.947   2.779   4.955
 1125SOL     OW 4273   1.556   3.541   4.219
 1125SOL    HW1 4274   1.623   3.511   4.288
 1125SOL    HW2 4275   1.572   3.637   4.196
 1126SOL     OW 4276   4.160   5.886   5.473
 1126SOL    HW1 4277   4.102   5.808   5.496
 1126SOL    HW2 4278   4.254   5.855   5.460
 1127SOL     OW 4279   5.423   5.898   4.037
 1127SOL    HW1 4280   5.478   5.815   4.026
 1127SOL    HW2 4281   5.368   5.892   4.120
 1128SOL     OW 4282   6.107   1.396   3.607
 1128SOL    HW1 4283   6.105   1.336   3.527
 1128SOL    HW2 4284   6.019   1.392   3.654
 1129SOL     OW 4285   1.674   6.895   1.372
 1129SOL    HW1 4286   1.727   6.849   1.300
 1129SOL    HW2 4287   1.735   6.922   1.446
 1130SOL     OW 4288   1.684   5.222   3.161
 1130SOL    HW1 4289   1.747   5.211   3.084
 1130SOL    HW2 4290   1.660   5.319   3.170
 1131SOL     OW 4291   0.987   6.974   3.869
 1131SOL    HW1 4292   0.964   0.018   3.942
 1131SOL    HW2 4293   1.087   6.974   3.855
 1132SOL     OW 4294   4.213   1.079   3.014
 1132SOL    HW1 4295   4.153   1.007   2.979
 1132SOL    HW2 4296   4.186   1.167   2.975
 1133SOL     OW 4297   1.185   6.937   5.102
 1133SOL    HW1 4298   1.101   6.963   5.151
 1133SOL    HW2 4299   1.248   7.014   5.101
 1134SOL     OW 4300   4.605   6.976   1.788
 1134SOL    HW1 4301   4.556   6.900   1.745
 1134SOL    HW2 4302   4.687   6.997   1.735
 1135SOL     OW 4303   2.503   6.294   3.490
 1135SOL    HW1 4304   2.473   6.356   3.418
 1135SOL    HW2 4305   2.574   6.338   3.545
 1136SOL     OW 4306   2.877   6.082   2.647
 1136SOL    HW1 4307   2.787   6.126   2.654
 1136SOL    HW2 4308   2.865   5.983   2.644
 1137SOL     OW 4309   0.378   6.031   6.606
 1137SOL    HW1 4310   0.348   6.024   6.510
 1137SOL    HW2 4311   0.375   5.941   6.648
 1138SOL     OW 4312   2.236   2.916   5.282
 1138SOL    HW1 4313   2.303   2.980   5.244
 1138SOL    HW2 4314   2.201   2.858   5.208
 1139SOL     OW 4315   2.536   4.618   3.967
 1139SOL    HW1 4316   2.499   4.527   3.980
 1139SOL    HW2 4317   2.613   4.633   4.030
 1140SOL     OW 4318   2.365   1.301   1.720
 1140SOL    HW1 4319   2.295   1.354   1.671
 1140SOL    HW2 4320   2.436   1.363   1.754
 1141SOL     OW 4321   5.589   5.027   6.093
 1141SOL    HW1 4322   5.515   5.050   6.029
 1141SOL    HW2 4323   5.674   5.012   6.043
 1142SOL     OW 4324   2.484   6.840   3.325
 1142SOL    HW1 4325   2.566   6.854   3.270
 1142SOL    HW2 4326   2.436   6.927   3.336
 1143SOL     OW 4327   1.272   3.654   1.692
 1143SOL    HW1 4328   1.327   3.650   1.609
 1143SOL    HW2 4329   1.187   3.704   1.673
 1144SOL     OW 4330   5.487   4.408   2.356
 1144SOL    HW1 4331   5.509   4.487   2.413
 1144SOL    HW2 4332   5.474   4.327   2.414
 1145SOL     OW 4333   1.154   1.970   0.790
 1145SOL    HW1 4334   1.086   1.930   0.728
 1145SOL    HW2 4335   1.235   1.912   0.792
 1146SOL     OW 4336   0.669   1.233   1.758
 1146SOL    HW1 4337   0.626   1.312   1.800
 1146SOL    HW2 4338   0.768   1.239   1.769
 1147SOL     OW 4339   3.228   6.148   1.173
 1147SOL    HW1 4340   3.167   6.177   1.246
 1147SOL    HW2 4341   3.321   6.138   1.209
 1148SOL     OW 4342   4.019   6.426   2.011
 1148SOL    HW1 4343   3.992   6.360   1.941
 1148SOL    HW2 4344   3.937   6.475   2.044
 1149SOL     OW 4345   5.914   2.438   1.526
 1149SOL    HW1 4346   5.954   2.368   1.467
 1149SOL    HW2 4347   5.984   2.472   1.590
 1150SOL     OW 4348   1.456   4.126   6.631
 1150SOL    HW1 4349   1.551   4.153   6.641
 1150SOL    HW2 4350   1.450   4.040   6.580
 1151SOL     OW 4351   6.490   4.979   3.637
 1151SOL    HW1 4352   6.430   4.959   3.560
 1151SOL    HW2 4353   6.582   4.943   3.618
 1152SOL     OW 4354   4.713   0.797   0.158
 1152SOL    HW1 4355   4.798   0.746   0.139
 1152SOL    HW2 4356   4.694   0.859   0.082
 1153SOL     OW 4357   6.767   6.996   1.491
 1153SOL    HW1 4358   6.804   6.957   1.576
 1153SOL    HW2 4359   6.834   0.040   1.452
 1154SOL     OW 4360   1.270   3.480   2.771
 1154SOL    HW1 4361   1.195   3.416   2.784
 1154SOL    HW2 4362   1.357   3.430   2.771
 1155SOL     OW 4363   2.103   6.748   4.982
 1155SOL    HW1 4364   2.124   6.659   4.940
 1155SOL    HW2 4365   2.183   6.808   4.973
 1156SOL     OW 4366   3.962   1.515   4.707
 1156SOL    HW1 4367   3.906   1.439   4.738
 1156SOL    HW2 4368   3.906   1.580   4.655
 1157SOL     OW 4369   4.103   0.387   5.397
 1157SOL    HW1 4370   4.178   0.361   5.458
 1157SOL    HW2 4371   4.020   0.336   5.421
 1158SOL     OW 4372   5.375   5.701   3.591
 1158SOL    HW1 4373   5.327   5.772   3.539
 1158SOL    HW2 4374   5.309   5.651   3.648
 1159SOL     OW 4375   6.565   6.036   3.038
 1159SOL    HW1 4376   6.496   6.037   2.966
 1159SOL    HW2 4377   6.651   6.072   3.002
 1160SOL     OW 4378   4.242   6.983   0.855
 1160SOL    HW1 4379   4.259   6.988   0.953
 1160SOL    HW2 4380   4.145   6.994   0.837
 1161SOL     OW 4381   6.894   5.151   6.785
 1161SOL    HW1 4382   6.982   5.198   6.781
 1161SOL    HW2 4383   6.854   5.146   6.694
 1162SOL     OW 4384   2.217   2.944   5.540
 1162SOL    HW1 4385   2.285   2.886   5.586
 1162SOL    HW2 4386   2.228   2.936   5.441
 1163SOL     OW 4387   5.899   4.202   1.853
 1163SOL    HW1 4388   5.937   4.129   1.909
 1163SOL    HW2 4389   5.968   4.235   1.788
 1164SOL     OW 4390   5.577   2.101   4.492
 1164SOL    HW1 4391   5.558   2.131   4.585
 1164SOL    HW2 4392   5.668   2.131   4.465
 1165SOL     OW 4393   4.397   6.038   3.597
 1165SOL    HW1 4394   4.300   6.054   3.574
 1165SOL    HW2 4395   4.423   5.945   3.572
 1166SOL     OW 4396   2.118   6.504   6.314
 1166SOL    HW1 4397   2.115   6.543   6.406
 1166SOL    HW2 4398   2.133   6.576   6.246
 1167SOL     OW 4399   4.965   3.865   2.062
 1167SOL    HW1 4400   4.992   3.824   2.149
 1167SOL    HW2 4401   4.941   3.961   2.076
 1168SOL     OW 4402   6.082   2.512   2.569
 1168SOL    HW1 4403   6.163   2.516   2.511
 1168SOL    HW2 4404   6.000   2.524   2.513
 1169SOL     OW 4405   5.731   0.970   5.846
 1169SOL    HW1 4406   5.674   0.975   5.928
 1169SOL    HW2 4407   5.694   1.031   5.776
 1170SOL     OW 4408   5.132   7.011   3.206
 1170SOL    HW1 4409   5.150   0.086   3.177
 1170SOL    HW2 4410   5.034   6.996   3.210
 1171SOL     OW 4411   1.478   6.933   0.626
 1171SOL    HW1 4412   1.565   6.884   0.625
 1171SOL    HW2 4413   1.428   6.910   0.710
 1172SOL     OW 4414   6.090   3.505   0.565
 1172SOL    HW1 4415   5.996   3.535   0.584
 1172SOL    HW2 4416   6.131   3.467   0.648
 1173SOL     OW 4417   2.944   1.098   1.003
 1173SOL    HW1 4418   2.931   1.001   0.982
 1173SOL    HW2 4419   3.001   1.107   1.085
 1174SOL     OW 4420   3.705   3.769   1.460
 1174SOL    HW1 4421   3.652   3.686   1.444
 1174SOL    HW2 4422   3.646   3.840   1.499
 1175SOL     OW 4423   4.311   3.162   5.615
 1175SOL    HW1 4424   4.338   3.175   5.711
 1175SOL    HW2 4425   4.251   3.082   5.608
 1176SOL     OW 4426   4.986   3.491   5.899
 1176SOL    HW1 4427   5.047   3.510   5.976
 1176SOL    HW2 4428   4.904   3.548   5.907
 1177SOL     OW 4429   6.124   2.561   4.699
 1177SOL    HW1 4430   6.172   2.537   4.784
 1177SOL    HW2 4431   6.026   2.560   4.715
 1178SOL     OW 4432   3.231   4.085   0.823
 1178SOL    HW1 4433   3.208   4.038   0.909
 1178SOL    HW2 4434   3.263   4.177   0.843
 1179SOL     OW 4435   2.521   6.167   0.590
 1179SOL    HW1 4436   2.435   6.213   0.609
 1179SOL    HW2 4437   2.503   6.074   0.556
 1180SOL     OW 4438   3.483   5.585   1.627
 1180SOL    HW1 4439   3.406   5.623   1.575
 1180SOL    HW2 4440   3.496   5.639   1.710
 1181SOL     OW 4441   0.413   5.313   6.774
 1181SOL    HW1 4442   0.471   5.382   6.732
 1181SOL    HW2 4443   0.468   5.253   6.832
 1182SOL     OW 4444   3.459   5.436   2.954
 1182SOL    HW1 4445   3.411   5.519   2.983
 1182SOL    HW2 4446   3.438   5.361   3.016
 1183SOL     OW 4447   1.987   4.699   0.180
 1183SOL    HW1 4448   2.007   4.737   0.089
 1183SOL    HW2 4449   2.041   4.747   0.249
 1184SOL     OW 4450   0.625   0.742   4.303
 1184SOL    HW1 4451   0.583   0.761   4.214
 1184SOL    HW2 4452   0.636   0.644   4.314
 1185SOL     OW 4453   0.066   1.224   6.243
 1185SOL    HW1 4454   0.115   1.193   6.325
 1185SOL    HW2 4455   6.987   1.226   6.262
 1186SOL     OW 4456   4.847   5.539   4.503
 1186SOL    HW1 4457   4.864   5.460   4.443
 1186SOL    HW2 4458   4.774   5.595   4.463
 1187SOL     OW 4459   6.931   6.875   6.840
 1187SOL    HW1 4460   7.000   6.935   6.880
 1187SOL    HW2 4461   6.872   6.838   6.912
 1188SOL     OW 4462   2.910   6.458   5.062
 1188SOL    HW1 4463   2.982   6.524   5.086
 1188SOL    HW2 4464   2.842   6.503   5.004
 1189SOL     OW 4465   6.600   3.305   2.755
 1189SOL    HW1 4466   6.642   3.339   2.670
 1189SOL    HW2 4467   6.519   3.360   2.775
 1190SOL     OW 4468   2.288   5.933   3.222
 1190SOL    HW1 4469   2.294   5.986   3.137
 1190SOL    HW2 4470   2.202   5.955   3.268
 1191SOL     OW 4471   4.070   5.094   3.229
 1191SOL    HW1 4472   4.089   5.121   3.135
 1191SOL    HW2 4473   4.104   5.001   3.245
 1192SOL     OW 4474   3.764   5.909   3.133
 1192SOL    HW1 4475   3.778   5.834   3.197
 1192SOL    HW2 4476   3.685   5.890   3.075
 1193SOL     OW 4477   5.799   4.391   4.334
 1193SOL    HW1 4478   5.798   4.321   4.262
 1193SOL    HW2 4479   5.776   4.479   4.294
 1194SOL     OW 4480   5.383   0.018   1.685
 1194SOL    HW1 4481   5.417   0.034   1.592
 1194SOL    HW2 4482   5.335   0.100   1.717
 1195SOL     OW 4483   5.876   4.644   1.661
 1195SOL    HW1 4484   5.904   4.709   1.730
 1195SOL    HW2 4485   5.882   4.686   1.570
 1196SOL     OW 4486   0.178   6.082   3.153
 1196SOL    HW1 4487   0.119   6.109   3.077
 1196SOL    HW2 4488   0.173   5.983   3.166
 1197SOL     OW 4489   3.637   0.739   6.696
 1197SOL    HW1 4490   3.540   0.720   6.714
 1197SOL    HW2 4491   3.665   0.818   6.750
 1198SOL     OW 4492   1.351   3.074   1.632
 1198SOL    HW1 4493   1.318   3.141   1.699
 1198SOL    HW2 4494   1.318   2.983   1.658
 1199SOL     OW 4495   4.739   4.983   1.745
 1199SOL    HW1 4496   4.734   4.884   1.742
 1199SOL    HW2 4497   4.758   5.018   1.653
 1200SOL     OW 4498   3.646   3.335   2.650
 1200SOL    HW1 4499   3.740   3.302   2.655
 1200SOL    HW2 4500   3.591   3.293   2.722
 1201SOL     OW 4501   1.035   0.902   4.747
 1201SOL    HW1 4502   0.958   0.838   4.755
 1201SOL    HW2 4503   1.110   0.871   4.804
 1202SOL     OW 4504   0.940   6.204   6.423
 1202SOL    HW1 4505   0.892   6.139   6.482
 1202SOL    HW2 4506   0.985   6.153   6.349
 1203SOL     OW 4507   5.352   6.181   6.614
 1203SOL    HW1 4508   5.279   6.242   6.583
 1203SOL    HW2 4509   5.315   6.091   6.636
 1204SOL     OW 4510   2.712   0.465   1.231
 1204SOL    HW1 4511   2.675   0.419   1.312
 1204SOL    HW2 4512   2.652   0.448   1.153
 1205SOL     OW 4513   4.943   4.150   1.609
 1205SOL    HW1 4514   4.851   4.143   1.646
 1205SOL    HW2 4515   4.986   4.059   1.607
 1206SOL     OW 4516   3.329   2.871   5.099
 1206SOL    HW1 4517   3.425   2.843   5.092
 1206SOL    HW2 4518   3.308   2.895   5.194
 1207SOL     OW 4519   2.624   0.335   1.448
 1207SOL    HW1 4520   2.537   0.293   1.472
 1207SOL    HW2 4521   2.697   0.296   1.504
 1208SOL     OW 4522   3.518   4.039   0.364
 1208SOL    HW1 4523   3.586   4.105   0.331
 1208SOL    HW2 4524   3.473   3.996   0.286
 1209SOL     OW 4525   3.756   0.623   5.689
 1209SOL    HW1 4526   3.804   0.705   5.658
 1209SOL    HW2 4527   3.703   0.585   5.613
 1210SOL     OW 4528   2.349   0.080   3.296
 1210SOL    HW1 4529   2.379   0.050   3.206
 1210SOL    HW2 4530   2.326   0.178   3.293
 1211SOL     OW 4531   1.595   3.611   1.064
 1211SOL    HW1 4532   1.552   3.522   1.076
 1211SOL    HW2 4533   1.688   3.598   1.028
 1212SOL     OW 4534   0.539   0.715   5.954
 1212SOL    HW1 4535   0.504   0.802   5.989
 1212SOL    HW2 4536   0.479   0.682   5.880
 1213SOL     OW 4537   5.715   2.589   0.277
 1213SOL    HW1 4538   5.690   2.587   0.373
 1213SOL    HW2 4539   5.670   2.513   0.229
 1214SOL     OW 4540   6.966   2.093   0.880
 1214SOL    HW1 4541   0.041   2.078   0.849
 1214SOL    HW2 4542   6.962   2.177   0.934
 1215SOL     OW 4543   2.051   4.545   4.206
 1215SOL    HW1 4544   2.023   4.632   4.164
 1215SOL    HW2 4545   2.040   4.471   4.140
 1216SOL     OW 4546   3.988   0.403   0.117
 1216SOL    HW1 4547   3.929   0.333   0.156
 1216SOL    HW2 4548   3.947   0.439   0.034
 1217SOL     OW 4549   1.494   5.094   0.353
 1217SOL    HW1 4550   1.511   5.052   0.442
 1217SOL    HW2 4551   1.396   5.098   0.337
 1218SOL     OW 4552   1.309   4.904   4.147
 1218SOL    HW1 4553   1.381   4.914   4.079
 1218SOL    HW2 4554   1.228   4.863   4.104
 1219SOL     OW 4555   5.418   5.985   1.938
 1219SOL    HW1 4556   5.413   5.922   1.861
 1219SOL    HW2 4557   5.453   6.074   1.907
 1220SOL     OW 4558   1.074   5.138   3.049
 1220SOL    HW1 4559   1.026   5.224   3.034
 1220SOL    HW2 4560   1.009   5.067   3.073
 1221SOL     OW 4561   5.281   2.819   5.527
 1221SOL    HW1 4562   5.288   2.820   5.626
 1221SOL    HW2 4563   5.320   2.903   5.490
 1222SOL     OW 4564   5.717   6.891   6.655
 1222SOL    HW1 4565   5.764   6.947   6.586
 1222SOL    HW2 4566   5.626   6.928   6.671
 1223SOL     OW 4567   3.679   0.557   0.502
 1223SOL    HW1 4568   3.597   0.595   0.546
 1223SOL    HW2 4569   3.674   0.574   0.403
 1224SOL     OW 4570   2.305   6.701   1.503
 1224SOL    HW1 4571   2.355   6.774   1.455
 1224SOL    HW2 4572   2.246   6.742   1.573
 1225SOL     OW 4573   3.217   4.271   6.164
 1225SOL    HW1 4574   3.240   4.236   6.073
 1225SOL    HW2 4575   3.118   4.267   6.176
 1226SOL     OW 4576   2.440   4.464   1.635
 1226SOL    HW1 4577   2.529   4.419   1.627
 1226SOL    HW2 4578   2.454   4.558   1.668
 1227SOL     OW 4579   6.678   3.047   6.738
 1227SOL    HW1 4580   6.649   2.977   6.804
 1227SOL    HW2 4581   6.600   3.076   6.683
 1228SOL     OW 4582   3.852   3.162   6.760
 1228SOL    HW1 4583   3.887   3.208   6.678
 1228SOL    HW2 4584   3.926   3.148   6.825
 1229SOL     OW 4585   4.671   4.702   6.196
 1229SOL    HW1 4586   4.654   4.800   6.190
 1229SOL    HW2 4587   4.588   4.652   6.175
 1230SOL     OW 4588   4.398   0.297   4.305
 1230SOL    HW1 4589   4.422   0.275   4.211
 1230SOL    HW2 4590   4.317   0.245   4.333
 1231SOL     OW 4591   1.801   3.718   5.113
 1231SOL    HW1 4592   1.741   3.757   5.183
 1231SOL    HW2 4593   1.880   3.777   5.101
 1232SOL     OW 4594   1.024   2.463   5.275
 1232SOL    HW1 4595   1.117   2.459   5.239
 1232SOL    HW2 4596   1.023   2.430   5.369
 1233SOL     OW 4597   1.710   3.001   5.446
 1233SOL    HW1 4598   1.635   3.055   5.483
 1233SOL    HW2 4599   1.775   3.061   5.400
 1234SOL     OW 4600   6.752   4.312   4.147
 1234SOL    HW1 4601   6.734   4.230   4.093
 1234SOL    HW2 4602   6.744   4.290   4.245
 1235SOL     OW 4603   6.996   5.821   2.566
 1235SOL    HW1 4604   6.990   5.916   2.535
 1235SOL    HW2 4605   6.966   5.760   2.492
 1236SOL     OW 4606   5.371   0.902   6.387
 1236SOL    HW1 4607   5.284   0.887   6.341
 1236SOL    HW2 4608   5.372   0.852   6.474
 1237SOL     OW 4609   2.687   4.779   5.863
 1237SOL    HW1 4610   2.611   4.742   5.810
 1237SOL    HW2 4611   2.745   4.703   5.895
 1238SOL     OW 4612   1.895   1.097   1.158
 1238SOL    HW1 4613   1.896   1.042   1.074
 1238SOL    HW2 4614   1.800   1.124   1.178
 1239SOL     OW 4615   6.897   6.119   6.596
 1239SOL    HW1 4616   6.807   6.117   6.640
 1239SOL    HW2 4617   6.932   6.213   6.595
 1240SOL     OW 4618   5.486   6.357   1.638
 1240SOL    HW1 4619   5.472   6.324   1.732
 1240SOL    HW2 4620   5.572   6.407   1.633
 1241SOL     OW 4621   6.638   3.563   4.155
 1241SOL    HW1 4622   6.737   3.566   4.146
 1241SOL    HW2 4623   6.607   3.638   4.213
 1242SOL     OW 4624   1.866   3.515   6.706
 1242SOL    HW1 4625   1.883   3.571   6.788
 1242SOL    HW2 4626   1.901   3.562   6.626
 1243SOL     OW 4627   1.677   5.064   5.358
 1243SOL    HW1 4628   1.643   5.141   5.411
 1243SOL    HW2 4629   1.726   5.001   5.419
 1244SOL     OW 4630   0.154   0.415   2.978
 1244SOL    HW1 4631   0.201   0.329   2.999
 1244SOL    HW2 4632   0.212   0.492   3.005
 1245SOL     OW 4633   3.113   3.514   6.655
 1245SOL    HW1 4634   3.091   3.609   6.635
 1245SOL    HW2 4635   3.031   3.467   6.689
 1246SOL     OW 4636   2.049   6.271   2.154
 1246SOL    HW1 4637   2.071   6.264   2.251
 1246SOL    HW2 4638   1.973   6.334   2.141
 1247SOL     OW 4639   2.719   0.009   6.433
 1247SOL    HW1 4640   2.816   0.024   6.455
 1247SOL    HW2 4641   2.712   6.965   6.356
 1248SOL     OW 4642   1.460   6.460   3.873
 1248SOL    HW1 4643   1.554   6.473   3.842
 1248SOL    HW2 4644   1.397   6.504   3.809
 1249SOL     OW 4645   5.384   2.830   2.753
 1249SOL    HW1 4646   5.373   2.921   2.792
 1249SOL    HW2 4647   5.475   2.820   2.714
 1250SOL     OW 4648   1.225   4.698   4.433
 1250SOL    HW1 4649   1.186   4.665   4.519
 1250SOL    HW2 4650   1.227   4.798   4.433
 1251SOL     OW 4651   4.024   0.569   4.642
 1251SOL    HW1 4652   4.099   0.519   4.598
 1251SOL    HW2 4653   3.965   0.504   4.691
 1252SOL     OW 4654   3.632   3.908   5.998
 1252SOL    HW1 4655   3.584   3.940   5.916
 1252SOL    HW2 4656   3.570   3.853   6.053
 1253SOL     OW 4657   3.598   5.420   2.275
 1253SOL    HW1 4658   3.562   5.342   2.327
 1253SOL    HW2 4659   3.641   5.484   2.338
 1254SOL     OW 4660   5.998   2.448   3.143
 1254SOL    HW1 4661   6.074   2.432   3.206
 1254SOL    HW2 4662   6.034   2.484   3.057
 1255SOL     OW 4663   0.140   0.246   5.290
 1255SOL    HW1 4664   0.181   0.171   5.239
 1255SOL    HW2 4665   0.113   0.319   5.226
 1256SOL     OW 4666   6.730   0.189   2.556
 1256SOL    HW1 4667   6.770   0.100   2.578
 1256SOL    HW2 4668   6.647   0.175   2.501
 1257SOL     OW 4669   6.984   0.895   3.223
 1257SOL    HW1 4670   6.900   0.931   3.181
 1257SOL    HW2 4671   6.984   0.795   3.217
 1258SOL     OW 4672   1.057   5.618   3.131
 1258SOL    HW1 4673   0.963   5.648   3.113
 1258SOL    HW2 4674   1.120   5.668   3.071
 1259SOL     OW 4675   4.069   1.952   4.964
 1259SOL    HW1 4676   3.983   1.992   4.933
 1259SOL    HW2 4677   4.074   1.856   4.936
 1260SOL     OW 4678   0.926   1.342   6.943
 1260SOL    HW1 4679   0.978   1.279   6.885
 1260SOL    HW2 4680   0.958   1.335   0.018
 1261SOL     OW 4681   0.219   4.981   0.191
 1261SOL    HW1 4682   0.184   4.980   0.097
 1261SOL    HW2 4683   0.173   4.909   0.244
 1262SOL     OW 4684   5.590   5.605   1.917
 1262SOL    HW1 4685   5.547   5.575   2.002
 1262SOL    HW2 4686   5.688   5.588   1.921
 1263SOL     OW 4687   0.838   2.078   2.221
 1263SOL    HW1 4688   0.859   1.988   2.260
 1263SOL    HW2 4689   0.816   2.069   2.124
 1264SOL     OW 4690   1.086   3.737   5.280
 1264SOL    HW1 4691   1.131   3.705   5.196
 1264SOL    HW2 4692   1.010   3.677   5.303
 1265SOL     OW 4693   6.204   5.529   5.577
 1265SOL    HW1 4694   6.271   5.559   5.644
 1265SOL    HW2 4695   6.115   5.520   5.621
 1266SOL     OW 4696   1.385   1.123   5.006
 1266SOL    HW1 4697   1.417   1.031   5.026
 1266SOL    HW2 4698   1.291   1.120   4.972
 1267SOL     OW 4699   5.164   0.717   1.814
 1267SOL    HW1 4700   5.194   0.812   1.805
 1267SOL    HW2 4701   5.196   0.680   1.901
 1268SOL     OW 4702   4.315   2.525   5.371
 1268SOL    HW1 4703   4.322   2.429   5.396
 1268SOL    HW2 4704   4.232   2.539   5.317
 1269SOL     OW 4705   5.337   2.562   4.063
 1269SOL    HW1 4706   5.273   2.615   4.007
 1269SOL    HW2 4707   5.430   2.576   4.030
 1270SOL     OW 4708   1.457   4.632   2.474
 1270SOL    HW1 4709   1.455   4.538   2.506
 1270SOL    HW2 4710   1.535   4.645   2.413
 1271SOL     OW 4711   1.629   1.344   1.443
 1271SOL    HW1 4712   1.650   1.265   1.385
 1271SOL    HW2 4713   1.532   1.342   1.468
 1272SOL     OW 4714   6.497   3.993   6.947
 1272SOL    HW1 4715   6.589   3.957   6.961
 1272SOL    HW2 4716   6.430   3.929   6.984
 1273SOL     OW 4717   1.382   4.429   4.953
 1273SOL    HW1 4718   1.368   4.527   4.971
 1273SOL    HW2 4719   1.297   4.390   4.918
 1274SOL     OW 4720   0.379   4.803   1.983
 1274SOL    HW1 4721   0.387   4.703   1.982
 1274SOL    HW2 4722   0.292   4.829   2.025
 1275SOL     OW 4723   3.041   1.177   3.326
 1275SOL    HW1 4724   3.003   1.188   3.418
 1275SOL    HW2 4725   3.120   1.116   3.329
 1276SOL     OW 4726   5.677   4.789   4.421
 1276SOL    HW1 4727   5.629   4.796   4.509
 1276SOL    HW2 4728   5.738   4.867   4.410
 1277SOL     OW 4729   0.561   5.708   6.784
 1277SOL    HW1 4730   0.600   5.628   6.741
 1277SOL    HW2 4731   0.561   5.696   6.884
 1278SOL     OW 4732   1.294   6.771   3.079
 1278SOL    HW1 4733   1.317   6.827   3.159
 1278SOL    HW2 4734   1.226   6.819   3.024
 1279SOL     OW 4735   3.004   2.712   6.349
 1279SOL    HW1 4736   2.960   2.626   6.325
 1279SOL    HW2 4737   2.938   2.772   6.393
 1280SOL     OW 4738   3.148   1.415   3.148
 1280SOL    HW1 4739   3.096   1.331   3.142
 1280SOL    HW2 4740   3.215   1.419   3.074
 1281SOL     OW 4741   3.507   6.492   3.801
 1281SOL    HW1 4742   3.563   6.417   3.839
 1281SOL    HW2 4743   3.433   6.453   3.746
 1282SOL     OW 4744   6.963   3.349   0.873
 1282SOL    HW1 4745   6.864   3.351   0.862
 1282SOL    HW2 4746   6.986   3.361   0.970
 1283SOL     OW 4747   6.064   3.860   5.246
 1283SOL    HW1 4748   5.997   3.934   5.234
 1283SOL    HW2 4749   6.096   3.830   5.156
 1284SOL     OW 4750   3.561   1.291   1.220
 1284SOL    HW1 4751   3.630   1.281   1.292
 1284SOL    HW2 4752   3.595   1.251   1.135
 1285SOL     OW 4753   3.525   1.555   4.346
 1285SOL    HW1 4754   3.565   1.463   4.344
 1285SOL    HW2 4755   3.564   1.610   4.272
 1286SOL     OW 4756   4.801   2.479   1.630
 1286SOL    HW1 4757   4.845   2.563   1.597
 1286SOL    HW2 4758   4.867   2.404   1.626
 1287SOL     OW 4759   6.676   5.063   4.690
 1287SOL    HW1 4760   6.741   5.038   4.762
 1287SOL    HW2 4761   6.723   5.121   4.623
 1288SOL     OW 4762   4.327   4.208   6.356
 1288SOL    HW1 4763   4.341   4.289   6.413
 1288SOL    HW2 4764   4.238   4.215   6.310
 1289SOL     OW 4765   6.272   0.598   1.170
 1289SOL    HW1 4766   6.256   0.500   1.176
 1289SOL    HW2 4767   6.248   0.630   1.078
 1290SOL     OW 4768   1.611   0.387   0.093
 1290SOL    HW1 4769   1.540   0.456   0.083
 1290SOL    HW2 4770   1.621   0.363   0.190
 1291SOL     OW 4771   6.714   4.694   3.223
 1291SOL    HW1 4772   6.791   4.747   3.257
 1291SOL    HW2 4773   6.716   4.602   3.262
 1292SOL     OW 4774   0.437   5.858   2.328
 1292SOL    HW1 4775   0.508   5.862   2.399
 1292SOL    HW2 4776   0.362   5.919   2.353
 1293SOL     OW 4777   2.301   1.436   0.013
 1293SOL    HW1 4778   2.313   1.486   6.947
 1293SOL    HW2 4779   2.222   1.473   0.063
 1294SOL     OW 4780   2.061   4.162   6.353
 1294SOL    HW1 4781   2.041   4.152   6.255
 1294SOL    HW2 4782   2.017   4.244   6.388
 1295SOL     OW 4783   0.077   3.611   1.339
 1295SOL    HW1 4784   0.025   3.664   1.272
 1295SOL    HW2 4785   0.156   3.569   1.294
 1296SOL     OW 4786   5.346   6.707   5.843
 1296SOL    HW1 4787   5.268   6.668   5.892
 1296SOL    HW2 4788   5.406   6.633   5.811
 1297SOL     OW 4789   0.752   0.521   2.858
 1297SOL    HW1 4790   0.784   0.508   2.952
 1297SOL    HW2 4791   0.711   0.436   2.825
 1298SOL     OW 4792   5.883   5.350   2.576
 1298SOL    HW1 4793   5.832   5.420   2.526
 1298SOL    HW2 4794   5.825   5.310   2.647
 1299SOL     OW 4795   2.184   3.291   4.308
 1299SOL    HW1 4796   2.174   3.238   4.224
 1299SOL    HW2 4797   2.221   3.233   4.380
 1300SOL     OW 4798   2.386   4.060   1.044
 1300SOL    HW1 4799   2.290   4.082   1.063
 1300SOL    HW2 4800   2.416   4.109   0.962
 1301SOL     OW 4801   1.096   0.868   1.690
 1301SOL    HW1 4802   1.089   0.863   1.590
 1301SOL    HW2 4803   1.026   0.809   1.731
 1302SOL     OW 4804   5.446   6.552   6.198
 1302SOL    HW1 4805   5.521   6.503   6.243
 1302SOL    HW2 4806   5.464   6.650   6.199
 1303SOL     OW 4807   4.318   6.987   2.034
 1303SOL    HW1 4808   4.224   6.952   2.034
 1303SOL    HW2 4809   4.317   0.066   2.049
 1304SOL     OW 4810   0.951   1.168   1.537
 1304SOL    HW1 4811   1.019   1.183   1.609
 1304SOL    HW2 4812   0.923   1.256   1.499
 1305SOL     OW 4813   5.069   4.726   6.560
 1305SOL    HW1 4814   5.007   4.651   6.586
 1305SOL    HW2 4815   5.027   4.813   6.583
 1306SOL     OW 4816   1.304   5.549   5.075
 1306SOL    HW1 4817   1.352   5.527   5.160
 1306SOL    HW2 4818   1.370   5.583   5.008
 1307SOL     OW 4819   1.974   3.110   3.856
 1307SOL    HW1 4820   1.923   3.139   3.775
 1307SOL    HW2 4821   2.055   3.059   3.828
 1308SOL     OW 4822   6.434   5.366   6.952
 1308SOL    HW1 4823   6.443   5.320   6.864
 1308SOL    HW2 4824   6.483   5.315   0.003
 1309SOL     OW 4825   5.254   4.386   6.203
 1309SOL    HW1 4826   5.347   4.423   6.193
 1309SOL    HW2 4827   5.201   4.446   6.263
 1310SOL     OW 4828   1.321   3.756   4.049
 1310SOL    HW1 4829   1.365   3.782   4.134
 1310SOL    HW2 4830   1.385   3.764   3.973
 1311SOL     OW 4831   6.636   5.520   0.548
 1311SOL    HW1 4832   6.663   5.555   0.458
 1311SOL    HW2 4833   6.572   5.443   0.535
 1312SOL     OW 4834   1.312   0.688   5.439
 1312SOL    HW1 4835   1.317   0.788   5.435
 1312SOL    HW2 4836   1.217   0.660   5.455
 1313SOL     OW 4837   6.327   5.267   3.259
 1313SOL    HW1 4838   6.342   5.305   3.168
 1313SOL    HW2 4839   6.406   5.210   3.284
 1314SOL     OW 4840   2.325   1.684   4.988
 1314SOL    HW1 4841   2.381   1.695   5.070
 1314SOL    HW2 4842   2.385   1.677   4.908
 1315SOL     OW 4843   6.199   0.524   3.953
 1315SOL    HW1 4844   6.241   0.582   4.022
 1315SOL    HW2 4845   6.101   0.543   3.949
 1316SOL     OW 4846   4.074   0.514   5.036
 1316SOL    HW1 4847   4.153   0.488   4.979
 1316SOL    HW2 4848   4.106   0.560   5.118
 1317SOL     OW 4849   2.847   3.669   5.899
 1317SOL    HW1 4850   2.919   3.606   5.869
 1317SOL    HW2 4851   2.863   3.694   5.995
 1318SOL     OW 4852   2.070   2.496   0.142
 1318SOL    HW1 4853   2.135   2.546   0.200
 1318SOL    HW2 4854   2.031   2.558   0.074
 1319SOL     OW 4855   6.907   6.043   6.933
 1319SOL    HW1 4856   6.945   6.065   6.843
 1319SOL    HW2 4857   6.839   5.970   6.925
 1320SOL     OW 4858   3.778   2.884   6.446
 1320SOL    HW1 4859   3.824   2.959   6.398
 1320SOL    HW2 4860   3.689   2.917   6.480
 1321SOL     OW 4861   5.584   1.987   6.673
 1321SOL    HW1 4862   5.562   1.967   6.769
 1321SOL    HW2 4863   5.669   1.940   6.648
 1322SOL     OW 4864   3.031   1.185   6.346
 1322SOL    HW1 4865   2.965   1.116   6.376
 1322SOL    HW2 4866   2.996   1.232   6.266
 1323SOL     OW 4867   3.389   0.063   0.460
 1323SOL    HW1 4868   3.464   0.000   0.481
 1323SOL    HW2 4869   3.388   0.082   0.362
 1324SOL     OW 4870   1.421   3.714   0.241
 1324SOL    HW1 4871   1.447   3.685   0.149
 1324SOL    HW2 4872   1.340   3.772   0.237
 1325SOL     OW 4873   2.245   5.906   6.000
 1325SOL    HW1 4874   2.239   5.836   5.928
 1325SOL    HW2 4875   2.169   5.893   6.064
 1326SOL     OW 4876   4.882   3.930   4.493
 1326SOL    HW1 4877   4.923   3.987   4.565
 1326SOL    HW2 4878   4.850   3.844   4.533
 1327SOL     OW 4879   0.380   6.374   0.941
 1327SOL    HW1 4880   0.363   6.472   0.930
 1327SOL    HW2 4881   0.479   6.356   0.937
 1328SOL     OW 4882   0.959   3.356   5.716
 1328SOL    HW1 4883   0.939   3.262   5.742
 1328SOL    HW2 4884   0.936   3.370   5.619
 1329SOL     OW 4885   0.562   2.654   3.001
 1329SOL    HW1 4886   0.501   2.722   2.960
 1329SOL    HW2 4887   0.518   2.564   2.997
 1330SOL     OW 4888   6.640   2.200   1.083
 1330SOL    HW1 4889   6.660   2.239   1.173
 1330SOL    HW2 4890   6.703   2.125   1.064
 1331SOL     OW 4891   4.422   2.422   2.581
 1331SOL    HW1 4892   4.323   2.436   2.573
 1331SOL    HW2 4893   4.445   2.397   2.675
 1332SOL     OW 4894   1.548   0.480   1.050
 1332SOL    HW1 4895   1.451   0.468   1.027
 1332SOL    HW2 4896   1.592   0.536   0.980
 1333SOL     OW 4897   3.876   3.894   3.249
 1333SOL    HW1 4898   3.845   3.951   3.325
 1333SOL    HW2 4899   3.915   3.809   3.284
 1334SOL     OW 4900   6.834   1.590   2.659
 1334SOL    HW1 4901   6.924   1.547   2.661
 1334SOL    HW2 4902   6.769   1.531   2.611
 1335SOL     OW 4903   2.065   4.103   1.511
 1335SOL    HW1 4904   2.062   4.038   1.435
 1335SOL    HW2 4905   1.973   4.138   1.528
 1336SOL     OW 4906   3.609   0.884   5.815
 1336SOL    HW1 4907   3.681   0.865   5.748
 1336SOL    HW2 4908   3.587   0.800   5.865
 1337SOL     OW 4909   6.088   1.678   3.625
 1337SOL    HW1 4910   6.143   1.710   3.549
 1337SOL    HW2 4911   6.090   1.578   3.628
 1338SOL     OW 4912   6.173   3.797   4.446
 1338SOL    HW1 4913   6.186   3.894   4.467
 1338SOL    HW2 4914   6.179   3.784   4.347
 1339SOL     OW 4915   0.067   0.359   6.826
 1339SOL    HW1 4916   0.061   0.320   6.918
 1339SOL    HW2 4917   0.030   0.452   6.827
 1340SOL     OW 4918   5.162   1.013   1.832
 1340SOL    HW1 4919   5.150   1.064   1.746
 1340SOL    HW2 4920   5.076   1.012   1.883
 1341SOL     OW 4921   4.495   6.983   6.834
 1341SOL    HW1 4922   4.460   0.054   6.810
 1341SOL    HW2 4923   4.487   6.969   6.933
 1342SOL     OW 4924   3.221   5.562   0.752
 1342SOL    HW1 4925   3.226   5.609   0.664
 1342SOL    HW2 4926   3.251   5.624   0.824
 1343SOL     OW 4927   5.102   4.845   3.006
 1343SOL    HW1 4928   5.136   4.915   3.068
 1343SOL    HW2 4929   5.098   4.880   2.913
 1344SOL     OW 4930   6.888   0.048   4.620
 1344SOL    HW1 4931   6.854   0.136   4.653
 1344SOL    HW2 4932   6.915   0.057   4.524
 1345SOL     OW 4933   0.479   5.377   1.870
 1345SOL    HW1 4934   0.485   5.277   1.873
 1345SOL    HW2 4935   0.410   5.409   1.935
 1346SOL     OW 4936   2.472   5.495   5.686
 1346SOL    HW1 4937   2.569   5.507   5.711
 1346SOL    HW2 4938   2.445   5.565   5.620
 1347SOL     OW 4939   1.558   0.303   6.325
 1347SOL    HW1 4940   1.536   0.211   6.357
 1347SOL    HW2 4941   1.566   0.364   6.404
 1348SOL     OW 4942   6.807   5.847   5.126
 1348SOL    HW1 4943   6.799   5.941   5.094
 1348SOL    HW2 4944   6.755   5.787   5.065
 1349SOL     OW 4945   5.699   3.077   4.022
 1349SOL    HW1 4946   5.681   2.979   4.015
 1349SOL    HW2 4947   5.614   3.128   4.010
 1350SOL     OW 4948   3.498   3.706   0.256
 1350SOL    HW1 4949   3.592   3.701   0.291
 1350SOL    HW2 4950   3.445   3.630   0.292
 1351SOL     OW 4951   6.213   2.136   4.162
 1351SOL    HW1 4952   6.121   2.110   4.133
 1351SOL    HW2 4953   6.254   2.195   4.093
 1352SOL     OW 4954   6.514   6.868   2.201
 1352SOL    HW1 4955   6.432   6.846   2.148
 1352SOL    HW2 4956   6.593   6.873   2.140
 1353SOL     OW 4957   0.076   1.694   1.027
 1353SOL    HW1 4958   0.044   1.711   0.933
 1353SOL    HW2 4959   0.135   1.613   1.028
 1354SOL     OW 4960   6.494   4.240   2.458
 1354SOL    HW1 4961   6.560   4.303   2.417
 1354SOL    HW2 4962   6.535   4.196   2.538
 1355SOL     OW 4963   5.911   3.535   4.487
 1355SOL    HW1 4964   5.927   3.447   4.532
 1355SOL    HW2 4965   5.812   3.547   4.472
 1356SOL     OW 4966   3.706   3.037   2.361
 1356SOL    HW1 4967   3.707   2.999   2.268
 1356SOL    HW2 4968   3.707   3.137   2.355
 1357SOL     OW 4969   6.435   3.750   5.753
 1357SOL    HW1 4970   6.507   3.723   5.689
 1357SOL    HW2 4971   6.411   3.846   5.739
 1358SOL     OW 4972   0.755   6.732   6.793
 1358SOL    HW1 4973   0.762   6.826   6.760
 1358SOL    HW2 4974   0.801   6.671   6.729
 1359SOL     OW 4975   6.309   4.092   1.620
 1359SOL    HW1 4976   6.388   4.138   1.661
 1359SOL    HW2 4977   6.287   4.135   1.533
 1360SOL     OW 4978   3.525   2.971   6.479
 1360SOL    HW1 4979   3.442   2.986   6.533
 1360SOL    HW2 4980   3.505   2.991   6.383
 1361SOL     OW 4981   0.527   4.123   4.725
 1361SOL    HW1 4982   0.436   4.163   4.737
 1361SOL    HW2 4983   0.519   4.023   4.722
 1362SOL     OW 4984   3.716   2.894   2.757
 1362SOL    HW1 4985   3.804   2.922   2.797
 1362SOL    HW2 4986   3.645   2.900   2.827
 1363SOL     OW 4987   6.710   5.408   5.325
 1363SOL    HW1 4988   6.745   5.329   5.275
 1363SOL    HW2 4989   6.761   5.490   5.298
 1364SOL     OW 4990   4.658   4.373   0.235
 1364SOL    HW1 4991   4.713   4.322   0.302
 1364SOL    HW2 4992   4.598   4.310   0.186
 1365SOL     OW 4993   0.616   3.497   6.642
 1365SOL    HW1 4994   0.662   3.466   6.560
 1365SOL    HW2 4995   0.658   3.456   6.722
 1366SOL     OW 4996   1.307   0.486   4.790
 1366SOL    HW1 4997   1.341   0.424   4.719
 1366SOL    HW2 4998   1.208   0.499   4.777
 1367SOL     OW 4999   1.793   1.152   2.408
 1367SOL    HW1 5000   1.833   1.243   2.395
 1367SOL    HW2 5001   1.856   1.095   2.460
 1368SOL     OW 5002   5.945   0.240   3.929
 1368SOL    HW1 5003   5.919   0.218   3.835
 1368SOL    HW2 5004   5.900   0.176   3.992
 1369SOL     OW 5005   0.555   0.367   3.114
 1369SOL    HW1 5006   0.598   0.353   3.203
 1369SOL    HW2 5007   0.618   0.343   3.041
 1370SOL     OW 5008   3.399   0.542   1.722
 1370SOL    HW1 5009   3.318   0.486   1.704
 1370SOL    HW2 5010   3.407   0.560   1.820
 1371SOL     OW 5011   3.597   0.206   5.649
 1371SOL    HW1 5012   3.663   0.133   5.661
 1371SOL    HW2 5013   3.533   0.207   5.726
 1372SOL     OW 5014   2.379   2.327   2.051
 1372SOL    HW1 5015   2.335   2.263   1.988
 1372SOL    HW2 5016   2.477   2.306   2.056
 1373SOL     OW 5017   0.607   5.379   1.246
 1373SOL    HW1 5018   0.666   5.422   1.315
 1373SOL    HW2 5019   0.520   5.429   1.242
 1374SOL     OW 5020   4.344   2.229   1.295
 1374SOL    HW1 5021   4.294   2.284   1.229
 1374SOL    HW2 5022   4.344   2.275   1.384
 1375SOL     OW 5023   0.374   4.670   6.108
 1375SOL    HW1 5024   0.397   4.763   6.135
 1375SOL    HW2 5025   0.395   4.607   6.182
 1376SOL     OW 5026   4.920   3.118   3.495
 1376SOL    HW1 5027   5.001   3.091   3.547
 1376SOL    HW2 5028   4.875   3.036   3.459
 1377SOL     OW 5029   6.800   5.004   5.445
 1377SOL    HW1 5030   6.785   5.061   5.364
 1377SOL    HW2 5031   6.813   5.062   5.525
 1378SOL     OW 5032   1.259   2.377   0.130
 1378SOL    HW1 5033   1.335   2.321   0.098
 1378SOL    HW2 5034   1.246   2.455   0.069
 1379SOL     OW 5035   3.850   6.893   2.623
 1379SOL    HW1 5036   3.752   6.895   2.601
 1379SOL    HW2 5037   3.871   6.967   2.687
 1380SOL     OW 5038   6.514   0.082   2.386
 1380SOL    HW1 5039   6.517   0.001   2.328
 1380SOL    HW2 5040   6.446   0.069   2.459
 1381SOL     OW 5041   6.484   2.264   0.258
 1381SOL    HW1 5042   6.388   2.236   0.250
 1381SOL    HW2 5043   6.518   2.244   0.350
 1382SOL     OW 5044   5.306   4.861   6.177
 1382SOL    HW1 5045   5.355   4.909   6.249
 1382SOL    HW2 5046   5.221   4.823   6.214
 1383SOL     OW 5047   2.135   0.298   0.687
 1383SOL    HW1 5048   2.075   0.313   0.765
 1383SOL    HW2 5049   2.134   0.201   0.662
 1384SOL     OW 5050   3.221   2.006   2.790
 1384SOL    HW1 5051   3.185   2.005   2.697
 1384SOL    HW2 5052   3.151   1.975   2.853
 1385SOL     OW 5053   6.825   3.297   3.264
 1385SOL    HW1 5054   6.868   3.224   3.210
 1385SOL    HW2 5055   6.766   3.256   3.334
 1386SOL     OW 5056   2.154   2.963   4.348
 1386SOL    HW1 5057   2.057   2.970   4.324
 1386SOL    HW2 5058   2.171   3.010   4.434
 1387SOL     OW 5059   2.821   0.141   5.008
 1387SOL    HW1 5060   2.864   0.157   4.919
 1387SOL    HW2 5061   2.837   0.220   5.067
 1388SOL     OW 5062   6.471   0.977   3.984
 1388SOL    HW1 5063   6.483   1.075   3.998
 1388SOL    HW2 5064   6.404   0.941   4.048
 1389SOL     OW 5065   5.930   6.957   4.484
 1389SOL    HW1 5066   5.941   6.925   4.578
 1389SOL    HW2 5067   5.909   6.878   4.425
 1390SOL     OW 5068   4.664   2.454   2.071
 1390SOL    HW1 5069   4.663   2.510   2.154
 1390SOL    HW2 5070   4.733   2.382   2.081
 1391SOL     OW 5071   5.449   0.546   4.292
 1391SOL    HW1 5072   5.501   0.548   4.378
 1391SOL    HW2 5073   5.409   0.455   4.280
 1392SOL     OW 5074   5.332   5.642   6.548
 1392SOL    HW1 5075   5.292   5.612   6.634
 1392SOL    HW2 5076   5.431   5.626   6.550
 1393SOL     OW 5077   6.658   1.057   6.481
 1393SOL    HW1 5078   6.641   1.094   6.390
 1393SOL    HW2 5079   6.623   0.963   6.486
 1394SOL     OW 5080   4.566   6.730   3.864
 1394SOL    HW1 5081   4.542   6.654   3.925
 1394SOL    HW2 5082   4.491   6.796   3.862
 1395SOL     OW 5083   1.630   5.015   2.328
 1395SOL    HW1 5084   1.567   4.963   2.270
 1395SOL    HW2 5085   1.723   4.981   2.314
 1396SOL     OW 5086   1.881   1.057   3.903
 1396SOL    HW1 5087   1.920   1.000   3.975
 1396SOL    HW2 5088   1.910   1.152   3.916
 1397SOL     OW 5089   0.364   5.532   4.393
 1397SOL    HW1 5090   0.377   5.596   4.317
 1397SOL    HW2 5091   0.400   5.442   4.367
 1398SOL     OW 5092   0.782   0.586   1.045
 1398SOL    HW1 5093   0.876   0.569   1.015
 1398SOL    HW2 5094   0.773   0.682   1.072
 1399SOL     OW 5095   3.775   0.086   0.251
 1399SOL    HW1 5096   3.816   0.002   0.286
 1399SOL    HW2 5097   3.807   0.164   0.305
 1400SOL     OW 5098   5.910   0.252   4.873
 1400SOL    HW1 5099   5.869   0.342   4.887
 1400SOL    HW2 5100   6.000   0.263   4.830
 1401SOL     OW 5101   5.111   0.430   3.237
 1401SOL    HW1 5102   5.210   0.431   3.249
 1401SOL    HW2 5103   5.067   0.482   3.310
 1402SOL     OW 5104   6.345   4.618   1.970
 1402SOL    HW1 5105   6.324   4.682   1.896
 1402SOL    HW2 5106   6.443   4.619   1.989
 1403SOL     OW 5107   3.036   3.006   6.749
 1403SOL    HW1 5108   3.071   3.019   6.656
 1403SOL    HW2 5109   2.958   3.067   6.764
 1404SOL     OW 5110   4.456   6.707   0.526
 1404SOL    HW1 5111   4.452   6.637   0.597
 1404SOL    HW2 5112   4.373   6.762   0.529
 1405SOL     OW 5113   1.731   3.164   0.558
 1405SOL    HW1 5114   1.778   3.185   0.644
 1405SOL    HW2 5115   1.683   3.246   0.526
 1406SOL     OW 5116   2.349   3.135   1.420
 1406SOL    HW1 5117   2.398   3.183   1.494
 1406SOL    HW2 5118   2.392   3.156   1.333
 1407SOL     OW 5119   0.612   3.010   1.029
 1407SOL    HW1 5120   0.513   2.995   1.023
 1407SOL    HW2 5121   0.630   3.088   1.088
 1408SOL     OW 5122   5.896   5.967   0.215
 1408SOL    HW1 5123   5.894   5.889   0.152
 1408SOL    HW2 5124   5.895   6.052   0.163
 1409SOL     OW 5125   6.985   1.537   5.888
 1409SOL    HW1 5126   6.979   1.493   5.798
 1409SOL    HW2 5127   6.927   1.619   5.889
 1410SOL     OW 5128   3.826   2.084   6.191
 1410SOL    HW1 5129   3.792   2.025   6.265
 1410SOL    HW2 5130   3.899   2.037   6.142
 1411SOL     OW 5131   4.237   5.145   0.174
 1411SOL    HW1 5132   4.239   5.092   0.089
 1411SOL    HW2 5133   4.196   5.234   0.157
 1412SOL     OW 5134   1.890   2.617   0.541
 1412SOL    HW1 5135   1.941   2.606   0.627
 1412SOL    HW2 5136   1.952   2.651   0.470
 1413SOL     OW 5137   1.884   1.641   5.589
 1413SOL    HW1 5138   1.907   1.545   5.607
 1413SOL    HW2 5139   1.785   1.651   5.583
 1414SOL     OW 5140   1.265   4.356   2.175
 1414SOL    HW1 5141   1.263   4.449   2.212
 1414SOL    HW2 5142   1.179   4.310   2.196
 1415SOL     OW 5143   1.877   1.986   4.423
 1415SOL    HW1 5144   1.809   2.054   4.395
 1415SOL    HW2 5145   1.845   1.895   4.397
 1416SOL     OW 5146   3.899   0.296   5.158
 1416SOL    HW1 5147   3.938   0.388   5.151
 1416SOL    HW2 5148   3.903   0.251   5.069
 1417SOL     OW 5149   3.582   3.148   5.946
 1417SOL    HW1 5150   3.512   3.080   5.922
 1417SOL    HW2 5151   3.558   3.236   5.904
 1418SOL     OW 5152   3.185   4.005   6.557
 1418SOL    HW1 5153   3.242   4.047   6.486
 1418SOL    HW2 5154   3.244   3.957   6.622
 1419SOL     OW 5155   1.746   4.706   2.542
 1419SOL    HW1 5156   1.835   4.662   2.555
 1419SOL    HW2 5157   1.688   4.689   2.622
 1420SOL     OW 5158   2.998   6.069   3.300
 1420SOL    HW1 5159   3.080   6.019   3.272
 1420SOL    HW2 5160   2.988   6.150   3.243
 1421SOL     OW 5161   1.334   5.059   5.786
 1421SOL    HW1 5162   1.378   5.134   5.737
 1421SOL    HW2 5163   1.350   4.973   5.737
 1422SOL     OW 5164   2.250   4.105   6.066
 1422SOL    HW1 5165   2.195   4.170   6.014
 1422SOL    HW2 5166   2.330   4.078   6.013
 1423SOL     OW 5167   4.111   0.637   5.310
 1423SOL    HW1 5168   4.089   0.544   5.342
 1423SOL    HW2 5169   4.121   0.698   5.388
 1424SOL     OW 5170   6.146   3.058   6.638
 1424SOL    HW1 5171   6.137   2.966   6.674
 1424SOL    HW2 5172   6.091   3.121   6.694
 1425SOL     OW 5173   4.976   6.269   3.750
 1425SOL    HW1 5174   5.025   6.290   3.666
 1425SOL    HW2 5175   4.895   6.327   3.758
 1426SOL     OW 5176   3.272   2.087   6.753
 1426SOL    HW1 5177   3.203   2.140   6.705
 1426SOL    HW2 5178   3.231   2.002   6.787
 1427SOL     OW 5179   1.648   1.128   4.014
 1427SOL    HW1 5180   1.567   1.083   3.976
 1427SOL    HW2 5181   1.727   1.106   3.957
 1428SOL     OW 5182   0.706   3.853   3.990
 1428SOL    HW1 5183   0.625   3.799   4.012
 1428SOL    HW2 5184   0.704   3.938   4.043
 1429SOL     OW 5185   6.001   0.873   0.718
 1429SOL    HW1 5186   6.027   0.914   0.805
 1429SOL    HW2 5187   6.015   0.939   0.644
 1430SOL     OW 5188   1.558   3.878   3.537
 1430SOL    HW1 5189   1.623   3.945   3.573
 1430SOL    HW2 5190   1.479   3.871   3.598
 1431SOL     OW 5191   2.348   1.084   5.873
 1431SOL    HW1 5192   2.421   1.153   5.875
 1431SOL    HW2 5193   2.328   1.059   5.779
 1432SOL     OW 5194   2.475   1.564   2.285
 1432SOL    HW1 5195   2.533   1.483   2.272
 1432SOL    HW2 5196   2.401   1.563   2.217
 1433SOL     OW 5197   2.735   6.988   4.283
 1433SOL    HW1 5198   2.706   7.000   4.188
 1433SOL    HW2 5199   2.835   6.990   4.288
 1434SOL     OW 5200   0.368   3.160   0.522
 1434SOL    HW1 5201   0.416   3.235   0.477
 1434SOL    HW2 5202   0.352   3.087   0.456
 1435SOL     OW 5203   0.959   0.031   4.216
 1435SOL    HW1 5204   0.975   0.052   4.312
 1435SOL    HW2 5205   0.975   6.954   4.199
 1436SOL     OW 5206   5.457   2.164   6.891
 1436SOL    HW1 5207   5.387   2.227   6.924
 1436SOL    HW2 5208   5.547   2.194   6.922
 1437SOL     OW 5209   4.169   0.332   6.070
 1437SOL    HW1 5210   4.072   0.317   6.047
 1437SOL    HW2 5211   4.227   0.285   6.003
 1438SOL     OW 5212   2.625   0.246   2.233
 1438SOL    HW1 5213   2.645   0.180   2.305
 1438SOL    HW2 5214   2.684   0.228   2.154
 1439SOL     OW 5215   0.796   5.289   0.104
 1439SOL    HW1 5216   0.735   5.217   0.136
 1439SOL    HW2 5217   0.879   5.248   0.066
 1440SOL     OW 5218   3.227   2.916   3.670
 1440SOL    HW1 5219   3.257   2.962   3.587
 1440SOL    HW2 5220   3.306   2.876   3.717
 1441SOL     OW 5221   6.101   2.993   3.578
 1441SOL    HW1 5222   6.130   3.030   3.666
 1441SOL    HW2 5223   6.007   3.022   3.559
 1442SOL     OW 5224   5.061   4.381   0.400
 1442SOL    HW1 5225   5.058   4.480   0.392
 1442SOL    HW2 5226   5.155   4.352   0.418
 1443SOL     OW 5227   0.411   2.328   2.693
 1443SOL    HW1 5228   0.385   2.324   2.597
 1443SOL    HW2 5229   0.343   2.381   2.744
 1444SOL     OW 5230   4.617   1.111   3.706
 1444SOL    HW1 5231   4.671   1.180   3.754
 1444SOL    HW2 5232   4.567   1.154   3.631
 1445SOL     OW 5233   6.044   1.889   1.577
 1445SOL    HW1 5234   6.109   1.835   1.523
 1445SOL    HW2 5235   5.967   1.915   1.520
 1446SOL     OW 5236   4.267   0.679   1.389
 1446SOL    HW1 5237   4.283   0.587   1.354
 1446SOL    HW2 5238   4.177   0.711   1.360
 1447SOL     OW 5239   6.488   0.648   5.223
 1447SOL    HW1 5240   6.416   0.657   5.154
 1447SOL    HW2 5241   6.485   0.726   5.285
 1448SOL     OW 5242   5.378   0.776   6.613
 1448SOL    HW1 5243   5.383   0.816   6.705
 1448SOL    HW2 5244   5.429   0.690   6.612
 1449SOL     OW 5245   4.991   5.892   0.976
 1449SOL    HW1 5246   4.970   5.795   0.989
 1449SOL    HW2 5247   5.090   5.904   0.977
 1450SOL     OW 5248   5.623   2.787   3.223
 1450SOL    HW1 5249   5.535   2.758   3.261
 1450SOL    HW2 5250   5.692   2.716   3.240
 1451SOL     OW 5251   1.101   6.169   3.277
 1451SOL    HW1 5252   1.018   6.113   3.278
 1451SOL    HW2 5253   1.178   6.116   3.312
 1452SOL     OW 5254   4.529   1.288   5.507
 1452SOL    HW1 5255   4.507   1.366   5.449
 1452SOL    HW2 5256   4.597   1.314   5.575
 1453SOL     OW 5257   5.436   4.788   5.248
 1453SOL    HW1 5258   5.466   4.698   5.218
 1453SOL    HW2 5259   5.454   4.799   5.346
 1454SOL     OW 5260   4.020   4.075   1.044
 1454SOL    HW1 5261   4.105   4.042   1.002
 1454SOL    HW2 5262   3.995   4.014   1.119
 1455SOL     OW 5263   1.744   2.200   1.630
 1455SOL    HW1 5264   1.776   2.185   1.723
 1455SOL    HW2 5265   1.712   2.113   1.592
 1456SOL     OW 5266   6.213   6.131   3.558
 1456SOL    HW1 5267   6.247   6.224   3.567
 1456SOL    HW2 5268   6.185   6.097   3.648
 1457SOL     OW 5269   1.528   0.616   3.001
 1457SOL    HW1 5270   1.445   0.577   3.042
 1457SOL    HW2 5271   1.503   0.698   2.949
 1458SOL     OW 5272   5.531   5.386   6.770
 1458SOL    HW1 5273   5.606   5.380   6.836
 1458SOL    HW2 5274   5.530   5.304   6.713
 1459SOL     OW 5275   2.250   6.843   6.713
 1459SOL    HW1 5276   2.317   6.793   6.768
 1459SOL    HW2 5277   2.270   6.941   6.718
 1460SOL     OW 5278   1.267   0.154   6.966
 1460SOL    HW1 5279   1.220   0.180   6.881
 1460SOL    HW2 5280   1.271   0.055   6.973
 1461SOL     OW 5281   5.442   4.357   1.468
 1461SOL    HW1 5282   5.409   4.265   1.487
 1461SOL    HW2 5283   5.383   4.423   1.514
 1462SOL     OW 5284   5.819   1.022   6.208
 1462SOL    HW1 5285   5.783   1.115   6.212
 1462SOL    HW2 5286   5.747   0.956   6.230
 1463SOL     OW 5287   0.900   1.354   4.728
 1463SOL    HW1 5288   0.868   1.269   4.770
 1463SOL    HW2 5289   0.974   1.333   4.664
 1464SOL     OW 5290   0.374   6.203   1.158
 1464SOL    HW1 5291   0.413   6.260   1.231
 1464SOL    HW2 5292   0.389   6.246   1.070
 1465SOL     OW 5293   6.940   6.622   4.595
 1465SOL    HW1 5294   7.016   6.678   4.564
 1465SOL    HW2 5295   6.948   6.530   4.556
 1466SOL     OW 5296   5.708   4.915   3.409
 1466SOL    HW1 5297   5.643   4.903   3.483
 1466SOL    HW2 5298   5.671   4.978   3.341
 1467SOL     OW 5299   0.852   2.322   3.174
 1467SOL    HW1 5300   0.763   2.281   3.155
 1467SOL    HW2 5301   0.918   2.250   3.197
 1468SOL     OW 5302   5.617   5.751   3.693
 1468SOL    HW1 5303   5.521   5.739   3.668
 1468SOL    HW2 5304   5.675   5.710   3.623
 1469SOL     OW 5305   0.953   1.339   2.988
 1469SOL    HW1 5306   0.948   1.259   3.048
 1469SOL    HW2 5307   1.048   1.359   2.965
 1470SOL     OW 5308   0.676   1.416   3.000
 1470SOL    HW1 5309   0.773   1.399   2.979
 1470SOL    HW2 5310   0.658   1.391   3.095
 1471SOL     OW 5311   0.389   6.968   6.965
 1471SOL    HW1 5312   0.396   7.017   0.032
 1471SOL    HW2 5313   0.433   6.878   6.975
 1472SOL     OW 5314   4.378   0.990   5.795
 1472SOL    HW1 5315   4.364   0.896   5.765
 1472SOL    HW2 5316   4.375   0.995   5.894
 1473SOL     OW 5317   6.294   4.040   3.917
 1473SOL    HW1 5318   6.341   4.018   3.832
 1473SOL    HW2 5319   6.201   4.072   3.897
 1474SOL     OW 5320   4.680   5.585   3.634
 1474SOL    HW1 5321   4.747   5.578   3.561
 1474SOL    HW2 5322   4.708   5.658   3.698
 1475SOL     OW 5323   0.717   0.940   2.229
 1475SOL    HW1 5324   0.629   0.924   2.273
 1475SOL    HW2 5325   0.706   0.934   2.129
 1476SOL     OW 5326   6.650   1.855   2.144
 1476SOL    HW1 5327   6.711   1.851   2.065
 1476SOL    HW2 5328   6.645   1.764   2.187
 1477SOL     OW 5329   2.587   5.726   4.130
 1477SOL    HW1 5330   2.592   5.809   4.185
 1477SOL    HW2 5331   2.518   5.737   4.058
 1478SOL     OW 5332   6.465   4.068   1.169
 1478SOL    HW1 5333   6.367   4.047   1.176
 1478SOL    HW2 5334   6.488   4.139   1.236
 1479SOL     OW 5335   1.632   5.100   0.782
 1479SOL    HW1 5336   1.626   5.053   0.870
 1479SOL    HW2 5337   1.700   5.173   0.787
 1480SOL     OW 5338   2.795   1.026   6.942
 1480SOL    HW1 5339   2.702   0.993   6.925
 1480SOL    HW2 5340   2.791   1.118   6.979
 1481SOL     OW 5341   5.947   2.479   6.268
 1481SOL    HW1 5342   5.892   2.398   6.287
 1481SOL    HW2 5343   6.042   2.462   6.296
 1482SOL     OW 5344   6.287   0.382   6.479
 1482SOL    HW1 5345   6.201   0.331   6.474
 1482SOL    HW2 5346   6.359   0.321   6.512
 1483SOL     OW 5347   6.081   1.897   0.256
 1483SOL    HW1 5348   6.161   1.893   0.196
 1483SOL    HW2 5349   6.111   1.909   0.351
 1484SOL     OW 5350   6.347   5.320   2.384
 1484SOL    HW1 5351   6.361   5.419   2.383
 1484SOL    HW2 5352   6.306   5.293   2.472
 1485SOL     OW 5353   5.030   2.655   4.154
 1485SOL    HW1 5354   4.962   2.728   4.164
 1485SOL    HW2 5355   5.067   2.657   4.061
 1486SOL     OW 5356   4.814   1.827   2.203
 1486SOL    HW1 5357   4.767   1.902   2.251
 1486SOL    HW2 5358   4.848   1.861   2.115
 1487SOL     OW 5359   6.189   1.285   5.519
 1487SOL    HW1 5360   6.257   1.229   5.566
 1487SOL    HW2 5361   6.228   1.375   5.500
 1488SOL     OW 5362   4.291   1.923   3.135
 1488SOL    HW1 5363   4.304   1.917   3.036
 1488SOL    HW2 5364   4.196   1.903   3.158
 1489SOL     OW 5365   3.850   5.676   5.110
 1489SOL    HW1 5366   3.894   5.760   5.141
 1489SOL    HW2 5367   3.799   5.694   5.025
 1490SOL     OW 5368   1.788   2.753   0.216
 1490SOL    HW1 5369   1.845   2.695   0.159
 1490SOL    HW2 5370   1.753   2.829   0.162
 1491SOL     OW 5371   0.436   3.331   4.118
 1491SOL    HW1 5372   0.348   3.298   4.153
 1491SOL    HW2 5373   0.507   3.314   4.185
 1492SOL     OW 5374   4.928   2.135   1.789
 1492SOL    HW1 5375   4.864   2.097   1.723
 1492SOL    HW2 5376   4.974   2.215   1.749
 1493SOL     OW 5377   5.293   0.962   5.044
 1493SOL    HW1 5378   5.276   0.881   5.101
 1493SOL    HW2 5379   5.378   1.005   5.072
 1494SOL     OW 5380   4.692   2.660   5.914
 1494SOL    HW1 5381   4.643   2.729   5.860
 1494SOL    HW2 5382   4.717   2.699   6.002
 1495SOL     OW 5383   1.770   3.062   2.399
 1495SOL    HW1 5384   1.777   3.159   2.374
 1495SOL    HW2 5385   1.806   3.049   2.491
 1496SOL     OW 5386   0.551   0.365   2.241
 1496SOL    HW1 5387   0.459   0.328   2.225
 1496SOL    HW2 5388   0.617   0.290   2.244
 1497SOL     OW 5389   6.089   5.454   4.718
 1497SOL    HW1 5390   6.142   5.481   4.798
 1497SOL    HW2 5391   5.993   5.443   4.744
 1498SOL     OW 5392   2.444   6.342   0.308
 1498SOL    HW1 5393   2.522   6.298   0.261
 1498SOL    HW2 5394   2.374   6.273   0.326
 1499SOL     OW 5395   0.974   3.884   5.645
 1499SOL    HW1 5396   1.068   3.867   5.616
 1499SOL    HW2 5397   0.918   3.912   5.567
 1500SOL     OW 5398   4.712   0.448   6.172
 1500SOL    HW1 5399   4.788   0.408   6.223
 1500SOL    HW2 5400   4.705   0.404   6.083
 1501SOL     OW 5401   3.992   6.440   6.264
 1501SOL    HW1 5402   3.968   6.363   6.322
 1501SOL    HW2 5403   4.044   6.506   6.317
 1502SOL     OW 5404   6.161   6.142   0.225
 1502SOL    HW1 5405   6.072   6.099   0.241
 1502SOL    HW2 5406   6.184   6.201   0.302
 1503SOL     OW 5407   4.012   2.882   6.114
 1503SOL    HW1 5408   4.034   2.932   6.030
 1503SOL    HW2 5409   3.970   2.795   6.091
 1504SOL     OW 5410   3.139   6.045   4.860
 1504SOL    HW1 5411   3.111   5.955   4.894
 1504SOL    HW2 5412   3.216   6.034   4.797
 1505SOL     OW 5413   5.387   5.554   0.022
 1505SOL    HW1 5414   5.466   5.607   7.011
 1505SOL    HW2 5415   5.405   5.518   0.114
 1506SOL     OW 5416   0.811   6.275   4.480
 1506SOL    HW1 5417   0.737   6.340   4.494
 1506SOL    HW2 5418   0.852   6.289   4.390
 1507SOL     OW 5419   1.709   1.575   6.019
 1507SOL    HW1 5420   1.728   1.615   6.109
 1507SOL    HW2 5421   1.781   1.510   5.995
 1508SOL     OW 5422   5.097   6.973   0.134
 1508SOL    HW1 5423   5.022   0.019   0.137
 1508SOL    HW2 5424   5.180   7.019   0.101
 1509SOL     OW 5425   4.815   2.230   0.566
 1509SOL    HW1 5426   4.913   2.211   0.564
 1509SOL    HW2 5427   4.800   2.327   0.546
 1510SOL     OW 5428   6.807   1.989   3.945
 1510SOL    HW1 5429   6.837   1.904   3.990
 1510SOL    HW2 5430   6.710   1.981   3.922
 1511SOL     OW 5431   1.737   2.799   0.695
 1511SOL    HW1 5432   1.673   2.843   0.633
 1511SOL    HW2 5433   1.809   2.754   0.642
 1512SOL     OW 5434   0.080   0.970   2.108
 1512SOL    HW1 5435   0.167   0.987   2.154
 1512SOL    HW2 5436   0.037   0.888   2.147
 1513SOL     OW 5437   3.609   0.706   3.107
 1513SOL    HW1 5438   3.613   0.636   3.037
 1513SOL    HW2 5439   3.697   0.754   3.112
 1514SOL     OW 5440   5.027   1.488   5.182
 1514SOL    HW1 5441   5.018   1.458   5.087
 1514SOL    HW2 5442   5.114   1.535   5.194
 1515SOL     OW 5443   0.129   4.544   4.442
 1515SOL    HW1 5444   0.086   4.454   4.441
 1515SOL    HW2 5445   0.079   4.606   4.382
 1516SOL     OW 5446   0.930   0.911   0.453
 1516SOL    HW1 5447   0.931   0.859   0.539
 1516SOL    HW2 5448   0.857   0.876   0.394
 1517SOL     OW 5449   4.236   5.659   3.450
 1517SOL    HW1 5450   4.211   5.563   3.434
 1517SOL    HW2 5451   4.182   5.717   3.389
 1518SOL     OW 5452   0.778   4.335   1.489
 1518SOL    HW1 5453   0.785   4.276   1.569
 1518SOL    HW2 5454   0.841   4.302   1.418
 1519SOL     OW 5455   6.285   4.560   0.638
 1519SOL    HW1 5456   6.258   4.464   0.629
 1519SOL    HW2 5457   6.214   4.618   0.598
 1520SOL     OW 5458   1.363   3.888   3.062
 1520SOL    HW1 5459   1.401   3.850   3.146
 1520SOL    HW2 5460   1.429   3.877   2.988
 1521SOL     OW 5461   2.811   3.823   6.806
 1521SOL    HW1 5462   2.724   3.847   6.764
 1521SOL    HW2 5463   2.796   3.762   6.884
 1522SOL     OW 5464   6.084   2.419   0.146
 1522SOL    HW1 5465   6.122   2.410   0.238
 1522SOL    HW2 5466   6.149   2.384   0.079
 1523SOL     OW 5467   0.505   2.133   1.250
 1523SOL    HW1 5468   0.528   2.195   1.325
 1523SOL    HW2 5469   0.406   2.114   1.252
 1524SOL     OW 5470   6.982   0.708   2.174
 1524SOL    HW1 5471   6.900   0.665   2.138
 1524SOL    HW2 5472   6.964   0.743   2.266
 1525SOL     OW 5473   4.648   2.188   6.234
 1525SOL    HW1 5474   4.634   2.175   6.332
 1525SOL    HW2 5475   4.562   2.176   6.185
 1526SOL     OW 5476   6.677   2.455   1.628
 1526SOL    HW1 5477   6.737   2.532   1.607
 1526SOL    HW2 5478   6.728   2.384   1.677
 1527SOL     OW 5479   3.472   2.030   5.886
 1527SOL    HW1 5480   3.480   2.020   5.787
 1527SOL    HW2 5481   3.548   1.985   5.931
 1528SOL     OW 5482   4.939   6.307   3.405
 1528SOL    HW1 5483   4.846   6.305   3.442
 1528SOL    HW2 5484   4.989   6.385   3.444
 1529SOL     OW 5485   3.459   0.211   5.910
 1529SOL    HW1 5486   3.371   0.246   5.941
 1529SOL    HW2 5487   3.494   0.144   5.976
 1530SOL     OW 5488   3.821   6.576   2.114
 1530SOL    HW1 5489   3.875   6.647   2.161
 1530SOL    HW2 5490   3.725   6.603   2.112
 1531SOL     OW 5491   6.795   6.829   4.749
 1531SOL    HW1 5492   6.860   6.753   4.738
 1531SOL    HW2 5493   6.811   6.898   4.679
 1532SOL     OW 5494   3.115   2.034   5.224
 1532SOL    HW1 5495   3.082   2.051   5.317
 1532SOL    HW2 5496   3.122   2.120   5.175
 1533SOL     OW 5497   5.827   2.870   0.030
 1533SOL    HW1 5498   5.826   2.865   0.130
 1533SOL    HW2 5499   5.873   2.954   0.002
 1534SOL     OW 5500   6.943   5.972   1.065
 1534SOL    HW1 5501   7.003   5.999   1.140
 1534SOL    HW2 5502   6.852   6.010   1.080
 1535SOL     OW 5503   4.220   5.049   4.163
 1535SOL    HW1 5504   4.272   5.065   4.247
 1535SOL    HW2 5505   4.211   4.950   4.149
 1536SOL     OW 5506   2.900   6.265   5.267
 1536SOL    HW1 5507   2.982   6.217   5.234
 1536SOL    HW2 5508   2.872   6.333   5.200
 1537SOL     OW 5509   1.724   5.587   4.631
 1537SOL    HW1 5510   1.759   5.505   4.675
 1537SOL    HW2 5511   1.796   5.656   4.627
 1538SOL     OW 5512   2.295   5.674   6.374
 1538SOL    HW1 5513   2.242   5.705   6.453
 1538SOL    HW2 5514   2.233   5.651   6.299
 1539SOL     OW 5515   3.568   4.816   1.648
 1539SOL    HW1 5516   3.589   4.730   1.603
 1539SOL    HW2 5517   3.571   4.803   1.747
 1540SOL     OW 5518   0.470   6.753   4.737
 1540SOL    HW1 5519   0.528   6.724   4.661
 1540SOL    HW2 5520   0.520   6.742   4.823
 1541SOL     OW 5521   5.113   2.290   1.031
 1541SOL    HW1 5522   5.126   2.389   1.033
 1541SOL    HW2 5523   5.016   2.269   1.018
 1542SOL     OW 5524   0.960   6.762   1.003
 1542SOL    HW1 5525   1.025   6.756   1.078
 1542SOL    HW2 5526   0.883   6.701   1.020
 1543SOL     OW 5527   3.056   3.992   4.054
 1543SOL    HW1 5528   3.055   3.961   4.149
 1543SOL    HW2 5529   3.137   4.048   4.038
 1544SOL     OW 5530   3.457   4.087   2.843
 1544SOL    HW1 5531   3.448   4.164   2.907
 1544SOL    HW2 5532   3.420   4.113   2.754
 1545SOL     OW 5533   5.882   0.020   5.015
 1545SOL    HW1 5534   5.901   0.113   4.983
 1545SOL    HW2 5535   5.911   0.010   5.110
 1546SOL     OW 5536   0.520   6.470   6.020
 1546SOL    HW1 5537   0.609   6.428   6.041
 1546SOL    HW2 5538   0.449   6.399   6.024
 1547SOL     OW 5539   3.555   6.067   0.835
 1547SOL    HW1 5540   3.468   6.106   0.864
 1547SOL    HW2 5541   3.559   5.971   0.862
 1548SOL     OW 5542   5.309   4.105   4.508
 1548SOL    HW1 5543   5.362   4.190   4.504
 1548SOL    HW2 5544   5.270   4.086   4.418
 1549SOL     OW 5545   6.695   1.677   1.305
 1549SOL    HW1 5546   6.783   1.721   1.287
 1549SOL    HW2 5547   6.711   1.584   1.338
 1550SOL     OW 5548   2.433   6.007   4.419
 1550SOL    HW1 5549   2.422   6.101   4.451
 1550SOL    HW2 5550   2.343   5.964   4.412
 1551SOL     OW 5551   1.672   2.137   0.908
 1551SOL    HW1 5552   1.706   2.146   1.002
 1551SOL    HW2 5553   1.716   2.205   0.850
 1552SOL     OW 5554   0.916   0.352   0.701
 1552SOL    HW1 5555   0.941   0.256   0.718
 1552SOL    HW2 5556   0.819   0.365   0.724
 1553SOL     OW 5557   6.105   1.545   6.209
 1553SOL    HW1 5558   6.195   1.506   6.191
 1553SOL    HW2 5559   6.070   1.587   6.124
 1554SOL     OW 5560   3.348   1.774   1.947
 1554SOL    HW1 5561   3.367   1.843   1.878
 1554SOL    HW2 5562   3.396   1.797   2.032
 1555SOL     OW 5563   4.280   1.426   5.738
 1555SOL    HW1 5564   4.359   1.376   5.772
 1555SOL    HW2 5565   4.198   1.397   5.788
 1556SOL     OW 5566   3.413   1.533   1.103
 1556SOL    HW1 5567   3.326   1.536   1.055
 1556SOL    HW2 5568   3.426   1.441   1.142
 1557SOL     OW 5569   1.749   1.846   0.864
 1557SOL    HW1 5570   1.743   1.945   0.850
 1557SOL    HW2 5571   1.822   1.827   0.930
 1558SOL     OW 5572   6.687   3.360   6.376
 1558SOL    HW1 5573   6.715   3.265   6.387
 1558SOL    HW2 5574   6.587   3.366   6.376
 1559SOL     OW 5575   1.858   4.833   2.970
 1559SOL    HW1 5576   1.858   4.832   3.070
 1559SOL    HW2 5577   1.936   4.781   2.936
 1560SOL     OW 5578   4.030   1.378   1.493
 1560SOL    HW1 5579   4.128   1.396   1.504
 1560SOL    HW2 5580   3.978   1.455   1.529
 1561SOL     OW 5581   6.323   5.939   1.289
 1561SOL    HW1 5582   6.347   5.943   1.192
 1561SOL    HW2 5583   6.405   5.921   1.343
 1562SOL     OW 5584   3.576   6.564   2.477
 1562SOL    HW1 5585   3.531   6.531   2.395
 1562SOL    HW2 5586   3.669   6.528   2.481
 1563SOL     OW 5587   4.025   2.147   4.427
 1563SOL    HW1 5588   4.103   2.189   4.473
 1563SOL    HW2 5589   3.969   2.098   4.495
 1564SOL     OW 5590   1.321   2.222   2.685
 1564SOL    HW1 5591   1.284   2.261   2.769
 1564SOL    HW2 5592   1.252   2.228   2.612
 1565SOL     OW 5593   3.979   0.882   5.201
 1565SOL    HW1 5594   4.043   0.831   5.258
 1565SOL    HW2 5595   3.975   0.840   5.110
 1566SOL     OW 5596   4.637   4.896   3.084
 1566SOL    HW1 5597   4.688   4.981   3.096
 1566SOL    HW2 5598   4.592   4.871   3.170
 1567SOL     OW 5599   5.084   6.546   4.866
 1567SOL    HW1 5600   5.006   6.606   4.847
 1567SOL    HW2 5601   5.164   6.601   4.889
 1568SOL     OW 5602   2.646   5.800   2.799
 1568SOL    HW1 5603   2.618   5.835   2.888
 1568SOL    HW2 5604   2.628   5.701   2.794
 1569SOL     OW 5605   2.820   0.038   3.484
 1569SOL    HW1 5606   2.772   0.118   3.519
 1569SOL    HW2 5607   2.880   0.001   3.555
 1570SOL     OW 5608   3.407   6.830   0.048
 1570SOL    HW1 5609   3.379   6.737   0.022
 1570SOL    HW2 5610   3.507   6.836   0.049
 1571SOL     OW 5611   0.527   2.521   4.127
 1571SOL    HW1 5612   0.477   2.565   4.201
 1571SOL    HW2 5613   0.541   2.586   4.052
 1572SOL     OW 5614   1.738   5.104   1.920
 1572SOL    HW1 5615   1.704   5.010   1.926
 1572SOL    HW2 5616   1.826   5.104   1.872
 1573SOL     OW 5617   5.019   4.926   0.258
 1573SOL    HW1 5618   5.054   4.841   0.217
 1573SOL    HW2 5619   4.922   4.914   0.280
 1574SOL     OW 5620   6.760   3.511   2.901
 1574SOL    HW1 5621   6.729   3.452   2.827
 1574SOL    HW2 5622   6.704   3.495   2.983
 1575SOL     OW 5623   0.565   0.994   0.512
 1575SOL    HW1 5624   0.467   0.978   0.504
 1575SOL    HW2 5625   0.611   0.964   0.428
 1576SOL     OW 5626   0.194   0.186   2.431
 1576SOL    HW1 5627   0.208   0.230   2.519
 1576SOL    HW2 5628   0.236   0.241   2.359
 1577SOL     OW 5629   4.955   6.615   5.440
 1577SOL    HW1 5630   4.877   6.641   5.498
 1577SOL    HW2 5631   4.926   6.610   5.345
 1578SOL     OW 5632   4.924   0.874   6.962
 1578SOL    HW1 5633   4.945   0.795   7.019
 1578SOL    HW2 5634   4.982   0.951   6.989
 1579SOL     OW 5635   1.524   2.249   1.337
 1579SOL    HW1 5636   1.591   2.276   1.406
 1579SOL    HW2 5637   1.492   2.330   1.288
 1580SOL     OW 5638   3.248   3.605   2.966
 1580SOL    HW1 5639   3.160   3.633   2.927
 1580SOL    HW2 5640   3.311   3.683   2.963
 1581SOL     OW 5641   6.520   4.602   5.572
 1581SOL    HW1 5642   6.438   4.631   5.620
 1581SOL    HW2 5643   6.550   4.513   5.606
 1582SOL     OW 5644   4.570   6.846   5.296
 1582SOL    HW1 5645   4.596   6.798   5.380
 1582SOL    HW2 5646   4.647   6.846   5.233
 1583SOL     OW 5647   0.973   5.959   5.032
 1583SOL    HW1 5648   1.045   5.933   5.096
 1583SOL    HW2 5649   0.894   5.993   5.083
 1584SOL     OW 5650   0.549   5.123   6.915
 1584SOL    HW1 5651   0.627   5.071   6.947
 1584SOL    HW2 5652   0.468   5.064   6.912
 1585SOL     OW 5653   4.128   0.182   3.335
 1585SOL    HW1 5654   4.090   0.090   3.326
 1585SOL    HW2 5655   4.091   0.241   3.263
 1586SOL     OW 5656   2.496   4.693   3.708
 1586SOL    HW1 5657   2.418   4.634   3.689
 1586SOL    HW2 5658   2.526   4.679   3.802
 1587SOL     OW 5659   1.921   6.001   5.547
 1587SOL    HW1 5660   1.998   6.052   5.507
 1587SOL    HW2 5661   1.873   5.951   5.475
 1588SOL     OW 5662   6.067   0.772   2.659
 1588SOL    HW1 5663   6.048   0.775   2.757
 1588SOL    HW2 5664   5.981   0.778   2.608
 1589SOL     OW 5665   6.235   4.595   4.158
 1589SOL    HW1 5666   6.307   4.528   4.177
 1589SOL    HW2 5667   6.275   4.676   4.116
 1590SOL     OW 5668   6.352   2.302   3.987
 1590SOL    HW1 5669   6.292   2.381   3.974
 1590SOL    HW2 5670   6.447   2.332   3.989
 1591SOL     OW 5671   0.874   6.155   1.918
 1591SOL    HW1 5672   0.842   6.084   1.979
 1591SOL    HW2 5673   0.871   6.122   1.824
 1592SOL     OW 5674   0.682   4.027   6.765
 1592SOL    HW1 5675   0.721   4.119   6.770
 1592SOL    HW2 5676   0.629   4.008   6.848
 1593SOL     OW 5677   2.199   0.314   7.019
 1593SOL    HW1 5678   2.128   0.254   6.982
 1593SOL    HW2 5679   2.177   0.409   6.998
 1594SOL     OW 5680   6.261   0.450   2.017
 1594SOL    HW1 5681   6.227   0.366   1.976
 1594SOL    HW2 5682   6.190   0.489   2.076
 1595SOL     OW 5683   1.024   4.517   6.542
 1595SOL    HW1 5684   0.925   4.508   6.533
 1595SOL    HW2 5685   1.052   4.609   6.513
 1596SOL     OW 5686   5.224   4.653   2.362
 1596SOL    HW1 5687   5.291   4.636   2.434
 1596SOL    HW2 5688   5.273   4.676   2.277
 1597SOL     OW 5689   4.047   6.507   6.790
 1597SOL    HW1 5690   3.997   6.577   6.840
 1597SOL    HW2 5691   4.145   6.514   6.812
 1598SOL     OW 5692   1.931   5.737   0.064
 1598SOL    HW1 5693   1.841   5.756   0.023
 1598SOL    HW2 5694   1.926   5.749   0.163
 1599SOL     OW 5695   4.577   4.849   4.084
 1599SOL    HW1 5696   4.507   4.855   4.013
 1599SOL    HW2 5697   4.569   4.928   4.145
 1600SOL     OW 5698   4.061   0.418   2.896
 1600SOL    HW1 5699   4.030   0.490   2.834
 1600SOL    HW2 5700   4.085   0.459   2.984
 1601SOL     OW 5701   5.983   6.434   4.148
 1601SOL    HW1 5702   5.887   6.449   4.171
 1601SOL    HW2 5703   6.041   6.476   4.218
 1602SOL     OW 5704   4.143   5.090   3.717
 1602SOL    HW1 5705   4.235   5.052   3.705
 1602SOL    HW2 5706   4.150   5.183   3.754
 1603SOL     OW 5707   2.908   5.457   3.423
 1603SOL    HW1 5708   2.853   5.499   3.496
 1603SOL    HW2 5709   2.862   5.470   3.335
 1604SOL     OW 5710   3.902   5.168   2.128
 1604SOL    HW1 5711   3.870   5.187   2.221
 1604SOL    HW2 5712   3.876   5.075   2.102
 1605SOL     OW 5713   4.827   5.441   1.176
 1605SOL    HW1 5714   4.908   5.420   1.120
 1605SOL    HW2 5715   4.774   5.513   1.133
 1606SOL     OW 5716   4.385   6.249   4.859
 1606SOL    HW1 5717   4.371   6.150   4.858
 1606SOL    HW2 5718   4.438   6.276   4.778
 1607SOL     OW 5719   4.366   5.854   2.634
 1607SOL    HW1 5720   4.422   5.863   2.551
 1607SOL    HW2 5721   4.285   5.912   2.626
 1608SOL     OW 5722   6.420   1.037   3.329
 1608SOL    HW1 5723   6.507   1.027   3.377
 1608SOL    HW2 5724   6.362   0.957   3.348
 1609SOL     OW 5725   3.697   6.265   0.711
 1609SOL    HW1 5726   3.641   6.195   0.754
 1609SOL    HW2 5727   3.786   6.270   0.757
 1610SOL     OW 5728   4.584   0.450   0.237
 1610SOL    HW1 5729   4.675   0.445   0.278
 1610SOL    HW2 5730   4.530   0.520   0.284
 1611SOL     OW 5731   1.347   3.898   1.088
 1611SOL    HW1 5732   1.305   3.989   1.081
 1611SOL    HW2 5733   1.395   3.878   1.002
 1612SOL     OW 5734   3.802   6.987   2.011
 1612SOL    HW1 5735   3.774   6.979   2.106
 1612SOL    HW2 5736   3.883   0.027   2.005
 1613SOL     OW 5737   6.896   5.566   2.428
 1613SOL    HW1 5738   6.946   5.486   2.462
 1613SOL    HW2 5739   6.808   5.538   2.392
 1614SOL     OW 5740   6.373   2.262   6.141
 1614SOL    HW1 5741   6.285   2.256   6.092
 1614SOL    HW2 5742   6.407   2.170   6.158
 1615SOL     OW 5743   0.896   5.265   6.030
 1615SOL    HW1 5744   0.873   5.211   6.111
 1615SOL    HW2 5745   0.968   5.220   5.979
 1616SOL     OW 5746   2.220   1.336   4.819
 1616SOL    HW1 5747   2.196   1.348   4.916
 1616SOL    HW2 5748   2.183   1.413   4.766
 1617SOL     OW 5749   5.345   6.004   3.264
 1617SOL    HW1 5750   5.307   6.057   3.189
 1617SOL    HW2 5751   5.279   5.998   3.338
 1618SOL     OW 5752   2.904   5.533   2.975
 1618SOL    HW1 5753   3.001   5.511   2.975
 1618SOL    HW2 5754   2.859   5.489   3.052
 1619SOL     OW 5755   1.282   5.307   0.052
 1619SOL    HW1 5756   1.321   5.216   0.067
 1619SOL    HW2 5757   1.266   5.352   0.140
 1620SOL     OW 5758   3.801   5.391   6.442
 1620SOL    HW1 5759   3.789   5.489   6.426
 1620SOL    HW2 5760   3.882   5.359   6.392
 1621SOL     OW 5761   5.324   6.513   0.227
 1621SOL    HW1 5762   5.410   6.476   0.190
 1621SOL    HW2 5763   5.300   6.597   0.177
 1622SOL     OW 5764   0.634   4.027   4.318
 1622SOL    HW1 5765   0.667   4.119   4.301
 1622SOL    HW2 5766   0.555   4.007   4.260
 1623SOL     OW 5767   0.868   2.140   4.225
 1623SOL    HW1 5768   0.856   2.214   4.158
 1623SOL    HW2 5769   0.788   2.137   4.285
 1624SOL     OW 5770   4.207   1.195   0.900
 1624SOL    HW1 5771   4.170   1.257   0.969
 1624SOL    HW2 5772   4.256   1.120   0.946
 1625SOL     OW 5773   1.863   5.472   1.220
 1625SOL    HW1 5774   1.928   5.487   1.295
 1625SOL    HW2 5775   1.807   5.391   1.240
 1626SOL     OW 5776   3.290   1.533   1.419
 1626SOL    HW1 5777   3.286   1.601   1.491
 1626SOL    HW2 5778   3.361   1.466   1.440
 1627SOL     OW 5779   4.483   1.678   4.413
 1627SOL    HW1 5780   4.474   1.749   4.344
 1627SOL    HW2 5781   4.393   1.647   4.442
 1628SOL     OW 5782   5.818   6.505   6.751
 1628SOL    HW1 5783   5.867   6.590   6.770
 1628SOL    HW2 5784   5.739   6.524   6.693
 1629SOL     OW 5785   1.791   0.823   3.118
 1629SOL    HW1 5786   1.769   0.725   3.122
 1629SOL    HW2 5787   1.717   0.872   3.072
 1630SOL     OW 5788   0.911   3.654   7.005
 1630SOL    HW1 5789   0.868   3.628   6.919
 1630SOL    HW2 5790   0.987   3.716   6.987
 1631SOL     OW 5791   0.397   3.235   0.779
 1631SOL    HW1 5792   0.478   3.194   0.822
 1631SOL    HW2 5793   0.388   3.201   0.686
 1632SOL     OW 5794   6.614   4.703   2.789
 1632SOL    HW1 5795   6.565   4.666   2.710
 1632SOL    HW2 5796   6.575   4.666   2.873
 1633SOL     OW 5797   5.122   2.989   3.929
 1633SOL    HW1 5798   5.181   3.064   3.959
 1633SOL    HW2 5799   5.026   3.017   3.935
 1634SOL     OW 5800   5.322   0.332   4.452
 1634SOL    HW1 5801   5.366   0.246   4.426
 1634SOL    HW2 5802   5.242   0.312   4.509
 1635SOL     OW 5803   3.273   5.639   4.277
 1635SOL    HW1 5804   3.219   5.609   4.356
 1635SOL    HW2 5805   3.345   5.572   4.258
 1636SOL     OW 5806   5.709   6.518   1.645
 1636SOL    HW1 5807   5.678   6.600   1.693
 1636SOL    HW2 5808   5.739   6.542   1.553
 1637SOL     OW 5809   6.829   7.016   2.213
 1637SOL    HW1 5810   6.842   0.092   2.241
 1637SOL    HW2 5811   6.890   6.957   2.266
 1638SOL     OW 5812   0.244   2.863   2.026
 1638SOL    HW1 5813   0.209   2.773   2.052
 1638SOL    HW2 5814   0.339   2.872   2.058
 1639SOL     OW 5815   4.954   2.932   2.714
 1639SOL    HW1 5816   4.874   2.885   2.675
 1639SOL    HW2 5817   5.028   2.932   2.647
 1640SOL     OW 5818   6.270   6.949   6.908
 1640SOL    HW1 5819   6.231   0.019   6.887
 1640SOL    HW2 5820   6.299   6.947   7.003
 1641SOL     OW 5821   6.585   2.446   3.038
 1641SOL    HW1 5822   6.544   2.394   3.112
 1641SOL    HW2 5823   6.539   2.423   2.952
 1642SOL     OW 5824   5.653   1.919   5.472
 1642SOL    HW1 5825   5.691   1.868   5.394
 1642SOL    HW2 5826   5.558   1.892   5.486
 1643SOL     OW 5827   2.899   5.826   4.342
 1643SOL    HW1 5828   2.813   5.857   4.384
 1643SOL    HW2 5829   2.881   5.795   4.249
 1644SOL     OW 5830   5.613   2.617   0.565
 1644SOL    HW1 5831   5.542   2.603   0.633
 1644SOL    HW2 5832   5.702   2.624   0.610
 1645SOL     OW 5833   2.470   0.960   5.362
 1645SOL    HW1 5834   2.427   1.026   5.423
 1645SOL    HW2 5835   2.434   0.970   5.270
 1646SOL     OW 5836   0.770   5.462   0.822
 1646SOL    HW1 5837   0.698   5.397   0.798
 1646SOL    HW2 5838   0.757   5.546   0.770
 1647SOL     OW 5839   6.619   3.013   4.486
 1647SOL    HW1 5840   6.710   3.048   4.463
 1647SOL    HW2 5841   6.628   2.940   4.554
 1648SOL     OW 5842   5.310   6.168   0.932
 1648SOL    HW1 5843   5.276   6.212   1.015
 1648SOL    HW2 5844   5.282   6.072   0.931
 1649SOL     OW 5845   2.875   0.379   3.370
 1649SOL    HW1 5846   2.834   0.322   3.299
 1649SOL    HW2 5847   2.910   0.320   3.444
 1650SOL     OW 5848   2.858   5.083   6.486
 1650SOL    HW1 5849   2.939   5.063   6.541
 1650SOL    HW2 5850   2.849   5.182   6.476
 1651SOL     OW 5851   0.683   2.910   3.904
 1651SOL    HW1 5852   0.756   2.858   3.861
 1651SOL    HW2 5853   0.619   2.943   3.834
 1652SOL     OW 5854   0.466   2.735   1.232
 1652SOL    HW1 5855   0.498   2.718   1.139
 1652SOL    HW2 5856   0.393   2.803   1.230
 1653SOL     OW 5857   6.904   4.867   3.339
 1653SOL    HW1 5858   6.844   4.941   3.370
 1653SOL    HW2 5859   6.985   4.862   3.398
 1654SOL     OW 5860   0.601   3.196   2.049
 1654SOL    HW1 5861   0.647   3.134   2.112
 1654SOL    HW2 5862   0.661   3.214   1.971
 1655SOL     OW 5863   0.116   6.967   4.797
 1655SOL    HW1 5864   0.093   6.955   4.700
 1655SOL    HW2 5865   0.040   7.013   4.843
 1656SOL     OW 5866   2.143   5.013   3.960
 1656SOL    HW1 5867   2.118   5.033   3.866
 1656SOL    HW2 5868   2.142   5.097   4.014
 1657SOL     OW 5869   1.115   0.486   5.490
 1657SOL    HW1 5870   1.047   0.481   5.563
 1657SOL    HW2 5871   1.074   0.526   5.409
 1658SOL     OW 5872   6.887   0.034   6.304
 1658SOL    HW1 5873   6.908   7.010   6.391
 1658SOL    HW2 5874   6.928   7.000   6.230
 1659SOL     OW 5875   4.929   6.856   6.299
 1659SOL    HW1 5876   5.005   6.852   6.234
 1659SOL    HW2 5877   4.864   6.927   6.271
 1660SOL     OW 5878   2.014   6.991   1.868
 1660SOL    HW1 5879   1.944   6.919   1.868
 1660SOL    HW2 5880   2.052   7.000   1.960
 1661SOL     OW 5881   3.694   4.908   2.632
 1661SOL    HW1 5882   3.684   4.974   2.557
 1661SOL    HW2 5883   3.752   4.948   2.703
 1662SOL     OW 5884   0.271   0.778   4.851
 1662SOL    HW1 5885   0.356   0.728   4.869
 1662SOL    HW2 5886   0.249   0.773   4.753
 1663SOL     OW 5887   4.507   4.637   1.289
 1663SOL    HW1 5888   4.463   4.566   1.344
 1663SOL    HW2 5889   4.597   4.659   1.327
 1664SOL     OW 5890   0.930   0.329   5.356
 1664SOL    HW1 5891   0.989   0.398   5.396
 1664SOL    HW2 5892   0.866   0.295   5.425
 1665SOL     OW 5893   2.062   4.266   0.879
 1665SOL    HW1 5894   2.077   4.179   0.832
 1665SOL    HW2 5895   2.013   4.249   0.964
 1666SOL     OW 5896   5.810   0.045   6.475
 1666SOL    HW1 5897   5.754   0.082   6.401
 1666SOL    HW2 5898   5.893   0.004   6.436
 1667SOL     OW 5899   0.559   6.345   1.338
 1667SOL    HW1 5900   0.622   6.347   1.415
 1667SOL    HW2 5901   0.537   6.438   1.310
 1668SOL     OW 5902   5.075   4.236   3.955
 1668SOL    HW1 5903   5.148   4.305   3.956
 1668SOL    HW2 5904   5.025   4.242   3.869
 1669SOL     OW 5905   6.736   4.014   5.436
 1669SOL    HW1 5906   6.769   3.943   5.374
 1669SOL    HW2 5907   6.721   3.975   5.527
 1670SOL     OW 5908   2.113   4.740   5.758
 1670SOL    HW1 5909   2.067   4.657   5.790
 1670SOL    HW2 5910   2.118   4.740   5.659
 1671SOL     OW 5911   5.618   1.595   1.505
 1671SOL    HW1 5912   5.559   1.536   1.449
 1671SOL    HW2 5913   5.702   1.545   1.527
 1672SOL     OW 5914   0.952   3.069   0.034
 1672SOL    HW1 5915   0.947   3.008   0.114
 1672SOL    HW2 5916   0.897   3.151   0.051
 1673SOL     OW 5917   2.451   1.709   4.465
 1673SOL    HW1 5918   2.464   1.664   4.376
 1673SOL    HW2 5919   2.354   1.714   4.486
 1674SOL     OW 5920   4.754   2.450   2.855
 1674SOL    HW1 5921   4.715   2.485   2.940
 1674SOL    HW2 5922   4.715   2.360   2.836
 1675SOL     OW 5923   5.156   1.142   0.971
 1675SOL    HW1 5924   5.164   1.092   1.057
 1675SOL    HW2 5925   5.086   1.099   0.913
 1676SOL     OW 5926   1.804   1.808   2.842
 1676SOL    HW1 5927   1.770   1.794   2.936
 1676SOL    HW2 5928   1.827   1.904   2.829
 1677SOL     OW 5929   3.833   4.062   3.482
 1677SOL    HW1 5930   3.863   4.157   3.473
 1677SOL    HW2 5931   3.833   4.037   3.579
 1678SOL     OW 5932   0.658   6.453   0.750
 1678SOL    HW1 5933   0.698   6.383   0.810
 1678SOL    HW2 5934   0.659   6.420   0.655
 1679SOL     OW 5935   1.856   1.754   5.850
 1679SOL    HW1 5936   1.791   1.699   5.903
 1679SOL    HW2 5937   1.876   1.709   5.764
 1680SOL     OW 5938   4.652   2.563   4.084
 1680SOL    HW1 5939   4.684   2.653   4.114
 1680SOL    HW2 5940   4.727   2.498   4.089
 1681SOL     OW 5941   1.707   6.409   3.781
 1681SOL    HW1 5942   1.726   6.507   3.777
 1681SOL    HW2 5943   1.770   6.365   3.845
 1682SOL     OW 5944   2.417   0.075   5.409
 1682SOL    HW1 5945   2.454   7.018   5.357
 1682SOL    HW2 5946   2.382   0.144   5.347
 1683SOL     OW 5947   5.970   4.549   2.478
 1683SOL    HW1 5948   6.069   4.560   2.475
 1683SOL    HW2 5949   5.934   4.593   2.560
 1684SOL     OW 5950   2.663   4.664   1.392
 1684SOL    HW1 5951   2.749   4.662   1.444
 1684SOL    HW2 5952   2.651   4.577   1.344
 1685SOL     OW 5953   0.521   1.108   5.674
 1685SOL    HW1 5954   0.508   1.028   5.617
 1685SOL    HW2 5955   0.596   1.092   5.738
 1686SOL     OW 5956   4.636   5.865   3.006
 1686SOL    HW1 5957   4.698   5.788   3.019
 1686SOL    HW2 5958   4.543   5.831   2.990
 1687SOL     OW 5959   6.332   4.068   2.810
 1687SOL    HW1 5960   6.370   3.987   2.855
 1687SOL    HW2 5961   6.407   4.128   2.783
 1688SOL     OW 5962   2.094   2.075   3.422
 1688SOL    HW1 5963   2.155   2.027   3.358
 1688SOL    HW2 5964   2.122   2.055   3.516
 1689SOL     OW 5965   5.708   0.919   1.525
 1689SOL    HW1 5966   5.635   0.961   1.471
 1689SOL    HW2 5967   5.670   0.851   1.587
 1690SOL     OW 5968   0.906   3.971   4.246
 1690SOL    HW1 5969   0.923   4.045   4.312
 1690SOL    HW2 5970   0.827   3.917   4.276
 1691SOL     OW 5971   4.964   2.507   5.217
 1691SOL    HW1 5972   5.030   2.564   5.266
 1691SOL    HW2 5973   4.878   2.557   5.206
 1692SOL     OW 5974   5.799   5.427   1.456
 1692SOL    HW1 5975   5.848   5.480   1.526
 1692SOL    HW2 5976   5.863   5.400   1.384
 1693SOL     OW 5977   6.144   0.246   5.294
 1693SOL    HW1 5978   6.188   0.277   5.210
 1693SOL    HW2 5979   6.199   0.173   5.336
 1694SOL     OW 5980   5.163   0.746   5.204
 1694SOL    HW1 5981   5.066   0.721   5.206
 1694SOL    HW2 5982   5.199   0.745   5.297
 1695SOL     OW 5983   3.875   0.669   6.300
 1695SOL    HW1 5984   3.862   0.655   6.398
 1695SOL    HW2 5985   3.939   0.745   6.286
 1696SOL     OW 5986   4.403   6.159   0.081
 1696SOL    HW1 5987   4.444   6.083   0.031
 1696SOL    HW2 5988   4.398   6.136   0.179
 1697SOL     OW 5989   5.985   2.223   1.379
 1697SOL    HW1 5990   6.078   2.198   1.406
 1697SOL    HW2 5991   5.932   2.139   1.365
 1698SOL     OW 5992   3.681   0.604   1.749
 1698SOL    HW1 5993   3.712   0.553   1.829
 1698SOL    HW2 5994   3.593   0.568   1.718
 1699SOL     OW 5995   2.380   0.166   0.309
 1699SOL    HW1 5996   2.406   0.183   0.214
 1699SOL    HW2 5997   2.327   0.244   0.343
 1700SOL     OW 5998   5.886   3.592   3.463
 1700SOL    HW1 5999   5.891   3.540   3.377
 1700SOL    HW2 6000   5.943   3.674   3.456
 1701SOL     OW 6001   0.196   5.295   4.816
 1701SOL    HW1 6002   0.135   5.371   4.794
 1701SOL    HW2 6003   0.188   5.273   4.913
 1702SOL     OW 6004   1.790   2.740   5.975
 1702SOL    HW1 6005   1.746   2.806   5.913
 1702SOL    HW2 6006   1.886   2.729   5.948
 1703SOL     OW 6007   3.133   1.868   6.863
 1703SOL    HW1 6008   3.157   1.856   6.959
 1703SOL    HW2 6009   3.037   1.894   6.855
 1704SOL     OW 6010   2.187   1.900   0.972
 1704SOL    HW1 6011   2.191   1.900   0.872
 1704SOL    HW2 6012   2.277   1.877   1.009
 1705SOL     OW 6013   4.289   1.188   0.658
 1705SOL    HW1 6014   4.376   1.236   0.651
 1705SOL    HW2 6015   4.254   1.194   0.751
 1706SOL     OW 6016   3.940   2.318   0.975
 1706SOL    HW1 6017   3.909   2.412   0.967
 1706SOL    HW2 6018   3.860   2.257   0.981
 1707SOL     OW 6019   4.287   1.828   2.355
 1707SOL    HW1 6020   4.291   1.774   2.271
 1707SOL    HW2 6021   4.201   1.810   2.403
 1708SOL     OW 6022   3.073   5.180   1.263
 1708SOL    HW1 6023   3.087   5.274   1.231
 1708SOL    HW2 6024   3.156   5.148   1.309
 1709SOL     OW 6025   4.661   5.698   0.539
 1709SOL    HW1 6026   4.573   5.745   0.533
 1709SOL    HW2 6027   4.718   5.725   0.461
 1710SOL     OW 6028   3.972   5.633   3.100
 1710SOL    HW1 6029   3.959   5.679   3.012
 1710SOL    HW2 6030   3.938   5.540   3.094
 1711SOL     OW 6031   3.662   5.302   6.070
 1711SOL    HW1 6032   3.674   5.308   5.971
 1711SOL    HW2 6033   3.600   5.227   6.092
 1712SOL     OW 6034   0.058   1.934   4.153
 1712SOL    HW1 6035   6.996   1.877   4.143
 1712SOL    HW2 6036   0.055   1.981   4.241
 1713SOL     OW 6037   4.071   0.754   2.508
 1713SOL    HW1 6038   4.116   0.834   2.549
 1713SOL    HW2 6039   3.991   0.783   2.457
 1714SOL     OW 6040   3.357   2.708   0.155
 1714SOL    HW1 6041   3.326   2.756   0.074
 1714SOL    HW2 6042   3.457   2.709   0.159
 1715SOL     OW 6043   1.577   6.412   2.971
 1715SOL    HW1 6044   1.674   6.429   2.985
 1715SOL    HW2 6045   1.524   6.457   3.043
 1716SOL     OW 6046   4.296   0.435   3.748
 1716SOL    HW1 6047   4.345   0.518   3.719
 1716SOL    HW2 6048   4.314   0.362   3.682
 1717SOL     OW 6049   3.960   6.053   5.543
 1717SOL    HW1 6050   3.945   6.058   5.641
 1717SOL    HW2 6051   4.039   5.994   5.524
 1718SOL     OW 6052   1.533   2.839   1.509
 1718SOL    HW1 6053   1.601   2.828   1.582
 1718SOL    HW2 6054   1.562   2.913   1.448
 1719SOL     OW 6055   0.912   5.159   1.518
 1719SOL    HW1 6056   0.981   5.225   1.547
 1719SOL    HW2 6057   0.847   5.204   1.456
 1720SOL     OW 6058   6.582   2.809   5.552
 1720SOL    HW1 6059   6.530   2.892   5.574
 1720SOL    HW2 6060   6.540   2.731   5.599
 1721SOL     OW 6061   1.477   1.934   1.790
 1721SOL    HW1 6062   1.528   1.934   1.704
 1721SOL    HW2 6063   1.471   2.027   1.826
 1722SOL     OW 6064   3.038   2.226   3.300
 1722SOL    HW1 6065   3.119   2.252   3.248
 1722SOL    HW2 6066   3.029   2.127   3.301
 1723SOL     OW 6067   5.597   3.263   0.235
 1723SOL    HW1 6068   5.503   3.294   0.253
 1723SOL    HW2 6069   5.616   3.270   0.137
 1724SOL     OW 6070   6.900   2.397   1.279
 1724SOL    HW1 6071   6.818   2.355   1.318
 1724SOL    HW2 6072   6.902   2.494   1.303
 1725SOL     OW 6073   2.106   6.134   6.952
 1725SOL    HW1 6074   2.155   6.216   6.979
 1725SOL    HW2 6075   2.112   6.066   0.006
 1726SOL     OW 6076   5.765   4.002   4.143
 1726SOL    HW1 6077   5.668   4.026   4.151
 1726SOL    HW2 6078   5.791   3.943   4.220
 1727SOL     OW 6079   3.467   3.340   2.948
 1727SOL    HW1 6080   3.429   3.287   3.024
 1727SOL    HW2 6081   3.405   3.415   2.926
 1728SOL     OW 6082   4.642   2.237   4.529
 1728SOL    HW1 6083   4.718   2.181   4.561
 1728SOL    HW2 6084   4.561   2.218   4.585
 1729SOL     OW 6085   1.853   4.112   1.945
 1729SOL    HW1 6086   1.917   4.057   1.999
 1729SOL    HW2 6087   1.860   4.208   1.973
 1730SOL     OW 6088   2.953   5.331   5.472
 1730SOL    HW1 6089   3.022   5.282   5.418
 1730SOL    HW2 6090   2.879   5.269   5.496
 1731SOL     OW 6091   6.025   4.108   4.356
 1731SOL    HW1 6092   5.982   4.128   4.267
 1731SOL    HW2 6093   5.956   4.072   4.418
 1732SOL     OW 6094   2.164   4.491   6.265
 1732SOL    HW1 6095   2.226   4.424   6.225
 1732SOL    HW2 6096   2.216   4.565   6.306
 1733SOL     OW 6097   3.061   4.205   0.121
 1733SOL    HW1 6098   3.032   4.173   0.211
 1733SOL    HW2 6099   3.008   4.157   0.050
 1734SOL     OW 6100   6.849   3.136   1.163
 1734SOL    HW1 6101   6.897   3.073   1.225
 1734SOL    HW2 6102   6.841   3.094   1.073
 1735SOL     OW 6103   3.619   4.923   6.071
 1735SOL    HW1 6104   3.528   4.963   6.058
 1735SOL    HW2 6105   3.659   4.902   5.982
 1736SOL     OW 6106   4.469   3.265   0.841
 1736SOL    HW1 6107   4.510   3.293   0.928
 1736SOL    HW2 6108   4.451   3.167   0.842
 1737SOL     OW 6109   4.690   1.347   4.983
 1737SOL    HW1 6110   4.623   1.395   5.040
 1737SOL    HW2 6111   4.715   1.405   4.905
 1738SOL     OW 6112   1.296   3.200   4.399
 1738SOL    HW1 6113   1.245   3.283   4.377
 1738SOL    HW2 6114   1.247   3.148   4.469
 1739SOL     OW 6115   5.194   0.348   4.074
 1739SOL    HW1 6116   5.215   0.438   4.036
 1739SOL    HW2 6117   5.278   0.302   4.100
 1740SOL     OW 6118   6.495   3.013   4.240
 1740SOL    HW1 6119   6.534   3.095   4.197
 1740SOL    HW2 6120   6.534   3.001   4.331
 1741SOL     OW 6121   1.214   2.169   4.357
 1741SOL    HW1 6122   1.267   2.202   4.278
 1741SOL    HW2 6123   1.150   2.099   4.326
 1742SOL     OW 6124   6.072   5.939   6.675
 1742SOL    HW1 6125   6.028   6.000   6.609
 1742SOL    HW2 6126   6.063   5.844   6.644
 1743SOL     OW 6127   1.420   0.842   2.849
 1743SOL    HW1 6128   1.483   0.912   2.884
 1743SOL    HW2 6129   1.326   0.869   2.868
 1744SOL     OW 6130   3.764   1.894   3.980
 1744SOL    HW1 6131   3.764   1.994   3.983
 1744SOL    HW2 6132   3.821   1.858   4.054
 1745SOL     OW 6133   6.837   6.517   1.345
 1745SOL    HW1 6134   6.761   6.552   1.399
 1745SOL    HW2 6135   6.889   6.594   1.307
 1746SOL     OW 6136   1.903   4.116   3.944
 1746SOL    HW1 6137   1.915   4.163   3.857
 1746SOL    HW2 6138   1.890   4.018   3.927
 1747SOL     OW 6139   3.817   0.687   2.405
 1747SOL    HW1 6140   3.741   0.629   2.433
 1747SOL    HW2 6141   3.829   0.681   2.306
 1748SOL     OW 6142   6.758   2.231   4.772
 1748SOL    HW1 6143   6.693   2.295   4.732
 1748SOL    HW2 6144   6.791   2.168   4.701
 1749SOL     OW 6145   1.720   5.068   1.050
 1749SOL    HW1 6146   1.743   5.068   1.147
 1749SOL    HW2 6147   1.752   5.153   1.008
 1750SOL     OW 6148   4.784   6.858   5.092
 1750SOL    HW1 6149   4.724   6.932   5.061
 1750SOL    HW2 6150   4.871   6.896   5.124
 1751SOL     OW 6151   5.707   2.303   4.947
 1751SOL    HW1 6152   5.708   2.245   5.029
 1751SOL    HW2 6153   5.651   2.384   4.964
 1752SOL     OW 6154   6.370   0.852   1.206
 1752SOL    HW1 6155   6.362   0.888   1.113
 1752SOL    HW2 6156   6.335   0.759   1.208
 1753SOL     OW 6157   6.502   1.583   1.811
 1753SOL    HW1 6158   6.474   1.505   1.868
 1753SOL    HW2 6159   6.508   1.553   1.716
 1754SOL     OW 6160   3.286   5.325   5.496
 1754SOL    HW1 6161   3.241   5.290   5.414
 1754SOL    HW2 6162   3.380   5.350   5.475
 1755SOL     OW 6163   6.794   6.599   5.141
 1755SOL    HW1 6164   6.859   6.669   5.170
 1755SOL    HW2 6165   6.823   6.561   5.053
 1756SOL     OW 6166   5.507   0.160   5.938
 1756SOL    HW1 6167   5.451   0.166   6.020
 1756SOL    HW2 6168   5.482   0.078   5.886
 1757SOL     OW 6169   2.322   4.962   5.241
 1757SOL    HW1 6170   2.287   4.921   5.326
 1757SOL    HW2 6171   2.250   4.960   5.171
 1758SOL     OW 6172   2.522   6.537   4.617
 1758SOL    HW1 6173   2.504   6.450   4.571
 1758SOL    HW2 6174   2.620   6.548   4.630
 1759SOL     OW 6175   1.459   6.588   6.752
 1759SOL    HW1 6176   1.491   6.662   6.692
 1759SOL    HW2 6177   1.434   6.509   6.697
 1760SOL     OW 6178   6.315   1.360   5.200
 1760SOL    HW1 6179   6.243   1.353   5.269
 1760SOL    HW2 6180   6.319   1.275   5.148
 1761SOL     OW 6181   6.067   1.830   2.354
 1761SOL    HW1 6182   6.063   1.765   2.431
 1761SOL    HW2 6183   5.974   1.844   2.319
 1762SOL     OW 6184   7.008   1.473   5.129
 1762SOL    HW1 6185   6.934   1.537   5.147
 1762SOL    HW2 6186   6.973   1.394   5.078
 1763SOL     OW 6187   0.855   3.677   4.155
 1763SOL    HW1 6188   0.790   3.714   4.089
 1763SOL    HW2 6189   0.929   3.631   4.107
 1764SOL     OW 6190   1.064   5.259   2.601
 1764SOL    HW1 6191   1.043   5.331   2.666
 1764SOL    HW2 6192   1.100   5.179   2.649
 1765SOL     OW 6193   5.375   3.303   2.728
 1765SOL    HW1 6194   5.278   3.284   2.709
 1765SOL    HW2 6195   5.415   3.351   2.650
 1766SOL     OW 6196   4.663   5.347   4.688
 1766SOL    HW1 6197   4.691   5.281   4.619
 1766SOL    HW2 6198   4.737   5.359   4.755
 1767SOL     OW 6199   0.658   4.913   2.033
 1767SOL    HW1 6200   0.722   4.838   2.051
 1767SOL    HW2 6201   0.574   4.876   1.992
 1768SOL     OW 6202   5.009   6.571   2.287
 1768SOL    HW1 6203   4.991   6.612   2.198
 1768SOL    HW2 6204   4.949   6.613   2.355
 1769SOL     OW 6205   5.010   0.634   6.697
 1769SOL    HW1 6206   5.028   0.716   6.642
 1769SOL    HW2 6207   5.083   0.568   6.684
 1770SOL     OW 6208   2.291   5.162   6.295
 1770SOL    HW1 6209   2.231   5.097   6.342
 1770SOL    HW2 6210   2.380   5.120   6.279
 1771SOL     OW 6211   0.931   3.658   6.291
 1771SOL    HW1 6212   0.938   3.666   6.391
 1771SOL    HW2 6213   0.973   3.738   6.249
 1772SOL     OW 6214   2.394   4.390   3.509
 1772SOL    HW1 6215   2.356   4.301   3.535
 1772SOL    HW2 6216   2.338   4.429   3.436
 1773SOL     OW 6217   0.614   6.513   4.871
 1773SOL    HW1 6218   0.590   6.575   4.945
 1773SOL    HW2 6219   0.710   6.486   4.880
 1774SOL     OW 6220   5.377   5.065   1.068
 1774SOL    HW1 6221   5.451   5.096   1.008
 1774SOL    HW2 6222   5.407   5.073   1.163
 1775SOL     OW 6223   2.510   5.721   6.509
 1775SOL    HW1 6224   2.426   5.720   6.455
 1775SOL    HW2 6225   2.589   5.726   6.448
 1776SOL     OW 6226   4.859   1.282   6.359
 1776SOL    HW1 6227   4.846   1.357   6.424
 1776SOL    HW2 6228   4.945   1.294   6.310
 1777SOL     OW 6229   4.817   6.815   6.558
 1777SOL    HW1 6230   4.863   6.841   6.474
 1777SOL    HW2 6231   4.760   6.891   6.590
 1778SOL     OW 6232   6.007   6.809   4.230
 1778SOL    HW1 6233   5.979   6.904   4.234
 1778SOL    HW2 6234   6.015   6.780   4.135
 1779SOL     OW 6235   5.662   5.941   3.864
 1779SOL    HW1 6236   5.656   5.862   3.804
 1779SOL    HW2 6237   5.571   5.969   3.893
 1780SOL     OW 6238   2.175   5.510   4.713
 1780SOL    HW1 6239   2.172   5.610   4.712
 1780SOL    HW2 6240   2.198   5.479   4.806
 1781SOL     OW 6241   3.989   0.697   4.008
 1781SOL    HW1 6242   4.002   0.652   3.920
 1781SOL    HW2 6243   4.041   0.783   4.009
 1782SOL     OW 6244   1.272   1.599   2.734
 1782SOL    HW1 6245   1.256   1.697   2.720
 1782SOL    HW2 6246   1.332   1.565   2.662
 1783SOL     OW 6247   2.233   4.231   6.531
 1783SOL    HW1 6248   2.289   4.286   6.470
 1783SOL    HW2 6249   2.164   4.182   6.477
 1784SOL     OW 6250   2.702   0.003   1.327
 1784SOL    HW1 6251   2.726   0.041   1.237
 1784SOL    HW2 6252   2.689   6.923   1.318
 1785SOL     OW 6253   0.892   6.339   4.222
 1785SOL    HW1 6254   0.924   6.432   4.238
 1785SOL    HW2 6255   0.944   6.299   4.146
 1786SOL     OW 6256   1.073   5.974   0.450
 1786SOL    HW1 6257   1.158   5.948   0.496
 1786SOL    HW2 6258   1.029   6.048   0.501
 1787SOL     OW 6259   2.759   3.981   6.035
 1787SOL    HW1 6260   2.848   4.018   6.008
 1787SOL    HW2 6261   2.767   3.883   6.052
 1788SOL     OW 6262   4.547   3.691   0.943
 1788SOL    HW1 6263   4.518   3.671   0.849
 1788SOL    HW2 6264   4.492   3.765   0.981
 1789SOL     OW 6265   6.515   3.649   2.161
 1789SOL    HW1 6266   6.599   3.651   2.106
 1789SOL    HW2 6267   6.461   3.731   2.142
 1790SOL     OW 6268   2.583   2.429   4.852
 1790SOL    HW1 6269   2.529   2.434   4.935
 1790SOL    HW2 6270   2.664   2.372   4.868
 1791SOL     OW 6271   4.910   6.543   3.185
 1791SOL    HW1 6272   5.000   6.586   3.193
 1791SOL    HW2 6273   4.913   6.452   3.226
 1792SOL     OW 6274   0.185   1.751   5.333
 1792SOL    HW1 6275   0.132   1.809   5.271
 1792SOL    HW2 6276   0.242   1.688   5.280
 1793SOL     OW 6277   0.088   1.468   6.118
 1793SOL    HW1 6278   0.083   1.376   6.155
 1793SOL    HW2 6279   0.034   1.474   6.034
 1794SOL     OW 6280   0.993   6.989   6.300
 1794SOL    HW1 6281   0.897   7.014   6.300
 1794SOL    HW2 6282   1.009   6.916   6.233
 1795SOL     OW 6283   6.144   4.114   0.911
 1795SOL    HW1 6284   6.192   4.201   0.924
 1795SOL    HW2 6285   6.059   4.115   0.965
 1796SOL     OW 6286   0.985   0.303   6.366
 1796SOL    HW1 6287   0.921   0.241   6.412
 1796SOL    HW2 6288   1.024   0.257   6.286
 1797SOL     OW 6289   2.449   5.384   5.135
 1797SOL    HW1 6290   2.451   5.417   5.040
 1797SOL    HW2 6291   2.449   5.284   5.135
 1798SOL     OW 6292   2.924   3.292   4.380
 1798SOL    HW1 6293   2.883   3.236   4.308
 1798SOL    HW2 6294   2.968   3.372   4.339
 1799SOL     OW 6295   3.317   1.060   0.508
 1799SOL    HW1 6296   3.408   1.020   0.517
 1799SOL    HW2 6297   3.323   1.159   0.519
 1800SOL     OW 6298   5.567   3.405   4.951
 1800SOL    HW1 6299   5.545   3.393   4.854
 1800SOL    HW2 6300   5.647   3.350   4.974
 1801SOL     OW 6301   1.473   1.357   1.767
 1801SOL    HW1 6302   1.572   1.366   1.757
 1801SOL    HW2 6303   1.451   1.264   1.798
 1802SOL     OW 6304   6.731   4.785   3.631
 1802SOL    HW1 6305   6.647   4.732   3.644
 1802SOL    HW2 6306   6.737   4.817   3.536
 1803SOL     OW 6307   0.807   0.028   3.648
 1803SOL    HW1 6308   0.862   0.009   3.729
 1803SOL    HW2 6309   0.824   0.122   3.617
 1804SOL     OW 6310   2.176   3.307   5.787
 1804SOL    HW1 6311   2.198   3.346   5.697
 1804SOL    HW2 6312   2.203   3.211   5.788
 1805SOL     OW 6313   0.336   5.759   6.653
 1805SOL    HW1 6314   0.263   5.717   6.707
 1805SOL    HW2 6315   0.424   5.737   6.693
 1806SOL     OW 6316   6.999   1.669   2.220
 1806SOL    HW1 6317   0.071   1.671   2.178
 1806SOL    HW2 6318   6.988   1.750   2.278
 1807SOL     OW 6319   0.097   3.359   2.270
 1807SOL    HW1 6320   0.184   3.374   2.318
 1807SOL    HW2 6321   0.031   3.428   2.301
 1808SOL     OW 6322   5.054   1.965   5.957
 1808SOL    HW1 6323   5.108   2.039   5.918
 1808SOL    HW2 6324   5.105   1.922   6.031
 1809SOL     OW 6325   4.090   1.311   5.910
 1809SOL    HW1 6326   4.119   1.253   5.986
 1809SOL    HW2 6327   3.992   1.328   5.917
 1810SOL     OW 6328   0.200   0.197   4.213
 1810SOL    HW1 6329   0.117   0.246   4.185
 1810SOL    HW2 6330   0.273   0.262   4.231
 1811SOL     OW 6331   4.083   5.737   1.706
 1811SOL    HW1 6332   4.093   5.690   1.793
 1811SOL    HW2 6333   4.129   5.684   1.634
 1812SOL     OW 6334   4.321   6.756   5.167
 1812SOL    HW1 6335   4.344   6.677   5.111
 1812SOL    HW2 6336   4.404   6.794   5.207
 1813SOL     OW 6337   4.289   4.782   2.777
 1813SOL    HW1 6338   4.212   4.835   2.742
 1813SOL    HW2 6339   4.344   4.748   2.701
 1814SOL     OW 6340   0.042   5.913   0.489
 1814SOL    HW1 6341   0.022   5.854   0.566
 1814SOL    HW2 6342   6.977   5.934   0.440
 1815SOL     OW 6343   5.738   6.573   1.381
 1815SOL    HW1 6344   5.705   6.632   1.307
 1815SOL    HW2 6345   5.688   6.486   1.379
 1816SOL     OW 6346   4.148   5.248   5.776
 1816SOL    HW1 6347   4.233   5.224   5.823
 1816SOL    HW2 6348   4.163   5.329   5.720
 1817SOL     OW 6349   0.794   1.736   3.945
 1817SOL    HW1 6350   0.761   1.683   3.867
 1817SOL    HW2 6351   0.742   1.822   3.952
 1818SOL     OW 6352   2.068   6.796   1.197
 1818SOL    HW1 6353   2.070   6.877   1.256
 1818SOL    HW2 6354   2.161   6.759   1.189
 1819SOL     OW 6355   2.023   5.028   3.711
 1819SOL    HW1 6356   1.941   4.972   3.725
 1819SOL    HW2 6357   2.079   4.989   3.638
 1820SOL     OW 6358   3.766   0.363   4.594
 1820SOL    HW1 6359   3.679   0.408   4.575
 1820SOL    HW2 6360   3.797   0.387   4.686
 1821SOL     OW 6361   3.444   2.104   2.930
 1821SOL    HW1 6362   3.364   2.070   2.882
 1821SOL    HW2 6363   3.417   2.141   3.019
 1822SOL     OW 6364   0.015   2.884   2.690
 1822SOL    HW1 6365   6.959   2.931   2.734
 1822SOL    HW2 6366   0.034   2.926   2.602
 1823SOL     OW 6367   3.792   6.393   2.399
 1823SOL    HW1 6368   3.839   6.447   2.328
 1823SOL    HW2 6369   3.856   6.374   2.473
 1824SOL     OW 6370   3.719   3.027   1.416
 1824SOL    HW1 6371   3.714   2.981   1.505
 1824SOL    HW2 6372   3.666   3.112   1.419
 1825SOL     OW 6373   2.347   1.483   5.318
 1825SOL    HW1 6374   2.269   1.544   5.303
 1825SOL    HW2 6375   2.405   1.483   5.236
 1826SOL     OW 6376   3.387   2.250   1.795
 1826SOL    HW1 6377   3.482   2.258   1.826
 1826SOL    HW2 6378   3.378   2.295   1.706
 1827SOL     OW 6379   5.627   4.167   1.261
 1827SOL    HW1 6380   5.640   4.079   1.308
 1827SOL    HW2 6381   5.538   4.166   1.215
 1828SOL     OW 6382   1.739   3.232   5.228
 1828SOL    HW1 6383   1.741   3.307   5.163
 1828SOL    HW2 6384   1.831   3.194   5.238
 1829SOL     OW 6385   3.227   0.621   3.704
 1829SOL    HW1 6386   3.321   0.620   3.667
 1829SOL    HW2 6387   3.164   0.653   3.633
 1830SOL     OW 6388   4.583   6.800   4.613
 1830SOL    HW1 6389   4.562   6.897   4.597
 1830SOL    HW2 6390   4.682   6.787   4.607
 1831SOL     OW 6391   4.227   5.632   1.284
 1831SOL    HW1 6392   4.290   5.620   1.360
 1831SOL    HW2 6393   4.138   5.594   1.308
 1832SOL     OW 6394   2.319   3.419   0.307
 1832SOL    HW1 6395   2.235   3.445   0.356
 1832SOL    HW2 6396   2.363   3.502   0.272
 1833SOL     OW 6397   5.105   0.403   0.461
 1833SOL    HW1 6398   5.114   0.489   0.511
 1833SOL    HW2 6399   5.012   0.394   0.425
 1834SOL     OW 6400   2.049   2.194   6.018
 1834SOL    HW1 6401   2.040   2.095   6.012
 1834SOL    HW2 6402   2.120   2.218   6.084
 1835SOL     OW 6403   6.383   5.917   1.002
 1835SOL    HW1 6404   6.466   5.972   1.003
 1835SOL    HW2 6405   6.313   5.962   0.946
 1836SOL     OW 6406   5.125   2.515   1.917
 1836SOL    HW1 6407   5.168   2.605   1.917
 1836SOL    HW2 6408   5.029   2.524   1.943
 1837SOL     OW 6409   3.619   2.827   6.171
 1837SOL    HW1 6410   3.678   2.811   6.250
 1837SOL    HW2 6411   3.669   2.804   6.087
 1838SOL     OW 6412   6.217   0.990   0.374
 1838SOL    HW1 6413   6.301   1.012   0.323
 1838SOL    HW2 6414   6.188   0.897   0.352
 1839SOL     OW 6415   0.446   1.019   6.766
 1839SOL    HW1 6416   0.398   1.010   6.679
 1839SOL    HW2 6417   0.510   0.942   6.777
 1840SOL     OW 6418   4.742   6.354   3.081
 1840SOL    HW1 6419   4.784   6.439   3.110
 1840SOL    HW2 6420   4.768   6.280   3.144
 1841SOL     OW 6421   2.415   1.177   2.320
 1841SOL    HW1 6422   2.383   1.216   2.406
 1841SOL    HW2 6423   2.337   1.154   2.262
 1842SOL     OW 6424   1.508   5.508   0.117
 1842SOL    HW1 6425   1.445   5.488   0.192
 1842SOL    HW2 6426   1.602   5.499   0.148
 1843SOL     OW 6427   3.250   1.480   4.758
 1843SOL    HW1 6428   3.198   1.557   4.794
 1843SOL    HW2 6429   3.189   1.420   4.705
 1844SOL     OW 6430   5.482   2.492   6.756
 1844SOL    HW1 6431   5.384   2.474   6.766
 1844SOL    HW2 6432   5.520   2.519   6.844
 1845SOL     OW 6433   1.442   1.751   3.175
 1845SOL    HW1 6434   1.457   1.735   3.077
 1845SOL    HW2 6435   1.429   1.664   3.221
 1846SOL     OW 6436   4.089   1.773   2.053
 1846SOL    HW1 6437   4.141   1.849   2.013
 1846SOL    HW2 6438   4.151   1.701   2.083
 1847SOL     OW 6439   2.307   6.553   5.481
 1847SOL    HW1 6440   2.406   6.561   5.475
 1847SOL    HW2 6441   2.265   6.641   5.459
 1848SOL     OW 6442   2.838   5.720   3.787
 1848SOL    HW1 6443   2.895   5.761   3.716
 1848SOL    HW2 6444   2.780   5.648   3.748
 1849SOL     OW 6445   4.671   2.804   1.715
 1849SOL    HW1 6446   4.707   2.744   1.787
 1849SOL    HW2 6447   4.672   2.899   1.747
 1850SOL     OW 6448   5.265   1.429   0.917
 1850SOL    HW1 6449   5.284   1.516   0.962
 1850SOL    HW2 6450   5.167   1.409   0.925
 1851SOL     OW 6451   0.007   4.039   5.153
 1851SOL    HW1 6452   0.043   4.017   5.243
 1851SOL    HW2 6453   6.956   4.109   5.161
 1852SOL     OW 6454   0.889   6.573   2.524
 1852SOL    HW1 6455   0.879   6.475   2.503
 1852SOL    HW2 6456   0.939   6.584   2.610
 1853SOL     OW 6457   0.191   2.969   4.438
 1853SOL    HW1 6458   0.245   2.978   4.354
 1853SOL    HW2 6459   0.171   2.872   4.454
 1854SOL     OW 6460   0.464   0.443   3.452
 1854SOL    HW1 6461   0.393   0.380   3.422
 1854SOL    HW2 6462   0.550   0.420   3.406
 1855SOL     OW 6463   4.632   2.479   4.447
 1855SOL    HW1 6464   4.654   2.382   4.457
 1855SOL    HW2 6465   4.716   2.533   4.458
 1856SOL     OW 6466   3.612   2.741   0.179
 1856SOL    HW1 6467   3.645   2.662   0.127
 1856SOL    HW2 6468   3.610   2.821   0.121
 1857SOL     OW 6469   4.173   1.657   1.133
 1857SOL    HW1 6470   4.230   1.584   1.170
 1857SOL    HW2 6471   4.111   1.690   1.204
 1858SOL     OW 6472   4.450   2.389   3.993
 1858SOL    HW1 6473   4.429   2.417   3.899
 1858SOL    HW2 6474   4.513   2.455   4.034
 1859SOL     OW 6475   6.338   2.032   4.359
 1859SOL    HW1 6476   6.263   1.998   4.416
 1859SOL    HW2 6477   6.300   2.081   4.280
 1860SOL     OW 6478   1.225   1.440   4.746
 1860SOL    HW1 6479   1.174   1.420   4.830
 1860SOL    HW2 6480   1.165   1.481   4.678
 1861SOL     OW 6481   6.882   0.042   3.374
 1861SOL    HW1 6482   6.870   0.077   3.466
 1861SOL    HW2 6483   6.820   0.089   3.311
 1862SOL     OW 6484   2.890   5.642   6.370
 1862SOL    HW1 6485   2.828   5.719   6.360
 1862SOL    HW2 6486   2.841   5.557   6.351
 1863SOL     OW 6487   0.716   3.042   0.777
 1863SOL    HW1 6488   0.670   3.009   0.695
 1863SOL    HW2 6489   0.660   3.020   0.858
 1864SOL     OW 6490   4.074   5.582   2.726
 1864SOL    HW1 6491   4.010   5.522   2.677
 1864SOL    HW2 6492   4.168   5.559   2.701
 1865SOL     OW 6493   5.485   1.969   6.400
 1865SOL    HW1 6494   5.509   1.974   6.497
 1865SOL    HW2 6495   5.427   1.889   6.385
 1866SOL     OW 6496   0.698   5.073   3.521
 1866SOL    HW1 6497   0.655   5.031   3.441
 1866SOL    HW2 6498   0.644   5.152   3.549
 1867SOL     OW 6499   1.806   2.529   1.768
 1867SOL    HW1 6500   1.891   2.501   1.722
 1867SOL    HW2 6501   1.820   2.529   1.867
 1868SOL     OW 6502   6.020   3.862   5.647
 1868SOL    HW1 6503   5.976   3.930   5.588
 1868SOL    HW2 6504   6.104   3.901   5.685
 1869SOL     OW 6505   4.377   1.456   3.889
 1869SOL    HW1 6506   4.453   1.414   3.840
 1869SOL    HW2 6507   4.411   1.528   3.949
 1870SOL     OW 6508   0.103   5.504   4.484
 1870SOL    HW1 6509   0.136   5.423   4.533
 1870SOL    HW2 6510   0.177   5.540   4.427
 1871SOL     OW 6511   0.313   6.294   0.670
 1871SOL    HW1 6512   0.360   6.339   0.746
 1871SOL    HW2 6513   0.366   6.306   0.586
 1872SOL     OW 6514   2.660   2.532   1.522
 1872SOL    HW1 6515   2.749   2.507   1.560
 1872SOL    HW2 6516   2.641   2.629   1.541
 1873SOL     OW 6517   0.226   1.482   0.890
 1873SOL    HW1 6518   0.198   1.424   0.813
 1873SOL    HW2 6519   0.292   1.550   0.858
 1874SOL     OW 6520   0.353   6.349   0.127
 1874SOL    HW1 6521   0.282   6.357   0.057
 1874SOL    HW2 6522   0.311   6.326   0.214
 1875SOL     OW 6523   6.514   5.105   0.366
 1875SOL    HW1 6524   6.438   5.040   0.370
 1875SOL    HW2 6525   6.582   5.082   0.435
 1876SOL     OW 6526   6.763   5.816   6.866
 1876SOL    HW1 6527   6.832   5.780   6.802
 1876SOL    HW2 6528   6.681   5.759   6.861
 1877SOL     OW 6529   0.874   1.117   2.389
 1877SOL    HW1 6530   0.807   1.058   2.343
 1877SOL    HW2 6531   0.964   1.074   2.385
 1878SOL     OW 6532   6.634   3.863   3.534
 1878SOL    HW1 6533   6.671   3.798   3.601
 1878SOL    HW2 6534   6.702   3.933   3.514
 1879SOL     OW 6535   4.288   5.823   4.397
 1879SOL    HW1 6536   4.331   5.789   4.314
 1879SOL    HW2 6537   4.346   5.801   4.476
 1880SOL     OW 6538   0.356   1.996   3.766
 1880SOL    HW1 6539   0.302   2.020   3.847
 1880SOL    HW2 6540   0.301   1.939   3.706
 1881SOL     OW 6541   1.187   1.573   4.324
 1881SOL    HW1 6542   1.162   1.651   4.266
 1881SOL    HW2 6543   1.255   1.517   4.277
 1882SOL     OW 6544   1.856   5.651   6.567
 1882SOL    HW1 6545   1.896   5.578   6.511
 1882SOL    HW2 6546   1.906   5.658   6.654
 1883SOL     OW 6547   1.487   2.973   2.336
 1883SOL    HW1 6548   1.497   3.035   2.258
 1883SOL    HW2 6549   1.566   2.984   2.397
 1884SOL     OW 6550   2.977   1.167   0.286
 1884SOL    HW1 6551   3.068   1.132   0.262
 1884SOL    HW2 6552   2.917   1.160   0.207
 1885SOL     OW 6553   0.238   2.113   1.251
 1885SOL    HW1 6554   0.223   2.037   1.188
 1885SOL    HW2 6555   0.224   2.199   1.203
 1886SOL     OW 6556   3.178   2.802   6.147
 1886SOL    HW1 6557   3.248   2.730   6.154
 1886SOL    HW2 6558   3.099   2.777   6.203
 1887SOL     OW 6559   0.428   6.799   5.279
 1887SOL    HW1 6560   0.347   6.804   5.338
 1887SOL    HW2 6561   0.482   6.883   5.290
 1888SOL     OW 6562   2.347   2.263   5.914
 1888SOL    HW1 6563   2.254   2.236   5.887
 1888SOL    HW2 6564   2.351   2.268   6.014
 1889SOL     OW 6565   3.490   3.170   0.229
 1889SOL    HW1 6566   3.501   3.089   0.173
 1889SOL    HW2 6567   3.470   3.143   0.324
 1890SOL     OW 6568   6.338   5.299   6.558
 1890SOL    HW1 6569   6.413   5.299   6.623
 1890SOL    HW2 6570   6.374   5.295   6.465
 1891SOL     OW 6571   5.883   4.093   5.178
 1891SOL    HW1 6572   5.854   4.180   5.219
 1891SOL    HW2 6573   5.855   4.091   5.082
 1892SOL     OW 6574   4.117   6.394   1.328
 1892SOL    HW1 6575   4.118   6.396   1.228
 1892SOL    HW2 6576   4.204   6.429   1.363
 1893SOL     OW 6577   3.813   2.167   4.244
 1893SOL    HW1 6578   3.717   2.181   4.271
 1893SOL    HW2 6579   3.873   2.190   4.321
 1894SOL     OW 6580   3.764   4.039   0.945
 1894SOL    HW1 6581   3.860   4.044   0.972
 1894SOL    HW2 6582   3.712   3.988   1.013
 1895SOL     OW 6583   5.081   0.587   3.017
 1895SOL    HW1 6584   5.094   0.527   3.096
 1895SOL    HW2 6585   5.166   0.593   2.965
 1896SOL     OW 6586   6.572   1.140   5.883
 1896SOL    HW1 6587   6.572   1.054   5.934
 1896SOL    HW2 6588   6.647   1.198   5.916
 1897SOL     OW 6589   5.781   4.606   3.410
 1897SOL    HW1 6590   5.720   4.640   3.482
 1897SOL    HW2 6591   5.863   4.662   3.406
 1898SOL     OW 6592   5.894   5.128   0.023
 1898SOL    HW1 6593   5.841   5.043   0.030
 1898SOL    HW2 6594   5.947   5.127   6.958
 1899SOL     OW 6595   0.955   3.499   3.106
 1899SOL    HW1 6596   1.018   3.547   3.045
 1899SOL    HW2 6597   0.931   3.411   3.066
 1900SOL     OW 6598   2.673   5.690   0.246
 1900SOL    HW1 6599   2.756   5.640   0.273
 1900SOL    HW2 6600   2.606   5.686   0.320
 1901SOL     OW 6601   1.585   1.437   6.893
 1901SOL    HW1 6602   1.651   1.497   6.848
 1901SOL    HW2 6603   1.607   1.430   6.990
 1902SOL     OW 6604   1.151   3.021   4.929
 1902SOL    HW1 6605   1.136   2.927   4.899
 1902SOL    HW2 6606   1.225   3.023   4.997
 1903SOL     OW 6607   6.196   3.124   3.824
 1903SOL    HW1 6608   6.108   3.147   3.865
 1903SOL    HW2 6609   6.251   3.071   3.888
 1904SOL     OW 6610   6.671   0.002   3.682
 1904SOL    HW1 6611   6.728   0.083   3.670
 1904SOL    HW2 6612   6.575   0.029   3.683
 1905SOL     OW 6613   6.544   2.955   3.682
 1905SOL    HW1 6614   6.496   3.043   3.680
 1905SOL    HW2 6615   6.604   2.947   3.602
 1906SOL     OW 6616   2.381   6.973   0.811
 1906SOL    HW1 6617   2.457   7.002   0.753
 1906SOL    HW2 6618   2.413   6.904   0.876
 1907SOL     OW 6619   3.535   6.303   3.416
 1907SOL    HW1 6620   3.458   6.308   3.352
 1907SOL    HW2 6621   3.569   6.395   3.434
 1908SOL     OW 6622   4.810   1.504   6.489
 1908SOL    HW1 6623   4.843   1.535   6.578
 1908SOL    HW2 6624   4.790   1.583   6.431
 1909SOL     OW 6625   3.036   4.820   4.644
 1909SOL    HW1 6626   3.096   4.880   4.592
 1909SOL    HW2 6627   2.945   4.819   4.602
 1910SOL     OW 6628   5.165   1.492   5.534
 1910SOL    HW1 6629   5.245   1.485   5.595
 1910SOL    HW2 6630   5.137   1.588   5.527
 1911SOL     OW 6631   6.326   3.535   5.870
 1911SOL    HW1 6632   6.226   3.541   5.874
 1911SOL    HW2 6633   6.363   3.623   5.839
 1912SOL     OW 6634   3.762   0.021   3.374
 1912SOL    HW1 6635   3.818   0.060   3.301
 1912SOL    HW2 6636   3.821   7.018   3.452
 1913SOL     OW 6637   1.444   4.307   5.420
 1913SOL    HW1 6638   1.504   4.267   5.350
 1913SOL    HW2 6639   1.398   4.387   5.382
 1914SOL     OW 6640   4.054   1.684   5.722
 1914SOL    HW1 6641   4.085   1.645   5.635
 1914SOL    HW2 6642   4.134   1.706   5.778
 1915SOL     OW 6643   2.973   0.254   5.552
 1915SOL    HW1 6644   3.045   0.250   5.621
 1915SOL    HW2 6645   2.950   0.161   5.522
 1916SOL     OW 6646   3.704   6.463   1.530
 1916SOL    HW1 6647   3.659   6.393   1.586
 1916SOL    HW2 6648   3.715   6.428   1.436
 1917SOL     OW 6649   3.175   2.985   4.226
 1917SOL    HW1 6650   3.257   2.948   4.182
 1917SOL    HW2 6651   3.106   3.005   4.156
 1918SOL     OW 6652   5.781   6.728   4.392
 1918SOL    HW1 6653   5.820   6.694   4.307
 1918SOL    HW2 6654   5.705   6.790   4.372
 1919SOL     OW 6655   6.675   6.746   1.358
 1919SOL    HW1 6656   6.679   6.722   1.261
 1919SOL    HW2 6657   6.675   6.845   1.368
 1920SOL     OW 6658   6.766   5.796   4.189
 1920SOL    HW1 6659   6.751   5.834   4.098
 1920SOL    HW2 6660   6.804   5.866   4.249
 1921SOL     OW 6661   1.057   6.926   6.876
 1921SOL    HW1 6662   1.121   6.869   6.823
 1921SOL    HW2 6663   0.992   6.970   6.814
 1922SOL     OW 6664   3.373   4.306   0.637
 1922SOL    HW1 6665   3.450   4.257   0.596
 1922SOL    HW2 6666   3.291   4.293   0.581
 1923SOL     OW 6667   1.579   1.643   0.810
 1923SOL    HW1 6668   1.622   1.593   0.735
 1923SOL    HW2 6669   1.640   1.716   0.841
 1924SOL     OW 6670   0.474   4.661   1.519
 1924SOL    HW1 6671   0.409   4.667   1.595
 1924SOL    HW2 6672   0.444   4.591   1.454
 1925SOL     OW 6673   3.058   3.885   1.194
 1925SOL    HW1 6674   3.038   3.806   1.136
 1925SOL    HW2 6675   2.997   3.960   1.169
 1926SOL     OW 6676   1.267   6.993   3.825
 1926SOL    HW1 6677   1.318   0.026   3.757
 1926SOL    HW2 6678   1.305   7.010   3.916
 1927SOL     OW 6679   4.020   3.271   6.969
 1927SOL    HW1 6680   4.004   3.272   0.049
 1927SOL    HW2 6681   4.093   3.335   6.947
 1928SOL     OW 6682   6.103   4.404   5.694
 1928SOL    HW1 6683   6.111   4.354   5.608
 1928SOL    HW2 6684   6.129   4.345   5.770
 1929SOL     OW 6685   1.418   7.017   1.927
 1929SOL    HW1 6686   1.482   6.952   1.887
 1929SOL    HW2 6687   1.375   6.977   2.008
 1930SOL     OW 6688   5.696   3.871   6.081
 1930SOL    HW1 6689   5.716   3.928   6.001
 1930SOL    HW2 6690   5.628   3.803   6.057
 1931SOL     OW 6691   0.418   2.581   4.673
 1931SOL    HW1 6692   0.478   2.628   4.737
 1931SOL    HW2 6693   0.328   2.568   4.715
 1932SOL     OW 6694   6.160   3.573   1.607
 1932SOL    HW1 6695   6.175   3.671   1.623
 1932SOL    HW2 6696   6.241   3.533   1.564
 1933SOL     OW 6697   2.895   4.226   1.314
 1933SOL    HW1 6698   2.981   4.274   1.334
 1933SOL    HW2 6699   2.883   4.220   1.215
 1934SOL     OW 6700   0.854   6.011   5.314
 1934SOL    HW1 6701   0.912   5.947   5.364
 1934SOL    HW2 6702   0.869   6.104   5.350
 1935SOL     OW 6703   2.117   1.227   3.628
 1935SOL    HW1 6704   2.049   1.248   3.698
 1935SOL    HW2 6705   2.080   1.251   3.538
 1936SOL     OW 6706   6.114   5.418   5.331
 1936SOL    HW1 6707   6.059   5.498   5.306
 1936SOL    HW2 6708   6.136   5.422   5.428
 1937SOL     OW 6709   3.758   6.599   1.849
 1937SOL    HW1 6710   3.786   6.618   1.944
 1937SOL    HW2 6711   3.803   6.515   1.818
 1938SOL     OW 6712   4.861   0.928   3.815
 1938SOL    HW1 6713   4.817   0.921   3.904
 1938SOL    HW2 6714   4.792   0.928   3.743
 1939SOL     OW 6715   1.822   0.988   3.330
 1939SOL    HW1 6716   1.813   0.942   3.418
 1939SOL    HW2 6717   1.809   0.922   3.256
 1940SOL     OW 6718   0.213   5.429   6.992
 1940SOL    HW1 6719   0.214   5.368   6.913
 1940SOL    HW2 6720   0.255   5.382   0.051
 1941SOL     OW 6721   4.762   4.133   3.005
 1941SOL    HW1 6722   4.856   4.120   3.038
 1941SOL    HW2 6723   4.698   4.104   3.076
 1942SOL     OW 6724   6.188   4.724   2.763
 1942SOL    HW1 6725   6.247   4.801   2.739
 1942SOL    HW2 6726   6.093   4.756   2.770
 1943SOL     OW 6727   2.570   4.924   2.817
 1943SOL    HW1 6728   2.609   5.012   2.789
 1943SOL    HW2 6729   2.582   4.913   2.916
 1944SOL     OW 6730   6.968   1.118   1.131
 1944SOL    HW1 6731   0.004   1.201   1.130
 1944SOL    HW2 6732   6.947   1.093   1.226
 1945SOL     OW 6733   3.205   4.908   3.957
 1945SOL    HW1 6734   3.114   4.909   3.915
 1945SOL    HW2 6735   3.200   4.949   4.048
 1946SOL     OW 6736   1.290   0.697   6.808
 1946SOL    HW1 6737   1.371   0.710   6.750
 1946SOL    HW2 6738   1.283   0.774   6.871
 1947SOL     OW 6739   5.932   5.422   3.499
 1947SOL    HW1 6740   5.886   5.452   3.582
 1947SOL    HW2 6741   5.958   5.326   3.508
 1948SOL     OW 6742   6.242   5.233   4.598
 1948SOL    HW1 6743   6.217   5.321   4.639
 1948SOL    HW2 6744   6.202   5.158   4.651
 1949SOL     OW 6745   4.317   4.030   6.666
 1949SOL    HW1 6746   4.278   4.012   6.575
 1949SOL    HW2 6747   4.417   4.039   6.658
 1950SOL     OW 6748   3.031   3.760   6.624
 1950SOL    HW1 6749   2.981   3.823   6.684
 1950SOL    HW2 6750   3.122   3.797   6.605
 1951SOL     OW 6751   6.144   1.708   7.004
 1951SOL    HW1 6752   6.143   1.743   6.910
 1951SOL    HW2 6753   6.055   1.667   0.005
 1952SOL     OW 6754   3.662   2.052   6.857
 1952SOL    HW1 6755   3.634   2.088   6.767
 1952SOL    HW2 6756   3.748   2.095   6.884
 1953SOL     OW 6757   6.848   2.570   6.679
 1953SOL    HW1 6758   6.771   2.631   6.697
 1953SOL    HW2 6759   6.841   2.489   6.737
 1954SOL     OW 6760   3.218   2.164   4.089
 1954SOL    HW1 6761   3.153   2.151   4.015
 1954SOL    HW2 6762   3.181   2.126   4.174
 1955SOL     OW 6763   0.259   6.560   3.050
 1955SOL    HW1 6764   0.188   6.629   3.032
 1955SOL    HW2 6765   0.299   6.576   3.140
 1956SOL     OW 6766   6.132   5.623   2.614
 1956SOL    HW1 6767   6.180   5.710   2.610
 1956SOL    HW2 6768   6.121   5.587   2.521
 1957SOL     OW 6769   0.100   6.545   5.488
 1957SOL    HW1 6770   0.031   6.576   5.553
 1957SOL    HW2 6771   0.155   6.473   5.530
 1958SOL     OW 6772   5.551   3.211   6.116
 1958SOL    HW1 6773   5.489   3.253   6.050
 1958SOL    HW2 6774   5.556   3.112   6.099
 1959SOL     OW 6775   1.428   2.115   6.200
 1959SOL    HW1 6776   1.377   2.037   6.163
 1959SOL    HW2 6777   1.411   2.195   6.142
 1960SOL     OW 6778   5.374   5.523   0.968
 1960SOL    HW1 6779   5.314   5.481   1.036
 1960SOL    HW2 6780   5.416   5.452   0.912
 1961SOL     OW 6781   5.610   4.088   3.723
 1961SOL    HW1 6782   5.534   4.088   3.788
 1961SOL    HW2 6783   5.687   4.037   3.760
 1962SOL     OW 6784   0.970   6.386   3.801
 1962SOL    HW1 6785   1.039   6.342   3.744
 1962SOL    HW2 6786   0.965   6.341   3.890
 1963SOL     OW 6787   1.090   0.515   2.950
 1963SOL    HW1 6788   1.096   0.446   2.877
 1963SOL    HW2 6789   0.999   0.513   2.990
 1964SOL     OW 6790   4.857   3.246   2.979
 1964SOL    HW1 6791   4.894   3.316   2.917
 1964SOL    HW2 6792   4.758   3.242   2.970
 1965SOL     OW 6793   1.466   3.797   3.287
 1965SOL    HW1 6794   1.521   3.830   3.364
 1965SOL    HW2 6795   1.470   3.697   3.284
 1966SOL     OW 6796   6.625   5.427   5.589
 1966SOL    HW1 6797   6.634   5.522   5.618
 1966SOL    HW2 6798   6.656   5.418   5.494
 1967SOL     OW 6799   4.888   2.912   5.288
 1967SOL    HW1 6800   4.840   2.849   5.227
 1967SOL    HW2 6801   4.870   2.886   5.383
 1968SOL     OW 6802   3.558   6.152   6.730
 1968SOL    HW1 6803   3.517   6.232   6.686
 1968SOL    HW2 6804   3.522   6.144   6.823
 1969SOL     OW 6805   0.333   2.386   1.518
 1969SOL    HW1 6806   0.239   2.354   1.505
 1969SOL    HW2 6807   0.331   2.484   1.537
 1970SOL     OW 6808   1.617   0.653   4.059
 1970SOL    HW1 6809   1.629   0.670   4.157
 1970SOL    HW2 6810   1.529   0.689   4.029
 1971SOL     OW 6811   0.282   6.799   6.591
 1971SOL    HW1 6812   0.373   6.779   6.557
 1971SOL    HW2 6813   0.279   6.893   6.627
 1972SOL     OW 6814   1.043   4.377   4.086
 1972SOL    HW1 6815   0.953   4.383   4.129
 1972SOL    HW2 6816   1.096   4.459   4.107
 1973SOL     OW 6817   3.204   3.205   1.671
 1973SOL    HW1 6818   3.198   3.105   1.676
 1973SOL    HW2 6819   3.150   3.237   1.593
 1974SOL     OW 6820   5.323   0.541   3.931
 1974SOL    HW1 6821   5.419   0.515   3.922
 1974SOL    HW2 6822   5.317   0.630   3.977
 1975SOL     OW 6823   3.496   0.364   4.141
 1975SOL    HW1 6824   3.497   0.368   4.041
 1975SOL    HW2 6825   3.416   0.413   4.176
 1976SOL     OW 6826   0.247   5.771   0.382
 1976SOL    HW1 6827   0.178   5.817   0.438
 1976SOL    HW2 6828   0.279   5.834   0.311
 1977SOL     OW 6829   0.935   2.212   4.877
 1977SOL    HW1 6830   0.962   2.121   4.845
 1977SOL    HW2 6831   0.917   2.271   4.798
 1978SOL     OW 6832   6.462   1.835   4.207
 1978SOL    HW1 6833   6.498   1.760   4.263
 1978SOL    HW2 6834   6.449   1.916   4.265
 1979SOL     OW 6835   5.983   4.692   4.097
 1979SOL    HW1 6836   5.980   4.792   4.108
 1979SOL    HW2 6837   6.077   4.661   4.109
 1980SOL     OW 6838   3.956   0.434   1.277
 1980SOL    HW1 6839   3.899   0.394   1.206
 1980SOL    HW2 6840   3.924   0.527   1.297
 1981SOL     OW 6841   4.941   2.826   1.919
 1981SOL    HW1 6842   4.899   2.735   1.919
 1981SOL    HW2 6843   4.876   2.892   1.957
 1982SOL     OW 6844   5.785   5.319   4.580
 1982SOL    HW1 6845   5.850   5.267   4.635
 1982SOL    HW2 6846   5.737   5.385   4.638
 1983SOL     OW 6847   0.956   3.446   3.384
 1983SOL    HW1 6848   0.967   3.459   3.285
 1983SOL    HW2 6849   0.967   3.533   3.431
 1984SOL     OW 6850   4.130   1.975   6.370
 1984SOL    HW1 6851   4.034   1.986   6.396
 1984SOL    HW2 6852   4.142   1.888   6.321
 1985SOL     OW 6853   1.335   0.543   1.432
 1985SOL    HW1 6854   1.428   0.577   1.422
 1985SOL    HW2 6855   1.280   0.569   1.352
 1986SOL     OW 6856   1.662   1.922   6.801
 1986SOL    HW1 6857   1.577   1.948   6.847
 1986SOL    HW2 6858   1.738   1.972   6.841
 1987SOL     OW 6859   2.359   3.505   0.757
 1987SOL    HW1 6860   2.269   3.470   0.729
 1987SOL    HW2 6861   2.374   3.483   0.854
 1988SOL     OW 6862   4.476   4.136   0.428
 1988SOL    HW1 6863   4.540   4.142   0.351
 1988SOL    HW2 6864   4.514   4.078   0.499
 1989SOL     OW 6865   2.317   0.222   3.937
 1989SOL    HW1 6866   2.414   0.242   3.923
 1989SOL    HW2 6867   2.286   0.157   3.868
 1990SOL     OW 6868   3.077   0.846   1.576
 1990SOL    HW1 6869   3.050   0.939   1.553
 1990SOL    HW2 6870   3.171   0.830   1.546
 1991SOL     OW 6871   2.997   5.336   4.092
 1991SOL    HW1 6872   2.957   5.269   4.029
 1991SOL    HW2 6873   2.980   5.428   4.058
 1992SOL     OW 6874   2.225   6.325   5.614
 1992SOL    HW1 6875   2.188   6.335   5.707
 1992SOL    HW2 6876   2.249   6.416   5.578
 1993SOL     OW 6877   3.826   3.445   5.718
 1993SOL    HW1 6878   3.884   3.443   5.636
 1993SOL    HW2 6879   3.730   3.452   5.692
 1994SOL     OW 6880   6.525   2.058   2.268
 1994SOL    HW1 6881   6.438   2.033   2.310
 1994SOL    HW2 6882   6.565   1.978   2.224
 1995SOL     OW 6883   5.582   1.944   2.044
 1995SOL    HW1 6884   5.549   2.029   2.002
 1995SOL    HW2 6885   5.650   1.902   1.984
 1996SOL     OW 6886   3.555   4.269   0.131
 1996SOL    HW1 6887   3.499   4.342   0.094
 1996SOL    HW2 6888   3.576   4.288   0.227
 1997SOL     OW 6889   4.978   0.609   3.812
 1997SOL    HW1 6890   4.891   0.562   3.795
 1997SOL    HW2 6891   5.051   0.561   3.764
 1998SOL     OW 6892   2.699   4.392   5.779
 1998SOL    HW1 6893   2.621   4.445   5.745
 1998SOL    HW2 6894   2.702   4.303   5.734
 1999SOL     OW 6895   2.568   0.069   2.431
 1999SOL    HW1 6896   2.589   7.006   2.484
 1999SOL    HW2 6897   2.476   0.062   2.392
 2000SOL     OW 6898   4.312   1.394   4.915
 2000SOL    HW1 6899   4.265   1.395   4.827
 2000SOL    HW2 6900   4.245   1.382   4.988
 2001SOL     OW 6901   2.703   1.233   1.030
 2001SOL    HW1 6902   2.794   1.207   1.000
 2001SOL    HW2 6903   2.704   1.254   1.127
 2002SOL     OW 6904   1.982   5.319   5.766
 2002SOL    HW1 6905   2.077   5.344   5.782
 2002SOL    HW2 6906   1.922   5.394   5.796
 2003SOL     OW 6907   5.955   6.023   3.461
 2003SOL    HW1 6908   5.933   5.931   3.429
 2003SOL    HW2 6909   6.052   6.028   3.483
 2004SOL     OW 6910   3.092   0.811   5.616
 2004SOL    HW1 6911   3.144   0.871   5.677
 2004SOL    HW2 6912   3.150   0.737   5.584
 2005SOL     OW 6913   1.902   5.592   5.810
 2005SOL    HW1 6914   1.941   5.608   5.719
 2005SOL    HW2 6915   1.924   5.668   5.870
 2006SOL     OW 6916   4.351   5.049   4.421
 2006SOL    HW1 6917   4.321   4.977   4.483
 2006SOL    HW2 6918   4.348   5.137   4.469
 2007SOL     OW 6919   5.371   5.686   0.739
 2007SOL    HW1 6920   5.361   5.630   0.822
 2007SOL    HW2 6921   5.401   5.628   0.663
 2008SOL     OW 6922   6.866   6.429   3.728
 2008SOL    HW1 6923   6.863   6.502   3.796
 2008SOL    HW2 6924   6.945   6.370   3.746
 2009SOL     OW 6925   6.926   0.346   1.970
 2009SOL    HW1 6926   6.903   0.422   2.031
 2009SOL    HW2 6927   6.936   0.262   2.023
 2010SOL     OW 6928   0.834   0.599   0.485
 2010SOL    HW1 6929   0.744   0.629   0.514
 2010SOL    HW2 6930   0.882   0.557   0.562
 2011SOL     OW 6931   6.776   1.843   4.895
 2011SOL    HW1 6932   6.844   1.794   4.950
 2011SOL    HW2 6933   6.739   1.920   4.948
 2012SOL     OW 6934   1.684   4.458   0.709
 2012SOL    HW1 6935   1.740   4.498   0.781
 2012SOL    HW2 6936   1.728   4.375   0.675
 2013SOL     OW 6937   5.790   1.854   2.548
 2013SOL    HW1 6938   5.793   1.799   2.465
 2013SOL    HW2 6939   5.844   1.937   2.535
 2014SOL     OW 6940   1.781   5.416   3.659
 2014SOL    HW1 6941   1.805   5.512   3.644
 2014SOL    HW2 6942   1.856   5.357   3.629
 2015SOL     OW 6943   3.156   0.408   0.061
 2015SOL    HW1 6944   3.097   0.440   0.136
 2015SOL    HW2 6945   3.114   0.431   6.993
 2016SOL     OW 6946   0.617   5.395   4.539
 2016SOL    HW1 6947   0.554   5.472   4.526
 2016SOL    HW2 6948   0.694   5.424   4.596
 2017SOL     OW 6949   2.573   5.868   3.067
 2017SOL    HW1 6950   2.538   5.950   3.113
 2017SOL    HW2 6951   2.498   5.803   3.053
 2018SOL     OW 6952   0.447   5.214   5.817
 2018SOL    HW1 6953   0.384   5.244   5.889
 2018SOL    HW2 6954   0.427   5.119   5.794
 2019SOL     OW 6955   5.845   2.084   1.961
 2019SOL    HW1 6956   5.941   2.110   1.951
 2019SOL    HW2 6957   5.832   2.036   2.048
 2020SOL     OW 6958   2.295   5.442   3.126
 2020SOL    HW1 6959   2.275   5.441   3.224
 2020SOL    HW2 6960   2.246   5.367   3.081
 2021SOL     OW 6961   1.976   0.779   2.364
 2021SOL    HW1 6962   2.066   0.770   2.320
 2021SOL    HW2 6963   1.918   0.838   2.309
 2022SOL     OW 6964   2.400   3.683   1.669
 2022SOL    HW1 6965   2.373   3.769   1.712
 2022SOL    HW2 6966   2.404   3.610   1.737
 2023SOL     OW 6967   6.441   1.091   6.195
 2023SOL    HW1 6968   6.405   0.998   6.196
 2023SOL    HW2 6969   6.369   1.155   6.169
 2024SOL     OW 6970   5.873   0.724   3.542
 2024SOL    HW1 6971   5.797   0.660   3.538
 2024SOL    HW2 6972   5.887   0.766   3.452
 2025SOL     OW 6973   0.250   1.459   2.067
 2025SOL    HW1 6974   0.248   1.389   2.138
 2025SOL    HW2 6975   0.281   1.546   2.107
 2026SOL     OW 6976   2.519   1.685   5.679
 2026SOL    HW1 6977   2.452   1.674   5.752
 2026SOL    HW2 6978   2.511   1.609   5.614
 2027SOL     OW 6979   1.171   1.182   2.137
 2027SOL    HW1 6980   1.238   1.203   2.208
 2027SOL    HW2 6981   1.180   1.086   2.110
 2028SOL     OW 6982   3.637   2.429   0.072
 2028SOL    HW1 6983   3.571   2.430   0.147
 2028SOL    HW2 6984   3.729   2.441   0.108
 2029SOL     OW 6985   0.865   1.359   6.414
 2029SOL    HW1 6986   0.932   1.305   6.363
 2029SOL    HW2 6987   0.909   1.440   6.452
 2030SOL     OW 6988   1.918   2.097   3.109
 2030SOL    HW1 6989   1.897   2.100   3.207
 2030SOL    HW2 6990   1.872   2.019   3.068
 2031SOL     OW 6991   5.622   6.691   2.063
 2031SOL    HW1 6992   5.654   6.599   2.041
 2031SOL    HW2 6993   5.701   6.750   2.082
 2032SOL     OW 6994   4.666   6.026   0.633
 2032SOL    HW1 6995   4.701   6.052   0.723
 2032SOL    HW2 6996   4.717   6.075   0.563
 2033SOL     OW 6997   5.322   4.535   6.505
 2033SOL    HW1 6998   5.294   4.626   6.536
 2033SOL    HW2 6999   5.245   4.490   6.459
 2034SOL     OW 7000   2.059   6.875   3.148
 2034SOL    HW1 7001   2.061   6.951   3.083
 2034SOL    HW2 7002   2.128   6.807   3.122
 2035SOL     OW 7003   0.867   1.811   2.239
 2035SOL    HW1 7004   0.859   1.779   2.144
 2035SOL    HW2 7005   0.929   1.751   2.289
 2036SOL     OW 7006   0.541   5.365   0.628
 2036SOL    HW1 7007   0.492   5.381   0.714
 2036SOL    HW2 7008   0.520   5.437   0.563
 2037SOL     OW 7009   6.971   2.532   5.925
 2037SOL    HW1 7010   0.041   2.493   5.949
 2037SOL    HW2 7011   6.949   2.510   5.830
 2038SOL     OW 7012   0.244   1.440   4.429
 2038SOL    HW1 7013   0.333   1.481   4.452
 2038SOL    HW2 7014   0.207   1.394   4.510
 2039SOL     OW 7015   6.844   5.641   3.313
 2039SOL    HW1 7016   6.896   5.571   3.265
 2039SOL    HW2 7017   6.832   5.614   3.408
 2040SOL     OW 7018   3.925   3.137   4.733
 2040SOL    HW1 7019   3.929   3.175   4.640
 2040SOL    HW2 7020   3.983   3.193   4.793
 2041SOL     OW 7021   5.778   4.791   5.398
 2041SOL    HW1 7022   5.711   4.773   5.470
 2041SOL    HW2 7023   5.839   4.712   5.390
 2042SOL     OW 7024   4.794   5.455   0.391
 2042SOL    HW1 7025   4.828   5.377   0.445
 2042SOL    HW2 7026   4.786   5.535   0.450
 2043SOL     OW 7027   5.556   4.244   2.060
 2043SOL    HW1 7028   5.499   4.226   2.140
 2043SOL    HW2 7029   5.611   4.326   2.076
 2044SOL     OW 7030   5.934   0.412   1.455
 2044SOL    HW1 7031   5.884   0.495   1.479
 2044SOL    HW2 7032   5.972   0.421   1.363
 2045SOL     OW 7033   2.507   4.604   5.730
 2045SOL    HW1 7034   2.442   4.571   5.798
 2045SOL    HW2 7035   2.459   4.658   5.661
 2046SOL     OW 7036   6.176   0.335   4.164
 2046SOL    HW1 7037   6.085   0.321   4.203
 2046SOL    HW2 7038   6.167   0.378   4.073
 2047SOL     OW 7039   5.094   2.565   0.937
 2047SOL    HW1 7040   5.050   2.634   0.879
 2047SOL    HW2 7041   5.170   2.607   0.987
 2048SOL     OW 7042   4.384   0.545   6.771
 2048SOL    HW1 7043   4.356   0.600   6.849
 2048SOL    HW2 7044   4.484   0.539   6.768
 2049SOL     OW 7045   4.137   1.526   0.301
 2049SOL    HW1 7046   4.114   1.489   0.211
 2049SOL    HW2 7047   4.167   1.620   0.292
 2050SOL     OW 7048   6.173   2.802   3.829
 2050SOL    HW1 7049   6.087   2.838   3.866
 2050SOL    HW2 7050   6.249   2.858   3.861
 2051SOL     OW 7051   1.326   6.318   0.086
 2051SOL    HW1 7052   1.401   6.323   0.152
 2051SOL    HW2 7053   1.347   6.377   0.008
 2052SOL     OW 7054   0.894   2.894   6.488
 2052SOL    HW1 7055   0.892   2.801   6.450
 2052SOL    HW2 7056   0.806   2.915   6.530
 2053SOL     OW 7057   6.285   0.882   6.604
 2053SOL    HW1 7058   6.188   0.882   6.583
 2053SOL    HW2 7059   6.331   0.813   6.548
 2054SOL     OW 7060   5.748   2.284   0.670
 2054SOL    HW1 7061   5.687   2.214   0.631
 2054SOL    HW2 7062   5.694   2.363   0.698
 2055SOL     OW 7063   5.242   2.515   3.639
 2055SOL    HW1 7064   5.323   2.460   3.619
 2055SOL    HW2 7065   5.181   2.463   3.699
 2056SOL     OW 7066   2.310   0.977   3.027
 2056SOL    HW1 7067   2.289   0.954   3.122
 2056SOL    HW2 7068   2.228   0.969   2.972
 2057SOL     OW 7069   6.429   2.686   4.069
 2057SOL    HW1 7070   6.437   2.697   3.970
 2057SOL    HW2 7071   6.400   2.773   4.109
 2058SOL     OW 7072   6.927   2.004   2.702
 2058SOL    HW1 7073   6.971   2.020   2.614
 2058SOL    HW2 7074   6.997   1.985   2.771
 2059SOL     OW 7075   2.255   1.142   6.937
 2059SOL    HW1 7076   2.183   1.168   6.873
 2059SOL    HW2 7077   2.264   1.212   7.008
 2060SOL     OW 7078   6.999   4.608   1.916
 2060SOL    HW1 7079   7.007   4.554   1.832
 2060SOL    HW2 7080   6.953   4.553   1.986
 2061SOL     OW 7081   6.949   1.397   2.402
 2061SOL    HW1 7082   6.879   1.467   2.391
 2061SOL    HW2 7083   6.912   1.308   2.377
 2062SOL     OW 7084   4.809   0.498   2.492
 2062SOL    HW1 7085   4.867   0.509   2.411
 2062SOL    HW2 7086   4.866   0.472   2.571
 2063SOL     OW 7087   1.625   2.933   6.389
 2063SOL    HW1 7088   1.682   2.999   6.340
 2063SOL    HW2 7089   1.529   2.954   6.372
 2064SOL     OW 7090   0.770   2.429   5.912
 2064SOL    HW1 7091   0.687   2.485   5.899
 2064SOL    HW2 7092   0.789   2.422   6.010
 2065SOL     OW 7093   6.224   3.486   2.452
 2065SOL    HW1 7094   6.148   3.549   2.470
 2065SOL    HW2 7095   6.204   3.433   2.370
 2066SOL     OW 7096   0.218   6.690   4.786
 2066SOL    HW1 7097   0.307   6.725   4.758
 2066SOL    HW2 7098   0.153   6.767   4.793
 2067SOL     OW 7099   6.159   6.521   0.700
 2067SOL    HW1 7100   6.234   6.544   0.638
 2067SOL    HW2 7101   6.197   6.488   0.786
 2068SOL     OW 7102   2.181   1.219   5.341
 2068SOL    HW1 7103   2.210   1.305   5.382
 2068SOL    HW2 7104   2.099   1.186   5.388
 2069SOL     OW 7105   0.738   3.042   2.212
 2069SOL    HW1 7106   0.780   2.952   2.209
 2069SOL    HW2 7107   0.732   3.074   2.306
 2070SOL     OW 7108   1.524   0.774   2.567
 2070SOL    HW1 7109   1.444   0.763   2.508
 2070SOL    HW2 7110   1.502   0.837   2.642
 2071SOL     OW 7111   0.219   6.989   4.054
 2071SOL    HW1 7112   0.184   0.052   4.100
 2071SOL    HW2 7113   0.319   6.991   4.054
 2072SOL     OW 7114   4.826   6.158   1.785
 2072SOL    HW1 7115   4.849   6.104   1.704
 2072SOL    HW2 7116   4.756   6.111   1.838
 2073SOL     OW 7117   3.401   6.710   5.514
 2073SOL    HW1 7118   3.441   6.634   5.463
 2073SOL    HW2 7119   3.355   6.772   5.451
 2074SOL     OW 7120   6.807   1.617   0.925
 2074SOL    HW1 7121   6.789   1.706   0.968
 2074SOL    HW2 7122   6.828   1.550   0.995
 2075SOL     OW 7123   4.002   3.186   0.799
 2075SOL    HW1 7124   4.070   3.215   0.867
 2075SOL    HW2 7125   3.988   3.087   0.805
 2076SOL     OW 7126   5.073   5.855   0.602
 2076SOL    HW1 7127   5.132   5.924   0.560
 2076SOL    HW2 7128   5.058   5.781   0.537
 2077SOL     OW 7129   5.768   1.760   2.798
 2077SOL    HW1 7130   5.810   1.791   2.883
 2077SOL    HW2 7131   5.803   1.815   2.721
 2078SOL     OW 7132   3.039   5.555   6.624
 2078SOL    HW1 7133   3.049   5.654   6.629
 2078SOL    HW2 7134   3.011   5.529   6.531
 2079SOL     OW 7135   5.932   0.926   3.348
 2079SOL    HW1 7136   5.918   1.020   3.316
 2079SOL    HW2 7137   6.014   0.922   3.405
 2080SOL     OW 7138   2.844   2.273   4.924
 2080SOL    HW1 7139   2.805   2.186   4.957
 2080SOL    HW2 7140   2.933   2.287   4.966
 2081SOL     OW 7141   1.462   6.529   5.071
 2081SOL    HW1 7142   1.517   6.480   5.139
 2081SOL    HW2 7143   1.382   6.474   5.047
 2082SOL     OW 7144   5.741   0.787   0.790
 2082SOL    HW1 7145   5.682   0.758   0.715
 2082SOL    HW2 7146   5.833   0.806   0.755
 2083SOL     OW 7147   3.628   5.010   6.476
 2083SOL    HW1 7148   3.699   4.981   6.412
 2083SOL    HW2 7149   3.598   5.103   6.452
 2084SOL     OW 7150   0.147   2.275   3.000
 2084SOL    HW1 7151   0.076   2.274   2.930
 2084SOL    HW2 7152   0.162   2.182   3.035
 2085SOL     OW 7153   4.951   0.751   5.857
 2085SOL    HW1 7154   4.853   0.766   5.871
 2085SOL    HW2 7155   4.991   0.712   5.939
 2086SOL     OW 7156   3.258   4.892   0.150
 2086SOL    HW1 7157   3.192   4.924   0.082
 2086SOL    HW2 7158   3.333   4.958   0.155
 2087SOL     OW 7159   5.849   6.846   2.438
 2087SOL    HW1 7160   5.902   6.764   2.457
 2087SOL    HW2 7161   5.900   6.905   2.375
 2088SOL     OW 7162   3.681   6.692   0.914
 2088SOL    HW1 7163   3.701   6.695   1.012
 2088SOL    HW2 7164   3.620   6.767   0.890
 2089SOL     OW 7165   4.984   1.345   6.952
 2089SOL    HW1 7166   4.968   1.313   6.858
 2089SOL    HW2 7167   5.066   1.401   6.954
 2090SOL     OW 7168   3.614   3.683   4.624
 2090SOL    HW1 7169   3.542   3.650   4.685
 2090SOL    HW2 7170   3.696   3.628   4.636
 2091SOL     OW 7171   0.443   5.879   0.640
 2091SOL    HW1 7172   0.426   5.826   0.557
 2091SOL    HW2 7173   0.370   5.947   0.652
 2092SOL     OW 7174   5.891   6.244   1.139
 2092SOL    HW1 7175   5.946   6.325   1.155
 2092SOL    HW2 7176   5.827   6.261   1.064
 2093SOL     OW 7177   1.127   2.920   1.825
 2093SOL    HW1 7178   1.204   2.901   1.886
 2093SOL    HW2 7179   1.073   2.996   1.861
 2094SOL     OW 7180   6.144   0.206   1.868
 2094SOL    HW1 7181   6.213   0.182   1.799
 2094SOL    HW2 7182   6.055   0.217   1.824
 2095SOL     OW 7183   5.922   6.062   4.246
 2095SOL    HW1 7184   5.883   6.021   4.328
 2095SOL    HW2 7185   5.914   6.162   4.253
 2096SOL     OW 7186   4.819   4.089   2.626
 2096SOL    HW1 7187   4.721   4.109   2.635
 2096SOL    HW2 7188   4.829   3.997   2.587
 2097SOL     OW 7189   0.172   2.274   6.982
 2097SOL    HW1 7190   0.220   2.220   0.032
 2097SOL    HW2 7191   0.081   2.297   7.016
 2098SOL     OW 7192   4.350   6.539   3.652
 2098SOL    HW1 7193   4.318   6.482   3.727
 2098SOL    HW2 7194   4.395   6.482   3.583
 2099SOL     OW 7195   2.662   1.239   4.619
 2099SOL    HW1 7196   2.717   1.185   4.555
 2099SOL    HW2 7197   2.707   1.326   4.636
 2100SOL     OW 7198   4.138   4.121   6.841
 2100SOL    HW1 7199   4.201   4.090   6.771
 2100SOL    HW2 7200   4.132   4.052   6.914
 2101SOL     OW 7201   0.312   0.223   3.143
 2101SOL    HW1 7202   0.281   0.138   3.099
 2101SOL    HW2 7203   0.410   0.236   3.124
 2102SOL     OW 7204   6.814   5.515   2.809
 2102SOL    HW1 7205   6.771   5.477   2.727
 2102SOL    HW2 7206   6.819   5.615   2.799
 2103SOL     OW 7207   3.416   3.236   6.950
 2103SOL    HW1 7208   3.411   3.309   7.018
 2103SOL    HW2 7209   3.348   3.166   6.972
 2104SOL     OW 7210   1.620   3.347   5.802
 2104SOL    HW1 7211   1.615   3.442   5.833
 2104SOL    HW2 7212   1.715   3.316   5.808
 2105SOL     OW 7213   5.341   5.062   2.829
 2105SOL    HW1 7214   5.394   4.978   2.820
 2105SOL    HW2 7215   5.255   5.042   2.876
 2106SOL     OW 7216   4.471   5.314   6.671
 2106SOL    HW1 7217   4.567   5.296   6.695
 2106SOL    HW2 7218   4.453   5.412   6.678
 2107SOL     OW 7219   3.932   4.209   5.625
 2107SOL    HW1 7220   3.838   4.233   5.651
 2107SOL    HW2 7221   3.958   4.261   5.544
 2108SOL     OW 7222   5.979   5.463   5.791
 2108SOL    HW1 7223   5.924   5.527   5.736
 2108SOL    HW2 7224   5.983   5.497   5.885
 2109SOL     OW 7225   5.581   5.717   2.877
 2109SOL    HW1 7226   5.661   5.768   2.909
 2109SOL    HW2 7227   5.500   5.750   2.925
 2110SOL     OW 7228   2.861   4.451   6.408
 2110SOL    HW1 7229   2.775   4.490   6.377
 2110SOL    HW2 7230   2.936   4.511   6.383
 2111SOL     OW 7231   0.914   2.644   6.370
 2111SOL    HW1 7232   0.978   2.652   6.293
 2111SOL    HW2 7233   0.857   2.563   6.358
 2112SOL     OW 7234   4.148   2.747   1.706
 2112SOL    HW1 7235   4.111   2.824   1.757
 2112SOL    HW2 7236   4.205   2.780   1.630
 2113SOL     OW 7237   1.474   0.332   2.884
 2113SOL    HW1 7238   1.432   0.374   2.964
 2113SOL    HW2 7239   1.482   0.399   2.810
 2114SOL     OW 7240   1.391   4.535   0.185
 2114SOL    HW1 7241   1.296   4.527   0.156
 2114SOL    HW2 7242   1.415   4.631   0.197
 2115SOL     OW 7243   2.155   5.112   2.780
 2115SOL    HW1 7244   2.062   5.077   2.781
 2115SOL    HW2 7245   2.203   5.082   2.863
 2116SOL     OW 7246   0.013   3.815   2.745
 2116SOL    HW1 7247   6.940   3.777   2.741
 2116SOL    HW2 7248   0.037   3.836   2.839
 2117SOL     OW 7249   0.051   4.469   1.668
 2117SOL    HW1 7250   0.123   4.425   1.614
 2117SOL    HW2 7251   6.983   4.425   1.650
 2118SOL     OW 7252   6.762   3.763   2.773
 2118SOL    HW1 7253   6.687   3.797   2.715
 2118SOL    HW2 7254   6.735   3.675   2.813
 2119SOL     OW 7255   2.194   5.782   1.037
 2119SOL    HW1 7256   2.151   5.766   1.126
 2119SOL    HW2 7257   2.200   5.696   0.987
 2120SOL     OW 7258   6.112   4.506   2.041
 2120SOL    HW1 7259   6.087   4.426   1.986
 2120SOL    HW2 7260   6.210   4.521   2.036
 2121SOL     OW 7261   0.516   5.179   5.113
 2121SOL    HW1 7262   0.486   5.089   5.081
 2121SOL    HW2 7263   0.531   5.177   5.212
 2122SOL     OW 7264   5.207   4.556   5.412
 2122SOL    HW1 7265   5.113   4.523   5.410
 2122SOL    HW2 7266   5.216   4.635   5.351
 2123SOL     OW 7267   6.932   4.502   2.818
 2123SOL    HW1 7268   7.014   4.547   2.783
 2123SOL    HW2 7269   6.922   4.413   2.773
 2124SOL     OW 7270   2.115   1.493   1.318
 2124SOL    HW1 7271   2.042   1.560   1.326
 2124SOL    HW2 7272   2.087   1.421   1.254
 2125SOL     OW 7273   2.210   0.709   0.203
 2125SOL    HW1 7274   2.122   0.752   0.226
 2125SOL    HW2 7275   2.247   0.663   0.284
 2126SOL     OW 7276   2.765   0.819   6.692
 2126SOL    HW1 7277   2.801   0.771   6.611
 2126SOL    HW2 7278   2.795   0.914   6.690
 2127SOL     OW 7279   6.004   3.061   4.153
 2127SOL    HW1 7280   6.056   3.125   4.209
 2127SOL    HW2 7281   5.969   3.107   4.072
 2128SOL     OW 7282   0.553   4.398   4.939
 2128SOL    HW1 7283   0.490   4.474   4.922
 2128SOL    HW2 7284   0.609   4.383   4.858
 2129SOL     OW 7285   4.688   3.096   5.505
 2129SOL    HW1 7286   4.651   3.005   5.524
 2129SOL    HW2 7287   4.613   3.159   5.484
 2130SOL     OW 7288   5.036   6.819   2.692
 2130SOL    HW1 7289   5.010   6.853   2.601
 2130SOL    HW2 7290   4.955   6.816   2.751
 2131SOL     OW 7291   0.205   0.717   0.627
 2131SOL    HW1 7292   0.113   0.707   0.665
 2131SOL    HW2 7293   0.273   0.707   0.700
 2132SOL     OW 7294   2.628   2.922   1.272
 2132SOL    HW1 7295   2.606   2.846   1.211
 2132SOL    HW2 7296   2.674   2.994   1.220
 2133SOL     OW 7297   3.055   2.239   6.127
 2133SOL    HW1 7298   3.080   2.216   6.221
 2133SOL    HW2 7299   3.138   2.245   6.071
 2134SOL     OW 7300   6.917   1.466   1.152
 2134SOL    HW1 7301   6.998   1.410   1.133
 2134SOL    HW2 7302   6.875   1.435   1.237
 2135SOL     OW 7303   1.181   3.980   4.704
 2135SOL    HW1 7304   1.270   4.021   4.725
 2135SOL    HW2 7305   1.174   3.962   4.606
 2136SOL     OW 7306   2.383   5.280   2.052
 2136SOL    HW1 7307   2.478   5.313   2.055
 2136SOL    HW2 7308   2.329   5.340   1.994
 2137SOL     OW 7309   3.237   5.660   5.067
 2137SOL    HW1 7310   3.214   5.755   5.089
 2137SOL    HW2 7311   3.169   5.599   5.109
 2138SOL     OW 7312   6.216   1.161   2.694
 2138SOL    HW1 7313   6.265   1.079   2.727
 2138SOL    HW2 7314   6.123   1.160   2.729
 2139SOL     OW 7315   3.323   0.607   5.502
 2139SOL    HW1 7316   3.263   0.559   5.438
 2139SOL    HW2 7317   3.354   0.693   5.461
 2140SOL     OW 7318   2.877   0.903   4.555
 2140SOL    HW1 7319   2.780   0.881   4.557
 2140SOL    HW2 7320   2.909   0.898   4.460
 2141SOL     OW 7321   6.086   4.329   2.326
 2141SOL    HW1 7322   6.042   4.399   2.382
 2141SOL    HW2 7323   6.172   4.364   2.289
 2142SOL     OW 7324   1.980   2.854   3.709
 2142SOL    HW1 7325   2.000   2.757   3.717
 2142SOL    HW2 7326   2.001   2.885   3.616
 2143SOL     OW 7327   2.664   5.111   1.684
 2143SOL    HW1 7328   2.686   5.066   1.597
 2143SOL    HW2 7329   2.634   5.043   1.750
 2144SOL     OW 7330   6.576   5.592   4.169
 2144SOL    HW1 7331   6.586   5.518   4.102
 2144SOL    HW2 7332   6.654   5.654   4.163
 2145SOL     OW 7333   4.266   6.575   4.314
 2145SOL    HW1 7334   4.347   6.632   4.324
 2145SOL    HW2 7335   4.217   6.570   4.401
 2146SOL     OW 7336   2.479   2.922   0.845
 2146SOL    HW1 7337   2.512   2.836   0.884
 2146SOL    HW2 7338   2.420   2.968   0.912
 2147SOL     OW 7339   6.741   1.649   5.706
 2147SOL    HW1 7340   6.731   1.556   5.670
 2147SOL    HW2 7341   6.663   1.670   5.765
 2148SOL     OW 7342   6.961   3.126   6.704
 2148SOL    HW1 7343   6.989   3.215   6.741
 2148SOL    HW2 7344   6.871   3.101   6.740
 2149SOL     OW 7345   0.634   0.272   0.216
 2149SOL    HW1 7346   0.646   0.312   0.126
 2149SOL    HW2 7347   0.590   0.338   0.277
 2150SOL     OW 7348   2.440   2.879   1.740
 2150SOL    HW1 7349   2.358   2.924   1.776
 2150SOL    HW2 7350   2.468   2.807   1.803
 2151SOL     OW 7351   0.808   6.597   0.012
 2151SOL    HW1 7352   0.784   6.645   6.947
 2151SOL    HW2 7353   0.725   6.565   0.057
 2152SOL     OW 7354   4.209   5.839   2.153
 2152SOL    HW1 7355   4.226   5.897   2.232
 2152SOL    HW2 7356   4.136   5.879   2.097
 2153SOL     OW 7357   4.297   0.899   2.520
 2153SOL    HW1 7358   4.356   0.922   2.597
 2153SOL    HW2 7359   4.350   0.852   2.450
 2154SOL     OW 7360   3.634   6.573   3.480
 2154SOL    HW1 7361   3.688   6.575   3.396
 2154SOL    HW2 7362   3.570   6.650   3.481
 2155SOL     OW 7363   4.184   6.760   0.613
 2155SOL    HW1 7364   4.113   6.751   0.682
 2155SOL    HW2 7365   4.143   6.760   0.521
 2156SOL     OW 7366   5.335   1.557   3.921
 2156SOL    HW1 7367   5.345   1.590   3.827
 2156SOL    HW2 7368   5.374   1.625   3.984
 2157SOL     OW 7369   4.385   4.884   3.878
 2157SOL    HW1 7370   4.428   4.957   3.825
 2157SOL    HW2 7371   4.288   4.876   3.852
 2158SOL     OW 7372   3.390   0.208   0.691
 2158SOL    HW1 7373   3.486   0.229   0.711
 2158SOL    HW2 7374   3.384   0.163   0.602
 2159SOL     OW 7375   1.580   0.468   6.080
 2159SOL    HW1 7376   1.558   0.561   6.110
 2159SOL    HW2 7377   1.559   0.404   6.153
 2160SOL     OW 7378   5.002   6.139   0.256
 2160SOL    HW1 7379   5.067   6.143   0.332
 2160SOL    HW2 7380   5.050   6.107   0.174
 2161SOL     OW 7381   1.430   4.093   2.412
 2161SOL    HW1 7382   1.464   4.034   2.338
 2161SOL    HW2 7383   1.431   4.042   2.498
 2162SOL     OW 7384   1.648   6.770   3.462
 2162SOL    HW1 7385   1.709   6.817   3.398
 2162SOL    HW2 7386   1.593   6.838   3.510
 2163SOL     OW 7387   1.409   3.280   0.790
 2163SOL    HW1 7388   1.427   3.182   0.780
 2163SOL    HW2 7389   1.450   3.330   0.714
 2164SOL     OW 7390   2.114   2.942   1.351
 2164SOL    HW1 7391   2.112   2.908   1.445
 2164SOL    HW2 7392   2.193   3.002   1.339
 2165SOL     OW 7393   0.029   2.110   3.603
 2165SOL    HW1 7394   7.012   2.138   3.692
 2165SOL    HW2 7395   0.077   2.187   3.562
 2166SOL     OW 7396   0.823   4.294   4.240
 2166SOL    HW1 7397   0.812   4.224   4.169
 2166SOL    HW2 7398   0.902   4.272   4.297
 2167SOL     OW 7399   1.746   2.788   4.047
 2167SOL    HW1 7400   1.746   2.779   3.947
 2167SOL    HW2 7401   1.656   2.766   4.083
 2168SOL     OW 7402   1.401   2.392   3.205
 2168SOL    HW1 7403   1.338   2.445   3.261
 2168SOL    HW2 7404   1.463   2.340   3.264
 2169SOL     OW 7405   0.264   0.525   1.549
 2169SOL    HW1 7406   0.292   0.442   1.597
 2169SOL    HW2 7407   0.203   0.579   1.608
 2170SOL     OW 7408   0.894   4.031   5.861
 2170SOL    HW1 7409   0.926   3.963   5.795
 2170SOL    HW2 7410   0.814   3.995   5.910
 2171SOL     OW 7411   0.255   5.232   1.249
 2171SOL    HW1 7412   0.225   5.151   1.200
 2171SOL    HW2 7413   0.323   5.207   1.317
 2172SOL     OW 7414   0.010   1.869   5.150
 2172SOL    HW1 7415   0.031   1.804   5.076
 2172SOL    HW2 7416   0.031   1.962   5.119
 2173SOL     OW 7417   5.971   0.563   5.216
 2173SOL    HW1 7418   5.888   0.514   5.188
 2173SOL    HW2 7419   6.030   0.501   5.268
 2174SOL     OW 7420   0.150   6.062   5.002
 2174SOL    HW1 7421   0.078   6.007   4.961
 2174SOL    HW2 7422   0.171   6.026   5.094
 2175SOL     OW 7423   2.972   3.018   5.475
 2175SOL    HW1 7424   2.958   3.107   5.432
 2175SOL    HW2 7425   2.963   3.027   5.574
 2176SOL     OW 7426   5.337   2.739   1.430
 2176SOL    HW1 7427   5.323   2.761   1.333
 2176SOL    HW2 7428   5.332   2.823   1.484
 2177SOL     OW 7429   0.071   1.017   3.420
 2177SOL    HW1 7430   0.035   0.985   3.332
 2177SOL    HW2 7431   0.167   0.992   3.428
 2178SOL     OW 7432   0.785   1.648   1.990
 2178SOL    HW1 7433   0.874   1.639   1.944
 2178SOL    HW2 7434   0.763   1.563   2.038
 2179SOL     OW 7435   2.322   4.474   6.837
 2179SOL    HW1 7436   2.240   4.435   6.796
 2179SOL    HW2 7437   2.399   4.463   6.774
 2180SOL     OW 7438   1.511   4.622   1.942
 2180SOL    HW1 7439   1.560   4.572   2.014
 2180SOL    HW2 7440   1.413   4.606   1.952
 2181SOL     OW 7441   5.170   4.880   4.291
 2181SOL    HW1 7442   5.245   4.816   4.273
 2181SOL    HW2 7443   5.116   4.847   4.368
 2182SOL     OW 7444   0.497   5.005   3.355
 2182SOL    HW1 7445   0.431   5.080   3.354
 2182SOL    HW2 7446   0.559   5.015   3.277
 2183SOL     OW 7447   3.350   3.447   0.104
 2183SOL    HW1 7448   3.439   3.488   0.125
 2183SOL    HW2 7449   3.307   3.417   0.189
 2184SOL     OW 7450   6.486   0.122   0.354
 2184SOL    HW1 7451   6.445   0.195   0.409
 2184SOL    HW2 7452   6.521   0.050   0.415
 2185SOL     OW 7453   1.066   1.687   6.614
 2185SOL    HW1 7454   0.983   1.707   6.562
 2185SOL    HW2 7455   1.074   1.752   6.690
 2186SOL     OW 7456   6.554   5.347   4.713
 2186SOL    HW1 7457   6.593   5.349   4.621
 2186SOL    HW2 7458   6.500   5.430   4.727
 2187SOL     OW 7459   0.822   5.729   3.066
 2187SOL    HW1 7460   0.729   5.733   3.031
 2187SOL    HW2 7461   0.875   5.805   3.029
 2188SOL     OW 7462   2.048   6.534   0.161
 2188SOL    HW1 7463   1.989   6.586   0.099
 2188SOL    HW2 7464   2.119   6.594   0.197
 2189SOL     OW 7465   2.252   1.551   2.089
 2189SOL    HW1 7466   2.174   1.572   2.148
 2189SOL    HW2 7467   2.232   1.468   2.037
 2190SOL     OW 7468   6.497   4.283   2.756
 2190SOL    HW1 7469   6.568   4.319   2.817
 2190SOL    HW2 7470   6.441   4.359   2.722
 2191SOL     OW 7471   2.077   0.967   5.549
 2191SOL    HW1 7472   2.077   0.978   5.449
 2191SOL    HW2 7473   2.047   0.874   5.572
 2192SOL     OW 7474   5.590   0.779   2.115
 2192SOL    HW1 7475   5.640   0.757   2.198
 2192SOL    HW2 7476   5.604   0.875   2.092
 2193SOL     OW 7477   6.894   6.653   6.346
 2193SOL    HW1 7478   6.814   6.594   6.354
 2193SOL    HW2 7479   6.894   6.720   6.419
 2194SOL     OW 7480   0.692   4.417   5.187
 2194SOL    HW1 7481   0.692   4.510   5.224
 2194SOL    HW2 7482   0.636   4.414   5.104
 2195SOL     OW 7483   0.761   5.376   6.455
 2195SOL    HW1 7484   0.685   5.379   6.390
 2195SOL    HW2 7485   0.834   5.319   6.417
 2196SOL     OW 7486   2.294   5.913   5.483
 2196SOL    HW1 7487   2.351   5.969   5.422
 2196SOL    HW2 7488   2.330   5.820   5.486
 2197SOL     OW 7489   3.204   3.276   5.723
 2197SOL    HW1 7490   3.300   3.279   5.750
 2197SOL    HW2 7491   3.198   3.254   5.626
 2198SOL     OW 7492   0.440   0.398   6.128
 2198SOL    HW1 7493   0.393   0.483   6.153
 2198SOL    HW2 7494   0.407   0.323   6.185
 2199SOL     OW 7495   4.892   6.665   4.111
 2199SOL    HW1 7496   4.955   6.602   4.064
 2199SOL    HW2 7497   4.840   6.716   4.043
 2200SOL     OW 7498   3.030   0.977   4.325
 2200SOL    HW1 7499   3.117   0.934   4.352
 2200SOL    HW2 7500   3.028   0.991   4.226
 2201SOL     OW 7501   6.647   2.695   3.291
 2201SOL    HW1 7502   6.702   2.614   3.311
 2201SOL    HW2 7503   6.562   2.667   3.246
 2202SOL     OW 7504   3.423   5.088   2.678
 2202SOL    HW1 7505   3.384   5.163   2.732
 2202SOL    HW2 7506   3.477   5.029   2.737
 2203SOL     OW 7507   2.304   3.800   0.860
 2203SOL    HW1 7508   2.295   3.703   0.835
 2203SOL    HW2 7509   2.373   3.809   0.932
 2204SOL     OW 7510   4.227   3.105   1.157
 2204SOL    HW1 7511   4.293   3.055   1.213
 2204SOL    HW2 7512   4.142   3.052   1.150
 2205SOL     OW 7513   1.384   6.645   0.638
 2205SOL    HW1 7514   1.422   6.592   0.561
 2205SOL    HW2 7515   1.285   6.651   0.628
 2206SOL     OW 7516   2.978   3.122   6.398
 2206SOL    HW1 7517   2.928   3.042   6.431
 2206SOL    HW2 7518   2.921   3.172   6.333
 2207SOL     OW 7519   4.245   5.548   1.030
 2207SOL    HW1 7520   4.157   5.501   1.023
 2207SOL    HW2 7521   4.256   5.584   1.123
 2208SOL     OW 7522   1.032   5.763   3.756
 2208SOL    HW1 7523   1.077   5.812   3.682
 2208SOL    HW2 7524   0.933   5.773   3.749
 2209SOL     OW 7525   2.799   5.439   5.004
 2209SOL    HW1 7526   2.744   5.441   4.921
 2209SOL    HW2 7527   2.802   5.346   5.041
 2210SOL     OW 7528   5.946   6.174   1.483
 2210SOL    HW1 7529   5.968   6.076   1.486
 2210SOL    HW2 7530   5.851   6.186   1.513
 2211SOL     OW 7531   6.289   0.256   0.781
 2211SOL    HW1 7532   6.236   0.337   0.805
 2211SOL    HW2 7533   6.326   0.266   0.688
 2212SOL     OW 7534   2.460   6.156   7.016
 2212SOL    HW1 7535   2.525   6.147   0.072
 2212SOL    HW2 7536   2.396   6.231   0.016
 2213SOL     OW 7537   4.386   2.376   4.357
 2213SOL    HW1 7538   4.474   2.420   4.377
 2213SOL    HW2 7539   4.361   2.395   4.262
 2214SOL     OW 7540   4.302   2.807   5.907
 2214SOL    HW1 7541   4.237   2.883   5.904
 2214SOL    HW2 7542   4.252   2.721   5.896
 2215SOL     OW 7543   5.454   1.373   6.506
 2215SOL    HW1 7544   5.430   1.331   6.593
 2215SOL    HW2 7545   5.433   1.310   6.431
 2216SOL     OW 7546   0.531   5.670   6.271
 2216SOL    HW1 7547   0.469   5.706   6.341
 2216SOL    HW2 7548   0.625   5.673   6.305
 2217SOL     OW 7549   4.269   0.754   3.604
 2217SOL    HW1 7550   4.170   0.745   3.613
 2217SOL    HW2 7551   4.300   0.835   3.653
 2218SOL     OW 7552   0.908   5.508   6.826
 2218SOL    HW1 7553   0.890   5.562   6.909
 2218SOL    HW2 7554   0.913   5.411   6.850
 2219SOL     OW 7555   6.009   1.608   0.754
 2219SOL    HW1 7556   6.042   1.660   0.833
 2219SOL    HW2 7557   5.971   1.670   0.686
 2220SOL     OW 7558   1.850   6.260   5.241
 2220SOL    HW1 7559   1.890   6.227   5.156
 2220SOL    HW2 7560   1.922   6.293   5.301
 2221SOL     OW 7561   6.395   1.332   4.417
 2221SOL    HW1 7562   6.355   1.246   4.386
 2221SOL    HW2 7563   6.354   1.358   4.505
 2222SOL     OW 7564   6.138   6.721   0.408
 2222SOL    HW1 7565   6.040   6.739   0.405
 2222SOL    HW2 7566   6.168   6.684   0.320
 2223SOL     OW 7567   6.684   0.948   5.669
 2223SOL    HW1 7568   6.599   0.905   5.640
 2223SOL    HW2 7569   6.664   1.035   5.714
 2224SOL     OW 7570   5.527   3.589   1.847
 2224SOL    HW1 7571   5.551   3.656   1.916
 2224SOL    HW2 7572   5.477   3.513   1.889
 2225SOL     OW 7573   0.276   6.608   4.016
 2225SOL    HW1 7574   0.336   6.574   3.944
 2225SOL    HW2 7575   0.199   6.656   3.975
 2226SOL     OW 7576   3.765   5.108   0.601
 2226SOL    HW1 7577   3.680   5.146   0.566
 2226SOL    HW2 7578   3.745   5.030   0.660
 2227SOL     OW 7579   4.281   2.293   1.561
 2227SOL    HW1 7580   4.210   2.353   1.599
 2227SOL    HW2 7581   4.325   2.242   1.635
 2228SOL     OW 7582   4.510   5.440   0.362
 2228SOL    HW1 7583   4.439   5.504   0.334
 2228SOL    HW2 7584   4.597   5.488   0.371
 2229SOL     OW 7585   3.169   3.562   4.819
 2229SOL    HW1 7586   3.080   3.601   4.839
 2229SOL    HW2 7587   3.169   3.522   4.727
 2230SOL     OW 7588   5.035   6.289   1.431
 2230SOL    HW1 7589   4.992   6.264   1.345
 2230SOL    HW2 7590   5.134   6.275   1.425
 2231SOL     OW 7591   0.799   1.160   6.609
 2231SOL    HW1 7592   0.874   1.130   6.668
 2231SOL    HW2 7593   0.827   1.243   6.560
 2232SOL     OW 7594   1.175   0.829   4.952
 2232SOL    HW1 7595   1.184   0.911   5.009
 2232SOL    HW2 7596   1.265   0.798   4.923
 2233SOL     OW 7597   3.167   3.089   0.668
 2233SOL    HW1 7598   3.232   3.056   0.735
 2233SOL    HW2 7599   3.149   3.017   0.600
 2234SOL     OW 7600   3.710   1.560   0.824
 2234SOL    HW1 7601   3.699   1.612   0.740
 2234SOL    HW2 7602   3.653   1.599   0.896
 2235SOL     OW 7603   2.545   0.316   2.669
 2235SOL    HW1 7604   2.605   0.252   2.620
 2235SOL    HW2 7605   2.514   0.274   2.754
 2236SOL     OW 7606   2.103   3.886   6.104
 2236SOL    HW1 7607   2.164   3.964   6.092
 2236SOL    HW2 7608   2.151   3.813   6.153
 2237SOL     OW 7609   6.196   5.544   4.936
 2237SOL    HW1 7610   6.249   5.515   5.017
 2237SOL    HW2 7611   6.215   5.640   4.917
 2238SOL     OW 7612   4.597   4.719   2.867
 2238SOL    HW1 7613   4.581   4.788   2.937
 2238SOL    HW2 7614   4.534   4.643   2.880
 2239SOL     OW 7615   3.767   5.525   3.829
 2239SOL    HW1 7616   3.737   5.434   3.858
 2239SOL    HW2 7617   3.867   5.529   3.832
 2240SOL     OW 7618   3.767   5.937   2.723
 2240SOL    HW1 7619   3.706   5.952   2.645
 2240SOL    HW2 7620   3.716   5.946   2.808
 2241SOL     OW 7621   6.703   6.588   1.755
 2241SOL    HW1 7622   6.793   6.554   1.728
 2241SOL    HW2 7623   6.634   6.556   1.690
 2242SOL     OW 7624   5.387   3.071   2.891
 2242SOL    HW1 7625   5.483   3.060   2.917
 2242SOL    HW2 7626   5.374   3.161   2.849
 2243SOL     OW 7627   2.654   6.002   0.221
 2243SOL    HW1 7628   2.687   5.951   0.142
 2243SOL    HW2 7629   2.697   5.967   0.304
 2244SOL     OW 7630   3.039   0.130   1.207
 2244SOL    HW1 7631   3.115   0.170   1.155
 2244SOL    HW2 7632   3.061   0.035   1.230
 2245SOL     OW 7633   0.495   1.414   0.665
 2245SOL    HW1 7634   0.552   1.332   0.667
 2245SOL    HW2 7635   0.474   1.438   0.570
 2246SOL     OW 7636   1.883   0.466   3.893
 2246SOL    HW1 7637   1.921   0.433   3.807
 2246SOL    HW2 7638   1.859   0.563   3.884
 2247SOL     OW 7639   3.227   4.088   2.679
 2247SOL    HW1 7640   3.240   3.990   2.695
 2247SOL    HW2 7641   3.191   4.102   2.587
 2248SOL     OW 7642   6.542   4.220   4.362
 2248SOL    HW1 7643   6.514   4.288   4.429
 2248SOL    HW2 7644   6.605   4.155   4.404
 2249SOL     OW 7645   3.311   6.617   3.562
 2249SOL    HW1 7646   3.270   6.540   3.610
 2249SOL    HW2 7647   3.344   6.684   3.629
 2250SOL     OW 7648   3.687   3.813   5.577
 2250SOL    HW1 7649   3.773   3.849   5.612
 2250SOL    HW2 7650   3.672   3.849   5.485
 2251SOL     OW 7651   5.233   6.749   6.338
 2251SOL    HW1 7652   5.332   6.753   6.325
 2251SOL    HW2 7653   5.188   6.734   6.249
 2252SOL     OW 7654   5.493   1.674   2.898
 2252SOL    HW1 7655   5.551   1.705   2.822
 2252SOL    HW2 7656   5.499   1.740   2.973
 2253SOL     OW 7657   0.495   3.366   0.132
 2253SOL    HW1 7658   0.425   3.436   0.119
 2253SOL    HW2 7659   0.493   3.301   0.056
 2254SOL     OW 7660   3.625   3.699   3.177
 2254SOL    HW1 7661   3.678   3.650   3.246
 2254SOL    HW2 7662   3.638   3.655   3.088
 2255SOL     OW 7663   2.999   4.024   5.924
 2255SOL    HW1 7664   3.092   4.016   5.961
 2255SOL    HW2 7665   3.000   3.997   5.828
 2256SOL     OW 7666   4.420   6.355   2.296
 2256SOL    HW1 7667   4.322   6.369   2.284
 2256SOL    HW2 7668   4.454   6.295   2.223
 2257SOL     OW 7669   0.258   1.871   4.703
 2257SOL    HW1 7670   0.319   1.927   4.646
 2257SOL    HW2 7671   0.279   1.885   4.799
 2258SOL     OW 7672   2.339   6.325   4.106
 2258SOL    HW1 7673   2.363   6.317   4.009
 2258SOL    HW2 7674   2.305   6.418   4.123
 2259SOL     OW 7675   5.914   2.767   4.821
 2259SOL    HW1 7676   5.905   2.675   4.858
 2259SOL    HW2 7677   5.960   2.825   4.889
 2260SOL     OW 7678   0.860   3.325   1.144
 2260SOL    HW1 7679   0.907   3.257   1.087
 2260SOL    HW2 7680   0.922   3.400   1.165
 2261SOL     OW 7681   6.224   3.836   0.906
 2261SOL    HW1 7682   6.202   3.924   0.947
 2261SOL    HW2 7683   6.296   3.849   0.838
 2262SOL     OW 7684   6.432   0.745   3.358
 2262SOL    HW1 7685   6.515   0.786   3.397
 2262SOL    HW2 7686   6.450   0.717   3.264
 2263SOL     OW 7687   1.734   5.680   1.100
 2263SOL    HW1 7688   1.792   5.730   1.036
 2263SOL    HW2 7689   1.789   5.611   1.148
 2264SOL     OW 7690   2.604   6.748   6.648
 2264SOL    HW1 7691   2.589   6.846   6.636
 2264SOL    HW2 7692   2.617   6.705   6.559
 2265SOL     OW 7693   1.421   0.353   4.255
 2265SOL    HW1 7694   1.370   0.421   4.203
 2265SOL    HW2 7695   1.518   0.377   4.256
 2266SOL     OW 7696   5.099   1.280   6.224
 2266SOL    HW1 7697   5.111   1.250   6.129
 2266SOL    HW2 7698   5.134   1.373   6.235
 2267SOL     OW 7699   4.513   2.588   4.706
 2267SOL    HW1 7700   4.563   2.674   4.719
 2267SOL    HW2 7701   4.542   2.546   4.620
 2268SOL     OW 7702   6.245   3.673   6.225
 2268SOL    HW1 7703   6.188   3.599   6.189
 2268SOL    HW2 7704   6.232   3.755   6.169
 2269SOL     OW 7705   0.395   3.430   5.280
 2269SOL    HW1 7706   0.302   3.425   5.316
 2269SOL    HW2 7707   0.452   3.362   5.325
 2270SOL     OW 7708   4.346   3.264   6.231
 2270SOL    HW1 7709   4.297   3.340   6.188
 2270SOL    HW2 7710   4.341   3.273   6.330
 2271SOL     OW 7711   5.770   4.353   6.964
 2271SOL    HW1 7712   5.795   4.330   6.870
 2271SOL    HW2 7713   5.852   4.352   0.002
 2272SOL     OW 7714   6.747   1.562   6.310
 2272SOL    HW1 7715   6.702   1.614   6.382
 2272SOL    HW2 7716   6.823   1.615   6.274
 2273SOL     OW 7717   1.803   2.107   2.264
 2273SOL    HW1 7718   1.756   2.022   2.285
 2273SOL    HW2 7719   1.763   2.149   2.183
 2274SOL     OW 7720   0.789   1.819   6.819
 2274SOL    HW1 7721   0.727   1.740   6.815
 2274SOL    HW2 7722   0.741   1.900   6.786
 2275SOL     OW 7723   6.037   5.166   2.288
 2275SOL    HW1 7724   6.076   5.228   2.221
 2275SOL    HW2 7725   6.079   5.181   2.377
 2276SOL     OW 7726   1.504   6.390   1.107
 2276SOL    HW1 7727   1.596   6.429   1.107
 2276SOL    HW2 7728   1.447   6.436   1.175
 2277SOL     OW 7729   3.411   3.906   4.003
 2277SOL    HW1 7730   3.489   3.847   4.023
 2277SOL    HW2 7731   3.344   3.899   4.077
 2278SOL     OW 7732   6.661   3.012   3.978
 2278SOL    HW1 7733   6.592   3.006   3.906
 2278SOL    HW2 7734   6.640   3.088   4.039
 2279SOL     OW 7735   6.841   6.064   5.871
 2279SOL    HW1 7736   6.795   5.989   5.918
 2279SOL    HW2 7737   6.889   6.121   5.938
 2280SOL     OW 7738   6.327   0.629   5.003
 2280SOL    HW1 7739   6.364   0.610   4.912
 2280SOL    HW2 7740   6.250   0.693   4.996
 2281SOL     OW 7741   4.504   0.624   1.838
 2281SOL    HW1 7742   4.406   0.611   1.823
 2281SOL    HW2 7743   4.553   0.607   1.753
 2282SOL     OW 7744   4.726   6.314   5.396
 2282SOL    HW1 7745   4.660   6.387   5.380
 2282SOL    HW2 7746   4.773   6.293   5.311
 2283SOL     OW 7747   1.639   0.531   2.542
 2283SOL    HW1 7748   1.737   0.545   2.553
 2283SOL    HW2 7749   1.590   0.615   2.567
 2284SOL     OW 7750   0.791   3.561   5.759
 2284SOL    HW1 7751   0.858   3.627   5.793
 2284SOL    HW2 7752   0.836   3.472   5.745
 2285SOL     OW 7753   1.163   3.531   6.991
 2285SOL    HW1 7754   1.074   3.562   0.006
 2285SOL    HW2 7755   1.152   3.494   6.899
 2286SOL     OW 7756   5.171   6.735   3.202
 2286SOL    HW1 7757   5.207   6.709   3.292
 2286SOL    HW2 7758   5.130   6.826   3.206
 2287SOL     OW 7759   2.557   1.238   3.703
 2287SOL    HW1 7760   2.458   1.250   3.704
 2287SOL    HW2 7761   2.592   1.234   3.796
 2288SOL     OW 7762   0.592   5.293   3.834
 2288SOL    HW1 7763   0.540   5.297   3.919
 2288SOL    HW2 7764   0.666   5.227   3.843
 2289SOL     OW 7765   6.846   4.554   1.264
 2289SOL    HW1 7766   6.757   4.529   1.303
 2289SOL    HW2 7767   6.911   4.571   1.337
 2290SOL     OW 7768   0.979   4.282   0.947
 2290SOL    HW1 7769   0.955   4.311   1.040
 2290SOL    HW2 7770   1.047   4.344   0.909
 2291SOL     OW 7771   3.145   2.005   5.682
 2291SOL    HW1 7772   3.243   2.011   5.698
 2291SOL    HW2 7773   3.096   2.028   5.766
 2292SOL     OW 7774   1.283   1.630   5.059
 2292SOL    HW1 7775   1.264   1.535   5.035
 2292SOL    HW2 7776   1.283   1.640   5.159
 2293SOL     OW 7777   5.692   5.846   1.810
 2293SOL    HW1 7778   5.746   5.878   1.888
 2293SOL    HW2 7779   5.642   5.763   1.835
 2294SOL     OW 7780   3.620   6.964   0.547
 2294SOL    HW1 7781   3.679   7.004   0.617
 2294SOL    HW2 7782   3.637   6.865   0.542
 2295SOL     OW 7783   0.455   2.007   2.489
 2295SOL    HW1 7784   0.406   1.979   2.572
 2295SOL    HW2 7785   0.547   2.036   2.513
 2296SOL     OW 7786   3.255   6.988   0.803
 2296SOL    HW1 7787   3.320   0.043   0.798
 2296SOL    HW2 7788   3.289   6.910   0.750
 2297SOL     OW 7789   4.224   4.187   5.734
 2297SOL    HW1 7790   4.272   4.128   5.670
 2297SOL    HW2 7791   4.129   4.200   5.704
 2298SOL     OW 7792   3.608   2.465   1.178
 2298SOL    HW1 7793   3.563   2.548   1.211
 2298SOL    HW2 7794   3.559   2.430   1.099
 2299SOL     OW 7795   5.493   6.902   6.824
 2299SOL    HW1 7796   5.428   6.827   6.830
 2299SOL    HW2 7797   5.565   6.889   6.893
 2300SOL     OW 7798   1.556   5.386   1.639
 2300SOL    HW1 7799   1.552   5.296   1.682
 2300SOL    HW2 7800   1.621   5.443   1.688
 2301SOL     OW 7801   3.049   3.376   3.211
 2301SOL    HW1 7802   3.110   3.455   3.217
 2301SOL    HW2 7803   3.039   3.348   3.116
 2302SOL     OW 7804   4.143   6.596   2.451
 2302SOL    HW1 7805   4.111   6.649   2.530
 2302SOL    HW2 7806   4.243   6.597   2.449
 2303SOL     OW 7807   1.486   3.561   5.369
 2303SOL    HW1 7808   1.414   3.589   5.433
 2303SOL    HW2 7809   1.493   3.461   5.368
 2304SOL     OW 7810   2.585   0.398   3.890
 2304SOL    HW1 7811   2.511   0.460   3.864
 2304SOL    HW2 7812   2.673   0.445   3.880
 2305SOL     OW 7813   3.936   5.748   2.874
 2305SOL    HW1 7814   3.990   5.694   2.809
 2305SOL    HW2 7815   3.857   5.787   2.826
 2306SOL     OW 7816   2.392   5.188   1.661
 2306SOL    HW1 7817   2.492   5.187   1.660
 2306SOL    HW2 7818   2.358   5.106   1.706
 2307SOL     OW 7819   2.192   4.546   2.930
 2307SOL    HW1 7820   2.223   4.475   2.867
 2307SOL    HW2 7821   2.172   4.630   2.879
 2308SOL     OW 7822   0.766   0.785   6.404
 2308SOL    HW1 7823   0.850   0.833   6.380
 2308SOL    HW2 7824   0.720   0.753   6.321
 2309SOL     OW 7825   2.901   6.198   0.036
 2309SOL    HW1 7826   2.884   6.293   0.008
 2309SOL    HW2 7827   2.919   6.143   6.974
 2310SOL     OW 7828   6.759   6.841   0.995
 2310SOL    HW1 7829   6.763   6.921   1.054
 2310SOL    HW2 7830   6.722   6.866   0.906
 2311SOL     OW 7831   2.640   6.939   2.679
 2311SOL    HW1 7832   2.685   6.878   2.744
 2311SOL    HW2 7833   2.561   6.982   2.723
 2312SOL     OW 7834   2.912   6.694   3.359
 2312SOL    HW1 7835   2.863   6.615   3.322
 2312SOL    HW2 7836   2.854   6.775   3.352
 2313SOL     OW 7837   4.788   5.217   1.898
 2313SOL    HW1 7838   4.759   5.142   1.838
 2313SOL    HW2 7839   4.787   5.303   1.847
 2314SOL     OW 7840   5.843   0.759   3.129
 2314SOL    HW1 7841   5.881   0.827   3.192
 2314SOL    HW2 7842   5.861   0.667   3.163
 2315SOL     OW 7843   5.235   3.372   5.412
 2315SOL    HW1 7844   5.200   3.329   5.328
 2315SOL    HW2 7845   5.217   3.313   5.490
 2316SOL     OW 7846   2.507   1.431   5.517
 2316SOL    HW1 7847   2.594   1.386   5.496
 2316SOL    HW2 7848   2.455   1.444   5.432
 2317SOL     OW 7849   6.352   6.658   3.858
 2317SOL    HW1 7850   6.430   6.707   3.896
 2317SOL    HW2 7851   6.299   6.719   3.800
 2318SOL     OW 7852   2.141   3.535   4.467
 2318SOL    HW1 7853   2.189   3.599   4.407
 2318SOL    HW2 7854   2.164   3.441   4.442
 2319SOL     OW 7855   3.320   5.174   4.743
 2319SOL    HW1 7856   3.308   5.118   4.825
 2319SOL    HW2 7857   3.249   5.246   4.741
 2320SOL     OW 7858   1.417   2.439   5.570
 2320SOL    HW1 7859   1.506   2.450   5.527
 2320SOL    HW2 7860   1.428   2.401   5.662
 2321SOL     OW 7861   2.717   5.428   6.272
 2321SOL    HW1 7862   2.744   5.429   6.175
 2321SOL    HW2 7863   2.620   5.402   6.279
 2322SOL     OW 7864   1.710   4.455   2.070
 2322SOL    HW1 7865   1.776   4.443   1.996
 2322SOL    HW2 7866   1.646   4.378   2.070
 2323SOL     OW 7867   3.270   4.724   1.771
 2323SOL    HW1 7868   3.365   4.711   1.802
 2323SOL    HW2 7869   3.212   4.744   1.850
 2324SOL     OW 7870   0.033   5.690   1.072
 2324SOL    HW1 7871   0.121   5.703   1.026
 2324SOL    HW2 7872   7.006   5.778   1.080
 2325SOL     OW 7873   0.200   4.560   1.370
 2325SOL    HW1 7874   0.222   4.477   1.421
 2325SOL    HW2 7875   0.127   4.610   1.417
 2326SOL     OW 7876   1.690   6.131   6.379
 2326SOL    HW1 7877   1.717   6.050   6.326
 2326SOL    HW2 7878   1.772   6.180   6.408
 2327SOL     OW 7879   0.335   1.384   3.278
 2327SOL    HW1 7880   0.250   1.332   3.284
 2327SOL    HW2 7881   0.361   1.395   3.182
 2328SOL     OW 7882   1.499   2.007   2.529
 2328SOL    HW1 7883   1.413   2.052   2.506
 2328SOL    HW2 7884   1.507   1.999   2.628
 2329SOL     OW 7885   1.175   4.424   4.741
 2329SOL    HW1 7886   1.128   4.506   4.710
 2329SOL    HW2 7887   1.111   4.347   4.740
 2330SOL     OW 7888   0.481   2.668   0.589
 2330SOL    HW1 7889   0.574   2.635   0.608
 2330SOL    HW2 7890   0.421   2.646   0.666
 2331SOL     OW 7891   3.225   5.340   6.739
 2331SOL    HW1 7892   3.317   5.319   6.704
 2331SOL    HW2 7893   3.174   5.391   6.670
 2332SOL     OW 7894   6.959   6.900   5.734
 2332SOL    HW1 7895   6.957   6.956   5.818
 2332SOL    HW2 7896   6.979   6.959   5.656
 2333SOL     OW 7897   0.056   5.234   2.942
 2333SOL    HW1 7898   0.055   5.303   2.870
 2333SOL    HW2 7899   0.008   5.269   3.023
 2334SOL     OW 7900   1.321   1.369   6.879
 2334SOL    HW1 7901   1.421   1.378   6.885
 2334SOL    HW2 7902   1.279   1.458   6.897
 2335SOL     OW 7903   5.870   0.267   3.504
 2335SOL    HW1 7904   5.935   0.192   3.517
 2335SOL    HW2 7905   5.902   0.347   3.554
 2336SOL     OW 7906   3.481   1.207   4.122
 2336SOL    HW1 7907   3.399   1.154   4.143
 2336SOL    HW2 7908   3.517   1.180   4.033
 2337SOL     OW 7909   4.149   0.908   1.712
 2337SOL    HW1 7910   4.103   0.820   1.713
 2337SOL    HW2 7911   4.195   0.923   1.800
 2338SOL     OW 7912   1.028   3.430   4.210
 2338SOL    HW1 7913   0.998   3.349   4.261
 2338SOL    HW2 7914   1.119   3.457   4.241
 2339SOL     OW 7915   3.202   3.938   3.479
 2339SOL    HW1 7916   3.212   3.957   3.382
 2339SOL    HW2 7917   3.163   4.017   3.526
 2340SOL     OW 7918   0.640   4.682   6.784
 2340SOL    HW1 7919   0.627   4.584   6.768
 2340SOL    HW2 7920   0.679   4.695   6.875
 2341SOL     OW 7921   2.995   4.770   1.918
 2341SOL    HW1 7922   2.924   4.705   1.945
 2341SOL    HW2 7923   2.957   4.839   1.858
 2342SOL     OW 7924   1.783   6.998   4.716
 2342SOL    HW1 7925   1.793   0.006   4.621
 2342SOL    HW2 7926   1.819   0.051   4.775
 2343SOL     OW 7927   1.796   5.434   2.708
 2343SOL    HW1 7928   1.801   5.417   2.807
 2343SOL    HW2 7929   1.701   5.451   2.683
 2344SOL     OW 7930   0.170   5.698   6.904
 2344SOL    HW1 7931   0.199   5.615   6.953
 2344SOL    HW2 7932   0.111   5.752   6.964
 2345SOL     OW 7933   2.507   5.218   4.756
 2345SOL    HW1 7934   2.413   5.211   4.790
 2345SOL    HW2 7935   2.554   5.132   4.774
 2346SOL     OW 7936   3.853   3.150   5.872
 2346SOL    HW1 7937   3.851   3.243   5.837
 2346SOL    HW2 7938   3.760   3.121   5.895
 2347SOL     OW 7939   2.509   2.108   1.285
 2347SOL    HW1 7940   2.436   2.175   1.297
 2347SOL    HW2 7941   2.597   2.156   1.281
 2348SOL     OW 7942   1.715   6.135   3.676
 2348SOL    HW1 7943   1.716   6.219   3.622
 2348SOL    HW2 7944   1.800   6.126   3.727
 2349SOL     OW 7945   1.131   4.716   6.131
 2349SOL    HW1 7946   1.141   4.810   6.101
 2349SOL    HW2 7947   1.211   4.663   6.105
 2350SOL     OW 7948   5.945   5.127   6.014
 2350SOL    HW1 7949   5.857   5.143   5.968
 2350SOL    HW2 7950   5.947   5.033   6.049
 2351SOL     OW 7951   3.134   5.022   4.188
 2351SOL    HW1 7952   3.097   5.108   4.222
 2351SOL    HW2 7953   3.074   4.947   4.216
 2352SOL     OW 7954   0.648   3.259   2.367
 2352SOL    HW1 7955   0.639   3.220   2.459
 2352SOL    HW2 7956   0.558   3.265   2.325
 2353SOL     OW 7957   3.428   4.945   4.372
 2353SOL    HW1 7958   3.402   4.923   4.278
 2353SOL    HW2 7959   3.524   4.974   4.374
 2354SOL     OW 7960   2.225   2.266   4.314
 2354SOL    HW1 7961   2.317   2.238   4.288
 2354SOL    HW2 7962   2.159   2.199   4.280
 2355SOL     OW 7963   2.018   6.725   5.612
 2355SOL    HW1 7964   1.994   6.650   5.551
 2355SOL    HW2 7965   2.112   6.714   5.643
 2356SOL     OW 7966   1.381   3.032   6.303
 2356SOL    HW1 7967   1.321   3.099   6.347
 2356SOL    HW2 7968   1.399   3.061   6.208
 2357SOL     OW 7969   4.416   0.937   2.262
 2357SOL    HW1 7970   4.319   0.957   2.276
 2357SOL    HW2 7971   4.424   0.855   2.204
 2358SOL     OW 7972   3.342   5.654   5.422
 2358SOL    HW1 7973   3.373   5.565   5.388
 2358SOL    HW2 7974   3.395   5.678   5.504
 2359SOL     OW 7975   0.050   0.522   5.541
 2359SOL    HW1 7976   0.088   0.560   5.625
 2359SOL    HW2 7977   0.006   0.595   5.489
 2360SOL     OW 7978   5.902   3.599   6.915
 2360SOL    HW1 7979   5.856   3.672   6.865
 2360SOL    HW2 7980   5.838   3.556   6.979
 2361SOL     OW 7981   2.372   0.515   6.788
 2361SOL    HW1 7982   2.432   0.595   6.783
 2361SOL    HW2 7983   2.296   0.535   6.851
 2362SOL     OW 7984   2.414   5.989   3.957
 2362SOL    HW1 7985   2.318   5.966   3.972
 2362SOL    HW2 7986   2.458   6.012   4.044
 2363SOL     OW 7987   3.777   2.043   4.540
 2363SOL    HW1 7988   3.759   2.086   4.628
 2363SOL    HW2 7989   3.712   2.076   4.472
 2364SOL     OW 7990   0.855   2.802   2.223
 2364SOL    HW1 7991   0.873   2.750   2.139
 2364SOL    HW2 7992   0.938   2.805   2.279
 2365SOL     OW 7993   6.514   2.358   6.658
 2365SOL    HW1 7994   6.579   2.304   6.605
 2365SOL    HW2 7995   6.526   2.338   6.756
 2366SOL     OW 7996   2.174   5.795   6.681
 2366SOL    HW1 7997   2.240   5.834   6.746
 2366SOL    HW2 7998   2.081   5.812   6.713
 2367SOL     OW 7999   2.329   3.509   1.025
 2367SOL    HW1 8000   2.339   3.515   1.125
 2367SOL    HW2 8001   2.234   3.530   1.000
 2368SOL     OW 8002   5.347   6.610   4.370
 2368SOL    HW1 8003   5.296   6.545   4.313
 2368SOL    HW2 8004   5.427   6.564   4.408
 2369SOL     OW 8005   1.594   0.679   4.366
 2369SOL    HW1 8006   1.552   0.675   4.457
 2369SOL    HW2 8007   1.625   0.773   4.348
 2370SOL     OW 8008   5.598   3.338   6.980
 2370SOL    HW1 8009   5.580   3.430   6.945
 2370SOL    HW2 8010   5.650   3.287   6.912
 2371SOL     OW 8011   1.652   6.871   1.732
 2371SOL    HW1 8012   1.667   6.966   1.704
 2371SOL    HW2 8013   1.734   6.835   1.776
 2372SOL     OW 8014   6.803   3.095   2.076
 2372SOL    HW1 8015   6.894   3.077   2.112
 2372SOL    HW2 8016   6.751   3.151   2.141
 2373SOL     OW 8017   0.445   3.325   5.887
 2373SOL    HW1 8018   0.475   3.419   5.870
 2373SOL    HW2 8019   0.368   3.326   5.951
 2374SOL     OW 8020   6.212   1.667   4.301
 2374SOL    HW1 8021   6.198   1.758   4.340
 2374SOL    HW2 8022   6.176   1.665   4.208
 2375SOL     OW 8023   3.512   5.888   5.103
 2375SOL    HW1 8024   3.488   5.791   5.097
 2375SOL    HW2 8025   3.564   5.904   5.187
 2376SOL     OW 8026   6.569   3.233   4.109
 2376SOL    HW1 8027   6.552   3.294   4.031
 2376SOL    HW2 8028   6.599   3.286   4.188
 2377SOL     OW 8029   3.621   4.136   3.887
 2377SOL    HW1 8030   3.534   4.185   3.899
 2377SOL    HW2 8031   3.648   4.096   3.975
 2378SOL     OW 8032   4.951   1.779   0.100
 2378SOL    HW1 8033   4.964   1.729   0.186
 2378SOL    HW2 8034   4.854   1.780   0.076
 2379SOL     OW 8035   0.271   0.967   0.499
 2379SOL    HW1 8036   0.265   0.867   0.495
 2379SOL    HW2 8037   0.256   1.004   0.407
 2380SOL     OW 8038   0.459   2.216   6.535
 2380SOL    HW1 8039   0.490   2.310   6.541
 2380SOL    HW2 8040   0.383   2.201   6.598
 2381SOL     OW 8041   1.945   5.277   4.302
 2381SOL    HW1 8042   2.003   5.345   4.345
 2381SOL    HW2 8043   1.866   5.258   4.362
 2382SOL     OW 8044   2.014   3.585   4.700
 2382SOL    HW1 8045   2.045   3.566   4.607
 2382SOL    HW2 8046   1.993   3.498   4.746
 2383SOL     OW 8047   5.148   6.584   0.736
 2383SOL    HW1 8048   5.065   6.621   0.692
 2383SOL    HW2 8049   5.228   6.628   0.697
 2384SOL     OW 8050   5.945   1.147   2.742
 2384SOL    HW1 8051   5.898   1.196   2.668
 2384SOL    HW2 8052   5.877   1.098   2.796
 2385SOL     OW 8053   0.827   0.636   0.226
 2385SOL    HW1 8054   0.842   0.592   0.315
 2385SOL    HW2 8055   0.751   0.591   0.179
 2386SOL     OW 8056   5.484   6.243   4.483
 2386SOL    HW1 8057   5.563   6.241   4.422
 2386SOL    HW2 8058   5.479   6.332   4.528
 2387SOL     OW 8059   1.418   1.956   4.148
 2387SOL    HW1 8060   1.407   2.055   4.152
 2387SOL    HW2 8061   1.497   1.929   4.204
 2388SOL     OW 8062   0.177   2.090   3.961
 2388SOL    HW1 8063   0.093   2.115   3.912
 2388SOL    HW2 8064   0.154   2.035   4.041
 2389SOL     OW 8065   4.512   4.574   3.401
 2389SOL    HW1 8066   4.513   4.513   3.321
 2389SOL    HW2 8067   4.593   4.557   3.456
 2390SOL     OW 8068   3.979   3.151   3.424
 2390SOL    HW1 8069   3.993   3.101   3.339
 2390SOL    HW2 8070   3.881   3.162   3.441
 2391SOL     OW 8071   5.450   4.097   5.662
 2391SOL    HW1 8072   5.453   4.008   5.616
 2391SOL    HW2 8073   5.367   4.146   5.635
 2392SOL     OW 8074   3.329   6.445   5.357
 2392SOL    HW1 8075   3.420   6.421   5.322
 2392SOL    HW2 8076   3.294   6.369   5.412
 2393SOL     OW 8077   5.443   4.208   5.966
 2393SOL    HW1 8078   5.422   4.168   5.877
 2393SOL    HW2 8079   5.366   4.192   6.028
 2394SOL     OW 8080   0.981   4.184   4.833
 2394SOL    HW1 8081   1.046   4.117   4.796
 2394SOL    HW2 8082   0.888   4.156   4.810
 2395SOL     OW 8083   5.284   0.722   5.729
 2395SOL    HW1 8084   5.222   0.645   5.743
 2395SOL    HW2 8085   5.236   0.807   5.753
 2396SOL     OW 8086   3.850   4.846   0.993
 2396SOL    HW1 8087   3.885   4.761   0.953
 2396SOL    HW2 8088   3.890   4.859   1.084
 2397SOL     OW 8089   6.964   3.691   5.542
 2397SOL    HW1 8090   6.935   3.615   5.601
 2397SOL    HW2 8091   6.941   3.671   5.447
 2398SOL     OW 8092   4.080   4.332   6.638
 2398SOL    HW1 8093   4.080   4.235   6.617
 2398SOL    HW2 8094   4.130   4.382   6.567
 2399SOL     OW 8095   4.476   0.553   1.153
 2399SOL    HW1 8096   4.381   0.530   1.173
 2399SOL    HW2 8097   4.479   0.611   1.071
 2400SOL     OW 8098   2.805   4.205   1.066
 2400SOL    HW1 8099   2.706   4.203   1.080
 2400SOL    HW2 8100   2.824   4.182   0.970
 2401SOL     OW 8101   5.111   6.335   6.863
 2401SOL    HW1 8102   5.198   6.284   6.862
 2401SOL    HW2 8103   5.099   6.380   6.775
 2402SOL     OW 8104   0.274   0.502   4.014
 2402SOL    HW1 8105   0.259   0.601   4.008
 2402SOL    HW2 8106   0.322   0.470   3.933
 2403SOL     OW 8107   1.657   2.309   6.387
 2403SOL    HW1 8108   1.586   2.244   6.414
 2403SOL    HW2 8109   1.680   2.295   6.291
 2404SOL     OW 8110   2.523   0.674   0.752
 2404SOL    HW1 8111   2.607   0.718   0.720
 2404SOL    HW2 8112   2.444   0.720   0.710
 2405SOL     OW 8113   3.268   3.649   2.196
 2405SOL    HW1 8114   3.251   3.709   2.118
 2405SOL    HW2 8115   3.328   3.695   2.261
 2406SOL     OW 8116   3.231   0.347   1.636
 2406SOL    HW1 8117   3.268   0.258   1.662
 2406SOL    HW2 8118   3.134   0.337   1.612
 2407SOL     OW 8119   5.592   1.903   3.050
 2407SOL    HW1 8120   5.573   1.994   3.014
 2407SOL    HW2 8121   5.690   1.883   3.040
 2408SOL     OW 8122   4.500   4.457   2.984
 2408SOL    HW1 8123   4.557   4.460   3.066
 2408SOL    HW2 8124   4.532   4.383   2.924
 2409SOL     OW 8125   2.564   4.845   1.796
 2409SOL    HW1 8126   2.599   4.816   1.707
 2409SOL    HW2 8127   2.557   4.765   1.856
 2410SOL     OW 8128   4.148   3.087   5.296
 2410SOL    HW1 8129   4.116   3.013   5.355
 2410SOL    HW2 8130   4.244   3.105   5.316
 2411SOL     OW 8131   4.922   5.840   4.470
 2411SOL    HW1 8132   4.996   5.858   4.535
 2411SOL    HW2 8133   4.851   5.910   4.480
 2412SOL     OW 8134   5.921   4.032   1.264
 2412SOL    HW1 8135   5.910   4.098   1.338
 2412SOL    HW2 8136   5.862   3.953   1.281
 2413SOL     OW 8137   6.766   1.122   0.971
 2413SOL    HW1 8138   6.840   1.113   1.038
 2413SOL    HW2 8139   6.799   1.171   0.891
 2414SOL     OW 8140   4.737   4.500   3.551
 2414SOL    HW1 8141   4.742   4.576   3.615
 2414SOL    HW2 8142   4.828   4.483   3.513
 2415SOL     OW 8143   6.269   1.537   3.116
 2415SOL    HW1 8144   6.221   1.527   3.029
 2415SOL    HW2 8145   6.315   1.626   3.118
 2416SOL     OW 8146   4.967   2.223   4.827
 2416SOL    HW1 8147   4.915   2.177   4.754
 2416SOL    HW2 8148   5.049   2.264   4.787
 2417SOL     OW 8149   3.481   3.635   4.874
 2417SOL    HW1 8150   3.409   3.566   4.870
 2417SOL    HW2 8151   3.460   3.702   4.945
 2418SOL     OW 8152   3.710   3.322   4.567
 2418SOL    HW1 8153   3.730   3.391   4.636
 2418SOL    HW2 8154   3.796   3.283   4.533
 2419SOL     OW 8155   6.833   6.782   4.361
 2419SOL    HW1 8156   6.877   6.712   4.417
 2419SOL    HW2 8157   6.903   6.836   4.313
 2420SOL     OW 8158   3.288   0.647   3.312
 2420SOL    HW1 8159   3.377   0.679   3.344
 2420SOL    HW2 8160   3.290   0.637   3.212
 2421SOL     OW 8161   2.379   2.175   4.803
 2421SOL    HW1 8162   2.365   2.246   4.872
 2421SOL    HW2 8163   2.343   2.205   4.715
 2422SOL     OW 8164   5.341   1.785   0.445
 2422SOL    HW1 8165   5.425   1.777   0.499
 2422SOL    HW2 8166   5.262   1.773   0.505
 2423SOL     OW 8167   1.585   5.926   2.439
 2423SOL    HW1 8168   1.500   5.968   2.411
 2423SOL    HW2 8169   1.634   5.988   2.501
 2424SOL     OW 8170   6.488   6.720   6.859
 2424SOL    HW1 8171   6.423   6.750   6.789
 2424SOL    HW2 8172   6.438   6.673   6.932
 2425SOL     OW 8173   5.928   0.506   3.928
 2425SOL    HW1 8174   5.960   0.411   3.934
 2425SOL    HW2 8175   5.922   0.533   3.832
 2426SOL     OW 8176   1.058   5.489   5.337
 2426SOL    HW1 8177   1.007   5.554   5.281
 2426SOL    HW2 8178   1.095   5.417   5.279
 2427SOL     OW 8179   5.383   6.018   5.696
 2427SOL    HW1 8180   5.374   5.955   5.774
 2427SOL    HW2 8181   5.414   6.108   5.730
 2428SOL     OW 8182   0.430   0.769   2.220
 2428SOL    HW1 8183   0.416   0.867   2.202
 2428SOL    HW2 8184   0.366   0.716   2.165
 2429SOL     OW 8185   5.867   5.605   1.927
 2429SOL    HW1 8186   5.907   5.546   1.997
 2429SOL    HW2 8187   5.930   5.680   1.907
 2430SOL     OW 8188   6.237   1.170   1.958
 2430SOL    HW1 8189   6.169   1.229   2.002
 2430SOL    HW2 8190   6.294   1.127   2.029
 2431SOL     OW 8191   4.169   0.532   2.417
 2431SOL    HW1 8192   4.164   0.484   2.506
 2431SOL    HW2 8193   4.133   0.625   2.427
 2432SOL     OW 8194   4.332   6.826   2.401
 2432SOL    HW1 8195   4.367   6.745   2.447
 2432SOL    HW2 8196   4.319   6.807   2.304
 2433SOL     OW 8197   4.438   1.858   0.452
 2433SOL    HW1 8198   4.423   1.810   0.538
 2433SOL    HW2 8199   4.463   1.953   0.471
 2434SOL     OW 8200   4.153   1.707   6.200
 2434SOL    HW1 8201   4.194   1.690   6.111
 2434SOL    HW2 8202   4.166   1.626   6.258
 2435SOL     OW 8203   4.987   5.850   5.136
 2435SOL    HW1 8204   4.930   5.923   5.174
 2435SOL    HW2 8205   4.985   5.856   5.036
 2436SOL     OW 8206   1.894   6.007   6.219
 2436SOL    HW1 8207   1.927   5.988   6.312
 2436SOL    HW2 8208   1.879   6.105   6.208
 2437SOL     OW 8209   6.066   7.017   6.373
 2437SOL    HW1 8210   6.042   0.030   6.281
 2437SOL    HW2 8211   6.148   6.959   6.368
 2438SOL     OW 8212   3.321   2.112   0.669
 2438SOL    HW1 8213   3.251   2.153   0.728
 2438SOL    HW2 8214   3.337   2.017   0.698
 2439SOL     OW 8215   0.644   4.028   6.324
 2439SOL    HW1 8216   0.575   4.006   6.255
 2439SOL    HW2 8217   0.605   4.015   6.415
 2440SOL     OW 8218   4.807   5.818   5.796
 2440SOL    HW1 8219   4.759   5.776   5.873
 2440SOL    HW2 8220   4.781   5.772   5.711
 2441SOL     OW 8221   0.120   2.794   0.915
 2441SOL    HW1 8222   0.074   2.837   0.836
 2441SOL    HW2 8223   0.052   2.746   0.970
 2442SOL     OW 8224   1.133   3.795   5.904
 2442SOL    HW1 8225   1.084   3.803   5.817
 2442SOL    HW2 8226   1.222   3.840   5.897
 2443SOL     OW 8227   2.948   4.221   6.281
 2443SOL    HW1 8228   2.922   4.280   6.357
 2443SOL    HW2 8229   2.893   4.245   6.200
 2444SOL     OW 8230   2.827   4.580   5.942
 2444SOL    HW1 8231   2.800   4.513   5.873
 2444SOL    HW2 8232   2.881   4.536   6.014
 2445SOL     OW 8233   0.386   0.560   1.042
 2445SOL    HW1 8234   0.380   0.560   1.141
 2445SOL    HW2 8235   0.468   0.510   1.013
 2446SOL     OW 8236   6.258   4.082   4.507
 2446SOL    HW1 8237   6.178   4.101   4.451
 2446SOL    HW2 8238   6.289   4.166   4.552
 2447SOL     OW 8239   1.662   2.401   6.975
 2447SOL    HW1 8240   1.728   2.377   0.026
 2447SOL    HW2 8241   1.580   2.343   6.985
 2448SOL     OW 8242   0.333   0.307   4.515
 2448SOL    HW1 8243   0.368   0.332   4.426
 2448SOL    HW2 8244   0.403   0.321   4.585
 2449SOL     OW 8245   0.444   3.654   6.873
 2449SOL    HW1 8246   0.370   3.592   6.849
 2449SOL    HW2 8247   0.532   3.609   6.860
 2450SOL     OW 8248   2.722   4.702   2.735
 2450SOL    HW1 8249   2.765   4.697   2.644
 2450SOL    HW2 8250   2.653   4.774   2.736
 2451SOL     OW 8251   2.052   6.814   4.159
 2451SOL    HW1 8252   1.963   6.803   4.115
 2451SOL    HW2 8253   2.056   6.905   4.201
 2452SOL     OW 8254   1.198   3.778   2.643
 2452SOL    HW1 8255   1.104   3.747   2.659
 2452SOL    HW2 8256   1.261   3.702   2.660
 2453SOL     OW 8257   6.414   4.370   1.756
 2453SOL    HW1 8258   6.374   4.346   1.845
 2453SOL    HW2 8259   6.343   4.364   1.685
 2454SOL     OW 8260   3.371   0.404   2.230
 2454SOL    HW1 8261   3.378   0.485   2.171
 2454SOL    HW2 8262   3.355   0.323   2.173
 2455SOL     OW 8263   5.276   5.350   1.184
 2455SOL    HW1 8264   5.319   5.420   1.240
 2455SOL    HW2 8265   5.322   5.262   1.198
 2456SOL     OW 8266   5.125   6.499   1.932
 2456SOL    HW1 8267   5.181   6.426   1.970
 2456SOL    HW2 8268   5.066   6.462   1.860
 2457SOL     OW 8269   5.929   6.906   0.683
 2457SOL    HW1 8270   6.009   6.959   0.710
 2457SOL    HW2 8271   5.940   6.811   0.712
 2458SOL     OW 8272   2.296   6.036   2.970
 2458SOL    HW1 8273   2.324   6.122   2.928
 2458SOL    HW2 8274   2.297   5.963   2.901
 2459SOL     OW 8275   2.129   0.107   1.170
 2459SOL    HW1 8276   2.082   0.194   1.186
 2459SOL    HW2 8277   2.227   0.124   1.160
 2460SOL     OW 8278   3.106   6.239   2.295
 2460SOL    HW1 8279   3.091   6.294   2.213
 2460SOL    HW2 8280   3.115   6.143   2.269
 2461SOL     OW 8281   5.542   0.560   1.928
 2461SOL    HW1 8282   5.518   0.654   1.954
 2461SOL    HW2 8283   5.595   0.519   2.002
 2462SOL     OW 8284   2.470   5.331   6.598
 2462SOL    HW1 8285   2.484   5.351   6.501
 2462SOL    HW2 8286   2.544   5.372   6.652
 2463SOL     OW 8287   6.384   1.948   3.374
 2463SOL    HW1 8288   6.456   2.005   3.414
 2463SOL    HW2 8289   6.425   1.877   3.317
 2464SOL     OW 8290   1.078   3.494   1.240
 2464SOL    HW1 8291   1.105   3.403   1.274
 2464SOL    HW2 8292   1.159   3.552   1.232
 2465SOL     OW 8293   6.991   6.078   2.495
 2465SOL    HW1 8294   6.997   6.152   2.561
 2465SOL    HW2 8295   6.962   6.114   2.406
 2466SOL     OW 8296   4.092   1.736   2.854
 2466SOL    HW1 8297   4.033   1.815   2.839
 2466SOL    HW2 8298   4.145   1.749   2.938
 2467SOL     OW 8299   6.833   0.966   5.952
 2467SOL    HW1 8300   6.759   0.928   6.006
 2467SOL    HW2 8301   6.818   0.946   5.855
 2468SOL     OW 8302   6.784   5.954   1.332
 2468SOL    HW1 8303   6.707   5.991   1.385
 2468SOL    HW2 8304   6.765   5.858   1.311
 2469SOL     OW 8305   2.551   3.136   5.557
 2469SOL    HW1 8306   2.566   3.040   5.582
 2469SOL    HW2 8307   2.610   3.159   5.480
 2470SOL     OW 8308   4.624   3.666   6.890
 2470SOL    HW1 8309   4.524   3.666   6.883
 2470SOL    HW2 8310   4.664   3.638   6.803
 2471SOL     OW 8311   0.535   6.736   3.144
 2471SOL    HW1 8312   0.601   6.780   3.205
 2471SOL    HW2 8313   0.498   6.654   3.187
 2472SOL     OW 8314   5.703   2.380   4.667
 2472SOL    HW1 8315   5.764   2.426   4.733
 2472SOL    HW2 8316   5.752   2.304   4.625
 2473SOL     OW 8317   0.971   5.754   4.862
 2473SOL    HW1 8318   0.992   5.830   4.924
 2473SOL    HW2 8319   0.872   5.742   4.857
 2474SOL     OW 8320   6.429   4.683   5.144
 2474SOL    HW1 8321   6.486   4.748   5.194
 2474SOL    HW2 8322   6.373   4.731   5.076
 2475SOL     OW 8323   3.846   2.633   0.453
 2475SOL    HW1 8324   3.852   2.589   0.363
 2475SOL    HW2 8325   3.756   2.674   0.464
 2476SOL     OW 8326   0.765   2.202   3.572
 2476SOL    HW1 8327   0.786   2.155   3.657
 2476SOL    HW2 8328   0.731   2.136   3.505
 2477SOL     OW 8329   5.015   5.086   1.342
 2477SOL    HW1 8330   5.065   5.088   1.256
 2477SOL    HW2 8331   5.019   5.175   1.386
 2478SOL     OW 8332   5.857   0.042   2.687
 2478SOL    HW1 8333   5.902   6.974   2.701
 2478SOL    HW2 8334   5.767   0.027   2.646
 2479SOL     OW 8335   0.980   2.642   0.559
 2479SOL    HW1 8336   1.067   2.678   0.525
 2479SOL    HW2 8337   0.968   2.548   0.528
 2480SOL     OW 8338   1.010   3.555   0.896
 2480SOL    HW1 8339   0.976   3.623   0.831
 2480SOL    HW2 8340   0.987   3.583   0.989
 2481SOL     OW 8341   4.164   5.238   2.258
 2481SOL    HW1 8342   4.188   5.229   2.162
 2481SOL    HW2 8343   4.112   5.322   2.272
 2482SOL     OW 8344   4.744   2.674   5.144
 2482SOL    HW1 8345   4.650   2.641   5.150
 2482SOL    HW2 8346   4.755   2.728   5.060
 2483SOL     OW 8347   1.074   1.879   0.026
 2483SOL    HW1 8348   0.997   1.816   0.040
 2483SOL    HW2 8349   1.052   1.968   0.066
 2484SOL     OW 8350   3.229   1.470   0.193
 2484SOL    HW1 8351   3.301   1.536   0.213
 2484SOL    HW2 8352   3.158   1.476   0.263
 2485SOL     OW 8353   0.047   5.362   2.482
 2485SOL    HW1 8354   0.089   5.380   2.393
 2485SOL    HW2 8355   0.070   5.269   2.512
 2486SOL     OW 8356   1.313   5.306   3.223
 2486SOL    HW1 8357   1.245   5.375   3.248
 2486SOL    HW2 8358   1.362   5.336   3.141
 2487SOL     OW 8359   3.692   0.349   0.701
 2487SOL    HW1 8360   3.685   0.436   0.652
 2487SOL    HW2 8361   3.730   0.364   0.792
 2488SOL     OW 8362   3.188   5.435   1.186
 2488SOL    HW1 8363   3.267   5.393   1.141
 2488SOL    HW2 8364   3.118   5.454   1.118
 2489SOL     OW 8365   1.452   5.655   4.603
 2489SOL    HW1 8366   1.409   5.653   4.513
 2489SOL    HW2 8367   1.533   5.596   4.603
 2490SOL     OW 8368   5.699   3.447   1.353
 2490SOL    HW1 8369   5.627   3.390   1.392
 2490SOL    HW2 8370   5.780   3.443   1.412
 2491SOL     OW 8371   3.113   5.215   2.532
 2491SOL    HW1 8372   3.015   5.233   2.540
 2491SOL    HW2 8373   3.127   5.117   2.516
 2492SOL     OW 8374   5.121   3.204   6.575
 2492SOL    HW1 8375   5.047   3.137   6.580
 2492SOL    HW2 8376   5.092   3.281   6.519
 2493SOL     OW 8377   6.209   1.677   3.361
 2493SOL    HW1 8378   6.228   1.626   3.278
 2493SOL    HW2 8379   6.180   1.770   3.338
 2494SOL     OW 8380   4.911   3.182   2.390
 2494SOL    HW1 8381   4.879   3.233   2.470
 2494SOL    HW2 8382   4.843   3.114   2.364
 2495SOL     OW 8383   5.534   1.065   5.132
 2495SOL    HW1 8384   5.497   1.090   5.222
 2495SOL    HW2 8385   5.630   1.038   5.142
 2496SOL     OW 8386   1.299   6.556   0.363
 2496SOL    HW1 8387   1.226   6.492   0.385
 2496SOL    HW2 8388   1.274   6.647   0.398
 2497SOL     OW 8389   6.286   1.531   6.687
 2497SOL    HW1 8390   6.314   1.626   6.675
 2497SOL    HW2 8391   6.283   1.485   6.599
 2498SOL     OW 8392   1.876   3.144   4.794
 2498SOL    HW1 8393   1.813   3.203   4.844
 2498SOL    HW2 8394   1.970   3.170   4.815
 2499SOL     OW 8395   6.063   0.494   4.720
 2499SOL    HW1 8396   6.020   0.561   4.781
 2499SOL    HW2 8397   6.160   0.515   4.711
 2500SOL     OW 8398   4.653   3.114   0.062
 2500SOL    HW1 8399   4.720   3.110   7.008
 2500SOL    HW2 8400   4.699   3.107   0.150
 2501SOL     OW 8401   6.874   4.116   0.147
 2501SOL    HW1 8402   6.900   4.038   0.204
 2501SOL    HW2 8403   6.825   4.083   0.066
 2502SOL     OW 8404   1.985   6.543   2.946
 2502SOL    HW1 8405   2.063   6.606   2.940
 2502SOL    HW2 8406   1.918   6.579   3.011
 2503SOL     OW 8407   4.205   4.970   5.250
 2503SOL    HW1 8408   4.282   4.908   5.238
 2503SOL    HW2 8409   4.223   5.056   5.203
 2504SOL     OW 8410   1.537   4.410   3.877
 2504SOL    HW1 8411   1.578   4.344   3.941
 2504SOL    HW2 8412   1.442   4.385   3.860
 2505SOL     OW 8413   4.388   5.398   4.222
 2505SOL    HW1 8414   4.383   5.366   4.317
 2505SOL    HW2 8415   4.297   5.421   4.189
 2506SOL     OW 8416   7.002   2.230   6.587
 2506SOL    HW1 8417   0.003   2.320   6.549
 2506SOL    HW2 8418   7.014   2.160   6.516
 2507SOL     OW 8419   6.602   5.970   0.042
 2507SOL    HW1 8420   6.680   5.923   7.019
 2507SOL    HW2 8421   6.521   5.911   0.038
 2508SOL     OW 8422   2.421   2.507   2.747
 2508SOL    HW1 8423   2.477   2.424   2.751
 2508SOL    HW2 8424   2.390   2.530   2.839
 2509SOL     OW 8425   4.781   2.867   3.820
 2509SOL    HW1 8426   4.780   2.955   3.869
 2509SOL    HW2 8427   4.693   2.822   3.831
 2510SOL     OW 8428   4.193   5.549   0.324
 2510SOL    HW1 8429   4.122   5.610   0.359
 2510SOL    HW2 8430   4.208   5.567   0.227
 2511SOL     OW 8431   1.420   0.701   4.886
 2511SOL    HW1 8432   1.475   0.730   4.808
 2511SOL    HW2 8433   1.376   0.613   4.866
 2512SOL     OW 8434   5.191   3.626   5.278
 2512SOL    HW1 8435   5.170   3.550   5.339
 2512SOL    HW2 8436   5.211   3.708   5.333
 2513SOL     OW 8437   0.556   3.311   0.418
 2513SOL    HW1 8438   0.542   3.348   0.325
 2513SOL    HW2 8439   0.629   3.244   0.416
 2514SOL     OW 8440   1.159   0.757   3.579
 2514SOL    HW1 8441   1.082   0.804   3.536
 2514SOL    HW2 8442   1.130   0.720   3.667
 2515SOL     OW 8443   0.751   5.710   0.529
 2515SOL    HW1 8444   0.841   5.673   0.550
 2515SOL    HW2 8445   0.692   5.701   0.609
 2516SOL     OW 8446   5.562   6.386   3.879
 2516SOL    HW1 8447   5.507   6.346   3.806
 2516SOL    HW2 8448   5.609   6.468   3.845
 2517SOL     OW 8449   2.303   4.764   0.155
 2517SOL    HW1 8450   2.275   4.783   0.061
 2517SOL    HW2 8451   2.330   4.668   0.163
 2518SOL     OW 8452   2.213   2.456   6.770
 2518SOL    HW1 8453   2.230   2.377   6.711
 2518SOL    HW2 8454   2.166   2.527   6.718
 2519SOL     OW 8455   4.879   4.398   4.553
 2519SOL    HW1 8456   4.933   4.314   4.542
 2519SOL    HW2 8457   4.917   4.454   4.626
 2520SOL     OW 8458   2.327   4.088   2.003
 2520SOL    HW1 8459   2.340   4.159   2.073
 2520SOL    HW2 8460   2.260   4.021   2.036
 2521SOL     OW 8461   5.514   6.586   5.242
 2521SOL    HW1 8462   5.418   6.613   5.247
 2521SOL    HW2 8463   5.521   6.497   5.196
 2522SOL     OW 8464   1.159   3.114   4.637
 2522SOL    HW1 8465   1.181   3.048   4.709
 2522SOL    HW2 8466   1.061   3.111   4.618
 2523SOL     OW 8467   0.701   3.459   6.896
 2523SOL    HW1 8468   0.757   3.463   6.979
 2523SOL    HW2 8469   0.653   3.371   6.893
 2524SOL     OW 8470   1.242   6.487   4.426
 2524SOL    HW1 8471   1.292   6.541   4.358
 2524SOL    HW2 8472   1.266   6.519   4.518
 2525SOL     OW 8473   1.080   3.593   3.958
 2525SOL    HW1 8474   1.140   3.516   3.933
 2525SOL    HW2 8475   1.136   3.666   3.998
 2526SOL     OW 8476   6.709   1.553   4.823
 2526SOL    HW1 8477   6.654   1.634   4.803
 2526SOL    HW2 8478   6.800   1.564   4.782
 2527SOL     OW 8479   5.843   6.412   3.550
 2527SOL    HW1 8480   5.917   6.362   3.595
 2527SOL    HW2 8481   5.778   6.347   3.511
 2528SOL     OW 8482   6.421   5.370   0.480
 2528SOL    HW1 8483   6.341   5.412   0.439
 2528SOL    HW2 8484   6.454   5.296   0.420
 2529SOL     OW 8485   4.935   3.689   4.640
 2529SOL    HW1 8486   4.919   3.672   4.738
 2529SOL    HW2 8487   5.027   3.727   4.627
 2530SOL     OW 8488   0.269   1.059   4.043
 2530SOL    HW1 8489   0.225   1.062   3.953
 2530SOL    HW2 8490   0.308   1.149   4.063
 2531SOL     OW 8491   3.896   2.022   6.493
 2531SOL    HW1 8492   3.866   2.116   6.512
 2531SOL    HW2 8493   3.848   1.959   6.553
 2532SOL     OW 8494   1.403   4.758   6.494
 2532SOL    HW1 8495   1.304   4.752   6.479
 2532SOL    HW2 8496   1.433   4.677   6.544
 2533SOL     OW 8497   5.589   6.906   6.059
 2533SOL    HW1 8498   5.673   6.854   6.065
 2533SOL    HW2 8499   5.538   6.879   5.977
 2534SOL     OW 8500   1.041   1.746   3.723
 2534SOL    HW1 8501   1.006   1.813   3.789
 2534SOL    HW2 8502   0.968   1.720   3.660
 2535SOL     OW 8503   2.026   1.204   3.023
 2535SOL    HW1 8504   1.960   1.235   3.091
 2535SOL    HW2 8505   2.029   1.104   3.021
 2536SOL     OW 8506   5.941   0.884   4.044
 2536SOL    HW1 8507   5.963   0.868   3.948
 2536SOL    HW2 8508   5.916   0.979   4.058
 2537SOL     OW 8509   4.570   5.664   1.227
 2537SOL    HW1 8510   4.635   5.666   1.151
 2537SOL    HW2 8511   4.504   5.738   1.217
 2538SOL     OW 8512   2.307   4.648   4.753
 2538SOL    HW1 8513   2.393   4.602   4.729
 2538SOL    HW2 8514   2.268   4.606   4.835
 2539SOL     OW 8515   3.322   0.105   5.204
 2539SOL    HW1 8516   3.407   0.129   5.157
 2539SOL    HW2 8517   3.310   0.166   5.283
 2540SOL     OW 8518   5.298   1.803   2.435
 2540SOL    HW1 8519   5.388   1.790   2.476
 2540SOL    HW2 8520   5.309   1.836   2.341
 2541SOL     OW 8521   0.942   6.325   5.867
 2541SOL    HW1 8522   0.981   6.417   5.867
 2541SOL    HW2 8523   0.872   6.318   5.796
 2542SOL     OW 8524   3.324   1.826   4.203
 2542SOL    HW1 8525   3.280   1.908   4.241
 2542SOL    HW2 8526   3.288   1.809   4.111
 2543SOL     OW 8527   0.423   2.115   3.487
 2543SOL    HW1 8528   0.410   2.118   3.586
 2543SOL    HW2 8529   0.341   2.079   3.443
 2544SOL     OW 8530   6.312   5.098   1.683
 2544SOL    HW1 8531   6.279   5.049   1.602
 2544SOL    HW2 8532   6.312   5.036   1.761
 2545SOL     OW 8533   0.054   1.611   1.469
 2545SOL    HW1 8534   7.011   1.638   1.542
 2545SOL    HW2 8535   0.144   1.652   1.485
 2546SOL     OW 8536   0.138   4.256   2.480
 2546SOL    HW1 8537   0.216   4.267   2.542
 2546SOL    HW2 8538   0.084   4.177   2.509
 2547SOL     OW 8539   5.969   3.651   1.152
 2547SOL    HW1 8540   6.061   3.660   1.189
 2547SOL    HW2 8541   5.974   3.632   1.054
 2548SOL     OW 8542   6.843   6.977   5.320
 2548SOL    HW1 8543   6.907   6.979   5.396
 2548SOL    HW2 8544   6.888   6.938   5.239
 2549SOL     OW 8545   2.656   2.361   0.753
 2549SOL    HW1 8546   2.686   2.342   0.847
 2549SOL    HW2 8547   2.722   2.324   0.689
 2550SOL     OW 8548   4.548   0.178   6.018
 2550SOL    HW1 8549   4.523   0.218   6.105
 2550SOL    HW2 8550   4.465   0.157   5.966
 2551SOL     OW 8551   3.443   5.420   0.084
 2551SOL    HW1 8552   3.463   5.400   0.180
 2551SOL    HW2 8553   3.466   5.515   0.064
 2552SOL     OW 8554   2.670   6.279   0.795
 2552SOL    HW1 8555   2.621   6.250   0.877
 2552SOL    HW2 8556   2.627   6.238   0.714
 2553SOL     OW 8557   4.383   1.206   0.026
 2553SOL    HW1 8558   4.336   1.224   6.960
 2553SOL    HW2 8559   4.341   1.127   0.071
 2554SOL     OW 8560   1.199   5.707   1.402
 2554SOL    HW1 8561   1.112   5.754   1.391
 2554SOL    HW2 8562   1.274   5.773   1.398
 2555SOL     OW 8563   5.608   5.984   5.068
 2555SOL    HW1 8564   5.628   6.069   5.018
 2555SOL    HW2 8565   5.661   5.982   5.153
 2556SOL     OW 8566   3.810   0.325   1.085
 2556SOL    HW1 8567   3.889   0.295   1.032
 2556SOL    HW2 8568   3.761   0.245   1.120
 2557SOL     OW 8569   3.396   0.318   0.023
 2557SOL    HW1 8570   3.303   0.353   0.035
 2557SOL    HW2 8571   3.461   0.382   0.063
 2558SOL     OW 8572   6.097   4.034   6.163
 2558SOL    HW1 8573   6.030   4.098   6.125
 2558SOL    HW2 8574   6.092   3.947   6.115
 2559SOL     OW 8575   1.092   4.635   4.185
 2559SOL    HW1 8576   1.166   4.659   4.248
 2559SOL    HW2 8577   1.006   4.675   4.218
 2560SOL     OW 8578   4.942   1.984   3.308
 2560SOL    HW1 8579   4.935   2.082   3.288
 2560SOL    HW2 8580   4.919   1.968   3.404
 2561SOL     OW 8581   3.644   0.853   4.335
 2561SOL    HW1 8582   3.586   0.845   4.255
 2561SOL    HW2 8583   3.714   0.782   4.333
 2562SOL     OW 8584   3.076   0.029   3.324
 2562SOL    HW1 8585   2.987   0.044   3.367
 2562SOL    HW2 8586   3.078   6.958   3.283
 2563SOL     OW 8587   3.737   1.173   6.925
 2563SOL    HW1 8588   3.799   1.215   6.859
 2563SOL    HW2 8589   3.665   1.238   6.950
 2564SOL     OW 8590   1.538   1.273   0.567
 2564SOL    HW1 8591   1.444   1.250   0.540
 2564SOL    HW2 8592   1.550   1.255   0.664
 2565SOL     OW 8593   1.451   2.227   6.983
 2565SOL    HW1 8594   1.411   2.148   0.008
 2565SOL    HW2 8595   1.411   2.238   6.892
 2566SOL     OW 8596   2.232   0.742   1.282
 2566SOL    HW1 8597   2.280   0.749   1.194
 2566SOL    HW2 8598   2.297   0.720   1.354
 2567SOL     OW 8599   1.681   0.265   0.349
 2567SOL    HW1 8600   1.607   0.198   0.356
 2567SOL    HW2 8601   1.752   0.243   0.415
 2568SOL     OW 8602   2.740   6.330   1.148
 2568SOL    HW1 8603   2.691   6.406   1.191
 2568SOL    HW2 8604   2.836   6.354   1.136
 2569SOL     OW 8605   0.930   0.443   1.532
 2569SOL    HW1 8606   0.912   0.345   1.540
 2569SOL    HW2 8607   0.856   0.494   1.575
 2570SOL     OW 8608   5.822   6.757   6.100
 2570SOL    HW1 8609   5.912   6.769   6.059
 2570SOL    HW2 8610   5.831   6.753   6.200
 2571SOL     OW 8611   3.475   3.295   4.694
 2571SOL    HW1 8612   3.554   3.288   4.633
 2571SOL    HW2 8613   3.431   3.205   4.701
 2572SOL     OW 8614   1.815   6.506   1.775
 2572SOL    HW1 8615   1.907   6.517   1.739
 2572SOL    HW2 8616   1.803   6.412   1.807
 2573SOL     OW 8617   0.006   2.535   4.512
 2573SOL    HW1 8618   0.093   2.581   4.498
 2573SOL    HW2 8619   0.016   2.437   4.493
 2574SOL     OW 8620   0.932   3.919   1.879
 2574SOL    HW1 8621   0.932   3.849   1.808
 2574SOL    HW2 8622   0.843   3.966   1.880
 2575SOL     OW 8623   6.415   4.028   0.496
 2575SOL    HW1 8624   6.450   4.094   0.429
 2575SOL    HW2 8625   6.345   3.970   0.454
 2576SOL     OW 8626   1.472   6.934   3.585
 2576SOL    HW1 8627   1.440   0.009   3.574
 2576SOL    HW2 8628   1.471   6.910   3.682
 2577SOL     OW 8629   2.303   6.040   2.618
 2577SOL    HW1 8630   2.280   6.029   2.521
 2577SOL    HW2 8631   2.332   5.952   2.655
 2578SOL     OW 8632   5.074   2.658   4.439
 2578SOL    HW1 8633   5.140   2.591   4.472
 2578SOL    HW2 8634   5.053   2.641   4.343
 2579SOL     OW 8635   6.868   2.311   6.794
 2579SOL    HW1 8636   6.917   2.271   6.716
 2579SOL    HW2 8637   6.776   2.272   6.800
 2580SOL     OW 8638   1.590   2.493   6.570
 2580SOL    HW1 8639   1.509   2.521   6.622
 2580SOL    HW2 8640   1.570   2.410   6.519
 2581SOL     OW 8641   6.248   6.732   3.258
 2581SOL    HW1 8642   6.176   6.680   3.211
 2581SOL    HW2 8643   6.337   6.690   3.241
 2582SOL     OW 8644   0.679   5.424   2.388
 2582SOL    HW1 8645   0.664   5.364   2.310
 2582SOL    HW2 8646   0.772   5.461   2.384
 2583SOL     OW 8647   1.537   6.942   0.158
 2583SOL    HW1 8648   1.540   6.998   0.240
 2583SOL    HW2 8649   1.535   6.845   0.184
 2584SOL     OW 8650   4.117   6.542   1.612
 2584SOL    HW1 8651   4.045   6.474   1.619
 2584SOL    HW2 8652   4.077   6.632   1.596
 2585SOL     OW 8653   3.660   0.564   0.968
 2585SOL    HW1 8654   3.745   0.545   1.018
 2585SOL    HW2 8655   3.678   0.627   0.894
 2586SOL     OW 8656   6.351   2.086   3.810
 2586SOL    HW1 8657   6.402   2.001   3.826
 2586SOL    HW2 8658   6.396   2.162   3.857
 2587SOL     OW 8659   5.705   6.160   3.454
 2587SOL    HW1 8660   5.710   6.173   3.553
 2587SOL    HW2 8661   5.791   6.119   3.422
 2588SOL     OW 8662   5.600   0.887   1.248
 2588SOL    HW1 8663   5.619   0.790   1.261
 2588SOL    HW2 8664   5.626   0.914   1.156
 2589SOL     OW 8665   6.493   6.240   6.474
 2589SOL    HW1 8666   6.455   6.305   6.539
 2589SOL    HW2 8667   6.548   6.289   6.406
 2590SOL     OW 8668   4.483   0.264   2.737
 2590SOL    HW1 8669   4.487   0.307   2.647
 2590SOL    HW2 8670   4.531   0.322   2.803
 2591SOL     OW 8671   5.388   6.524   1.449
 2591SOL    HW1 8672   5.411   6.450   1.511
 2591SOL    HW2 8673   5.361   6.486   1.360
 2592SOL     OW 8674   3.974   5.316   1.862
 2592SOL    HW1 8675   3.926   5.280   1.943
 2592SOL    HW2 8676   3.907   5.350   1.797
 2593SOL     OW 8677   3.023   6.489   2.525
 2593SOL    HW1 8678   3.063   6.408   2.568
 2593SOL    HW2 8679   2.936   6.463   2.483
 2594SOL     OW 8680   0.552   6.503   6.505
 2594SOL    HW1 8681   0.642   6.476   6.471
 2594SOL    HW2 8682   0.552   6.501   6.605
 2595SOL     OW 8683   6.087   3.660   4.660
 2595SOL    HW1 8684   6.132   3.704   4.582
 2595SOL    HW2 8685   6.021   3.593   4.626
 2596SOL     OW 8686   3.828   2.072   2.150
 2596SOL    HW1 8687   3.810   1.974   2.139
 2596SOL    HW2 8688   3.751   2.124   2.115
 2597SOL     OW 8689   1.995   3.396   0.467
 2597SOL    HW1 8690   1.965   3.337   0.392
 2597SOL    HW2 8691   1.970   3.491   0.446
 2598SOL     OW 8692   6.443   3.527   3.618
 2598SOL    HW1 8693   6.346   3.542   3.602
 2598SOL    HW2 8694   6.456   3.492   3.711
 2599SOL     OW 8695   3.785   5.697   0.114
 2599SOL    HW1 8696   3.721   5.689   0.038
 2599SOL    HW2 8697   3.772   5.785   0.159
 2600SOL     OW 8698   5.865   3.415   3.271
 2600SOL    HW1 8699   5.792   3.357   3.308
 2600SOL    HW2 8700   5.936   3.358   3.229
 2601SOL     OW 8701   3.825   3.365   6.516
 2601SOL    HW1 8702   3.832   3.457   6.554
 2601SOL    HW2 8703   3.879   3.359   6.432
 2602SOL     OW 8704   6.453   5.082   3.885
 2602SOL    HW1 8705   6.487   5.057   3.794
 2602SOL    HW2 8706   6.355   5.061   3.890
 2603SOL     OW 8707   2.894   2.068   1.279
 2603SOL    HW1 8708   2.986   2.091   1.247
 2603SOL    HW2 8709   2.853   2.149   1.321
 2604SOL     OW 8710   5.849   6.845   1.003
 2604SOL    HW1 8711   5.938   6.886   1.025
 2604SOL    HW2 8712   5.790   6.913   0.961
 2605SOL     OW 8713   4.504   5.104   4.718
 2605SOL    HW1 8714   4.405   5.108   4.707
 2605SOL    HW2 8715   4.547   5.171   4.657
 2606SOL     OW 8716   0.004   4.361   0.181
 2606SOL    HW1 8717   7.005   4.394   0.089
 2606SOL    HW2 8718   6.984   4.270   0.192
 2607SOL     OW 8719   0.580   1.012   3.919
 2607SOL    HW1 8720   0.611   1.100   3.881
 2607SOL    HW2 8721   0.630   0.937   3.875
 2608SOL     OW 8722   5.198   0.552   1.254
 2608SOL    HW1 8723   5.261   0.627   1.272
 2608SOL    HW2 8724   5.195   0.491   1.333
 2609SOL     OW 8725   0.959   2.308   2.284
 2609SOL    HW1 8726   0.907   2.223   2.276
 2609SOL    HW2 8727   0.900   2.380   2.321
 2610SOL     OW 8728   5.951   6.100   4.636
 2610SOL    HW1 8729   5.944   6.089   4.735
 2610SOL    HW2 8730   5.956   6.010   4.593
 2611SOL     OW 8731   4.645   6.418   1.486
 2611SOL    HW1 8732   4.690   6.454   1.404
 2611SOL    HW2 8733   4.628   6.493   1.550
 2612SOL     OW 8734   5.694   6.723   3.015
 2612SOL    HW1 8735   5.623   6.776   3.061
 2612SOL    HW2 8736   5.682   6.626   3.034
 2613SOL     OW 8737   4.014   0.339   1.827
 2613SOL    HW1 8738   3.930   0.381   1.862
 2613SOL    HW2 8739   4.019   0.352   1.728
 2614SOL     OW 8740   6.896   6.608   6.044
 2614SOL    HW1 8741   6.805   6.572   6.024
 2614SOL    HW2 8742   6.895   6.653   6.134
 2615SOL     OW 8743   4.917   5.497   2.489
 2615SOL    HW1 8744   4.823   5.518   2.463
 2615SOL    HW2 8745   4.931   5.398   2.488
 2616SOL     OW 8746   3.949   3.025   2.930
 2616SOL    HW1 8747   4.009   2.946   2.922
 2616SOL    HW2 8748   3.987   3.090   2.995
 2617SOL     OW 8749   3.958   6.659   1.358
 2617SOL    HW1 8750   3.910   6.675   1.444
 2617SOL    HW2 8751   3.978   6.561   1.349
 2618SOL     OW 8752   0.976   0.093   0.708
 2618SOL    HW1 8753   0.997   0.079   0.612
 2618SOL    HW2 8754   1.054   0.063   0.764
 2619SOL     OW 8755   4.234   2.013   1.977
 2619SOL    HW1 8756   4.228   2.017   2.076
 2619SOL    HW2 8757   4.224   2.105   1.939
 2620SOL     OW 8758   0.984   4.908   3.786
 2620SOL    HW1 8759   0.934   4.833   3.743
 2620SOL    HW2 8760   1.053   4.872   3.848
 2621SOL     OW 8761   0.522   5.275   3.572
 2621SOL    HW1 8762   0.423   5.265   3.586
 2621SOL    HW2 8763   0.562   5.321   3.651
 2622SOL     OW 8764   2.545   2.565   6.870
 2622SOL    HW1 8765   2.544   2.515   6.957
 2622SOL    HW2 8766   2.488   2.646   6.877
 2623SOL     OW 8767   3.178   0.971   5.833
 2623SOL    HW1 8768   3.110   0.927   5.891
 2623SOL    HW2 8769   3.154   1.066   5.819
 2624SOL     OW 8770   5.758   2.343   3.587
 2624SOL    HW1 8771   5.658   2.353   3.591
 2624SOL    HW2 8772   5.801   2.416   3.639
 2625SOL     OW 8773   2.982   2.427   5.823
 2625SOL    HW1 8774   3.053   2.367   5.860
 2625SOL    HW2 8775   3.022   2.517   5.805
 2626SOL     OW 8776   1.866   6.311   2.971
 2626SOL    HW1 8777   1.921   6.392   2.951
 2626SOL    HW2 8778   1.923   6.242   3.015
 2627SOL     OW 8779   6.584   0.346   4.196
 2627SOL    HW1 8780   6.670   0.296   4.210
 2627SOL    HW2 8781   6.511   0.302   4.248
 2628SOL     OW 8782   4.086   6.247   6.748
 2628SOL    HW1 8783   3.998   6.204   6.771
 2628SOL    HW2 8784   4.076   6.347   6.753
 2629SOL     OW 8785   3.538   4.018   1.347
 2629SOL    HW1 8786   3.568   4.040   1.440
 2629SOL    HW2 8787   3.455   3.963   1.351
 2630SOL     OW 8788   3.097   2.127   2.508
 2630SOL    HW1 8789   3.102   2.222   2.539
 2630SOL    HW2 8790   3.049   2.123   2.420
 2631SOL     OW 8791   4.351   6.376   3.933
 2631SOL    HW1 8792   4.273   6.382   3.996
 2631SOL    HW2 8793   4.365   6.280   3.907
 2632SOL     OW 8794   3.675   2.102   0.215
 2632SOL    HW1 8795   3.613   2.072   0.143
 2632SOL    HW2 8796   3.670   2.038   0.292
 2633SOL     OW 8797   5.885   2.230   6.685
 2633SOL    HW1 8798   5.942   2.309   6.662
 2633SOL    HW2 8799   5.801   2.262   6.729
 2634SOL     OW 8800   2.112   4.315   1.348
 2634SOL    HW1 8801   2.145   4.272   1.264
 2634SOL    HW2 8802   2.098   4.245   1.418
 2635SOL     OW 8803   5.332   4.667   4.980
 2635SOL    HW1 8804   5.347   4.615   4.896
 2635SOL    HW2 8805   5.382   4.624   5.055
 2636SOL     OW 8806   4.527   0.157   5.592
 2636SOL    HW1 8807   4.544   0.069   5.637
 2636SOL    HW2 8808   4.599   0.222   5.618
 2637SOL     OW 8809   5.631   6.432   3.034
 2637SOL    HW1 8810   5.631   6.371   2.955
 2637SOL    HW2 8811   5.543   6.480   3.039
 2638SOL     OW 8812   5.701   5.785   1.102
 2638SOL    HW1 8813   5.672   5.762   1.009
 2638SOL    HW2 8814   5.708   5.701   1.156
 2639SOL     OW 8815   6.214   6.183   1.340
 2639SOL    HW1 8816   6.118   6.175   1.366
 2639SOL    HW2 8817   6.247   6.096   1.303
 2640SOL     OW 8818   6.640   6.065   5.363
 2640SOL    HW1 8819   6.554   6.022   5.334
 2640SOL    HW2 8820   6.637   6.163   5.343
 2641SOL     OW 8821   5.014   4.216   6.825
 2641SOL    HW1 8822   5.074   4.260   6.893
 2641SOL    HW2 8823   4.991   4.124   6.856
 2642SOL     OW 8824   5.152   0.498   3.606
 2642SOL    HW1 8825   5.107   0.412   3.582
 2642SOL    HW2 8826   5.100   0.574   3.566
 2643SOL     OW 8827   0.065   0.057   2.898
 2643SOL    HW1 8828   0.133   7.007   2.921
 2643SOL    HW2 8829   0.090   0.099   2.811
 2644SOL     OW 8830   0.669   4.554   6.134
 2644SOL    HW1 8831   0.595   4.622   6.136
 2644SOL    HW2 8832   0.642   4.478   6.076
 2645SOL     OW 8833   5.337   6.149   6.281
 2645SOL    HW1 8834   5.326   6.244   6.309
 2645SOL    HW2 8835   5.432   6.121   6.295
 2646SOL     OW 8836   0.138   0.198   6.152
 2646SOL    HW1 8837   0.183   0.147   6.225
 2646SOL    HW2 8838   0.100   0.283   6.190
 2647SOL     OW 8839   4.198   1.994   1.398
 2647SOL    HW1 8840   4.241   2.079   1.368
 2647SOL    HW2 8841   4.131   2.014   1.470
 2648SOL     OW 8842   5.757   0.215   2.342
 2648SOL    HW1 8843   5.692   0.272   2.292
 2648SOL    HW2 8844   5.713   0.129   2.369
 2649SOL     OW 8845   3.207   1.654   6.202
 2649SOL    HW1 8846   3.147   1.663   6.123
 2649SOL    HW2 8847   3.303   1.659   6.173
 2650SOL     OW 8848   6.888   5.875   3.032
 2650SOL    HW1 8849   6.843   5.921   3.110
 2650SOL    HW2 8850   6.833   5.888   2.950
 2651SOL     OW 8851   6.794   1.355   2.001
 2651SOL    HW1 8852   6.814   1.436   1.947
 2651SOL    HW2 8853   6.880   1.316   2.036
 2652SOL     OW 8854   3.256   3.066   3.411
 2652SOL    HW1 8855   3.177   3.116   3.445
 2652SOL    HW2 8856   3.233   3.021   3.324
 2653SOL     OW 8857   6.331   6.714   6.175
 2653SOL    HW1 8858   6.401   6.644   6.189
 2653SOL    HW2 8859   6.372   6.805   6.186
 2654SOL     OW 8860   5.201   2.466   5.723
 2654SOL    HW1 8861   5.138   2.469   5.801
 2654SOL    HW2 8862   5.294   2.483   5.754
 2655SOL     OW 8863   4.792   6.264   4.571
 2655SOL    HW1 8864   4.780   6.165   4.563
 2655SOL    HW2 8865   4.862   6.295   4.507
 2656SOL     OW 8866   5.421   3.568   3.792
 2656SOL    HW1 8867   5.403   3.633   3.718
 2656SOL    HW2 8868   5.514   3.533   3.784
 2657SOL     OW 8869   1.868   4.160   6.956
 2657SOL    HW1 8870   1.902   4.250   6.985
 2657SOL    HW2 8871   1.876   4.095   0.011
 2658SOL     OW 8872   6.273   4.668   5.705
 2658SOL    HW1 8873   6.203   4.596   5.709
 2658SOL    HW2 8874   6.258   4.725   5.625
 2659SOL     OW 8875   6.835   2.729   4.396
 2659SOL    HW1 8876   6.813   2.778   4.481
 2659SOL    HW2 8877   6.918   2.675   4.410
 2660SOL     OW 8878   6.179   2.225   2.512
 2660SOL    HW1 8879   6.159   2.262   2.602
 2660SOL    HW2 8880   6.115   2.264   2.445
 2661SOL     OW 8881   3.818   5.953   1.021
 2661SOL    HW1 8882   3.892   5.913   0.966
 2661SOL    HW2 8883   3.857   5.996   1.103
 2662SOL     OW 8884   3.872   6.725   4.623
 2662SOL    HW1 8885   3.908   6.809   4.662
 2662SOL    HW2 8886   3.842   6.664   4.697
 2663SOL     OW 8887   2.046   4.542   2.204
 2663SOL    HW1 8888   2.117   4.581   2.263
 2663SOL    HW2 8889   1.989   4.480   2.258
 2664SOL     OW 8890   4.066   3.805   2.733
 2664SOL    HW1 8891   4.030   3.843   2.818
 2664SOL    HW2 8892   4.084   3.707   2.745
 2665SOL     OW 8893   3.670   1.150   5.304
 2665SOL    HW1 8894   3.714   1.068   5.340
 2665SOL    HW2 8895   3.589   1.124   5.251
 2666SOL     OW 8896   5.207   4.149   0.864
 2666SOL    HW1 8897   5.182   4.230   0.916
 2666SOL    HW2 8898   5.268   4.091   0.918
 2667SOL     OW 8899   2.294   5.734   4.822
 2667SOL    HW1 8900   2.325   5.827   4.801
 2667SOL    HW2 8901   2.261   5.730   4.916
 2668SOL     OW 8902   6.925   3.280   5.259
 2668SOL    HW1 8903   6.886   3.199   5.304
 2668SOL    HW2 8904   6.909   3.274   5.161
 2669SOL     OW 8905   4.147   5.017   5.557
 2669SOL    HW1 8906   4.205   5.092   5.524
 2669SOL    HW2 8907   4.082   5.053   5.623
 2670SOL     OW 8908   1.024   1.296   0.171
 2670SOL    HW1 8909   1.069   1.241   0.241
 2670SOL    HW2 8910   1.032   1.393   0.194
 2671SOL     OW 8911   2.651   3.323   6.626
 2671SOL    HW1 8912   2.595   3.330   6.543
 2671SOL    HW2 8913   2.694   3.411   6.645
 2672SOL     OW 8914   2.075   5.485   0.382
 2672SOL    HW1 8915   2.168   5.503   0.414
 2672SOL    HW2 8916   2.079   5.429   0.299
 2673SOL     OW 8917   3.692   2.082   3.182
 2673SOL    HW1 8918   3.665   2.053   3.090
 2673SOL    HW2 8919   3.613   2.076   3.243
 2674SOL     OW 8920   6.792   5.289   4.592
 2674SOL    HW1 8921   6.833   5.346   4.664
 2674SOL    HW2 8922   6.745   5.348   4.526
 2675SOL     OW 8923   0.166   4.595   5.700
 2675SOL    HW1 8924   0.237   4.613   5.768
 2675SOL    HW2 8925   0.187   4.510   5.651
 2676SOL     OW 8926   4.760   1.666   1.608
 2676SOL    HW1 8927   4.760   1.571   1.576
 2676SOL    HW2 8928   4.831   1.677   1.678
 2677SOL     OW 8929   1.942   4.698   1.099
 2677SOL    HW1 8930   1.862   4.749   1.066
 2677SOL    HW2 8931   1.920   4.654   1.186
 2678SOL     OW 8932   1.183   5.237   6.227
 2678SOL    HW1 8933   1.225   5.325   6.252
 2678SOL    HW2 8934   1.127   5.204   6.303
 2679SOL     OW 8935   3.416   4.975   0.545
 2679SOL    HW1 8936   3.469   5.055   0.516
 2679SOL    HW2 8937   3.457   4.892   0.507
 2680SOL     OW 8938   2.008   1.336   1.137
 2680SOL    HW1 8939   1.957   1.408   1.091
 2680SOL    HW2 8940   1.962   1.248   1.124
 2681SOL     OW 8941   1.264   2.980   3.746
 2681SOL    HW1 8942   1.209   3.011   3.824
 2681SOL    HW2 8943   1.358   3.012   3.757
 2682SOL     OW 8944   5.188   2.972   2.579
 2682SOL    HW1 8945   5.247   2.896   2.607
 2682SOL    HW2 8946   5.208   2.995   2.483
 2683SOL     OW 8947   0.954   5.843   1.107
 2683SOL    HW1 8948   1.015   5.764   1.097
 2683SOL    HW2 8949   0.970   5.907   1.032
 2684SOL     OW 8950   2.490   6.582   2.871
 2684SOL    HW1 8951   2.520   6.661   2.816
 2684SOL    HW2 8952   2.570   6.531   2.901
 2685SOL     OW 8953   5.017   6.093   4.866
 2685SOL    HW1 8954   5.094   6.114   4.927
 2685SOL    HW2 8955   4.974   6.179   4.837
 2686SOL     OW 8956   2.171   3.173   4.050
 2686SOL    HW1 8957   2.212   3.082   4.051
 2686SOL    HW2 8958   2.091   3.173   3.990
 2687SOL     OW 8959   3.807   5.548   2.103
 2687SOL    HW1 8960   3.732   5.501   2.150
 2687SOL    HW2 8961   3.789   5.548   2.005
 2688SOL     OW 8962   4.640   4.727   6.510
 2688SOL    HW1 8963   4.678   4.813   6.474
 2688SOL    HW2 8964   4.707   4.684   6.571
 2689SOL     OW 8965   0.671   2.457   3.590
 2689SOL    HW1 8966   0.604   2.478   3.519
 2689SOL    HW2 8967   0.729   2.382   3.561
 2690SOL     OW 8968   4.149   3.482   3.914
 2690SOL    HW1 8969   4.096   3.430   3.847
 2690SOL    HW2 8970   4.172   3.422   3.991
 2691SOL     OW 8971   1.555   5.697   2.315
 2691SOL    HW1 8972   1.582   5.772   2.375
 2691SOL    HW2 8973   1.481   5.728   2.255
 2692SOL     OW 8974   0.057   6.354   3.345
 2692SOL    HW1 8975   0.019   6.276   3.394
 2692SOL    HW2 8976   0.134   6.325   3.289
 2693SOL     OW 8977   2.028   3.648   3.635
 2693SOL    HW1 8978   1.942   3.672   3.679
 2693SOL    HW2 8979   2.045   3.550   3.646
 2694SOL     OW 8980   2.236   6.684   2.967
 2694SOL    HW1 8981   2.203   6.750   2.900
 2694SOL    HW2 8982   2.317   6.637   2.933
 2695SOL     OW 8983   4.728   2.151   2.448
 2695SOL    HW1 8984   4.645   2.155   2.393
 2695SOL    HW2 8985   4.704   2.159   2.545
 2696SOL     OW 8986   4.046   3.768   5.474
 2696SOL    HW1 8987   4.031   3.834   5.547
 2696SOL    HW2 8988   4.129   3.791   5.423
 2697SOL     OW 8989   3.432   1.551   3.987
 2697SOL    HW1 8990   3.355   1.614   3.993
 2697SOL    HW2 8991   3.398   1.457   3.979
 2698SOL     OW 8992   0.895   4.001   0.596
 2698SOL    HW1 8993   0.860   3.985   0.504
 2698SOL    HW2 8994   0.839   4.069   0.643
 2699SOL     OW 8995   3.729   6.086   1.569
 2699SOL    HW1 8996   3.662   6.116   1.638
 2699SOL    HW2 8997   3.775   6.004   1.601
 2700SOL     OW 8998   1.704   3.538   2.692
 2700SOL    HW1 8999   1.736   3.551   2.786
 2700SOL    HW2 9000   1.622   3.481   2.693
 2701SOL     OW 9001   3.589   0.299   6.277
 2701SOL    HW1 9002   3.687   0.311   6.293
 2701SOL    HW2 9003   3.575   0.221   6.217
 2702SOL     OW 9004   0.093   1.269   3.341
 2702SOL    HW1 9005   0.078   1.343   3.407
 2702SOL    HW2 9006   0.087   1.181   3.388
 2703SOL     OW 9007   1.952   1.835   2.432
 2703SOL    HW1 9008   1.994   1.887   2.507
 2703SOL    HW2 9009   1.855   1.859   2.425
 2704SOL     OW 9010   2.746   5.406   1.627
 2704SOL    HW1 9011   2.695   5.334   1.579
 2704SOL    HW2 9012   2.838   5.373   1.647
 2705SOL     OW 9013   6.127   5.744   3.712
 2705SOL    HW1 9014   6.201   5.782   3.656
 2705SOL    HW2 9015   6.159   5.662   3.759
 2706SOL     OW 9016   6.452   1.508   2.138
 2706SOL    HW1 9017   6.547   1.527   2.163
 2706SOL    HW2 9018   6.391   1.571   2.186
 2707SOL     OW 9019   1.767   1.843   6.469
 2707SOL    HW1 9020   1.777   1.778   6.545
 2707SOL    HW2 9021   1.713   1.921   6.499
 2708SOL     OW 9022   1.687   2.808   1.737
 2708SOL    HW1 9023   1.742   2.725   1.729
 2708SOL    HW2 9024   1.678   2.833   1.833
 2709SOL     OW 9025   5.353   5.745   1.143
 2709SOL    HW1 9026   5.415   5.808   1.190
 2709SOL    HW2 9027   5.407   5.675   1.096
 2710SOL     OW 9028   6.796   3.903   2.424
 2710SOL    HW1 9029   6.866   3.853   2.373
 2710SOL    HW2 9030   6.727   3.838   2.457
 2711SOL     OW 9031   1.102   0.245   1.923
 2711SOL    HW1 9032   1.165   0.317   1.950
 2711SOL    HW2 9033   1.074   0.192   2.004
 2712SOL     OW 9034   2.608   4.617   0.711
 2712SOL    HW1 9035   2.556   4.702   0.711
 2712SOL    HW2 9036   2.574   4.557   0.639
 2713SOL     OW 9037   2.367   3.235   5.357
 2713SOL    HW1 9038   2.401   3.178   5.282
 2713SOL    HW2 9039   2.400   3.198   5.444
 2714SOL     OW 9040   5.087   0.524   5.821
 2714SOL    HW1 9041   5.049   0.464   5.892
 2714SOL    HW2 9042   5.023   0.599   5.803
 2715SOL     OW 9043   5.962   1.194   6.695
 2715SOL    HW1 9044   5.888   1.223   6.634
 2715SOL    HW2 9045   6.042   1.168   6.640
 2716SOL     OW 9046   0.374   5.535   2.069
 2716SOL    HW1 9047   0.329   5.606   2.015
 2716SOL    HW2 9048   0.442   5.578   2.129
 2717SOL     OW 9049   0.831   0.018   3.235
 2717SOL    HW1 9050   0.773   6.970   3.280
 2717SOL    HW2 9051   0.924   7.002   3.227
 2718SOL     OW 9052   2.051   4.308   4.067
 2718SOL    HW1 9053   2.005   4.228   4.030
 2718SOL    HW2 9054   2.148   4.305   4.044
 2719SOL     OW 9055   4.390   5.392   2.104
 2719SOL    HW1 9056   4.378   5.486   2.134
 2719SOL    HW2 9057   4.449   5.344   2.169
 2720SOL     OW 9058   1.612   6.812   4.114
 2720SOL    HW1 9059   1.701   6.832   4.073
 2720SOL    HW2 9060   1.614   6.835   4.212
 2721SOL     OW 9061   3.437   6.869   4.167
 2721SOL    HW1 9062   3.527   6.824   4.171
 2721SOL    HW2 9063   3.373   6.823   4.228
 2722SOL     OW 9064   0.659   6.196   3.192
 2722SOL    HW1 9065   0.634   6.115   3.139
 2722SOL    HW2 9066   0.711   6.259   3.134
 2723SOL     OW 9067   2.002   1.073   5.785
 2723SOL    HW1 9068   2.041   1.005   5.846
 2723SOL    HW2 9069   2.018   1.046   5.690
 2724SOL     OW 9070   4.164   5.864   6.606
 2724SOL    HW1 9071   4.103   5.786   6.593
 2724SOL    HW2 9072   4.149   5.930   6.532
 2725SOL     OW 9073   4.122   4.757   4.097
 2725SOL    HW1 9074   4.029   4.746   4.131
 2725SOL    HW2 9075   4.128   4.721   4.003
 2726SOL     OW 9076   5.029   4.872   1.715
 2726SOL    HW1 9077   4.942   4.913   1.743
 2726SOL    HW2 9078   5.062   4.811   1.787
 2727SOL     OW 9079   1.070   4.887   2.534
 2727SOL    HW1 9080   0.995   4.823   2.521
 2727SOL    HW2 9081   1.135   4.878   2.459
 2728SOL     OW 9082   2.581   6.534   5.498
 2728SOL    HW1 9083   2.671   6.552   5.460
 2728SOL    HW2 9084   2.568   6.435   5.509
 2729SOL     OW 9085   5.730   4.982   2.781
 2729SOL    HW1 9086   5.737   5.026   2.691
 2729SOL    HW2 9087   5.748   5.050   2.852
 2730SOL     OW 9088   1.953   0.320   0.895
 2730SOL    HW1 9089   1.926   0.414   0.874
 2730SOL    HW2 9090   1.910   0.291   0.980
 2731SOL     OW 9091   2.932   3.792   1.760
 2731SOL    HW1 9092   2.972   3.872   1.805
 2731SOL    HW2 9093   2.947   3.711   1.817
 2732SOL     OW 9094   5.302   2.031   2.625
 2732SOL    HW1 9095   5.302   1.939   2.585
 2732SOL    HW2 9096   5.276   2.026   2.721
 2733SOL     OW 9097   1.102   6.565   5.833
 2733SOL    HW1 9098   1.151   6.623   5.898
 2733SOL    HW2 9099   1.011   6.603   5.817
 2734SOL     OW 9100   1.909   6.334   3.963
 2734SOL    HW1 9101   1.962   6.418   3.958
 2734SOL    HW2 9102   1.883   6.316   4.058
 2735SOL     OW 9103   1.572   5.173   2.534
 2735SOL    HW1 9104   1.575   5.270   2.509
 2735SOL    HW2 9105   1.585   5.117   2.452
 2736SOL     OW 9106   4.351   0.338   4.786
 2736SOL    HW1 9107   4.450   0.329   4.773
 2736SOL    HW2 9108   4.330   0.429   4.821
 2737SOL     OW 9109   4.389   3.687   6.737
 2737SOL    HW1 9110   4.364   3.782   6.718
 2737SOL    HW2 9111   4.309   3.639   6.772
 2738SOL     OW 9112   5.560   5.156   4.859
 2738SOL    HW1 9113   5.593   5.110   4.776
 2738SOL    HW2 9114   5.572   5.255   4.849
 2739SOL     OW 9115   5.086   3.242   1.277
 2739SOL    HW1 9116   5.175   3.264   1.238
 2739SOL    HW2 9117   5.035   3.327   1.294
 2740SOL     OW 9118   5.797   2.585   3.292
 2740SOL    HW1 9119   5.884   2.558   3.251
 2740SOL    HW2 9120   5.729   2.514   3.276
 2741SOL     OW 9121   0.743   2.409   5.529
 2741SOL    HW1 9122   0.814   2.342   5.507
 2741SOL    HW2 9123   0.656   2.380   5.491
 2742SOL     OW 9124   2.045   6.454   6.807
 2742SOL    HW1 9125   1.982   6.378   6.788
 2742SOL    HW2 9126   2.115   6.424   6.872
 2743SOL     OW 9127   5.301   4.601   1.314
 2743SOL    HW1 9128   5.359   4.573   1.237
 2743SOL    HW2 9129   5.213   4.554   1.307
 2744SOL     OW 9130   4.052   2.160   5.716
 2744SOL    HW1 9131   4.106   2.171   5.799
 2744SOL    HW2 9132   4.102   2.100   5.653
 2745SOL     OW 9133   2.564   6.141   1.052
 2745SOL    HW1 9134   2.563   6.044   1.076
 2745SOL    HW2 9135   2.647   6.183   1.087
 2746SOL     OW 9136   1.981   1.851   6.276
 2746SOL    HW1 9137   1.993   1.757   6.246
 2746SOL    HW2 9138   1.914   1.854   6.350
 2747SOL     OW 9139   5.329   6.752   4.082
 2747SOL    HW1 9140   5.407   6.813   4.070
 2747SOL    HW2 9141   5.330   6.714   4.174
 2748SOL     OW 9142   3.740   1.335   2.601
 2748SOL    HW1 9143   3.788   1.253   2.631
 2748SOL    HW2 9144   3.801   1.414   2.607
 2749SOL     OW 9145   4.563   5.062   4.241
 2749SOL    HW1 9146   4.635   5.121   4.278
 2749SOL    HW2 9147   4.492   5.050   4.311
 2750SOL     OW 9148   0.626   5.876   2.527
 2750SOL    HW1 9149   0.712   5.918   2.499
 2750SOL    HW2 9150   0.644   5.805   2.595
 2751SOL     OW 9151   1.963   6.847   6.675
 2751SOL    HW1 9152   1.931   6.840   6.769
 2751SOL    HW2 9153   2.063   6.854   6.674
 2752SOL     OW 9154   5.733   6.178   5.333
 2752SOL    HW1 9155   5.675   6.105   5.370
 2752SOL    HW2 9156   5.828   6.161   5.358
 2753SOL     OW 9157   3.935   5.895   6.314
 2753SOL    HW1 9158   3.893   5.857   6.396
 2753SOL    HW2 9159   3.895   5.852   6.233
 2754SOL     OW 9160   0.488   1.199   4.671
 2754SOL    HW1 9161   0.403   1.153   4.647
 2754SOL    HW2 9162   0.526   1.156   4.753
 2755SOL     OW 9163   2.827   6.407   2.064
 2755SOL    HW1 9164   2.832   6.493   2.114
 2755SOL    HW2 9165   2.920   6.371   2.051
 2756SOL     OW 9166   0.079   3.003   5.877
 2756SOL    HW1 9167   0.093   2.906   5.862
 2756SOL    HW2 9168   7.002   3.020   5.897
 2757SOL     OW 9169   4.362   2.781   6.611
 2757SOL    HW1 9170   4.409   2.768   6.698
 2757SOL    HW2 9171   4.412   2.734   6.539
 2758SOL     OW 9172   5.904   5.666   2.787
 2758SOL    HW1 9173   5.903   5.766   2.777
 2758SOL    HW2 9174   5.975   5.627   2.728
 2759SOL     OW 9175   3.330   4.150   6.375
 2759SOL    HW1 9176   3.340   4.237   6.423
 2759SOL    HW2 9177   3.295   4.166   6.283
 2760SOL     OW 9178   5.176   5.908   3.511
 2760SOL    HW1 9179   5.163   5.828   3.453
 2760SOL    HW2 9180   5.100   5.915   3.575
 2761SOL     OW 9181   1.858   3.343   2.535
 2761SOL    HW1 9182   1.808   3.410   2.590
 2761SOL    HW2 9183   1.957   3.360   2.544
 2762SOL     OW 9184   2.149   1.939   0.651
 2762SOL    HW1 9185   2.221   1.881   0.688
 2762SOL    HW2 9186   2.178   2.034   0.655
 2763SOL     OW 9187   4.857   1.701   5.068
 2763SOL    HW1 9188   4.858   1.601   5.070
 2763SOL    HW2 9189   4.920   1.736   5.138
 2764SOL     OW 9190   1.050   4.005   2.144
 2764SOL    HW1 9191   1.134   3.990   2.092
 2764SOL    HW2 9192   0.971   3.989   2.084
 2765SOL     OW 9193   6.970   6.396   6.654
 2765SOL    HW1 9194   0.040   6.435   6.632
 2765SOL    HW2 9195   6.941   6.428   6.745
 2766SOL     OW 9196   5.879   0.738   6.638
 2766SOL    HW1 9197   5.793   0.786   6.657
 2766SOL    HW2 9198   5.867   0.640   6.654
 2767SOL     OW 9199   0.105   5.008   6.256
 2767SOL    HW1 9200   0.045   4.934   6.227
 2767SOL    HW2 9201   0.199   4.988   6.227
 2768SOL     OW 9202   4.576   6.905   1.231
 2768SOL    HW1 9203   4.639   6.954   1.172
 2768SOL    HW2 9204   4.604   6.809   1.237
 2769SOL     OW 9205   1.709   4.469   5.400
 2769SOL    HW1 9206   1.635   4.411   5.369
 2769SOL    HW2 9207   1.791   4.414   5.416
 2770SOL     OW 9208   2.729   6.548   0.816
 2770SOL    HW1 9209   2.733   6.617   0.744
 2770SOL    HW2 9210   2.714   6.458   0.776
 2771SOL     OW 9211   4.605   0.104   4.714
 2771SOL    HW1 9212   4.536   0.108   4.643
 2771SOL    HW2 9213   4.640   0.196   4.732
 2772SOL     OW 9214   3.894   0.563   3.167
 2772SOL    HW1 9215   3.840   0.481   3.145
 2772SOL    HW2 9216   3.881   0.585   3.264
 2773SOL     OW 9217   5.936   2.644   4.039
 2773SOL    HW1 9218   5.903   2.726   3.992
 2773SOL    HW2 9219   6.007   2.669   4.105
 2774SOL     OW 9220   5.264   1.673   3.674
 2774SOL    HW1 9221   5.235   1.628   3.590
 2774SOL    HW2 9222   5.247   1.772   3.666
 2775SOL     OW 9223   0.994   4.124   4.451
 2775SOL    HW1 9224   0.921   4.133   4.519
 2775SOL    HW2 9225   1.036   4.213   4.434
 2776SOL     OW 9226   4.929   4.093   5.841
 2776SOL    HW1 9227   4.871   4.020   5.803
 2776SOL    HW2 9228   4.974   4.060   5.923
 2777SOL     OW 9229   2.894   1.772   6.300
 2777SOL    HW1 9230   2.801   1.810   6.309
 2777SOL    HW2 9231   2.957   1.827   6.355
 2778SOL     OW 9232   2.743   6.129   6.778
 2778SOL    HW1 9233   2.661   6.151   6.831
 2778SOL    HW2 9234   2.756   6.197   6.706
 2779SOL     OW 9235   5.930   6.769   1.881
 2779SOL    HW1 9236   6.016   6.821   1.881
 2779SOL    HW2 9237   5.890   6.771   1.972
 2780SOL     OW 9238   0.704   1.724   5.478
 2780SOL    HW1 9239   0.795   1.748   5.446
 2780SOL    HW2 9240   0.674   1.790   5.546
 2781SOL     OW 9241   6.201   0.728   3.041
 2781SOL    HW1 9242   6.158   0.818   3.029
 2781SOL    HW2 9243   6.144   0.659   2.997
 2782SOL     OW 9244   4.328   0.935   0.129
 2782SOL    HW1 9245   4.387   0.860   0.098
 2782SOL    HW2 9246   4.232   0.910   0.114
 2783SOL     OW 9247   5.564   3.722   1.473
 2783SOL    HW1 9248   5.580   3.710   1.570
 2783SOL    HW2 9249   5.531   3.814   1.455
 2784SOL     OW 9250   1.204   1.468   0.948
 2784SOL    HW1 9251   1.302   1.481   0.955
 2784SOL    HW2 9252   1.176   1.393   1.008
 2785SOL     OW 9253   5.460   2.596   1.705
 2785SOL    HW1 9254   5.395   2.559   1.638
 2785SOL    HW2 9255   5.498   2.521   1.759
 2786SOL     OW 9256   0.177   6.701   0.116
 2786SOL    HW1 9257   0.090   6.733   0.152
 2786SOL    HW2 9258   0.215   6.632   0.178
 2787SOL     OW 9259   6.278   5.027   6.624
 2787SOL    HW1 9260   6.276   5.114   6.574
 2787SOL    HW2 9261   6.232   4.957   6.571
 2788SOL     OW 9262   2.818   6.347   5.524
 2788SOL    HW1 9263   2.846   6.345   5.428
 2788SOL    HW2 9264   2.750   6.275   5.540
 2789SOL     OW 9265   0.803   2.735   4.880
 2789SOL    HW1 9266   0.818   2.664   4.948
 2789SOL    HW2 9267   0.851   2.818   4.906
 2790SOL     OW 9268   1.426   5.827   1.370
 2790SOL    HW1 9269   1.449   5.735   1.401
 2790SOL    HW2 9270   1.496   5.859   1.306
 2791SOL     OW 9271   0.075   3.999   3.334
 2791SOL    HW1 9272   7.015   4.017   3.276
 2791SOL    HW2 9273   0.086   4.074   3.399
 2792SOL     OW 9274   3.322   1.723   5.508
 2792SOL    HW1 9275   3.238   1.675   5.483
 2792SOL    HW2 9276   3.388   1.658   5.545
 2793SOL     OW 9277   3.279   4.231   1.191
 2793SOL    HW1 9278   3.233   4.276   1.268
 2793SOL    HW2 9279   3.311   4.141   1.220
 2794SOL     OW 9280   0.757   2.395   6.377
 2794SOL    HW1 9281   0.668   2.426   6.410
 2794SOL    HW2 9282   0.775   2.303   6.411
 2795SOL     OW 9283   0.902   4.730   1.395
 2795SOL    HW1 9284   0.852   4.666   1.454
 2795SOL    HW2 9285   0.920   4.687   1.307
 2796SOL     OW 9286   1.423   6.332   5.615
 2796SOL    HW1 9287   1.368   6.259   5.573
 2796SOL    HW2 9288   1.369   6.415   5.622
 2797SOL     OW 9289   5.860   6.904   3.577
 2797SOL    HW1 9290   5.782   6.966   3.567
 2797SOL    HW2 9291   5.944   6.950   3.549
 2798SOL     OW 9292   5.900   0.259   1.763
 2798SOL    HW1 9293   5.808   0.243   1.727
 2798SOL    HW2 9294   5.929   0.352   1.739
 2799SOL     OW 9295   3.508   6.014   5.381
 2799SOL    HW1 9296   3.509   6.093   5.443
 2799SOL    HW2 9297   3.593   5.963   5.392
 2800SOL     OW 9298   6.013   0.341   6.711
 2800SOL    HW1 9299   6.082   0.269   6.719
 2800SOL    HW2 9300   6.046   0.423   6.757
 2801SOL     OW 9301   0.769   4.905   5.503
 2801SOL    HW1 9302   0.790   4.968   5.578
 2801SOL    HW2 9303   0.672   4.882   5.505
 2802SOL     OW 9304   0.056   5.115   5.570
 2802SOL    HW1 9305   6.992   5.168   5.582
 2802SOL    HW2 9306   0.080   5.069   5.655
 2803SOL     OW 9307   3.489   2.465   6.856
 2803SOL    HW1 9308   3.559   2.501   6.795
 2803SOL    HW2 9309   3.532   2.421   6.934
 2804SOL     OW 9310   0.348   2.640   3.511
 2804SOL    HW1 9311   0.343   2.542   3.529
 2804SOL    HW2 9312   0.401   2.655   3.427
 2805SOL     OW 9313   4.619   3.284   1.106
 2805SOL    HW1 9314   4.605   3.200   1.157
 2805SOL    HW2 9315   4.716   3.293   1.082
 2806SOL     OW 9316   0.288   4.022   5.916
 2806SOL    HW1 9317   0.260   3.974   5.834
 2806SOL    HW2 9318   0.279   4.121   5.902
 2807SOL     OW 9319   3.055   0.317   3.636
 2807SOL    HW1 9320   3.021   0.299   3.729
 2807SOL    HW2 9321   3.114   0.398   3.638
 2808SOL     OW 9322   6.676   4.781   6.634
 2808SOL    HW1 9323   6.596   4.816   6.684
 2808SOL    HW2 9324   6.749   4.759   6.698
 2809SOL     OW 9325   6.475   5.065   1.962
 2809SOL    HW1 9326   6.415   5.074   2.041
 2809SOL    HW2 9327   6.570   5.063   1.992
 2810SOL     OW 9328   2.342   5.682   3.007
 2810SOL    HW1 9329   2.272   5.716   2.944
 2810SOL    HW2 9330   2.310   5.598   3.051
 2811SOL     OW 9331   0.874   0.382   1.892
 2811SOL    HW1 9332   0.936   0.305   1.909
 2811SOL    HW2 9333   0.796   0.350   1.840
 2812SOL     OW 9334   0.675   2.958   1.332
 2812SOL    HW1 9335   0.710   2.907   1.410
 2812SOL    HW2 9336   0.606   2.903   1.284
 2813SOL     OW 9337   0.513   2.322   1.718
 2813SOL    HW1 9338   0.457   2.330   1.800
 2813SOL    HW2 9339   0.457   2.340   1.637
 2814SOL     OW 9340   2.325   4.453   0.101
 2814SOL    HW1 9341   2.240   4.421   0.143
 2814SOL    HW2 9342   2.311   4.467   0.003
 2815SOL     OW 9343   0.264   5.320   5.495
 2815SOL    HW1 9344   0.342   5.264   5.468
 2815SOL    HW2 9345   0.193   5.262   5.533
 2816SOL     OW 9346   0.693   6.066   6.068
 2816SOL    HW1 9347   0.791   6.053   6.052
 2816SOL    HW2 9348   0.643   5.989   6.029
 2817SOL     OW 9349   4.552   0.892   1.878
 2817SOL    HW1 9350   4.572   0.794   1.884
 2817SOL    HW2 9351   4.576   0.926   1.787
 2818SOL     OW 9352   1.042   0.303   1.109
 2818SOL    HW1 9353   0.944   0.285   1.109
 2818SOL    HW2 9354   1.092   0.219   1.088
 2819SOL     OW 9355   0.766   0.428   0.021
 2819SOL    HW1 9356   0.860   0.440   0.053
 2819SOL    HW2 9357   0.758   0.459   6.946
 2820SOL     OW 9358   0.927   2.768   1.403
 2820SOL    HW1 9359   0.983   2.766   1.486
 2820SOL    HW2 9360   0.970   2.828   1.336
 2821SOL     OW 9361   2.887   3.758   6.197
 2821SOL    HW1 9362   2.941   3.691   6.247
 2821SOL    HW2 9363   2.926   3.849   6.210
 2822SOL     OW 9364   4.594   2.763   1.148
 2822SOL    HW1 9365   4.576   2.668   1.173
 2822SOL    HW2 9366   4.608   2.770   1.050
 2823SOL     OW 9367   5.817   1.987   1.411
 2823SOL    HW1 9368   5.728   2.031   1.419
 2823SOL    HW2 9369   5.821   1.936   1.325
 2824SOL     OW 9370   1.301   4.018   5.004
 2824SOL    HW1 9371   1.361   4.038   4.927
 2824SOL    HW2 9372   1.355   4.010   5.088
 2825SOL     OW 9373   5.103   1.691   6.479
 2825SOL    HW1 9374   5.025   1.692   6.417
 2825SOL    HW2 9375   5.118   1.598   6.513
 2826SOL     OW 9376   2.168   3.336   0.014
 2826SOL    HW1 9377   2.233   3.289   0.073
 2826SOL    HW2 9378   2.098   3.380   0.069
 2827SOL     OW 9379   6.571   0.888   6.035
 2827SOL    HW1 9380   6.492   0.845   5.990
 2827SOL    HW2 9381   6.568   0.869   6.133
 2828SOL     OW 9382   1.330   3.875   0.728
 2828SOL    HW1 9383   1.410   3.928   0.756
 2828SOL    HW2 9384   1.247   3.917   0.765
 2829SOL     OW 9385   3.464   4.161   3.367
 2829SOL    HW1 9386   3.466   4.122   3.459
 2829SOL    HW2 9387   3.549   4.211   3.350
 2830SOL     OW 9388   3.123   4.787   5.498
 2830SOL    HW1 9389   3.057   4.766   5.570
 2830SOL    HW2 9390   3.087   4.861   5.441
 2831SOL     OW 9391   6.062   1.616   2.128
 2831SOL    HW1 9392   6.141   1.655   2.081
 2831SOL    HW2 9393   5.996   1.689   2.148
 2832SOL     OW 9394   0.614   3.568   1.364
 2832SOL    HW1 9395   0.636   3.480   1.407
 2832SOL    HW2 9396   0.519   3.591   1.383
 2833SOL     OW 9397   1.647   1.865   2.176
 2833SOL    HW1 9398   1.563   1.907   2.142
 2833SOL    HW2 9399   1.708   1.846   2.099
 2834SOL     OW 9400   3.188   6.367   5.747
 2834SOL    HW1 9401   3.273   6.399   5.788
 2834SOL    HW2 9402   3.195   6.370   5.647
 2835SOL     OW 9403   6.969   0.020   0.133
 2835SOL    HW1 9404   6.880   0.060   0.155
 2835SOL    HW2 9405   6.971   6.944   0.165
 2836SOL     OW 9406   3.469   6.501   2.740
 2836SOL    HW1 9407   3.544   6.500   2.806
 2836SOL    HW2 9408   3.497   6.549   2.658
 2837SOL     OW 9409   5.023   4.156   2.446
 2837SOL    HW1 9410   4.986   4.236   2.398
 2837SOL    HW2 9411   4.966   4.136   2.525
 2838SOL     OW 9412   5.538   4.621   5.799
 2838SOL    HW1 9413   5.534   4.640   5.897
 2838SOL    HW2 9414   5.446   4.600   5.766
 2839SOL     OW 9415   5.933   2.988   5.045
 2839SOL    HW1 9416   5.885   3.010   5.129
 2839SOL    HW2 9417   6.021   2.947   5.067
 2840SOL     OW 9418   0.183   6.232   4.067
 2840SOL    HW1 9419   0.149   6.295   4.137
 2840SOL    HW2 9420   0.160   6.138   4.093
 2841SOL     OW 9421   6.352   3.064   1.886
 2841SOL    HW1 9422   6.349   3.114   1.800
 2841SOL    HW2 9423   6.441   3.079   1.930
 2842SOL     OW 9424   1.133   0.188   3.114
 2842SOL    HW1 9425   1.182   0.177   3.027
 2842SOL    HW2 9426   1.035   0.187   3.096
 2843SOL     OW 9427   2.134   2.722   3.213
 2843SOL    HW1 9428   2.181   2.665   3.280
 2843SOL    HW2 9429   2.184   2.720   3.127
 2844SOL     OW 9430   5.109   4.393   0.966
 2844SOL    HW1 9431   5.036   4.451   0.929
 2844SOL    HW2 9432   5.175   4.450   1.015
 2845SOL     OW 9433   3.153   1.870   3.114
 2845SOL    HW1 9434   3.076   1.808   3.113
 2845SOL    HW2 9435   3.223   1.838   3.050
 2846SOL     OW 9436   5.664   0.449   0.173
 2846SOL    HW1 9437   5.578   0.498   0.175
 2846SOL    HW2 9438   5.648   0.355   0.142
 2847SOL     OW 9439   4.407   4.981   2.435
 2847SOL    HW1 9440   4.499   5.018   2.448
 2847SOL    HW2 9441   4.393   4.904   2.497
 2848SOL     OW 9442   0.836   4.025   5.469
 2848SOL    HW1 9443   0.780   4.108   5.459
 2848SOL    HW2 9444   0.853   3.986   5.379
 2849SOL     OW 9445   5.048   0.760   2.516
 2849SOL    HW1 9446   5.008   0.752   2.608
 2849SOL    HW2 9447   4.995   0.825   2.463
 2850SOL     OW 9448   1.855   6.806   2.849
 2850SOL    HW1 9449   1.827   6.758   2.932
 2850SOL    HW2 9450   1.938   6.763   2.812
 2851SOL     OW 9451   3.858   3.569   0.602
 2851SOL    HW1 9452   3.793   3.549   0.675
 2851SOL    HW2 9453   3.942   3.606   0.641
 2852SOL     OW 9454   6.176   4.363   5.985
 2852SOL    HW1 9455   6.206   4.438   6.044
 2852SOL    HW2 9456   6.233   4.282   6.002
 2853SOL     OW 9457   0.206   3.772   6.930
 2853SOL    HW1 9458   0.169   3.776   6.837
 2853SOL    HW2 9459   0.298   3.732   6.927
 2854SOL     OW 9460   3.382   1.241   5.934
 2854SOL    HW1 9461   3.291   1.242   5.892
 2854SOL    HW2 9462   3.418   1.334   5.938
 2855SOL     OW 9463   2.129   1.274   5.067
 2855SOL    HW1 9464   2.156   1.242   5.158
 2855SOL    HW2 9465   2.096   1.196   5.013
 2856SOL     OW 9466   0.452   5.666   3.242
 2856SOL    HW1 9467   0.361   5.688   3.278
 2856SOL    HW2 9468   0.484   5.581   3.284
 2857SOL     OW 9469   0.153   3.564   0.426
 2857SOL    HW1 9470   0.197   3.556   0.516
 2857SOL    HW2 9471   0.054   3.557   0.437
 2858SOL     OW 9472   4.728   4.942   2.809
 2858SOL    HW1 9473   4.673   5.012   2.764
 2858SOL    HW2 9474   4.685   4.852   2.796
 2859SOL     OW 9475   4.852   4.495   1.199
 2859SOL    HW1 9476   4.789   4.492   1.276
 2859SOL    HW2 9477   4.804   4.471   1.115
 2860SOL     OW 9478   0.436   6.498   2.168
 2860SOL    HW1 9479   0.427   6.590   2.128
 2860SOL    HW2 9480   0.524   6.459   2.140
 2861SOL     OW 9481   4.717   5.191   6.731
 2861SOL    HW1 9482   4.756   5.130   6.662
 2861SOL    HW2 9483   4.733   5.153   6.822
 2862SOL     OW 9484   3.953   2.917   0.815
 2862SOL    HW1 9485   3.979   2.860   0.737
 2862SOL    HW2 9486   3.854   2.913   0.828
 2863SOL     OW 9487   5.800   6.988   5.542
 2863SOL    HW1 9488   5.835   6.911   5.488
 2863SOL    HW2 9489   5.723   0.011   5.493
 2864SOL     OW 9490   3.916   3.928   0.290
 2864SOL    HW1 9491   3.850   3.955   0.220
 2864SOL    HW2 9492   3.893   3.973   0.376
 2865SOL     OW 9493   5.007   5.662   4.270
 2865SOL    HW1 9494   5.065   5.728   4.222
 2865SOL    HW2 9495   4.955   5.708   4.342
 2866SOL     OW 9496   4.422   4.899   0.162
 2866SOL    HW1 9497   4.338   4.934   0.118
 2866SOL    HW2 9498   4.458   4.822   0.109
 2867SOL     OW 9499   5.501   6.280   1.918
 2867SOL    HW1 9500   5.578   6.317   1.970
 2867SOL    HW2 9501   5.415   6.303   1.963
 2868SOL     OW 9502   1.116   1.706   6.239
 2868SOL    HW1 9503   1.205   1.669   6.265
 2868SOL    HW2 9504   1.115   1.804   6.257
 2869SOL     OW 9505   5.511   5.623   4.543
 2869SOL    HW1 9506   5.443   5.600   4.473
 2869SOL    HW2 9507   5.466   5.670   4.619
 2870SOL     OW 9508   6.534   1.781   1.549
 2870SOL    HW1 9509   6.594   1.750   1.475
 2870SOL    HW2 9510   6.586   1.783   1.634
 2871SOL     OW 9511   5.270   1.582   1.132
 2871SOL    HW1 9512   5.262   1.483   1.137
 2871SOL    HW2 9513   5.223   1.623   1.211
 2872SOL     OW 9514   2.513   2.531   2.205
 2872SOL    HW1 9515   2.562   2.599   2.150
 2872SOL    HW2 9516   2.445   2.485   2.148
 2873SOL     OW 9517   1.001   6.206   1.465
 2873SOL    HW1 9518   1.085   6.249   1.500
 2873SOL    HW2 9519   0.975   6.250   1.379
 2874SOL     OW 9520   2.476   0.508   3.036
 2874SOL    HW1 9521   2.412   0.432   3.024
 2874SOL    HW2 9522   2.458   0.578   2.967
 2875SOL     OW 9523   3.323   6.647   2.950
 2875SOL    HW1 9524   3.349   6.702   2.871
 2875SOL    HW2 9525   3.263   6.573   2.921
 2876SOL     OW 9526   1.108   6.065   2.145
 2876SOL    HW1 9527   1.101   6.029   2.238
 2876SOL    HW2 9528   1.074   5.998   2.080
 2877SOL     OW 9529   0.909   1.639   6.050
 2877SOL    HW1 9530   0.846   1.573   6.090
 2877SOL    HW2 9531   0.966   1.679   6.122
 2878SOL     OW 9532   4.055   3.531   4.630
 2878SOL    HW1 9533   4.096   3.480   4.554
 2878SOL    HW2 9534   4.124   3.590   4.672
 2879SOL     OW 9535   4.219   4.216   0.509
 2879SOL    HW1 9536   4.305   4.203   0.459
 2879SOL    HW2 9537   4.186   4.128   0.543
 2880SOL     OW 9538   1.764   1.524   4.667
 2880SOL    HW1 9539   1.719   1.537   4.755
 2880SOL    HW2 9540   1.726   1.444   4.621
 2881SOL     OW 9541   4.463   6.775   6.601
 2881SOL    HW1 9542   4.477   6.826   6.686
 2881SOL    HW2 9543   4.546   6.724   6.579
 2882SOL     OW 9544   4.845   6.468   0.295
 2882SOL    HW1 9545   4.803   6.550   0.333
 2882SOL    HW2 9546   4.943   6.469   0.313
 2883SOL     OW 9547   6.205   6.007   3.825
 2883SOL    HW1 9548   6.166   5.924   3.786
 2883SOL    HW2 9549   6.180   6.013   3.922
 2884SOL     OW 9550   6.578   5.140   3.247
 2884SOL    HW1 9551   6.539   5.073   3.184
 2884SOL    HW2 9552   6.660   5.180   3.206
 2885SOL     OW 9553   1.094   3.093   3.181
 2885SOL    HW1 9554   1.041   3.154   3.239
 2885SOL    HW2 9555   1.120   3.011   3.233
 2886SOL     OW 9556   2.313   4.547   5.914
 2886SOL    HW1 9557   2.255   4.629   5.923
 2886SOL    HW2 9558   2.256   4.465   5.921
 2887SOL     OW 9559   0.922   5.549   3.543
 2887SOL    HW1 9560   0.938   5.497   3.627
 2887SOL    HW2 9561   0.941   5.492   3.463
 2888SOL     OW 9562   6.402   6.876   0.139
 2888SOL    HW1 9563   6.387   6.801   0.203
 2888SOL    HW2 9564   6.408   6.962   0.189
 2889SOL     OW 9565   3.766   6.595   3.253
 2889SOL    HW1 9566   3.756   6.531   3.177
 2889SOL    HW2 9567   3.863   6.605   3.275
 2890SOL     OW 9568   2.981   0.415   1.269
 2890SOL    HW1 9569   2.890   0.451   1.248
 2890SOL    HW2 9570   3.005   0.344   1.202
 2891SOL     OW 9571   0.569   2.150   4.093
 2891SOL    HW1 9572   0.588   2.095   4.012
 2891SOL    HW2 9573   0.640   2.219   4.103
 2892SOL     OW 9574   6.689   4.093   2.614
 2892SOL    HW1 9575   6.652   4.082   2.706
 2892SOL    HW2 9576   6.691   4.005   2.568
 2893SOL     OW 9577   6.754   5.236   4.274
 2893SOL    HW1 9578   6.820   5.311   4.277
 2893SOL    HW2 9579   6.673   5.260   4.328
 2894SOL     OW 9580   1.391   5.245   2.731
 2894SOL    HW1 9581   1.345   5.313   2.673
 2894SOL    HW2 9582   1.455   5.192   2.675
 2895SOL     OW 9583   4.425   6.948   6.143
 2895SOL    HW1 9584   4.412   6.861   6.192
 2895SOL    HW2 9585   4.396   0.004   6.201
 2896SOL     OW 9586   5.427   6.006   4.662
 2896SOL    HW1 9587   5.423   6.099   4.698
 2896SOL    HW2 9588   5.416   6.008   4.562
 2897SOL     OW 9589   3.876   4.861   3.279
 2897SOL    HW1 9590   3.971   4.830   3.280
 2897SOL    HW2 9591   3.837   4.854   3.371
 2898SOL     OW 9592   5.608   3.632   2.758
 2898SOL    HW1 9593   5.669   3.555   2.772
 2898SOL    HW2 9594   5.538   3.633   2.829
 2899SOL     OW 9595   6.974   3.373   1.155
 2899SOL    HW1 9596   6.907   3.303   1.183
 2899SOL    HW2 9597   0.004   3.404   1.236
 2900SOL     OW 9598   2.761   3.587   6.639
 2900SOL    HW1 9599   2.818   3.566   6.560
 2900SOL    HW2 9600   2.797   3.667   6.686
 2901SOL     OW 9601   1.306   4.313   3.802
 2901SOL    HW1 9602   1.262   4.280   3.885
 2901SOL    HW2 9603   1.282   4.253   3.726
 2902SOL     OW 9604   0.644   6.166   3.687
 2902SOL    HW1 9605   0.653   6.231   3.612
 2902SOL    HW2 9606   0.603   6.211   3.766
 2903SOL     OW 9607   4.637   5.504   0.728
 2903SOL    HW1 9608   4.734   5.507   0.753
 2903SOL    HW2 9609   4.613   5.586   0.676
 2904SOL     OW 9610   2.308   4.265   5.217
 2904SOL    HW1 9611   2.330   4.179   5.170
 2904SOL    HW2 9612   2.333   4.342   5.159
 2905SOL     OW 9613   0.563   5.120   1.876
 2905SOL    HW1 9614   0.595   5.066   1.954
 2905SOL    HW2 9615   0.599   5.081   1.792
 2906SOL     OW 9616   5.928   6.444   2.727
 2906SOL    HW1 9617   5.861   6.513   2.753
 2906SOL    HW2 9618   6.010   6.455   2.783
 2907SOL     OW 9619   0.226   1.368   3.711
 2907SOL    HW1 9620   0.237   1.281   3.662
 2907SOL    HW2 9621   0.273   1.441   3.661
 2908SOL     OW 9622   4.488   0.044   2.419
 2908SOL    HW1 9623   4.441   0.128   2.445
 2908SOL    HW2 9624   4.423   6.987   2.421
 2909SOL     OW 9625   0.896   5.926   2.619
 2909SOL    HW1 9626   0.879   6.019   2.652
 2909SOL    HW2 9627   0.931   5.869   2.693
 2910SOL     OW 9628   6.881   1.241   3.877
 2910SOL    HW1 9629   6.799   1.255   3.932
 2910SOL    HW2 9630   6.955   1.300   3.911
 2911SOL     OW 9631   6.632   4.120   4.738
 2911SOL    HW1 9632   6.589   4.064   4.667
 2911SOL    HW2 9633   6.718   4.157   4.702
 2912SOL     OW 9634   0.286   6.768   1.650
 2912SOL    HW1 9635   0.380   6.797   1.629
 2912SOL    HW2 9636   0.231   6.771   1.567
 2913SOL     OW 9637   2.350   6.043   1.351
 2913SOL    HW1 9638   2.431   6.023   1.295
 2913SOL    HW2 9639   2.271   6.056   1.291
 2914SOL     OW 9640   5.330   5.226   0.089
 2914SOL    HW1 9641   5.335   5.173   0.004
 2914SOL    HW2 9642   5.235   5.253   0.105
 2915SOL     OW 9643   2.446   0.759   2.889
 2915SOL    HW1 9644   2.427   0.851   2.923
 2915SOL    HW2 9645   2.487   0.764   2.798
 2916SOL     OW 9646   1.406   5.879   0.057
 2916SOL    HW1 9647   1.346   5.903   0.134
 2916SOL    HW2 9648   1.416   5.959   7.017
 2917SOL     OW 9649   2.815   6.123   4.168
 2917SOL    HW1 9650   2.905   6.087   4.143
 2917SOL    HW2 9651   2.826   6.198   4.233
 2918SOL     OW 9652   5.881   3.034   2.019
 2918SOL    HW1 9653   5.834   3.106   2.070
 2918SOL    HW2 9654   5.842   3.028   1.927
 2919SOL     OW 9655   1.313   5.577   4.148
 2919SOL    HW1 9656   1.371   5.499   4.171
 2919SOL    HW2 9657   1.363   5.637   4.086
 2920SOL     OW 9658   1.218   2.171   2.429
 2920SOL    HW1 9659   1.136   2.215   2.393
 2920SOL    HW2 9660   1.226   2.079   2.393
 2921SOL     OW 9661   0.978   0.598   4.909
 2921SOL    HW1 9662   0.995   0.513   4.859
 2921SOL    HW2 9663   1.057   0.621   4.965
 2922SOL     OW 9664   3.470   0.572   3.582
 2922SOL    HW1 9665   3.512   0.629   3.511
 2922SOL    HW2 9666   3.467   0.477   3.551
 2923SOL     OW 9667   5.702   5.784   4.649
 2923SOL    HW1 9668   5.699   5.766   4.747
 2923SOL    HW2 9669   5.639   5.722   4.602
 2924SOL     OW 9670   6.035   2.626   5.416
 2924SOL    HW1 9671   5.991   2.625   5.506
 2924SOL    HW2 9672   5.966   2.636   5.345
 2925SOL     OW 9673   5.042   0.159   5.825
 2925SOL    HW1 9674   5.004   0.235   5.878
 2925SOL    HW2 9675   4.978   0.134   5.753
 2926SOL     OW 9676   0.041   2.203   4.643
 2926SOL    HW1 9677   0.027   2.109   4.676
 2926SOL    HW2 9678   0.135   2.214   4.612
 2927SOL     OW 9679   1.139   2.309   2.093
 2927SOL    HW1 9680   1.167   2.404   2.078
 2927SOL    HW2 9681   1.079   2.304   2.173
 2928SOL     OW 9682   0.038   2.919   0.109
 2928SOL    HW1 9683   7.000   2.888   0.034
 2928SOL    HW2 9684   7.002   2.930   0.192
 2929SOL     OW 9685   2.485   2.446   5.292
 2929SOL    HW1 9686   2.560   2.458   5.356
 2929SOL    HW2 9687   2.459   2.535   5.255
 2930SOL     OW 9688   6.607   4.851   5.249
 2930SOL    HW1 9689   6.670   4.891   5.182
 2930SOL    HW2 9690   6.649   4.851   5.339
 2931SOL     OW 9691   4.927   4.364   5.735
 2931SOL    HW1 9692   4.929   4.279   5.788
 2931SOL    HW2 9693   4.835   4.401   5.736
 2932SOL     OW 9694   6.373   5.408   0.767
 2932SOL    HW1 9695   6.326   5.484   0.812
 2932SOL    HW2 9696   6.362   5.416   0.668
 2933SOL     OW 9697   1.477   0.054   1.248
 2933SOL    HW1 9698   1.397   0.037   1.306
 2933SOL    HW2 9699   1.557   0.007   1.286
 2934SOL     OW 9700   4.350   5.085   0.435
 2934SOL    HW1 9701   4.403   5.089   0.351
 2934SOL    HW2 9702   4.258   5.053   0.415
 2935SOL     OW 9703   0.116   2.391   6.246
 2935SOL    HW1 9704   0.215   2.378   6.240
 2935SOL    HW2 9705   0.094   2.437   6.332
 2936SOL     OW 9706   4.353   6.514   0.723
 2936SOL    HW1 9707   4.291   6.590   0.708
 2936SOL    HW2 9708   4.321   6.459   0.800
 2937SOL     OW 9709   4.867   5.041   2.117
 2937SOL    HW1 9710   4.804   4.966   2.136
 2937SOL    HW2 9711   4.824   5.106   2.055
 2938SOL     OW 9712   6.338   5.892   0.076
 2938SOL    HW1 9713   6.317   5.819   0.142
 2938SOL    HW2 9714   6.269   5.891   0.003
 2939SOL     OW 9715   0.000   5.681   1.388
 2939SOL    HW1 9716   0.094   5.647   1.400
 2939SOL    HW2 9717   6.977   5.633   1.312
 2940SOL     OW 9718   4.660   6.285   3.562
 2940SOL    HW1 9719   4.566   6.315   3.548
 2940SOL    HW2 9720   4.697   6.327   3.645
 2941SOL     OW 9721   1.308   3.939   3.722
 2941SOL    HW1 9722   1.390   3.957   3.776
 2941SOL    HW2 9723   1.260   3.859   3.759
 2942SOL     OW 9724   3.708   1.741   1.575
 2942SOL    HW1 9725   3.723   1.837   1.555
 2942SOL    HW2 9726   3.642   1.703   1.510
 2943SOL     OW 9727   5.826   3.956   3.492
 2943SOL    HW1 9728   5.807   4.005   3.407
 2943SOL    HW2 9729   5.899   4.002   3.541
 2944SOL     OW 9730   1.462   5.789   3.112
 2944SOL    HW1 9731   1.432   5.783   3.208
 2944SOL    HW2 9732   1.557   5.820   3.109
 2945SOL     OW 9733   5.188   4.581   1.615
 2945SOL    HW1 9734   5.195   4.605   1.518
 2945SOL    HW2 9735   5.278   4.587   1.658
 2946SOL     OW 9736   3.222   3.809   5.659
 2946SOL    HW1 9737   3.137   3.808   5.605
 2946SOL    HW2 9738   3.300   3.794   5.598
 2947SOL     OW 9739   5.745   6.676   0.308
 2947SOL    HW1 9740   5.815   6.604   0.309
 2947SOL    HW2 9741   5.776   6.753   0.364
 2948SOL     OW 9742   6.381   3.868   2.140
 2948SOL    HW1 9743   6.309   3.861   2.209
 2948SOL    HW2 9744   6.450   3.933   2.170
 2949SOL     OW 9745   1.365   6.817   0.855
 2949SOL    HW1 9746   1.405   6.801   0.946
 2949SOL    HW2 9747   1.382   6.738   0.797
 2950SOL     OW 9748   5.406   4.425   3.044
 2950SOL    HW1 9749   5.318   4.471   3.037
 2950SOL    HW2 9750   5.441   4.406   2.952
 2951SOL     OW 9751   6.247   1.742   1.909
 2951SOL    HW1 9752   6.323   1.683   1.881
 2951SOL    HW2 9753   6.278   1.837   1.911
 2952SOL     OW 9754   5.678   1.650   4.403
 2952SOL    HW1 9755   5.716   1.629   4.313
 2952SOL    HW2 9756   5.611   1.724   4.394
 2953SOL     OW 9757   0.966   5.830   4.460
 2953SOL    HW1 9758   1.028   5.811   4.384
 2953SOL    HW2 9759   0.960   5.750   4.519
 2954SOL     OW 9760   6.777   4.699   5.947
 2954SOL    HW1 9761   6.716   4.636   5.996
 2954SOL    HW2 9762   6.827   4.648   5.876
 2955SOL     OW 9763   2.106   4.875   6.715
 2955SOL    HW1 9764   2.056   4.936   6.776
 2955SOL    HW2 9765   2.164   4.814   6.768
 2956SOL     OW 9766   6.130   4.282   3.535
 2956SOL    HW1 9767   6.134   4.287   3.436
 2956SOL    HW2 9768   6.222   4.287   3.573
 2957SOL     OW 9769   2.938   4.955   1.334
 2957SOL    HW1 9770   2.928   4.939   1.236
 2957SOL    HW2 9771   2.984   5.042   1.350
 2958SOL     OW 9772   2.748   5.146   2.626
 2958SOL    HW1 9773   2.728   5.202   2.706
 2958SOL    HW2 9774   2.710   5.191   2.544
 2959SOL     OW 9775   0.087   2.705   3.029
 2959SOL    HW1 9776   0.107   2.803   3.031
 2959SOL    HW2 9777   0.007   2.687   3.087
 2960SOL     OW 9778   4.515   0.699   0.305
 2960SOL    HW1 9779   4.467   0.780   0.338
 2960SOL    HW2 9780   4.601   0.727   0.261
 2961SOL     OW 9781   5.616   3.997   2.371
 2961SOL    HW1 9782   5.548   4.067   2.394
 2961SOL    HW2 9783   5.669   4.026   2.292
 2962SOL     OW 9784   0.333   6.736   2.589
 2962SOL    HW1 9785   0.305   6.812   2.530
 2962SOL    HW2 9786   0.274   6.657   2.572
 2963SOL     OW 9787   2.044   1.146   4.629
 2963SOL    HW1 9788   2.051   1.127   4.531
 2963SOL    HW2 9789   2.107   1.219   4.654
 2964SOL     OW 9790   1.156   1.987   0.387
 2964SOL    HW1 9791   1.127   2.053   0.319
 2964SOL    HW2 9792   1.240   2.019   0.431
 2965SOL     OW 9793   1.503   7.005   4.513
 2965SOL    HW1 9794   1.515   6.907   4.523
 2965SOL    HW2 9795   1.407   0.010   4.531
 2966SOL     OW 9796   3.568   5.911   2.942
 2966SOL    HW1 9797   3.512   5.838   2.904
 2966SOL    HW2 9798   3.511   5.991   2.960
 2967SOL     OW 9799   6.058   0.116   5.598
 2967SOL    HW1 9800   6.097   0.040   5.650
 2967SOL    HW2 9801   5.958   0.107   5.598
 2968SOL     OW 9802   2.028   2.528   1.253
 2968SOL    HW1 9803   2.117   2.568   1.229
 2968SOL    HW2 9804   1.961   2.600   1.267
 2969SOL     OW 9805   5.187   3.251   4.689
 2969SOL    HW1 9806   5.098   3.207   4.693
 2969SOL    HW2 9807   5.197   3.313   4.767
 2970SOL     OW 9808   2.705   2.406   4.341
 2970SOL    HW1 9809   2.660   2.483   4.296
 2970SOL    HW2 9810   2.699   2.416   4.440
 2971SOL     OW 9811   5.349   2.788   6.212
 2971SOL    HW1 9812   5.291   2.845   6.270
 2971SOL    HW2 9813   5.383   2.711   6.265
 2972SOL     OW 9814   5.793   4.855   0.019
 2972SOL    HW1 9815   5.821   4.806   6.955
 2972SOL    HW2 9816   5.702   4.825   0.047
 2973SOL     OW 9817   4.687   0.989   2.353
 2973SOL    HW1 9818   4.683   0.898   2.395
 2973SOL    HW2 9819   4.600   1.008   2.307
 2974SOL     OW 9820   4.706   6.066   3.185
 2974SOL    HW1 9821   4.681   6.023   3.099
 2974SOL    HW2 9822   4.631   6.123   3.218
 2975SOL     OW 9823   4.766   4.114   4.325
 2975SOL    HW1 9824   4.789   4.045   4.393
 2975SOL    HW2 9825   4.696   4.176   4.362
 2976SOL     OW 9826   4.100   2.156   2.193
 2976SOL    HW1 9827   4.008   2.117   2.190
 2976SOL    HW2 9828   4.111   2.222   2.118
 2977SOL     OW 9829   1.324   0.960   1.401
 2977SOL    HW1 9830   1.245   0.905   1.428
 2977SOL    HW2 9831   1.377   0.910   1.332
 2978SOL     OW 9832   4.524   5.352   6.226
 2978SOL    HW1 9833   4.583   5.424   6.263
 2978SOL    HW2 9834   4.525   5.273   6.287
 2979SOL     OW 9835   3.480   0.823   4.121
 2979SOL    HW1 9836   3.502   0.887   4.047
 2979SOL    HW2 9837   3.443   0.739   4.082
 2980SOL     OW 9838   3.753   3.653   5.975
 2980SOL    HW1 9839   3.792   3.638   5.884
 2980SOL    HW2 9840   3.757   3.750   5.997
 2981SOL     OW 9841   1.397   0.742   0.860
 2981SOL    HW1 9842   1.402   0.695   0.772
 2981SOL    HW2 9843   1.489   0.758   0.895
 2982SOL     OW 9844   0.659   0.291   1.747
 2982SOL    HW1 9845   0.620   0.310   1.657
 2982SOL    HW2 9846   0.588   0.297   1.817
 2983SOL     OW 9847   5.851   2.855   6.056
 2983SOL    HW1 9848   5.950   2.844   6.054
 2983SOL    HW2 9849   5.817   2.871   5.963
 2984SOL     OW 9850   0.245   4.763   0.760
 2984SOL    HW1 9851   0.222   4.724   0.671
 2984SOL    HW2 9852   0.331   4.722   0.792
 2985SOL     OW 9853   0.127   6.493   4.952
 2985SOL    HW1 9854   0.163   6.410   4.909
 2985SOL    HW2 9855   0.176   6.573   4.918
 2986SOL     OW 9856   3.769   4.077   2.573
 2986SOL    HW1 9857   3.722   4.079   2.485
 2986SOL    HW2 9858   3.844   4.144   2.572
 2987SOL     OW 9859   1.789   0.465   4.471
 2987SOL    HW1 9860   1.725   0.540   4.456
 2987SOL    HW2 9861   1.765   0.388   4.413
 2988SOL     OW 9862   0.931   1.650   6.972
 2988SOL    HW1 9863   0.918   1.554   6.948
 2988SOL    HW2 9864   0.922   1.706   6.890
 2989SOL     OW 9865   5.232   3.342   4.438
 2989SOL    HW1 9866   5.331   3.335   4.440
 2989SOL    HW2 9867   5.196   3.336   4.531
 2990SOL     OW 9868   5.071   1.454   4.241
 2990SOL    HW1 9869   5.143   1.453   4.171
 2990SOL    HW2 9870   5.031   1.546   4.246
 2991SOL     OW 9871   6.495   4.180   0.883
 2991SOL    HW1 9872   6.546   4.266   0.890
 2991SOL    HW2 9873   6.461   4.154   0.973
 2992SOL     OW 9874   0.186   3.656   5.410
 2992SOL    HW1 9875   0.102   3.662   5.465
 2992SOL    HW2 9876   0.264   3.687   5.464
 2993SOL     OW 9877   1.156   4.515   0.073
 2993SOL    HW1 9878   1.125   4.422   0.091
 2993SOL    HW2 9879   1.087   4.564   0.019
 2994SOL     OW 9880   4.050   6.806   6.493
 2994SOL    HW1 9881   4.119   6.836   6.558
 2994SOL    HW2 9882   4.052   6.706   6.487
 2995SOL     OW 9883   5.327   0.769   1.018
 2995SOL    HW1 9884   5.299   0.790   1.112
 2995SOL    HW2 9885   5.336   0.670   1.008
 2996SOL     OW 9886   0.263   1.628   4.781
 2996SOL    HW1 9887   0.333   1.585   4.723
 2996SOL    HW2 9888   0.244   1.720   4.747
 2997SOL     OW 9889   5.331   0.324   3.520
 2997SOL    HW1 9890   5.271   0.396   3.555
 2997SOL    HW2 9891   5.373   0.354   3.435
 2998SOL     OW 9892   2.373   1.542   2.538
 2998SOL    HW1 9893   2.428   1.593   2.605
 2998SOL    HW2 9894   2.402   1.566   2.446
 2999SOL     OW 9895   2.539   4.459   0.491
 2999SOL    HW1 9896   2.592   4.375   0.477
 2999SOL    HW2 9897   2.565   4.527   0.421
 3000SOL     OW 9898   2.925   3.854   5.100
 3000SOL    HW1 9899   2.922   3.811   5.010
 3000SOL    HW2 9900   2.908   3.785   5.170
 3001SOL     OW 9901   5.978   0.427   5.961
 3001SOL    HW1 9902   5.907   0.396   5.898
 3001SOL    HW2 9903   6.065   0.384   5.937
 3002SOL     OW 9904   2.413   2.189   1.709
 3002SOL    HW1 9905   2.512   2.193   1.715
 3002SOL    HW2 9906   2.376   2.141   1.788
 3003SOL     OW 9907   0.974   6.370   6.742
 3003SOL    HW1 9908   0.985   6.387   6.840
 3003SOL    HW2 9909   0.968   6.457   6.694
 3004SOL     OW 9910   2.482   6.432   3.885
 3004SOL    HW1 9911   2.517   6.520   3.916
 3004SOL    HW2 9912   2.458   6.438   3.788
 3005SOL     OW 9913   1.073   2.417   5.625
 3005SOL    HW1 9914   1.074   2.508   5.667
 3005SOL    HW2 9915   1.166   2.385   5.612
 3006SOL     OW 9916   5.417   1.520   5.657
 3006SOL    HW1 9917   5.453   1.468   5.579
 3006SOL    HW2 9918   5.488   1.584   5.689
 3007SOL     OW 9919   5.335   5.038   6.875
 3007SOL    HW1 9920   5.430   5.068   6.884
 3007SOL    HW2 9921   5.323   4.951   6.922
 3008SOL     OW 9922   5.078   2.748   5.861
 3008SOL    HW1 9923   5.029   2.665   5.835
 3008SOL    HW2 9924   5.040   2.826   5.812
 3009SOL     OW 9925   6.994   3.759   2.314
 3009SOL    HW1 9926   0.068   3.785   2.290
 3009SOL    HW2 9927   6.937   3.758   2.231
 3010SOL     OW 9928   4.273   6.269   6.200
 3010SOL    HW1 9929   4.311   6.321   6.277
 3010SOL    HW2 9930   4.212   6.328   6.146
 3011SOL     OW 9931   0.034   6.964   0.930
 3011SOL    HW1 9932   0.054   6.988   0.835
 3011SOL    HW2 9933   6.981   0.004   0.965
 3012SOL     OW 9934   2.544   2.654   5.865
 3012SOL    HW1 9935   2.576   2.677   5.957
 3012SOL    HW2 9936   2.554   2.555   5.849
 3013SOL     OW 9937   0.749   4.873   4.890
 3013SOL    HW1 9938   0.789   4.960   4.919
 3013SOL    HW2 9939   0.712   4.883   4.798
 3014SOL     OW 9940   4.876   0.194   5.223
 3014SOL    HW1 9941   4.776   0.197   5.223
 3014SOL    HW2 9942   4.910   0.264   5.286
 3015SOL     OW 9943   1.242   1.075   7.003
 3015SOL    HW1 9944   1.279   1.124   0.062
 3015SOL    HW2 9945   1.167   1.127   6.963
 3016SOL     OW 9946   1.639   6.627   4.388
 3016SOL    HW1 9947   1.682   6.668   4.469
 3016SOL    HW2 9948   1.543   6.609   4.407
 3017SOL     OW 9949   0.206   5.365   0.679
 3017SOL    HW1 9950   0.114   5.330   0.698
 3017SOL    HW2 9951   0.261   5.292   0.638
 3018SOL     OW 9952   3.161   0.234   0.512
 3018SOL    HW1 9953   3.129   0.235   0.607
 3018SOL    HW2 9954   3.202   0.145   0.492
 3019SOL     OW 9955   1.888   0.503   5.235
 3019SOL    HW1 9956   1.847   0.413   5.223
 3019SOL    HW2 9957   1.965   0.513   5.172
 3020SOL     OW 9958   5.486   3.590   6.986
 3020SOL    HW1 9959   5.484   3.511   0.028
 3020SOL    HW2 9960   5.411   3.652   7.009
 3021SOL     OW 9961   4.056   6.301   4.480
 3021SOL    HW1 9962   4.086   6.396   4.494
 3021SOL    HW2 9963   4.045   6.284   4.382
 3022SOL     OW 9964   4.015   5.579   3.797
 3022SOL    HW1 9965   4.043   5.675   3.799
 3022SOL    HW2 9966   4.081   5.527   3.742
 3023SOL     OW 9967   5.111   6.370   2.594
 3023SOL    HW1 9968   5.158   6.458   2.596
 3023SOL    HW2 9969   5.022   6.379   2.639
 3024SOL     OW 9970   0.081   5.948   6.508
 3024SOL    HW1 9971   0.144   6.015   6.468
 3024SOL    HW2 9972   0.005   5.996   6.553
 3025SOL     OW 9973   3.444   6.027   0.561
 3025SOL    HW1 9974   3.423   5.929   0.561
 3025SOL    HW2 9975   3.467   6.056   0.654
 3026SOL     OW 9976   6.321   0.945   0.663
 3026SOL    HW1 9977   6.242   0.980   0.614
 3026SOL    HW2 9978   6.397   0.932   0.599
 3027SOL     OW 9979   4.667   1.401   1.240
 3027SOL    HW1 9980   4.663   1.478   1.177
 3027SOL    HW2 9981   4.659   1.316   1.189
 3028SOL     OW 9982   3.414   4.085   5.552
 3028SOL    HW1 9983   3.491   4.139   5.517
 3028SOL    HW2 9984   3.353   4.061   5.476
 3029SOL     OW 9985   0.442   2.572   4.398
 3029SOL    HW1 9986   0.417   2.583   4.495
 3029SOL    HW2 9987   0.525   2.623   4.379
 3030SOL     OW 9988   2.594   3.349   0.740
 3030SOL    HW1 9989   2.570   3.443   0.714
 3030SOL    HW2 9990   2.534   3.285   0.693
 3031SOL     OW 9991   0.753   6.327   1.512
 3031SOL    HW1 9992   0.791   6.413   1.544
 3031SOL    HW2 9993   0.823   6.255   1.518
 3032SOL     OW 9994   2.041   0.450   2.287
 3032SOL    HW1 9995   2.076   0.400   2.208
 3032SOL    HW2 9996   2.012   0.541   2.259
 3033SOL     OW 9997   6.991   2.176   4.382
 3033SOL    HW1 9998   6.916   2.216   4.330
 3033SOL    HW2 9999   6.978   2.195   4.480
 3034SOL     OW10000   6.652   5.385   3.406
 3034SOL    HW110001   6.561   5.365   3.442
 3034SOL    HW210002   6.687   5.304   3.358
 3035SOL     OW10003   1.073   2.887   6.851
 3035SOL    HW110004   1.019   2.806   6.830
 3035SOL    HW210005   1.019   2.949   6.908
 3036SOL     OW10006   3.065   1.921   6.466
 3036SOL    HW110007   3.078   1.898   6.562
 3036SOL    HW210008   3.150   1.906   6.416
 3037SOL     OW10009   0.339   5.334   0.198
 3037SOL    HW110010   0.275   5.324   0.275
 3037SOL    HW210011   0.432   5.314   0.229
 3038SOL     OW10012   5.788   4.697   6.823
 3038SOL    HW110013   5.844   4.661   6.748
 3038SOL    HW210014   5.717   4.631   6.847
 3039SOL     OW10015   6.776   3.900   6.988
 3039SOL    HW110016   6.787   3.931   6.893
 3039SOL    HW210017   6.836   3.822   7.005
 3040SOL     OW10018   5.115   3.730   6.025
 3040SOL    HW110019   5.199   3.754   6.073
 3040SOL    HW210020   5.136   3.708   5.930
 3041SOL     OW10021   1.958   3.925   5.023
 3041SOL    HW110022   2.011   3.955   4.944
 3041SOL    HW210023   1.942   4.003   5.084
 3042SOL     OW10024   6.843   5.269   3.163
 3042SOL    HW110025   6.895   5.337   3.214
 3042SOL    HW210026   6.783   5.316   3.098
 3043SOL     OW10027   3.162   4.927   0.424
 3043SOL    HW110028   3.177   4.917   0.326
 3043SOL    HW210029   3.246   4.960   0.467
 3044SOL     OW10030   3.567   3.693   5.225
 3044SOL    HW110031   3.647   3.699   5.284
 3044SOL    HW210032   3.583   3.747   5.142
 3045SOL     OW10033   4.630   1.825   1.970
 3045SOL    HW110034   4.724   1.844   1.942
 3045SOL    HW210035   4.629   1.793   2.064
 3046SOL     OW10036   5.530   5.922   1.241
 3046SOL    HW110037   5.596   5.879   1.179
 3046SOL    HW210038   5.575   5.994   1.293
 3047SOL     OW10039   6.171   1.050   5.789
 3047SOL    HW110040   6.224   1.084   5.711
 3047SOL    HW210041   6.099   1.116   5.812
 3048SOL     OW10042   3.569   4.208   0.881
 3048SOL    HW110043   3.640   4.141   0.902
 3048SOL    HW210044   3.601   4.269   0.809
 3049SOL     OW10045   1.312   0.809   3.836
 3049SOL    HW110046   1.314   0.709   3.840
 3049SOL    HW210047   1.286   0.838   3.744
 3050SOL     OW10048   2.841   1.928   1.614
 3050SOL    HW110049   2.766   1.926   1.548
 3050SOL    HW210050   2.927   1.909   1.566
 3051SOL     OW10051   1.989   5.263   5.275
 3051SOL    HW110052   1.926   5.205   5.225
 3051SOL    HW210053   2.083   5.243   5.247
 3052SOL     OW10054   6.846   6.475   2.437
 3052SOL    HW110055   6.768   6.497   2.379
 3052SOL    HW210056   6.863   6.550   2.501
 3053SOL     OW10057   1.569   4.353   0.079
 3053SOL    HW110058   1.490   4.406   0.110
 3053SOL    HW210059   1.540   4.286   0.010
 3054SOL     OW10060   5.789   1.248   2.481
 3054SOL    HW110061   5.777   1.252   2.381
 3054SOL    HW210062   5.699   1.250   2.525
 3055SOL     OW10063   6.106   5.668   6.591
 3055SOL    HW110064   6.196   5.694   6.556
 3055SOL    HW210065   6.107   5.573   6.621
 3056SOL     OW10066   4.743   1.297   5.956
 3056SOL    HW110067   4.827   1.303   5.903
 3056SOL    HW210068   4.748   1.360   6.034
 3057SOL     OW10069   6.046   5.178   2.894
 3057SOL    HW110070   6.030   5.275   2.914
 3057SOL    HW210071   5.992   5.122   2.957
 3058SOL     OW10072   0.803   4.969   6.731
 3058SOL    HW110073   0.759   4.892   6.684
 3058SOL    HW210074   0.763   4.979   6.822
 3059SOL     OW10075   2.128   2.536   4.206
 3059SOL    HW110076   2.144   2.441   4.231
 3059SOL    HW210077   2.089   2.585   4.283
 3060SOL     OW10078   5.091   5.183   5.077
 3060SOL    HW110079   5.144   5.102   5.102
 3060SOL    HW210080   5.103   5.201   4.979
 3061SOL     OW10081   5.110   5.384   5.282
 3061SOL    HW110082   5.104   5.317   5.208
 3061SOL    HW210083   5.117   5.476   5.244
 3062SOL     OW10084   4.842   4.509   1.644
 3062SOL    HW110085   4.941   4.523   1.647
 3062SOL    HW210086   4.815   4.443   1.713
 3063SOL     OW10087   6.964   4.072   1.600
 3063SOL    HW110088   0.025   4.018   1.576
 3063SOL    HW210089   6.938   4.129   1.522
 3064SOL     OW10090   5.082   1.930   6.606
 3064SOL    HW110091   5.129   1.933   6.695
 3064SOL    HW210092   5.088   1.838   6.569
 3065SOL     OW10093   0.075   1.539   6.468
 3065SOL    HW110094   0.103   1.517   6.375
 3065SOL    HW210095   0.156   1.539   6.528
 3066SOL     OW10096   5.072   6.098   5.803
 3066SOL    HW110097   5.035   6.122   5.713
 3066SOL    HW210098   5.122   6.176   5.841
 3067SOL     OW10099   1.301   1.888   6.075
 3067SOL    HW110100   1.341   1.796   6.078
 3067SOL    HW210101   1.223   1.888   6.011
 3068SOL     OW10102   1.032   0.802   0.704
 3068SOL    HW110103   1.027   0.886   0.757
 3068SOL    HW210104   1.119   0.798   0.654
 3069SOL     OW10105   5.212   0.215   2.555
 3069SOL    HW110106   5.145   0.161   2.505
 3069SOL    HW210107   5.178   0.308   2.568
 3070SOL     OW10108   2.209   0.825   0.922
 3070SOL    HW110109   2.218   0.804   0.824
 3070SOL    HW210110   2.219   0.923   0.936
 3071SOL     OW10111   0.036   4.069   4.646
 3071SOL    HW110112   0.034   3.969   4.647
 3071SOL    HW210113   0.003   4.104   4.734
 3072SOL     OW10114   2.152   6.990   6.050
 3072SOL    HW110115   2.066   0.005   6.088
 3072SOL    HW210116   2.136   6.904   6.002
 3073SOL     OW10117   5.937   5.352   1.221
 3073SOL    HW110118   5.857   5.296   1.200
 3073SOL    HW210119   6.005   5.341   1.149
 3074SOL     OW10120   1.714   3.345   1.236
 3074SOL    HW110121   1.716   3.245   1.231
 3074SOL    HW210122   1.805   3.380   1.260
 3075SOL     OW10123   3.072   5.736   2.205
 3075SOL    HW110124   3.067   5.827   2.246
 3075SOL    HW210125   3.166   5.716   2.180
 3076SOL     OW10126   0.576   0.420   5.018
 3076SOL    HW110127   0.527   0.412   5.104
 3076SOL    HW210128   0.674   0.429   5.036
 3077SOL     OW10129   6.339   3.923   2.540
 3077SOL    HW110130   6.283   3.919   2.458
 3077SOL    HW210131   6.305   3.995   2.601
 3078SOL     OW10132   6.806   2.750   1.728
 3078SOL    HW110133   6.774   2.834   1.771
 3078SOL    HW210134   6.816   2.679   1.798
 3079SOL     OW10135   2.109   3.207   5.492
 3079SOL    HW110136   2.149   3.127   5.538
 3079SOL    HW210137   2.181   3.256   5.442
 3080SOL     OW10138   4.381   5.138   0.874
 3080SOL    HW110139   4.300   5.161   0.928
 3080SOL    HW210140   4.363   5.055   0.821
 3081SOL     OW10141   1.632   4.086   0.209
 3081SOL    HW110142   1.570   4.088   0.287
 3081SOL    HW210143   1.624   4.173   0.159
 3082SOL     OW10144   4.591   5.595   4.786
 3082SOL    HW110145   4.637   5.620   4.871
 3082SOL    HW210146   4.613   5.501   4.762
 3083SOL     OW10147   3.304   5.795   1.979
 3083SOL    HW110148   3.223   5.757   1.934
 3083SOL    HW210149   3.287   5.890   2.005
 3084SOL     OW10150   0.718   3.519   3.916
 3084SOL    HW110151   0.793   3.571   3.874
 3084SOL    HW210152   0.756   3.452   3.980
 3085SOL     OW10153   5.341   4.373   0.365
 3085SOL    HW110154   5.431   4.330   0.372
 3085SOL    HW210155   5.324   4.398   0.270
 3086SOL     OW10156   5.933   0.360   6.453
 3086SOL    HW110157   5.968   0.370   6.546
 3086SOL    HW210158   5.912   0.264   6.435
 3087SOL     OW10159   3.092   0.096   2.307
 3087SOL    HW110160   3.042   0.018   2.269
 3087SOL    HW210161   3.127   0.072   2.398
 3088SOL     OW10162   1.762   2.919   5.756
 3088SOL    HW110163   1.839   2.893   5.698
 3088SOL    HW210164   1.677   2.914   5.704
 3089SOL     OW10165   4.258   6.665   4.877
 3089SOL    HW110166   4.320   6.618   4.814
 3089SOL    HW210167   4.298   6.753   4.902
 3090SOL     OW10168   1.704   1.670   2.622
 3090SOL    HW110169   1.690   1.737   2.549
 3090SOL    HW210170   1.750   1.714   2.699
 3091SOL     OW10171   0.842   2.390   1.182
 3091SOL    HW110172   0.790   2.457   1.236
 3091SOL    HW210173   0.917   2.354   1.237
 3092SOL     OW10174   6.608   0.794   2.586
 3092SOL    HW110175   6.583   0.891   2.587
 3092SOL    HW210176   6.538   0.742   2.538
 3093SOL     OW10177   5.419   4.728   6.789
 3093SOL    HW110178   5.449   4.633   6.777
 3093SOL    HW210179   5.376   4.739   6.878
 3094SOL     OW10180   2.790   1.476   6.162
 3094SOL    HW110181   2.762   1.563   6.121
 3094SOL    HW210182   2.737   1.460   6.245
 3095SOL     OW10183   1.838   3.423   5.045
 3095SOL    HW110184   1.933   3.395   5.030
 3095SOL    HW210185   1.834   3.520   5.069
 3096SOL     OW10186   0.295   3.924   4.441
 3096SOL    HW110187   0.319   4.018   4.467
 3096SOL    HW210188   0.340   3.860   4.503
 3097SOL     OW10189   5.544   2.381   5.645
 3097SOL    HW110190   5.509   2.451   5.582
 3097SOL    HW210191   5.500   2.393   5.734
 3098SOL     OW10192   2.007   2.857   1.911
 3098SOL    HW110193   1.996   2.817   1.819
 3098SOL    HW210194   2.036   2.785   1.974
 3099SOL     OW10195   0.447   5.862   4.209
 3099SOL    HW110196   0.547   5.860   4.213
 3099SOL    HW210197   0.411   5.892   4.298
 3100SOL     OW10198   6.638   5.624   2.279
 3100SOL    HW110199   6.668   5.718   2.262
 3100SOL    HW210200   6.648   5.570   2.195
 3101SOL     OW10201   3.614   6.390   5.351
 3101SOL    HW110202   3.629   6.404   5.253
 3101SOL    HW210203   3.701   6.367   5.395
 3102SOL     OW10204   0.156   5.011   1.118
 3102SOL    HW110205   0.167   4.971   1.028
 3102SOL    HW210206   0.061   5.042   1.130
 3103SOL     OW10207   3.409   0.715   1.323
 3103SOL    HW110208   3.384   0.765   1.405
 3103SOL    HW210209   3.484   0.762   1.277
 3104SOL     OW10210   4.716   0.703   6.069
 3104SOL    HW110211   4.662   0.690   5.986
 3104SOL    HW210212   4.720   0.618   6.120
 3105SOL     OW10213   6.121   3.890   6.975
 3105SOL    HW110214   6.148   3.852   0.045
 3105SOL    HW210215   6.172   3.843   6.903
 3106SOL     OW10216   6.313   6.928   5.079
 3106SOL    HW110217   6.308   7.017   5.033
 3106SOL    HW210218   6.407   6.911   5.108
 3107SOL     OW10219   3.852   1.486   6.185
 3107SOL    HW110220   3.925   1.545   6.151
 3107SOL    HW210221   3.763   1.528   6.165
 3108SOL     OW10222   2.017   4.024   3.419
 3108SOL    HW110223   2.111   4.038   3.386
 3108SOL    HW210224   1.964   4.107   3.403
 3109SOL     OW10225   6.554   5.776   3.754
 3109SOL    HW110226   6.555   5.832   3.672
 3109SOL    HW210227   6.594   5.828   3.830
 3110SOL     OW10228   1.184   4.483   3.497
 3110SOL    HW110229   1.191   4.423   3.577
 3110SOL    HW210230   1.097   4.467   3.451
 3111SOL     OW10231   5.514   4.464   4.129
 3111SOL    HW110232   5.429   4.511   4.105
 3111SOL    HW210233   5.590   4.529   4.124
 3112SOL     OW10234   3.792   1.839   6.965
 3112SOL    HW110235   3.766   1.749   7.000
 3112SOL    HW210236   3.711   1.896   6.954
 3113SOL     OW10237   2.323   5.694   3.617
 3113SOL    HW110238   2.331   5.594   3.610
 3113SOL    HW210239   2.344   5.736   3.529
 3114SOL     OW10240   4.253   0.930   6.762
 3114SOL    HW110241   4.181   0.860   6.756
 3114SOL    HW210242   4.342   0.888   6.744
 3115SOL     OW10243   4.803   4.812   5.373
 3115SOL    HW110244   4.792   4.911   5.382
 3115SOL    HW210245   4.884   4.791   5.319
 3116SOL     OW10246   0.489   1.832   1.037
 3116SOL    HW110247   0.509   1.735   1.049
 3116SOL    HW210248   0.407   1.855   1.089
 3117SOL     OW10249   4.989   1.355   5.836
 3117SOL    HW110250   5.006   1.383   5.742
 3117SOL    HW210251   5.076   1.338   5.882
 3118SOL     OW10252   1.339   0.862   3.184
 3118SOL    HW110253   1.388   0.845   3.099
 3118SOL    HW210254   1.249   0.818   3.181
 3119SOL     OW10255   4.397   4.938   5.638
 3119SOL    HW110256   4.422   5.018   5.693
 3119SOL    HW210257   4.299   4.939   5.621
 3120SOL     OW10258   1.718   6.417   4.953
 3120SOL    HW110259   1.764   6.329   4.967
 3120SOL    HW210260   1.674   6.445   5.039
 3121SOL     OW10261   4.597   1.449   4.507
 3121SOL    HW110262   4.653   1.471   4.587
 3121SOL    HW210263   4.562   1.534   4.467
 3122SOL     OW10264   3.508   5.200   4.563
 3122SOL    HW110265   3.438   5.216   4.633
 3122SOL    HW210266   3.561   5.119   4.588
 3123SOL     OW10267   2.315   1.756   3.752
 3123SOL    HW110268   2.329   1.712   3.663
 3123SOL    HW210269   2.390   1.820   3.769
 3124SOL     OW10270   5.341   6.876   3.644
 3124SOL    HW110271   5.382   6.921   3.723
 3124SOL    HW210272   5.349   6.937   3.564
 3125SOL     OW10273   1.619   1.711   5.567
 3125SOL    HW110274   1.570   1.764   5.498
 3125SOL    HW210275   1.561   1.698   5.648
 3126SOL     OW10276   5.974   5.159   4.671
 3126SOL    HW110277   5.947   5.070   4.634
 3126SOL    HW210278   6.023   5.146   4.757
 3127SOL     OW10279   0.161   1.350   4.946
 3127SOL    HW110280   0.248   1.398   4.931
 3127SOL    HW210281   0.123   1.379   5.034
 3128SOL     OW10282   4.204   0.582   0.166
 3128SOL    HW110283   4.116   0.539   0.145
 3128SOL    HW210284   4.201   0.618   0.260
 3129SOL     OW10285   4.505   3.380   0.336
 3129SOL    HW110286   4.588   3.395   0.282
 3129SOL    HW210287   4.527   3.389   0.434
 3130SOL     OW10288   1.253   4.544   1.957
 3130SOL    HW110289   1.255   4.476   2.031
 3130SOL    HW210290   1.162   4.585   1.953
 3131SOL     OW10291   6.717   4.393   2.964
 3131SOL    HW110292   6.780   4.440   2.902
 3131SOL    HW210293   6.767   4.326   3.018
 3132SOL     OW10294   3.913   4.719   6.673
 3132SOL    HW110295   3.904   4.645   6.740
 3132SOL    HW210296   3.863   4.695   6.589
 3133SOL     OW10297   3.777   0.534   3.980
 3133SOL    HW110298   3.828   0.613   4.014
 3133SOL    HW210299   3.779   0.461   4.048
 3134SOL     OW10300   4.282   5.349   2.734
 3134SOL    HW110301   4.333   5.434   2.746
 3134SOL    HW210302   4.298   5.313   2.641
 3135SOL     OW10303   4.767   6.611   6.344
 3135SOL    HW110304   4.832   6.552   6.295
 3135SOL    HW210305   4.804   6.703   6.351
 3136SOL     OW10306   6.321   1.750   2.929
 3136SOL    HW110307   6.336   1.763   2.831
 3136SOL    HW210308   6.398   1.788   2.980
 3137SOL     OW10309   6.315   6.815   6.673
 3137SOL    HW110310   6.298   6.847   6.579
 3137SOL    HW210311   6.294   6.890   6.737
 3138SOL     OW10312   5.529   5.665   3.995
 3138SOL    HW110313   5.577   5.649   4.081
 3138SOL    HW210314   5.593   5.663   3.919
 3139SOL     OW10315   2.452   5.098   0.974
 3139SOL    HW110316   2.376   5.034   0.986
 3139SOL    HW210317   2.485   5.127   1.064
 3140SOL     OW10318   7.004   0.014   6.017
 3140SOL    HW110319   0.058   6.973   5.987
 3140SOL    HW210320   0.024   0.096   6.059
 3141SOL     OW10321   6.716   2.122   6.273
 3141SOL    HW110322   6.749   2.204   6.227
 3141SOL    HW210323   6.640   2.082   6.221
 3142SOL     OW10324   5.161   1.075   2.834
 3142SOL    HW110325   5.170   1.174   2.821
 3142SOL    HW210326   5.193   1.028   2.752
 3143SOL     OW10327   6.644   1.186   0.565
 3143SOL    HW110328   6.567   1.149   0.616
 3143SOL    HW210329   6.687   1.260   0.618
 3144SOL     OW10330   4.048   3.456   6.340
 3144SOL    HW110331   4.001   3.433   6.255
 3144SOL    HW210332   4.030   3.552   6.363
 3145SOL     OW10333   0.748   6.175   1.222
 3145SOL    HW110334   0.711   6.084   1.204
 3145SOL    HW210335   0.683   6.227   1.278
 3146SOL     OW10336   1.139   0.067   4.770
 3146SOL    HW110337   1.150   0.088   4.867
 3146SOL    HW210338   1.140   6.988   4.757
 3147SOL     OW10339   4.024   4.910   6.848
 3147SOL    HW110340   3.981   4.890   6.936
 3147SOL    HW210341   3.983   4.853   6.777
 3148SOL     OW10342   6.779   5.252   2.464
 3148SOL    HW110343   6.822   5.215   2.546
 3148SOL    HW210344   6.685   5.281   2.487
 3149SOL     OW10345   3.126   0.959   0.679
 3149SOL    HW110346   3.150   0.868   0.710
 3149SOL    HW210347   3.185   0.984   0.601
 3150SOL     OW10348   6.648   6.053   4.519
 3150SOL    HW110349   6.576   6.084   4.457
 3150SOL    HW210350   6.622   6.074   4.613
 3151SOL     OW10351   6.254   1.633   5.731
 3151SOL    HW110352   6.332   1.654   5.791
 3151SOL    HW210353   6.197   1.563   5.774
 3152SOL     OW10354   0.982   3.022   5.951
 3152SOL    HW110355   0.966   3.115   5.983
 3152SOL    HW210356   1.080   3.003   5.952
 3153SOL     OW10357   6.265   4.972   1.057
 3153SOL    HW110358   6.334   4.946   0.989
 3153SOL    HW210359   6.292   5.058   1.101
 3154SOL     OW10360   4.916   1.501   0.542
 3154SOL    HW110361   4.830   1.548   0.562
 3154SOL    HW210362   4.904   1.403   0.552
 3155SOL     OW10363   0.429   5.127   0.932
 3155SOL    HW110364   0.439   5.226   0.942
 3155SOL    HW210365   0.335   5.105   0.907
 3156SOL     OW10366   3.676   4.166   1.850
 3156SOL    HW110367   3.692   4.261   1.879
 3156SOL    HW210368   3.739   4.106   1.899
 3157SOL     OW10369   0.544   1.879   5.209
 3157SOL    HW110370   0.488   1.949   5.253
 3157SOL    HW210371   0.638   1.885   5.243
 3158SOL     OW10372   2.326   1.076   5.582
 3158SOL    HW110373   2.246   1.016   5.582
 3158SOL    HW210374   2.297   1.170   5.602
 3159SOL     OW10375   6.444   6.699   0.365
 3159SOL    HW110376   6.535   6.696   0.323
 3159SOL    HW210377   6.440   6.634   0.440
 3160SOL     OW10378   2.366   0.250   6.311
 3160SOL    HW110379   2.456   0.257   6.355
 3160SOL    HW210380   2.315   0.175   6.352
 3161SOL     OW10381   1.928   2.827   3.068
 3161SOL    HW110382   1.885   2.895   3.127
 3161SOL    HW210383   2.003   2.784   3.117
 3162SOL     OW10384   1.849   5.570   0.832
 3162SOL    HW110385   1.839   5.535   0.739
 3162SOL    HW210386   1.895   5.502   0.889
 3163SOL     OW10387   4.419   3.624   0.711
 3163SOL    HW110388   4.368   3.660   0.633
 3163SOL    HW210389   4.393   3.529   0.728
 3164SOL     OW10390   2.725   6.022   3.299
 3164SOL    HW110391   2.668   5.987   3.374
 3164SOL    HW210392   2.816   5.982   3.306
 3165SOL     OW10393   0.877   6.280   0.346
 3165SOL    HW110394   0.824   6.251   0.426
 3165SOL    HW210395   0.841   6.237   0.264
 3166SOL     OW10396   4.068   0.958   5.749
 3166SOL    HW110397   4.060   0.942   5.847
 3166SOL    HW210398   4.071   1.057   5.732
 3167SOL     OW10399   5.335   3.462   0.618
 3167SOL    HW110400   5.273   3.527   0.576
 3167SOL    HW210401   5.328   3.468   0.718
 3168SOL     OW10402   4.639   1.575   0.652
 3168SOL    HW110403   4.576   1.649   0.677
 3168SOL    HW210404   4.642   1.565   0.553
 3169SOL     OW10405   1.887   4.406   1.869
 3169SOL    HW110406   1.947   4.329   1.848
 3169SOL    HW210407   1.917   4.486   1.815
 3170SOL     OW10408   3.621   5.501   3.482
 3170SOL    HW110409   3.561   5.433   3.524
 3170SOL    HW210410   3.708   5.459   3.459
 3171SOL     OW10411   5.246   2.789   3.311
 3171SOL    HW110412   5.165   2.732   3.324
 3171SOL    HW210413   5.239   2.839   3.224
 3172SOL     OW10414   0.222   4.431   1.086
 3172SOL    HW110415   0.198   4.487   1.166
 3172SOL    HW210416   0.167   4.459   1.008
 3173SOL     OW10417   3.754   2.077   0.613
 3173SOL    HW110418   3.841   2.070   0.565
 3173SOL    HW210419   3.686   2.021   0.567
 3174SOL     OW10420   2.819   3.889   5.724
 3174SOL    HW110421   2.879   3.890   5.644
 3174SOL    HW210422   2.810   3.795   5.757
 3175SOL     OW10423   6.972   0.291   4.153
 3175SOL    HW110424   6.895   0.230   4.136
 3175SOL    HW210425   6.958   0.340   4.239
 3176SOL     OW10426   1.293   4.701   5.011
 3176SOL    HW110427   1.297   4.797   5.038
 3176SOL    HW210428   1.198   4.675   4.994
 3177SOL     OW10429   5.619   3.616   3.491
 3177SOL    HW110430   5.592   3.536   3.438
 3177SOL    HW210431   5.719   3.626   3.490
 3178SOL     OW10432   0.030   0.646   1.344
 3178SOL    HW110433   6.984   0.629   1.271
 3178SOL    HW210434   0.120   0.613   1.316
 3179SOL     OW10435   0.928   2.138   1.641
 3179SOL    HW110436   0.876   2.188   1.710
 3179SOL    HW210437   0.869   2.117   1.564
 3180SOL     OW10438   6.521   5.550   0.147
 3180SOL    HW110439   6.530   5.469   0.089
 3180SOL    HW210440   6.593   5.548   0.217
 3181SOL     OW10441   0.546   0.996   4.879
 3181SOL    HW110442   0.505   1.058   4.945
 3181SOL    HW210443   0.514   0.903   4.897
 3182SOL     OW10444   2.624   0.255   0.526
 3182SOL    HW110445   2.648   0.161   0.501
 3182SOL    HW210446   2.562   0.292   0.457
 3183SOL     OW10447   4.449   4.575   1.979
 3183SOL    HW110448   4.483   4.482   1.994
 3183SOL    HW210449   4.486   4.610   1.893
 3184SOL     OW10450   0.289   2.292   4.526
 3184SOL    HW110451   0.349   2.297   4.446
 3184SOL    HW210452   0.293   2.378   4.577
 3185SOL     OW10453   0.057   5.511   6.244
 3185SOL    HW110454   0.148   5.518   6.205
 3185SOL    HW210455   0.012   5.600   6.244
 3186SOL     OW10456   0.434   1.456   6.328
 3186SOL    HW110457   0.468   1.407   6.408
 3186SOL    HW210458   0.476   1.418   6.245
 3187SOL     OW10459   3.913   5.992   2.321
 3187SOL    HW110460   3.885   5.930   2.394
 3187SOL    HW210461   3.838   6.003   2.256
 3188SOL     OW10462   1.972   4.373   5.516
 3188SOL    HW110463   2.016   4.332   5.436
 3188SOL    HW210464   2.041   4.398   5.583
 3189SOL     OW10465   3.085   1.297   6.813
 3189SOL    HW110466   3.153   1.267   6.880
 3189SOL    HW210467   3.019   1.357   6.857
 3190SOL     OW10468   6.776   5.306   3.964
 3190SOL    HW110469   6.865   5.343   3.936
 3190SOL    HW210470   6.779   5.281   4.061
 3191SOL     OW10471   4.458   5.843   2.019
 3191SOL    HW110472   4.371   5.853   2.069
 3191SOL    HW210473   4.472   5.923   1.961
 3192SOL     OW10474   5.971   2.283   2.335
 3192SOL    HW110475   6.006   2.369   2.297
 3192SOL    HW210476   5.954   2.218   2.261
 3193SOL     OW10477   3.882   0.225   5.423
 3193SOL    HW110478   3.785   0.223   5.446
 3193SOL    HW210479   3.894   0.267   5.333
 3194SOL     OW10480   1.214   1.181   6.011
 3194SOL    HW110481   1.312   1.164   6.001
 3194SOL    HW210482   1.193   1.275   5.983
 3195SOL     OW10483   0.037   1.718   1.778
 3195SOL    HW110484   0.043   1.634   1.831
 3195SOL    HW210485   0.117   1.775   1.796
 3196SOL     OW10486   6.217   6.906   4.499
 3196SOL    HW110487   6.221   6.824   4.556
 3196SOL    HW210488   6.122   6.926   4.475
 3197SOL     OW10489   2.166   0.719   6.600
 3197SOL    HW110490   2.093   0.786   6.584
 3197SOL    HW210491   2.146   0.667   6.682
 3198SOL     OW10492   6.462   2.705   3.785
 3198SOL    HW110493   6.464   2.801   3.756
 3198SOL    HW210494   6.442   2.647   3.706
 3199SOL     OW10495   5.368   4.279   3.297
 3199SOL    HW110496   5.374   4.333   3.213
 3199SOL    HW210497   5.449   4.296   3.354
 3200SOL     OW10498   5.726   3.148   4.312
 3200SOL    HW110499   5.724   3.048   4.309
 3200SOL    HW210500   5.752   3.183   4.222
 3201SOL     OW10501   6.035   4.168   2.631
 3201SOL    HW110502   6.070   4.176   2.537
 3201SOL    HW210503   5.938   4.144   2.627
 3202SOL     OW10504   1.210   5.151   0.283
 3202SOL    HW110505   1.184   5.081   0.216
 3202SOL    HW210506   1.128   5.202   0.310
 3203SOL     OW10507   4.368   6.115   1.085
 3203SOL    HW110508   4.413   6.164   1.160
 3203SOL    HW210509   4.358   6.019   1.109
 3204SOL     OW10510   2.332   1.408   3.702
 3204SOL    HW110511   2.258   1.352   3.665
 3204SOL    HW210512   2.327   1.408   3.802
 3205SOL     OW10513   5.464   2.876   5.247
 3205SOL    HW110514   5.472   2.967   5.206
 3205SOL    HW210515   5.395   2.823   5.197
 3206SOL     OW10516   2.913   2.831   1.670
 3206SOL    HW110517   2.990   2.864   1.725
 3206SOL    HW210518   2.866   2.908   1.628
 3207SOL     OW10519   0.844   6.460   5.250
 3207SOL    HW110520   0.754   6.419   5.239
 3207SOL    HW210521   0.877   6.493   5.161
 3208SOL     OW10522   6.300   6.007   5.842
 3208SOL    HW110523   6.361   5.987   5.918
 3208SOL    HW210524   6.294   6.106   5.828
 3209SOL     OW10525   4.915   5.990   5.986
 3209SOL    HW110526   4.875   5.922   5.924
 3209SOL    HW210527   4.977   6.049   5.934
 3210SOL     OW10528   0.014   4.698   1.477
 3210SOL    HW110529   7.017   4.795   1.461
 3210SOL    HW210530   6.970   4.663   1.545
 3211SOL     OW10531   1.556   6.264   6.740
 3211SOL    HW110532   1.583   6.180   6.694
 3211SOL    HW210533   1.618   6.338   6.713
 3212SOL     OW10534   2.407   6.968   3.071
 3212SOL    HW110535   2.505   6.982   3.054
 3212SOL    HW210536   2.390   6.871   3.085
 3213SOL     OW10537   1.425   0.778   6.021
 3213SOL    HW110538   1.332   0.744   6.005
 3213SOL    HW210539   1.477   0.773   5.936
 3214SOL     OW10540   3.661   1.087   3.099
 3214SOL    HW110541   3.583   1.031   3.071
 3214SOL    HW210542   3.736   1.075   3.034
 3215SOL     OW10543   1.522   3.027   0.805
 3215SOL    HW110544   1.476   2.941   0.827
 3215SOL    HW210545   1.573   3.016   0.719
 3216SOL     OW10546   5.511   4.083   0.753
 3216SOL    HW110547   5.526   4.066   0.850
 3216SOL    HW210548   5.468   4.173   0.742
 3217SOL     OW10549   0.621   4.956   2.828
 3217SOL    HW110550   0.572   5.036   2.862
 3217SOL    HW210551   0.706   4.986   2.784
 3218SOL     OW10552   6.557   1.548   3.194
 3218SOL    HW110553   6.479   1.514   3.140
 3218SOL    HW210554   6.642   1.508   3.158
 3219SOL     OW10555   5.686   0.266   5.554
 3219SOL    HW110556   5.684   0.212   5.469
 3219SOL    HW210557   5.593   0.287   5.582
 3220SOL     OW10558   6.827   4.417   6.691
 3220SOL    HW110559   6.783   4.460   6.770
 3220SOL    HW210560   6.763   4.414   6.614
 3221SOL     OW10561   4.352   0.335   1.590
 3221SOL    HW110562   4.435   0.314   1.642
 3221SOL    HW210563   4.317   0.425   1.618
 3222SOL     OW10564   2.683   1.289   2.302
 3222SOL    HW110565   2.752   1.246   2.361
 3222SOL    HW210566   2.595   1.243   2.314
 3223SOL     OW10567   1.417   6.779   1.449
 3223SOL    HW110568   1.509   6.817   1.458
 3223SOL    HW210569   1.352   6.853   1.430
 3224SOL     OW10570   4.250   2.277   4.570
 3224SOL    HW110571   4.307   2.329   4.506
 3224SOL    HW210572   4.261   2.313   4.662
 3225SOL     OW10573   4.426   0.182   4.052
 3225SOL    HW110574   4.467   0.273   4.043
 3225SOL    HW210575   4.356   0.170   3.981
 3226SOL     OW10576   0.309   0.130   1.669
 3226SOL    HW110577   0.229   0.113   1.611
 3226SOL    HW210578   0.280   0.161   1.759
 3227SOL     OW10579   4.601   2.862   5.586
 3227SOL    HW110580   4.600   2.899   5.679
 3227SOL    HW210581   4.545   2.779   5.583
 3228SOL     OW10582   1.279   4.224   0.695
 3228SOL    HW110583   1.194   4.172   0.705
 3228SOL    HW210584   1.313   4.250   0.785
 3229SOL     OW10585   1.916   1.822   0.055
 3229SOL    HW110586   1.969   1.829   0.139
 3229SOL    HW210587   1.915   1.910   0.008
 3230SOL     OW10588   2.269   5.707   5.792
 3230SOL    HW110589   2.238   5.612   5.792
 3230SOL    HW210590   2.269   5.742   5.698
 3231SOL     OW10591   2.490   1.092   2.001
 3231SOL    HW110592   2.457   1.064   2.091
 3231SOL    HW210593   2.509   1.190   2.001
 3232SOL     OW10594   4.114   6.145   4.229
 3232SOL    HW110595   4.148   6.222   4.176
 3232SOL    HW210596   4.017   6.129   4.208
 3233SOL     OW10597   0.893   2.425   0.027
 3233SOL    HW110598   0.894   2.362   0.105
 3233SOL    HW210599   0.934   2.381   6.967
 3234SOL     OW10600   2.897   2.655   0.847
 3234SOL    HW110601   2.922   2.751   0.846
 3234SOL    HW210602   2.800   2.645   0.825
 3235SOL     OW10603   6.652   6.202   2.429
 3235SOL    HW110604   6.650   6.174   2.525
 3235SOL    HW210605   6.694   6.293   2.422
 3236SOL     OW10606   3.056   4.087   0.354
 3236SOL    HW110607   3.101   3.998   0.361
 3236SOL    HW210608   3.067   4.136   0.440
 3237SOL     OW10609   5.921   1.230   5.609
 3237SOL    HW110610   6.010   1.259   5.574
 3237SOL    HW210611   5.919   1.242   5.709
 3238SOL     OW10612   6.419   5.554   1.221
 3238SOL    HW110613   6.449   5.475   1.168
 3238SOL    HW210614   6.320   5.565   1.211
 3239SOL     OW10615   6.943   0.374   3.891
 3239SOL    HW110616   6.964   0.350   3.986
 3239SOL    HW210617   6.884   0.455   3.889
 3240SOL     OW10618   0.371   1.022   6.491
 3240SOL    HW110619   0.317   0.943   6.520
 3240SOL    HW210620   0.419   1.000   6.406
 3241SOL     OW10621   5.773   1.751   6.615
 3241SOL    HW110622   5.837   1.694   6.667
 3241SOL    HW210623   5.757   1.709   6.525
 3242SOL     OW10624   4.922   4.459   5.458
 3242SOL    HW110625   4.930   4.419   5.550
 3242SOL    HW210626   4.856   4.533   5.459
 3243SOL     OW10627   4.946   5.312   5.484
 3243SOL    HW110628   4.990   5.322   5.573
 3243SOL    HW210629   5.008   5.341   5.412
 3244SOL     OW10630   5.905   6.236   0.056
 3244SOL    HW110631   5.995   6.263   0.022
 3244SOL    HW210632   5.843   6.221   6.998
 3245SOL     OW10633   3.987   1.589   4.063
 3245SOL    HW110634   3.889   1.571   4.072
 3245SOL    HW210635   4.004   1.632   3.974
 3246SOL     OW10636   0.657   0.526   2.043
 3246SOL    HW110637   0.643   0.474   2.127
 3246SOL    HW210638   0.743   0.497   2.000
 3247SOL     OW10639   0.724   4.132   2.847
 3247SOL    HW110640   0.749   4.115   2.942
 3247SOL    HW210641   0.634   4.177   2.844
 3248SOL     OW10642   5.428   2.347   3.541
 3248SOL    HW110643   5.349   2.296   3.506
 3248SOL    HW210644   5.477   2.389   3.465
 3249SOL     OW10645   3.243   3.570   3.694
 3249SOL    HW110646   3.185   3.646   3.666
 3249SOL    HW210647   3.243   3.564   3.794
 3250SOL     OW10648   5.612   6.141   2.374
 3250SOL    HW110649   5.598   6.107   2.281
 3250SOL    HW210650   5.558   6.224   2.388
 3251SOL     OW10651   2.666   1.276   4.201
 3251SOL    HW110652   2.746   1.269   4.261
 3251SOL    HW210653   2.584   1.253   4.253
 3252SOL     OW10654   2.306   1.302   4.202
 3252SOL    HW110655   2.213   1.312   4.235
 3252SOL    HW210656   2.364   1.267   4.276
 3253SOL     OW10657   6.603   3.059   1.204
 3253SOL    HW110658   6.543   3.126   1.162
 3253SOL    HW210659   6.697   3.091   1.200
 3254SOL     OW10660   5.781   0.572   0.389
 3254SOL    HW110661   5.767   0.669   0.373
 3254SOL    HW210662   5.753   0.520   0.309
 3255SOL     OW10663   5.764   4.610   1.063
 3255SOL    HW110664   5.781   4.695   1.114
 3255SOL    HW210665   5.729   4.632   0.972
 3256SOL     OW10666   4.585   2.482   1.252
 3256SOL    HW110667   4.612   2.407   1.312
 3256SOL    HW210668   4.588   2.452   1.157
 3257SOL     OW10669   2.097   2.045   2.594
 3257SOL    HW110670   2.106   2.030   2.692
 3257SOL    HW210671   2.020   2.106   2.577
 3258SOL     OW10672   2.548   6.028   3.592
 3258SOL    HW110673   2.628   6.057   3.646
 3258SOL    HW210674   2.516   6.105   3.537
 3259SOL     OW10675   5.086   3.934   4.285
 3259SOL    HW110676   5.009   3.962   4.342
 3259SOL    HW210677   5.065   3.846   4.242
 3260SOL     OW10678   2.113   4.217   1.825
 3260SOL    HW110679   2.125   4.188   1.730
 3260SOL    HW210680   2.098   4.136   1.882
 3261SOL     OW10681   4.195   0.677   3.332
 3261SOL    HW110682   4.215   0.750   3.398
 3261SOL    HW210683   4.098   0.653   3.338
 3262SOL     OW10684   3.494   2.112   2.654
 3262SOL    HW110685   3.517   2.141   2.746
 3262SOL    HW210686   3.399   2.080   2.651
 3263SOL     OW10687   1.805   1.437   2.697
 3263SOL    HW110688   1.850   1.401   2.615
 3263SOL    HW210689   1.768   1.528   2.677
 3264SOL     OW10690   2.327   5.509   0.142
 3264SOL    HW110691   2.370   5.537   0.229
 3264SOL    HW210692   2.265   5.581   0.111
 3265SOL     OW10693   5.723   5.143   5.807
 3265SOL    HW110694   5.632   5.113   5.777
 3265SOL    HW210695   5.791   5.117   5.738
 3266SOL     OW10696   3.021   5.025   0.031
 3266SOL    HW110697   3.005   5.072   6.964
 3266SOL    HW210698   2.934   5.005   0.075
 3267SOL     OW10699   4.134   0.227   0.374
 3267SOL    HW110700   4.227   0.239   0.411
 3267SOL    HW210701   4.131   0.261   0.280
 3268SOL     OW10702   6.604   4.530   1.644
 3268SOL    HW110703   6.672   4.598   1.672
 3268SOL    HW210704   6.534   4.521   1.715
 3269SOL     OW10705   1.306   5.179   2.285
 3269SOL    HW110706   1.368   5.160   2.208
 3269SOL    HW210707   1.357   5.173   2.371
 3270SOL     OW10708   0.872   2.694   5.162
 3270SOL    HW110709   0.924   2.775   5.189
 3270SOL    HW210710   0.926   2.612   5.182
 3271SOL     OW10711   0.186   3.631   2.643
 3271SOL    HW110712   0.279   3.665   2.628
 3271SOL    HW210713   0.130   3.702   2.684
 3272SOL     OW10714   4.435   6.199   0.354
 3272SOL    HW110715   4.519   6.253   0.354
 3272SOL    HW210716   4.419   6.162   0.446
 3273SOL     OW10717   5.076   3.322   6.315
 3273SOL    HW110718   5.004   3.383   6.282
 3273SOL    HW210719   5.165   3.363   6.298
 3274SOL     OW10720   5.751   0.957   0.140
 3274SOL    HW110721   5.777   0.931   0.233
 3274SOL    HW210722   5.783   1.050   0.121
 3275SOL     OW10723   4.872   0.207   1.281
 3275SOL    HW110724   4.816   0.241   1.356
 3275SOL    HW210725   4.965   0.190   1.313
 3276SOL     OW10726   4.458   6.973   0.362
 3276SOL    HW110727   4.440   6.932   0.451
 3276SOL    HW210728   4.450   0.053   0.369
 3277SOL     OW10729   3.174   1.601   2.035
 3277SOL    HW110730   3.225   1.677   1.995
 3277SOL    HW210731   3.124   1.633   2.116
 3278SOL     OW10732   6.851   0.180   6.610
 3278SOL    HW110733   6.950   0.168   6.607
 3278SOL    HW210734   6.823   0.248   6.543
 3279SOL     OW10735   4.303   6.712   0.930
 3279SOL    HW110736   4.273   6.789   0.874
 3279SOL    HW210737   4.243   6.703   1.010
 3280SOL     OW10738   5.477   3.416   4.695
 3280SOL    HW110739   5.394   3.467   4.716
 3280SOL    HW210740   5.483   3.400   4.596
 3281SOL     OW10741   6.564   4.483   2.046
 3281SOL    HW110742   6.568   4.383   2.039
 3281SOL    HW210743   6.657   4.520   2.046
 3282SOL     OW10744   0.622   3.928   5.659
 3282SOL    HW110745   0.704   3.953   5.609
 3282SOL    HW210746   0.647   3.889   5.748
 3283SOL     OW10747   4.092   0.851   1.222
 3283SOL    HW110748   4.087   0.838   1.123
 3283SOL    HW210749   4.125   0.943   1.242
 3284SOL     OW10750   1.925   5.787   4.887
 3284SOL    HW110751   1.858   5.861   4.889
 3284SOL    HW210752   1.950   5.767   4.792
 3285SOL     OW10753   6.155   0.743   4.552
 3285SOL    HW110754   6.056   0.752   4.557
 3285SOL    HW210755   6.178   0.655   4.510
 3286SOL     OW10756   3.184   1.721   1.588
 3286SOL    HW110757   3.233   1.791   1.640
 3286SOL    HW210758   3.138   1.764   1.510
 3287SOL     OW10759   2.144   0.541   6.357
 3287SOL    HW110760   2.209   0.466   6.370
 3287SOL    HW210761   2.193   0.627   6.349
 3288SOL     OW10762   1.908   6.369   0.868
 3288SOL    HW110763   1.955   6.430   0.934
 3288SOL    HW210764   1.934   6.395   0.775
 3289SOL     OW10765   3.766   1.830   6.652
 3289SOL    HW110766   3.782   1.739   6.613
 3289SOL    HW210767   3.771   1.825   6.751
 3290SOL     OW10768   6.687   5.082   0.565
 3290SOL    HW110769   6.680   5.140   0.646
 3290SOL    HW210770   6.779   5.045   0.558
 3291SOL     OW10771   4.385   0.019   5.400
 3291SOL    HW110772   4.440   6.968   5.355
 3291SOL    HW210773   4.446   0.083   5.447
 3292SOL     OW10774   0.254   1.859   1.169
 3292SOL    HW110775   0.183   1.812   1.117
 3292SOL    HW210776   0.264   1.818   1.259
 3293SOL     OW10777   6.400   5.448   3.038
 3293SOL    HW110778   6.430   5.544   3.043
 3293SOL    HW210779   6.335   5.438   2.963
 3294SOL     OW10780   5.238   2.372   5.469
 3294SOL    HW110781   5.236   2.394   5.567
 3294SOL    HW210782   5.280   2.448   5.419
 3295SOL     OW10783   1.904   2.830   1.215
 3295SOL    HW110784   1.904   2.850   1.117
 3295SOL    HW210785   1.988   2.865   1.257
 3296SOL     OW10786   0.735   0.508   5.868
 3296SOL    HW110787   0.693   0.598   5.885
 3296SOL    HW210788   0.770   0.472   5.955
 3297SOL     OW10789   3.335   1.895   5.275
 3297SOL    HW110790   3.356   1.857   5.366
 3297SOL    HW210791   3.242   1.932   5.275
 3298SOL     OW10792   5.969   4.193   4.693
 3298SOL    HW110793   5.944   4.101   4.662
 3298SOL    HW210794   6.065   4.211   4.671
 3299SOL     OW10795   3.426   4.923   3.528
 3299SOL    HW110796   3.462   4.963   3.612
 3299SOL    HW210797   3.471   4.965   3.449
 3300SOL     OW10798   1.965   6.976   5.422
 3300SOL    HW110799   1.968   0.049   5.384
 3300SOL    HW210800   1.926   6.979   5.514
 3301SOL     OW10801   1.883   3.083   2.639
 3301SOL    HW110802   1.945   3.072   2.716
 3301SOL    HW210803   1.879   3.179   2.612
 3302SOL     OW10804   2.377   4.929   5.780
 3302SOL    HW110805   2.284   4.954   5.807
 3302SOL    HW210806   2.376   4.841   5.733
 3303SOL     OW10807   3.422   2.694   0.771
 3303SOL    HW110808   3.415   2.634   0.691
 3303SOL    HW210809   3.507   2.674   0.820
 3304SOL     OW10810   2.783   5.132   5.484
 3304SOL    HW110811   2.717   5.146   5.410
 3304SOL    HW210812   2.735   5.101   5.566
 3305SOL     OW10813   3.584   0.850   1.165
 3305SOL    HW110814   3.542   0.850   1.074
 3305SOL    HW210815   3.683   0.861   1.157
 3306SOL     OW10816   2.001   0.426   0.232
 3306SOL    HW110817   1.914   0.441   0.280
 3306SOL    HW210818   1.991   0.450   0.136
 3307SOL     OW10819   0.916   6.992   4.485
 3307SOL    HW110820   0.878   0.015   4.567
 3307SOL    HW210821   0.881   6.898   4.476
 3308SOL     OW10822   3.503   4.510   0.960
 3308SOL    HW110823   3.426   4.563   0.926
 3308SOL    HW210824   3.573   4.502   0.888
 3309SOL     OW10825   5.279   3.783   3.946
 3309SOL    HW110826   5.252   3.714   3.879
 3309SOL    HW210827   5.210   3.855   3.950
 3310SOL     OW10828   0.310   4.991   4.754
 3310SOL    HW110829   0.301   4.967   4.657
 3310SOL    HW210830   0.242   5.060   4.778
 3311SOL     OW10831   3.290   3.860   0.701
 3311SOL    HW110832   3.376   3.844   0.652
 3311SOL    HW210833   3.282   3.956   0.724
 3312SOL     OW10834   5.034   2.758   6.228
 3312SOL    HW110835   5.052   2.850   6.263
 3312SOL    HW210836   5.046   2.758   6.128
 3313SOL     OW10837   0.932   0.806   3.364
 3313SOL    HW110838   0.845   0.784   3.319
 3313SOL    HW210839   0.919   0.886   3.422
 3314SOL     OW10840   1.940   6.357   2.604
 3314SOL    HW110841   1.920   6.280   2.543
 3314SOL    HW210842   2.005   6.328   2.674
 3315SOL     OW10843   7.006   5.157   5.123
 3315SOL    HW110844   7.012   5.094   5.200
 3315SOL    HW210845   0.074   5.204   5.111
 3316SOL     OW10846   2.817   1.050   6.497
 3316SOL    HW110847   2.873   1.053   6.580
 3316SOL    HW210848   2.739   1.112   6.508
 3317SOL     OW10849   4.955   2.502   2.316
 3317SOL    HW110850   4.869   2.553   2.308
 3317SOL    HW210851   4.935   2.404   2.322
 3318SOL     OW10852   2.938   2.244   0.260
 3318SOL    HW110853   2.842   2.218   0.259
 3318SOL    HW210854   2.967   2.270   0.168
 3319SOL     OW10855   6.658   6.646   3.056
 3319SOL    HW110856   6.727   6.609   3.117
 3319SOL    HW210857   6.567   6.625   3.091
 3320SOL     OW10858   6.175   7.013   0.755
 3320SOL    HW110859   6.228   6.957   0.691
 3320SOL    HW210860   6.201   0.090   0.743
 3321SOL     OW10861   5.622   1.825   0.188
 3321SOL    HW110862   5.722   1.834   0.187
 3321SOL    HW210863   5.598   1.729   0.177
 3322SOL     OW10864   6.673   3.379   0.887
 3322SOL    HW110865   6.715   3.438   0.818
 3322SOL    HW210866   6.584   3.348   0.854
 3323SOL     OW10867   2.276   2.098   1.935
 3323SOL    HW110868   2.306   2.003   1.935
 3323SOL    HW210869   2.199   2.109   1.998
 3324SOL     OW10870   5.154   4.910   5.461
 3324SOL    HW110871   5.238   4.857   5.468
 3324SOL    HW210872   5.159   4.989   5.522
 3325SOL     OW10873   1.372   3.300   6.627
 3325SOL    HW110874   1.306   3.300   6.552
 3325SOL    HW210875   1.351   3.226   6.690
 3326SOL     OW10876   5.451   1.201   2.847
 3326SOL    HW110877   5.353   1.184   2.836
 3326SOL    HW210878   5.492   1.129   2.903
 3327SOL     OW10879   1.223   6.072   1.251
 3327SOL    HW110880   1.124   6.087   1.251
 3327SOL    HW210881   1.252   6.049   1.344
 3328SOL     OW10882   3.820   1.994   1.001
 3328SOL    HW110883   3.895   2.019   1.061
 3328SOL    HW210884   3.852   1.927   0.933
 3329SOL     OW10885   6.082   5.589   6.054
 3329SOL    HW110886   6.143   5.612   6.130
 3329SOL    HW210887   6.113   5.637   5.972
 3330SOL     OW10888   6.501   2.874   2.315
 3330SOL    HW110889   6.486   2.957   2.368
 3330SOL    HW210890   6.416   2.849   2.268
 3331SOL     OW10891   1.188   1.879   1.445
 3331SOL    HW110892   1.268   1.932   1.474
 3331SOL    HW210893   1.197   1.855   1.349
 3332SOL     OW10894   5.602   4.289   0.311
 3332SOL    HW110895   5.656   4.367   0.279
 3332SOL    HW210896   5.629   4.266   0.405
 3333SOL     OW10897   4.098   5.061   6.070
 3333SOL    HW110898   4.100   4.977   6.125
 3333SOL    HW210899   4.011   5.066   6.020
 3334SOL     OW10900   3.114   3.612   1.413
 3334SOL    HW110901   3.131   3.635   1.509
 3334SOL    HW210902   3.200   3.618   1.362
 3335SOL     OW10903   4.974   4.731   5.935
 3335SOL    HW110904   5.011   4.658   5.878
 3335SOL    HW210905   4.988   4.819   5.889
 3336SOL     OW10906   3.404   5.429   6.202
 3336SOL    HW110907   3.463   5.415   6.122
 3336SOL    HW210908   3.320   5.475   6.173
 3337SOL     OW10909   3.670   2.557   1.517
 3337SOL    HW110910   3.740   2.625   1.494
 3337SOL    HW210911   3.636   2.574   1.609
 3338SOL     OW10912   0.046   4.026   1.202
 3338SOL    HW110913   6.987   3.996   1.147
 3338SOL    HW210914   0.053   4.125   1.199
 3339SOL     OW10915   6.533   5.658   6.902
 3339SOL    HW110916   6.439   5.686   6.916
 3339SOL    HW210917   6.559   5.591   6.972
 3340SOL     OW10918   3.192   6.778   2.008
 3340SOL    HW110919   3.101   6.737   2.008
 3340SOL    HW210920   3.261   6.705   1.999
 3341SOL     OW10921   0.610   0.295   2.772
 3341SOL    HW110922   0.520   0.262   2.746
 3341SOL    HW210923   0.679   0.227   2.745
 3342SOL     OW10924   2.049   0.085   4.203
 3342SOL    HW110925   2.054   0.177   4.240
 3342SOL    HW210926   2.140   0.052   4.180
 3343SOL     OW10927   4.961   2.875   1.003
 3343SOL    HW110928   4.901   2.938   1.051
 3343SOL    HW210929   4.956   2.893   0.905
 3344SOL     OW10930   5.914   3.401   5.644
 3344SOL    HW110931   5.996   3.450   5.674
 3344SOL    HW210932   5.862   3.459   5.582
 3345SOL     OW10933   3.259   3.705   5.929
 3345SOL    HW110934   3.236   3.780   5.990
 3345SOL    HW210935   3.242   3.733   5.834
 3346SOL     OW10936   0.180   0.417   1.931
 3346SOL    HW110937   0.091   0.373   1.918
 3346SOL    HW210938   0.167   0.515   1.946
 3347SOL     OW10939   5.821   4.137   4.906
 3347SOL    HW110940   5.861   4.164   4.818
 3347SOL    HW210941   5.741   4.194   4.926
 3348SOL     OW10942   3.585   3.309   4.049
 3348SOL    HW110943   3.517   3.366   4.004
 3348SOL    HW210944   3.646   3.269   3.980
 3349SOL     OW10945   6.888   3.839   4.383
 3349SOL    HW110946   6.970   3.828   4.328
 3349SOL    HW210947   6.882   3.763   4.449
 3350SOL     OW10948   1.648   0.977   0.242
 3350SOL    HW110949   1.565   1.031   0.230
 3350SOL    HW210950   1.682   0.948   0.153
 3351SOL     OW10951   5.493   1.555   0.689
 3351SOL    HW110952   5.414   1.498   0.667
 3351SOL    HW210953   5.525   1.601   0.606
 3352SOL     OW10954   0.811   3.998   1.285
 3352SOL    HW110955   0.844   4.090   1.264
 3352SOL    HW210956   0.885   3.932   1.274
 3353SOL     OW10957   1.580   6.788   6.534
 3353SOL    HW110958   1.675   6.758   6.541
 3353SOL    HW210959   1.558   6.849   6.610
 3354SOL     OW10960   6.610   2.383   3.918
 3354SOL    HW110961   6.633   2.477   3.941
 3354SOL    HW210962   6.683   2.322   3.948
 3355SOL     OW10963   0.049   1.478   1.896
 3355SOL    HW110964   0.125   1.478   1.961
 3355SOL    HW210965   0.058   1.399   1.835
 3356SOL     OW10966   2.967   3.390   6.936
 3356SOL    HW110967   3.033   3.323   6.970
 3356SOL    HW210968   2.889   3.343   6.895
 3357SOL     OW10969   2.979   5.314   1.776
 3357SOL    HW110970   3.068   5.300   1.733
 3357SOL    HW210971   2.979   5.401   1.825
 3358SOL     OW10972   4.798   6.264   2.475
 3358SOL    HW110973   4.813   6.167   2.492
 3358SOL    HW210974   4.804   6.282   2.377
 3359SOL     OW10975   1.200   0.411   2.533
 3359SOL    HW110976   1.112   0.448   2.503
 3359SOL    HW210977   1.246   0.476   2.593
 3360SOL     OW10978   0.595   0.668   0.547
 3360SOL    HW110979   0.579   0.705   0.638
 3360SOL    HW210980   0.550   0.725   0.479
 3361SOL     OW10981   6.176   5.788   3.279
 3361SOL    HW110982   6.151   5.802   3.183
 3361SOL    HW210983   6.101   5.743   3.327
 3362SOL     OW10984   2.598   1.420   4.819
 3362SOL    HW110985   2.588   1.346   4.753
 3362SOL    HW210986   2.561   1.505   4.780
 3363SOL     OW10987   0.212   1.862   7.003
 3363SOL    HW110988   0.219   1.837   0.080
 3363SOL    HW210989   0.271   1.941   6.985
 3364SOL     OW10990   1.451   5.737   5.851
 3364SOL    HW110991   1.369   5.777   5.811
 3364SOL    HW210992   1.436   5.720   5.948
 3365SOL     OW10993   0.172   2.783   4.767
 3365SOL    HW110994   0.153   2.725   4.846
 3365SOL    HW210995   0.258   2.832   4.781
 3366SOL     OW10996   5.258   0.138   5.679
 3366SOL    HW110997   5.278   0.040   5.689
 3366SOL    HW210998   5.188   0.164   5.745
 3367SOL     OW10999   1.464   2.516   2.705
 3367SOL    HW111000   1.385   2.563   2.665
 3367SOL    HW211001   1.446   2.497   2.802
 3368SOL     OW11002   6.484   5.305   6.334
 3368SOL    HW111003   6.537   5.385   6.360
 3368SOL    HW211004   6.541   5.223   6.343
 3369SOL     OW11005   3.669   0.281   0.089
 3369SOL    HW111006   3.587   0.262   0.036
 3369SOL    HW211007   3.689   0.204   0.149
 3370SOL     OW11008   6.504   6.410   5.084
 3370SOL    HW111009   6.516   6.507   5.061
 3370SOL    HW211010   6.523   6.354   5.003
 3371SOL     OW11011   1.229   4.800   1.647
 3371SOL    HW111012   1.273   4.836   1.729
 3371SOL    HW211013   1.134   4.831   1.643
 3372SOL     OW11014   1.100   0.960   2.347
 3372SOL    HW111015   1.158   0.937   2.269
 3372SOL    HW211016   1.056   0.878   2.383
 3373SOL     OW11017   6.076   1.525   4.992
 3373SOL    HW111018   6.009   1.595   5.019
 3373SOL    HW211019   6.137   1.507   5.069
 3374SOL     OW11020   2.982   6.203   5.855
 3374SOL    HW111021   3.060   6.263   5.837
 3374SOL    HW211022   3.015   6.110   5.873
 3375SOL     OW11023   4.570   4.286   5.150
 3375SOL    HW111024   4.481   4.329   5.134
 3375SOL    HW211025   4.615   4.268   5.063
 3376SOL     OW11026   3.203   3.054   2.449
 3376SOL    HW111027   3.234   3.003   2.529
 3376SOL    HW211028   3.216   2.999   2.366
 3377SOL     OW11029   0.899   6.474   4.966
 3377SOL    HW111030   0.933   6.384   4.941
 3377SOL    HW211031   0.931   6.541   4.899
 3378SOL     OW11032   6.684   1.163   1.504
 3378SOL    HW111033   6.659   1.149   1.600
 3378SOL    HW211034   6.611   1.128   1.446
 3379SOL     OW11035   0.587   4.828   5.854
 3379SOL    HW111036   0.567   4.741   5.810
 3379SOL    HW211037   0.685   4.836   5.868
 3380SOL     OW11038   0.155   4.579   6.932
 3380SOL    HW111039   0.254   4.586   6.944
 3380SOL    HW211040   0.125   4.638   6.858
 3381SOL     OW11041   3.172   2.639   0.538
 3381SOL    HW111042   3.147   2.575   0.611
 3381SOL    HW211043   3.204   2.589   0.458
 3382SOL     OW11044   6.761   1.944   0.545
 3382SOL    HW111045   6.755   1.886   0.464
 3382SOL    HW211046   6.700   1.909   0.616
 3383SOL     OW11047   5.735   4.567   2.921
 3383SOL    HW111048   5.834   4.554   2.920
 3383SOL    HW211049   5.709   4.623   3.000
 3384SOL     OW11050   3.360   3.071   4.762
 3384SOL    HW111051   3.308   3.031   4.686
 3384SOL    HW211052   3.411   2.999   4.808
 3385SOL     OW11053   6.417   3.735   3.431
 3385SOL    HW111054   6.443   3.644   3.465
 3385SOL    HW211055   6.494   3.797   3.443
 3386SOL     OW11056   6.097   4.935   4.423
 3386SOL    HW111057   6.059   4.902   4.509
 3386SOL    HW211058   6.196   4.921   4.421
 3387SOL     OW11059   2.465   2.530   3.172
 3387SOL    HW111060   2.410   2.584   3.109
 3387SOL    HW211061   2.558   2.519   3.135
 3388SOL     OW11062   5.566   2.100   1.430
 3388SOL    HW111063   5.468   2.078   1.420
 3388SOL    HW211064   5.579   2.157   1.511
 3389SOL     OW11065   4.837   4.160   3.787
 3389SOL    HW111066   4.808   4.114   3.871
 3389SOL    HW211067   4.756   4.180   3.731
 3390SOL     OW11068   5.121   3.176   5.932
 3390SOL    HW111069   5.107   3.090   5.884
 3390SOL    HW211070   5.082   3.170   6.024
 3391SOL     OW11071   3.696   1.763   4.759
 3391SOL    HW111072   3.781   1.774   4.706
 3391SOL    HW211073   3.634   1.702   4.710
 3392SOL     OW11074   2.179   0.849   3.992
 3392SOL    HW111075   2.244   0.916   4.028
 3392SOL    HW211076   2.148   0.878   3.901
 3393SOL     OW11077   6.553   6.380   0.073
 3393SOL    HW111078   6.527   6.296   0.122
 3393SOL    HW211079   6.602   6.355   7.009
 3394SOL     OW11080   5.939   2.207   0.833
 3394SOL    HW111081   5.925   2.260   0.916
 3394SOL    HW211082   5.872   2.235   0.764
 3395SOL     OW11083   0.764   3.353   4.126
 3395SOL    HW111084   0.704   3.363   4.205
 3395SOL    HW211085   0.846   3.409   4.139
 3396SOL     OW11086   0.213   3.413   3.406
 3396SOL    HW111087   0.193   3.325   3.449
 3396SOL    HW211088   0.128   3.460   3.384
 3397SOL     OW11089   3.987   0.015   6.024
 3397SOL    HW111090   4.067   6.976   6.011
 3397SOL    HW211091   3.904   6.979   6.020
 3398SOL     OW11092   1.173   0.243   4.311
 3398SOL    HW111093   1.133   0.178   4.247
 3398SOL    HW211094   1.267   0.262   4.286
 3399SOL     OW11095   4.841   5.164   4.127
 3399SOL    HW111096   4.850   5.085   4.189
 3399SOL    HW211097   4.886   5.243   4.167
 3400SOL     OW11098   4.775   2.082   6.641
 3400SOL    HW111099   4.729   2.030   6.713
 3400SOL    HW211100   4.860   2.035   6.616
 3401SOL     OW11101   6.678   3.223   0.609
 3401SOL    HW111102   6.593   3.201   0.657
 3401SOL    HW211103   6.700   3.320   0.622
 3402SOL     OW11104   5.357   5.828   1.461
 3402SOL    HW111105   5.280   5.891   1.458
 3402SOL    HW211106   5.410   5.836   1.377
 3403SOL     OW11107   3.395   0.428   4.950
 3403SOL    HW111108   3.454   0.359   4.909
 3403SOL    HW211109   3.308   0.385   4.977
 3404SOL     OW11110   4.305   1.481   0.928
 3404SOL    HW111111   4.247   1.529   0.993
 3404SOL    HW211112   4.251   1.454   0.848
 3405SOL     OW11113   6.110   4.034   6.428
 3405SOL    HW111114   6.095   4.021   6.330
 3405SOL    HW211115   6.097   4.131   6.451
 3406SOL     OW11116   2.517   4.577   1.932
 3406SOL    HW111117   2.487   4.485   1.906
 3406SOL    HW211118   2.617   4.577   1.941
 3407SOL     OW11119   1.120   5.678   1.721
 3407SOL    HW111120   1.199   5.620   1.738
 3407SOL    HW211121   1.150   5.772   1.705
 3408SOL     OW11122   5.008   4.049   3.070
 3408SOL    HW111123   4.955   3.967   3.093
 3408SOL    HW211124   5.100   4.040   3.109
 3409SOL     OW11125   3.935   0.268   5.958
 3409SOL    HW111126   3.958   0.172   5.973
 3409SOL    HW211127   3.837   0.282   5.968
 3410SOL     OW11128   5.994   5.685   0.125
 3410SOL    HW111129   5.994   5.680   0.025
 3410SOL    HW211130   6.086   5.663   0.159
 3411SOL     OW11131   4.944   2.232   2.328
 3411SOL    HW111132   5.023   2.236   2.388
 3411SOL    HW211133   4.862   2.211   2.382
 3412SOL     OW11134   3.955   3.664   6.951
 3412SOL    HW111135   3.862   3.661   6.988
 3412SOL    HW211136   4.020   3.639   0.004
 3413SOL     OW11137   3.752   1.665   3.038
 3413SOL    HW111138   3.695   1.672   3.120
 3413SOL    HW211139   3.700   1.694   2.958
 3414SOL     OW11140   2.974   1.957   4.945
 3414SOL    HW111141   2.973   1.922   4.851
 3414SOL    HW211142   3.068   1.978   4.972
 3415SOL     OW11143   0.906   4.982   4.197
 3415SOL    HW111144   0.861   4.989   4.108
 3415SOL    HW211145   0.984   5.044   4.200
 3416SOL     OW11146   0.356   4.534   5.878
 3416SOL    HW111147   0.441   4.559   5.831
 3416SOL    HW211148   0.355   4.577   5.968
 3417SOL     OW11149   6.940   6.626   2.685
 3417SOL    HW111150   7.005   6.700   2.703
 3417SOL    HW211151   6.905   6.590   2.771
 3418SOL     OW11152   2.844   1.394   4.942
 3418SOL    HW111153   2.759   1.414   4.893
 3418SOL    HW211154   2.825   1.387   5.040
 3419SOL     OW11155   4.382   4.646   6.784
 3419SOL    HW111156   4.372   4.664   6.687
 3419SOL    HW211157   4.462   4.587   6.800
 3420SOL     OW11158   4.761   1.750   3.985
 3420SOL    HW111159   4.683   1.703   4.026
 3420SOL    HW211160   4.754   1.848   4.003
 3421SOL     OW11161   6.727   6.797   5.471
 3421SOL    HW111162   6.762   6.877   5.423
 3421SOL    HW211163   6.628   6.790   5.457
 3422SOL     OW11164   3.312   7.009   1.189
 3422SOL    HW111165   3.363   0.042   1.257
 3422SOL    HW211166   3.277   0.050   1.118
 3423SOL     OW11167   2.287   0.658   0.450
 3423SOL    HW111168   2.376   0.705   0.451
 3423SOL    HW211169   2.253   0.649   0.543
 3424SOL     OW11170   4.074   1.110   2.428
 3424SOL    HW111171   4.082   1.024   2.378
 3424SOL    HW211172   4.141   1.175   2.393
 3425SOL     OW11173   4.814   4.080   2.175
 3425SOL    HW111174   4.723   4.038   2.183
 3425SOL    HW211175   4.836   4.127   2.260
 3426SOL     OW11176   3.405   3.108   0.492
 3426SOL    HW111177   3.494   3.076   0.524
 3426SOL    HW211178   3.337   3.036   0.504
 3427SOL     OW11179   6.673   0.102   0.169
 3427SOL    HW111180   6.740   0.138   0.233
 3427SOL    HW211181   6.583   0.098   0.213
 3428SOL     OW11182   3.782   4.959   2.264
 3428SOL    HW111183   3.738   4.908   2.189
 3428SOL    HW211184   3.822   4.894   2.328
 3429SOL     OW11185   1.000   2.599   0.212
 3429SOL    HW111186   0.977   2.526   0.147
 3429SOL    HW211187   0.918   2.654   0.230
 3430SOL     OW11188   1.228   6.587   6.916
 3430SOL    HW111189   1.211   6.657   6.985
 3430SOL    HW211190   1.309   6.612   6.863
 3431SOL     OW11191   1.461   6.122   1.119
 3431SOL    HW111192   1.387   6.118   1.186
 3431SOL    HW211193   1.502   6.213   1.119
 3432SOL     OW11194   2.833   2.146   5.285
 3432SOL    HW111195   2.746   2.138   5.334
 3432SOL    HW211196   2.902   2.089   5.331
 3433SOL     OW11197   3.444   1.128   6.172
 3433SOL    HW111198   3.412   1.154   6.081
 3433SOL    HW211199   3.539   1.156   6.184
 3434SOL     OW11200   4.196   2.478   1.296
 3434SOL    HW111201   4.216   2.448   1.202
 3434SOL    HW211202   4.135   2.411   1.339
 3435SOL     OW11203   0.326   2.958   1.716
 3435SOL    HW111204   0.391   2.899   1.764
 3435SOL    HW211205   0.235   2.946   1.756
 3436SOL     OW11206   4.167   6.586   4.560
 3436SOL    HW111207   4.112   6.666   4.586
 3436SOL    HW211208   4.248   6.581   4.620
 3437SOL     OW11209   4.312   0.304   5.229
 3437SOL    HW111210   4.231   0.340   5.275
 3437SOL    HW211211   4.285   0.263   5.142
 3438SOL     OW11212   1.908   2.629   6.961
 3438SOL    HW111213   1.899   2.541   6.914
 3438SOL    HW211214   1.879   2.702   6.899
 3439SOL     OW11215   2.568   6.542   5.146
 3439SOL    HW111216   2.547   6.634   5.112
 3439SOL    HW211217   2.642   6.548   5.213
 3440SOL     OW11218   4.261   3.761   1.072
 3440SOL    HW111219   4.171   3.792   1.043
 3440SOL    HW211220   4.306   3.833   1.125
 3441SOL     OW11221   4.028   6.989   4.178
 3441SOL    HW111222   3.970   6.931   4.234
 3441SOL    HW211223   4.078   6.933   4.112
 3442SOL     OW11224   1.983   5.245   3.544
 3442SOL    HW111225   2.002   5.189   3.625
 3442SOL    HW211226   1.907   5.204   3.493
 3443SOL     OW11227   5.920   1.949   3.270
 3443SOL    HW111228   6.011   1.973   3.304
 3443SOL    HW211229   5.851   1.979   3.336
 3444SOL     OW11230   5.251   5.930   6.629
 3444SOL    HW111231   5.166   5.902   6.673
 3444SOL    HW211232   5.296   5.850   6.589
 3445SOL     OW11233   6.795   4.092   4.361
 3445SOL    HW111234   6.835   4.000   4.353
 3445SOL    HW211235   6.854   4.149   4.418
 3446SOL     OW11236   3.851   0.723   2.956
 3446SOL    HW111237   3.857   0.667   3.039
 3446SOL    HW211238   3.843   0.664   2.876
 3447SOL     OW11239   5.598   5.663   0.217
 3447SOL    HW111240   5.609   5.567   0.243
 3447SOL    HW211241   5.505   5.693   0.237
 3448SOL     OW11242   3.313   0.469   0.818
 3448SOL    HW111243   3.331   0.382   0.773
 3448SOL    HW211244   3.354   0.468   0.909
 3449SOL     OW11245   6.216   6.999   1.536
 3449SOL    HW111246   6.143   0.024   1.484
 3449SOL    HW211247   6.241   6.913   1.491
 3450SOL     OW11248   0.683   1.727   1.299
 3450SOL    HW111249   0.593   1.683   1.297
 3450SOL    HW211250   0.744   1.682   1.234
 3451SOL     OW11251   0.721   5.728   3.526
 3451SOL    HW111252   0.741   5.788   3.448
 3451SOL    HW211253   0.801   5.671   3.546
 3452SOL     OW11254   6.823   1.107   6.700
 3452SOL    HW111255   6.772   1.077   6.619
 3452SOL    HW211256   6.795   1.200   6.725
 3453SOL     OW11257   5.389   5.726   4.770
 3453SOL    HW111258   5.455   5.704   4.842
 3453SOL    HW211259   5.387   5.825   4.756
 3454SOL     OW11260   1.634   1.449   0.149
 3454SOL    HW111261   1.704   1.390   0.190
 3454SOL    HW211262   1.658   1.545   0.162
 3455SOL     OW11263   1.352   2.933   4.363
 3455SOL    HW111264   1.317   3.026   4.374
 3455SOL    HW211265   1.275   2.870   4.351
 3456SOL     OW11266   5.931   6.494   1.839
 3456SOL    HW111267   5.967   6.587   1.830
 3456SOL    HW211268   5.900   6.461   1.749
 3457SOL     OW11269   2.643   5.310   3.957
 3457SOL    HW111270   2.604   5.236   4.011
 3457SOL    HW211271   2.705   5.272   3.888
 3458SOL     OW11272   6.139   6.593   0.169
 3458SOL    HW111273   6.104   6.515   0.221
 3458SOL    HW211274   6.220   6.566   0.117
 3459SOL     OW11275   0.281   3.593   3.146
 3459SOL    HW111276   0.306   3.536   3.067
 3459SOL    HW211277   0.244   3.535   3.218
 3460SOL     OW11278   2.798   2.736   0.018
 3460SOL    HW111279   2.705   2.718   7.006
 3460SOL    HW211280   2.811   2.834   0.029
 3461SOL     OW11281   3.825   5.351   4.112
 3461SOL    HW111282   3.901   5.292   4.085
 3461SOL    HW211283   3.792   5.324   4.203
 3462SOL     OW11284   6.012   2.651   2.900
 3462SOL    HW111285   5.984   2.719   2.832
 3462SOL    HW211286   5.933   2.596   2.927
 3463SOL     OW11287   1.106   3.131   2.048
 3463SOL    HW111288   1.154   3.150   2.134
 3463SOL    HW211289   1.033   3.197   2.034
 3464SOL     OW11290   5.706   2.497   6.598
 3464SOL    HW111291   5.628   2.498   6.660
 3464SOL    HW211292   5.674   2.487   6.504
 3465SOL     OW11293   2.162   3.444   1.646
 3465SOL    HW111294   2.228   3.447   1.721
 3465SOL    HW211295   2.155   3.534   1.605
 3466SOL     OW11296   5.517   4.376   5.417
 3466SOL    HW111297   5.602   4.399   5.370
 3466SOL    HW211298   5.535   4.357   5.513
 3467SOL     OW11299   3.620   1.693   1.071
 3467SOL    HW111300   3.542   1.634   1.088
 3467SOL    HW211301   3.611   1.777   1.125
 3468SOL     OW11302   4.397   1.858   1.844
 3468SOL    HW111303   4.487   1.833   1.880
 3468SOL    HW211304   4.349   1.915   1.910
 3469SOL     OW11305   4.757   0.283   5.895
 3469SOL    HW111306   4.730   0.336   5.815
 3469SOL    HW211307   4.677   0.234   5.931
 3470SOL     OW11308   0.345   2.959   0.987
 3470SOL    HW111309   0.272   2.896   0.957
 3470SOL    HW211310   0.308   3.051   0.995
 3471SOL     OW11311   4.674   4.245   3.592
 3471SOL    HW111312   4.677   4.342   3.568
 3471SOL    HW211313   4.580   4.211   3.583
 3472SOL     OW11314   4.639   2.163   2.808
 3472SOL    HW111315   4.540   2.170   2.795
 3472SOL    HW211316   4.666   2.067   2.797
 3473SOL     OW11317   0.009   3.518   3.855
 3473SOL    HW111318   0.105   3.497   3.835
 3473SOL    HW211319   7.006   3.608   3.819
 3474SOL     OW11320   0.417   4.267   3.984
 3474SOL    HW111321   0.393   4.328   4.060
 3474SOL    HW211322   0.382   4.175   4.003
 3475SOL     OW11323   0.167   4.917   4.242
 3475SOL    HW111324   0.141   4.924   4.146
 3475SOL    HW211325   0.107   4.974   4.297
 3476SOL     OW11326   1.938   1.593   3.899
 3476SOL    HW111327   1.911   1.648   3.820
 3476SOL    HW211328   1.967   1.653   3.973
 3477SOL     OW11329   0.475   3.428   0.966
 3477SOL    HW111330   0.435   3.359   0.907
 3477SOL    HW211331   0.511   3.503   0.910
 3478SOL     OW11332   2.316   6.696   0.495
 3478SOL    HW111333   2.297   6.709   0.592
 3478SOL    HW211334   2.391   6.631   0.483
 3479SOL     OW11335   0.517   2.860   3.637
 3479SOL    HW111336   0.423   2.878   3.668
 3479SOL    HW211337   0.516   2.785   3.571
 3480SOL     OW11338   0.871   5.931   6.847
 3480SOL    HW111339   0.844   5.996   6.776
 3480SOL    HW211340   0.799   5.926   6.917
 3481SOL     OW11341   5.415   0.587   0.130
 3481SOL    HW111342   5.459   0.674   0.107
 3481SOL    HW211343   5.344   0.567   0.063
 3482SOL     OW11344   6.213   2.558   3.949
 3482SOL    HW111345   6.298   2.587   3.993
 3482SOL    HW211346   6.174   2.635   3.898
 3483SOL     OW11347   5.021   2.409   3.388
 3483SOL    HW111348   5.035   2.506   3.404
 3483SOL    HW211349   4.934   2.380   3.429
 3484SOL     OW11350   1.909   3.701   6.496
 3484SOL    HW111351   1.908   3.756   6.412
 3484SOL    HW211352   1.868   3.753   6.571
 3485SOL     OW11353   6.891   2.242   5.521
 3485SOL    HW111354   6.811   2.251   5.461
 3485SOL    HW211355   6.879   2.162   5.580
 3486SOL     OW11356   1.796   0.112   4.098
 3486SOL    HW111357   1.893   0.094   4.117
 3486SOL    HW211358   1.740   0.062   4.164
 3487SOL     OW11359   6.524   1.520   6.844
 3487SOL    HW111360   6.456   1.504   6.772
 3487SOL    HW211361   6.478   1.547   6.929
 3488SOL     OW11362   5.481   0.661   5.140
 3488SOL    HW111363   5.500   0.571   5.178
 3488SOL    HW211364   5.388   0.689   5.164
 3489SOL     OW11365   3.265   6.739   1.162
 3489SOL    HW111366   3.289   6.835   1.153
 3489SOL    HW211367   3.346   6.687   1.191
 3490SOL     OW11368   3.723   5.028   1.265
 3490SOL    HW111369   3.675   4.970   1.200
 3490SOL    HW211370   3.743   4.977   1.348
 3491SOL     OW11371   5.068   4.256   6.545
 3491SOL    HW111372   5.148   4.208   6.511
 3491SOL    HW211373   5.055   4.236   6.643
 3492SOL     OW11374   6.895   3.890   2.049
 3492SOL    HW111375   6.921   3.981   2.082
 3492SOL    HW211376   6.939   3.873   1.961
 3493SOL     OW11377   6.426   4.012   4.170
 3493SOL    HW111378   6.378   4.061   4.097
 3493SOL    HW211379   6.466   4.077   4.234
 3494SOL     OW11380   3.416   1.651   2.381
 3494SOL    HW111381   3.336   1.686   2.333
 3494SOL    HW211382   3.434   1.557   2.352
 3495SOL     OW11383   0.690   3.885   2.143
 3495SOL    HW111384   0.715   3.979   2.167
 3495SOL    HW211385   0.615   3.886   2.078
 3496SOL     OW11386   5.671   4.328   0.957
 3496SOL    HW111387   5.694   4.396   0.887
 3496SOL    HW211388   5.612   4.369   1.026
 3497SOL     OW11389   3.207   1.021   3.700
 3497SOL    HW111390   3.206   1.120   3.682
 3497SOL    HW211391   3.301   0.987   3.693
 3498SOL     OW11392   2.634   2.019   2.317
 3498SOL    HW111393   2.708   1.960   2.284
 3498SOL    HW211394   2.641   2.109   2.275
 3499SOL     OW11395   6.081   5.825   5.384
 3499SOL    HW111396   6.157   5.775   5.344
 3499SOL    HW211397   6.113   5.880   5.461
 3500SOL     OW11398   1.791   2.507   4.321
 3500SOL    HW111399   1.838   2.424   4.293
 3500SOL    HW211400   1.859   2.579   4.337
 3501SOL     OW11401   2.406   6.652   6.454
 3501SOL    HW111402   2.391   6.743   6.417
 3501SOL    HW211403   2.318   6.605   6.464
 3502SOL     OW11404   5.922   3.435   2.069
 3502SOL    HW111405   5.915   3.526   2.027
 3502SOL    HW211406   5.844   3.421   2.130
 3503SOL     OW11407   6.719   5.762   6.298
 3503SOL    HW111408   6.813   5.789   6.278
 3503SOL    HW211409   6.658   5.794   6.225
 3504SOL     OW11410   2.296   0.757   2.032
 3504SOL    HW111411   2.299   0.700   1.949
 3504SOL    HW211412   2.235   0.835   2.016
 3505SOL     OW11413   5.578   5.619   5.603
 3505SOL    HW111414   5.507   5.683   5.573
 3505SOL    HW211415   5.665   5.643   5.560
 3506SOL     OW11416   5.894   4.550   4.760
 3506SOL    HW111417   5.978   4.502   4.786
 3506SOL    HW211418   5.822   4.483   4.741
 3507SOL     OW11419   2.245   6.725   0.766
 3507SOL    HW111420   2.247   6.824   0.777
 3507SOL    HW211421   2.154   6.691   0.790
 3508SOL     OW11422   3.439   2.642   6.181
 3508SOL    HW111423   3.514   2.705   6.161
 3508SOL    HW211424   3.463   2.585   6.259
 3509SOL     OW11425   5.565   6.764   0.115
 3509SOL    HW111426   5.609   6.734   0.199
 3509SOL    HW211427   5.554   6.686   0.053
 3510SOL     OW11428   2.032   0.911   1.376
 3510SOL    HW111429   1.998   0.977   1.308
 3510SOL    HW211430   2.119   0.873   1.344
 3511SOL     OW11431   1.929   4.761   1.574
 3511SOL    HW111432   2.010   4.718   1.613
 3511SOL    HW211433   1.847   4.715   1.606
 3512SOL     OW11434   0.904   3.701   0.669
 3512SOL    HW111435   0.846   3.653   0.603
 3512SOL    HW211436   0.885   3.799   0.665
 3513SOL     OW11437   6.292   2.031   1.626
 3513SOL    HW111438   6.351   1.957   1.595
 3513SOL    HW211439   6.196   2.006   1.613
 3514SOL     OW11440   5.691   0.974   2.393
 3514SOL    HW111441   5.777   0.932   2.367
 3514SOL    HW211442   5.708   1.063   2.435
 3515SOL     OW11443   5.297   6.108   3.899
 3515SOL    HW111444   5.344   6.043   3.959
 3515SOL    HW211445   5.200   6.087   3.896
 3516SOL     OW11446   5.133   6.726   1.254
 3516SOL    HW111447   5.076   6.682   1.323
 3516SOL    HW211448   5.160   6.658   1.186
 3517SOL     OW11449   0.509   1.015   1.173
 3517SOL    HW111450   0.511   0.976   1.265
 3517SOL    HW211451   0.425   1.068   1.161
 3518SOL     OW11452   5.188   2.174   5.030
 3518SOL    HW111453   5.251   2.163   5.107
 3518SOL    HW211454   5.098   2.201   5.064
 3519SOL     OW11455   2.535   1.116   6.700
 3519SOL    HW111456   2.538   1.050   6.776
 3519SOL    HW211457   2.588   1.197   6.725
 3520SOL     OW11458   3.738   6.474   6.895
 3520SOL    HW111459   3.681   6.440   6.970
 3520SOL    HW211460   3.832   6.486   6.928
 3521SOL     OW11461   3.481   2.682   6.483
 3521SOL    HW111462   3.381   2.681   6.492
 3521SOL    HW211463   3.512   2.777   6.473
 3522SOL     OW11464   6.425   4.851   6.753
 3522SOL    HW111465   6.405   4.849   6.851
 3522SOL    HW211466   6.383   4.932   6.712
 3523SOL     OW11467   1.030   4.204   5.591
 3523SOL    HW111468   0.991   4.208   5.683
 3523SOL    HW211469   0.989   4.129   5.540
 3524SOL     OW11470   4.999   1.855   2.429
 3524SOL    HW111471   5.095   1.834   2.448
 3524SOL    HW211472   4.984   1.858   2.330
 3525SOL     OW11473   5.938   3.380   4.206
 3525SOL    HW111474   5.909   3.462   4.255
 3525SOL    HW211475   6.010   3.334   4.258
 3526SOL     OW11476   2.127   6.307   3.179
 3526SOL    HW111477   2.082   6.397   3.178
 3526SOL    HW211478   2.066   6.239   3.220
 3527SOL     OW11479   6.244   3.268   6.148
 3527SOL    HW111480   6.152   3.234   6.164
 3527SOL    HW211481   6.291   3.279   6.236
 3528SOL     OW11482   2.326   6.320   4.754
 3528SOL    HW111483   2.347   6.299   4.659
 3528SOL    HW211484   2.409   6.312   4.809
 3529SOL     OW11485   4.180   6.852   6.754
 3529SOL    HW111486   4.218   6.797   6.829
 3529SOL    HW211487   4.131   6.930   6.792
 3530SOL     OW11488   6.935   4.997   1.439
 3530SOL    HW111489   6.892   5.036   1.520
 3530SOL    HW211490   0.015   4.999   1.449
 3531SOL     OW11491   5.711   2.303   1.622
 3531SOL    HW111492   5.744   2.216   1.658
 3531SOL    HW211493   5.788   2.359   1.592
 3532SOL     OW11494   2.645   0.933   1.837
 3532SOL    HW111495   2.702   0.960   1.759
 3532SOL    HW211496   2.578   1.005   1.855
 3533SOL     OW11497   0.803   1.854   2.507
 3533SOL    HW111498   0.813   1.824   2.413
 3533SOL    HW211499   0.762   1.945   2.509
 3534SOL     OW11500   0.675   1.920   1.795
 3534SOL    HW111501   0.654   1.894   1.701
 3534SOL    HW211502   0.602   1.889   1.856
 3535SOL     OW11503   2.818   5.580   5.465
 3535SOL    HW111504   2.876   5.500   5.454
 3535SOL    HW211505   2.728   5.561   5.427
 3536SOL     OW11506   3.291   1.704   2.931
 3536SOL    HW111507   3.318   1.670   3.021
 3536SOL    HW211508   3.351   1.664   2.861
 3537SOL     OW11509   1.420   5.719   1.939
 3537SOL    HW111510   1.385   5.672   1.858
 3537SOL    HW211511   1.469   5.654   1.996
 3538SOL     OW11512   3.449   5.509   5.891
 3538SOL    HW111513   3.544   5.499   5.859
 3538SOL    HW211514   3.392   5.439   5.848
 3539SOL     OW11515   3.497   3.685   4.377
 3539SOL    HW111516   3.581   3.688   4.323
 3539SOL    HW211517   3.520   3.678   4.474
 3540SOL     OW11518   2.298   2.320   4.588
 3540SOL    HW111519   2.391   2.355   4.600
 3540SOL    HW211520   2.278   2.311   4.490
 3541SOL     OW11521   2.844   2.781   5.407
 3541SOL    HW111522   2.752   2.820   5.398
 3541SOL    HW211523   2.908   2.852   5.435
 3542SOL     OW11524   1.440   5.345   2.969
 3542SOL    HW111525   1.446   5.317   2.873
 3542SOL    HW211526   1.531   5.369   3.002
 3543SOL     OW11527   5.933   2.904   3.891
 3543SOL    HW111528   5.863   2.909   3.819
 3543SOL    HW211529   5.910   2.968   3.964
 3544SOL     OW11530   2.108   4.318   6.757
 3544SOL    HW111531   2.038   4.254   6.789
 3544SOL    HW211532   2.154   4.281   6.676
 3545SOL     OW11533   4.143   6.461   6.023
 3545SOL    HW111534   4.077   6.447   6.097
 3545SOL    HW211535   4.100   6.441   5.935
 3546SOL     OW11536   0.505   5.415   3.353
 3546SOL    HW111537   0.446   5.363   3.291
 3546SOL    HW211538   0.507   5.370   3.442
 3547SOL     OW11539   4.403   5.030   3.610
 3547SOL    HW111540   4.498   5.048   3.584
 3547SOL    HW211541   4.344   5.040   3.530
 3548SOL     OW11542   5.095   2.208   5.857
 3548SOL    HW111543   5.040   2.285   5.889
 3548SOL    HW211544   5.165   2.241   5.795
 3549SOL     OW11545   6.788   4.745   4.373
 3549SOL    HW111546   6.781   4.694   4.288
 3549SOL    HW211547   6.837   4.831   4.356
 3550SOL     OW11548   5.243   2.319   2.932
 3550SOL    HW111549   5.300   2.249   2.974
 3550SOL    HW211550   5.157   2.278   2.902
 3551SOL     OW11551   3.698   6.396   3.079
 3551SOL    HW111552   3.699   6.384   2.980
 3551SOL    HW211553   3.753   6.324   3.122
 3552SOL     OW11554   4.744   5.966   2.511
 3552SOL    HW111555   4.753   5.972   2.611
 3552SOL    HW211556   4.648   5.952   2.487
 3553SOL     OW11557   5.936   2.848   2.390
 3553SOL    HW111558   5.922   2.845   2.291
 3553SOL    HW211559   6.033   2.834   2.409
 3554SOL     OW11560   4.079   3.703   0.201
 3554SOL    HW111561   3.997   3.754   0.177
 3554SOL    HW211562   4.102   3.721   0.297
 3555SOL     OW11563   0.532   3.349   3.014
 3555SOL    HW111564   0.441   3.387   3.000
 3555SOL    HW211565   0.601   3.420   2.999
 3556SOL     OW11566   3.547   0.316   5.254
 3556SOL    HW111567   3.602   0.239   5.287
 3556SOL    HW211568   3.455   0.311   5.293
 3557SOL     OW11569   0.976   0.390   4.415
 3557SOL    HW111570   0.927   0.447   4.348
 3557SOL    HW211571   1.046   0.337   4.368
 3558SOL     OW11572   7.010   5.813   1.605
 3558SOL    HW111573   0.064   5.780   1.664
 3558SOL    HW211574   7.015   5.767   1.516
 3559SOL     OW11575   0.497   0.366   4.719
 3559SOL    HW111576   0.500   0.427   4.798
 3559SOL    HW211577   0.590   0.344   4.690
 3560SOL     OW11578   1.320   5.930   0.949
 3560SOL    HW111579   1.346   6.012   1.001
 3560SOL    HW211580   1.281   5.862   1.012
 3561SOL     OW11581   5.009   4.978   5.767
 3561SOL    HW111582   5.040   5.044   5.699
 3561SOL    HW211583   5.055   4.995   5.854
 3562SOL     OW11584   4.938   0.732   4.074
 3562SOL    HW111585   4.840   0.751   4.079
 3562SOL    HW211586   4.963   0.713   3.979
 3563SOL     OW11587   5.334   1.010   1.591
 3563SOL    HW111588   5.388   1.048   1.667
 3563SOL    HW211589   5.349   1.066   1.510
 3564SOL     OW11590   1.071   4.362   4.438
 3564SOL    HW111591   1.114   4.378   4.349
 3564SOL    HW211592   1.074   4.446   4.492
 3565SOL     OW11593   3.151   6.131   5.241
 3565SOL    HW111594   3.159   6.048   5.296
 3565SOL    HW211595   3.207   6.122   5.158
 3566SOL     OW11596   6.672   3.472   5.881
 3566SOL    HW111597   6.589   3.423   5.909
 3566SOL    HW211598   6.714   3.515   5.961
 3567SOL     OW11599   1.275   2.337   0.634
 3567SOL    HW111600   1.196   2.289   0.671
 3567SOL    HW211601   1.251   2.379   0.547
 3568SOL     OW11602   5.321   4.918   2.416
 3568SOL    HW111603   5.227   4.917   2.383
 3568SOL    HW211604   5.336   4.838   2.474
 3569SOL     OW11605   3.003   3.173   5.233
 3569SOL    HW111606   3.046   3.261   5.250
 3569SOL    HW211607   3.036   3.136   5.146
 3570SOL     OW11608   5.885   1.034   5.438
 3570SOL    HW111609   5.953   0.964   5.461
 3570SOL    HW211610   5.894   1.112   5.499
 3571SOL     OW11611   1.677   0.907   4.875
 3571SOL    HW111612   1.740   0.983   4.889
 3571SOL    HW211613   1.672   0.850   4.957
 3572SOL     OW11614   4.986   4.209   2.811
 3572SOL    HW111615   4.920   4.184   2.740
 3572SOL    HW211616   4.964   4.160   2.895
 3573SOL     OW11617   6.581   4.818   2.454
 3573SOL    HW111618   6.484   4.838   2.468
 3573SOL    HW211619   6.597   4.797   2.357
 3574SOL     OW11620   2.396   3.111   6.683
 3574SOL    HW111621   2.317   3.055   6.659
 3574SOL    HW211622   2.368   3.206   6.693
 3575SOL     OW11623   4.884   5.270   0.564
 3575SOL    HW111624   4.912   5.334   0.636
 3575SOL    HW211625   4.927   5.181   0.580
 3576SOL     OW11626   0.500   2.495   0.250
 3576SOL    HW111627   0.521   2.403   0.215
 3576SOL    HW211628   0.412   2.525   0.212
 3577SOL     OW11629   2.486   2.879   5.678
 3577SOL    HW111630   2.463   2.821   5.599
 3577SOL    HW211631   2.515   2.821   5.754
 3578SOL     OW11632   2.943   2.948   0.896
 3578SOL    HW111633   2.949   2.925   0.994
 3578SOL    HW211634   3.035   2.952   0.857
 3579SOL     OW11635   0.453   3.710   2.394
 3579SOL    HW111636   0.548   3.690   2.368
 3579SOL    HW211637   0.446   3.714   2.493
 3580SOL     OW11638   0.355   3.288   1.259
 3580SOL    HW111639   0.351   3.388   1.259
 3580SOL    HW211640   0.447   3.259   1.233
 3581SOL     OW11641   0.679   0.272   3.353
 3581SOL    HW111642   0.770   0.230   3.359
 3581SOL    HW211643   0.610   0.201   3.343
 3582SOL     OW11644   3.309   4.439   5.935
 3582SOL    HW111645   3.268   4.419   5.846
 3582SOL    HW211646   3.245   4.494   5.989
 3583SOL     OW11647   0.450   4.403   0.872
 3583SOL    HW111648   0.367   4.428   0.923
 3583SOL    HW211649   0.486   4.484   0.825
 3584SOL     OW11650   5.963   4.581   5.404
 3584SOL    HW111651   5.958   4.568   5.503
 3584SOL    HW211652   6.055   4.612   5.379
 3585SOL     OW11653   2.611   2.142   4.649
 3585SOL    HW111654   2.596   2.075   4.576
 3585SOL    HW211655   2.528   2.152   4.702
 3586SOL     OW11656   6.377   3.207   3.635
 3586SOL    HW111657   6.342   3.213   3.542
 3586SOL    HW211658   6.304   3.176   3.697
 3587SOL     OW11659   3.831   6.514   6.589
 3587SOL    HW111660   3.871   6.426   6.562
 3587SOL    HW211661   3.779   6.503   6.673
 3588SOL     OW11662   6.514   4.478   4.173
 3588SOL    HW111663   6.611   4.494   4.153
 3588SOL    HW211664   6.505   4.398   4.233
 3589SOL     OW11665   0.227   6.781   5.465
 3589SOL    HW111666   0.241   6.810   5.560
 3589SOL    HW211667   0.179   6.693   5.464
 3590SOL     OW11668   0.122   4.191   0.469
 3590SOL    HW111669   0.081   4.102   0.491
 3590SOL    HW211670   0.053   4.263   0.481
 3591SOL     OW11671   5.417   3.124   6.465
 3591SOL    HW111672   5.506   3.079   6.466
 3591SOL    HW211673   5.430   3.223   6.450
 3592SOL     OW11674   1.743   0.445   2.226
 3592SOL    HW111675   1.790   0.374   2.174
 3592SOL    HW211676   1.749   0.425   2.323
 3593SOL     OW11677   6.594   4.156   5.248
 3593SOL    HW111678   6.650   4.114   5.319
 3593SOL    HW211679   6.539   4.229   5.288
 3594SOL     OW11680   4.229   5.719   5.219
 3594SOL    HW111681   4.258   5.741   5.126
 3594SOL    HW211682   4.143   5.768   5.240
 3595SOL     OW11683   5.703   5.824   0.033
 3595SOL    HW111684   5.683   5.757   0.104
 3595SOL    HW211685   5.678   5.915   0.064
 3596SOL     OW11686   4.366   1.861   3.399
 3596SOL    HW111687   4.346   1.893   3.307
 3596SOL    HW211688   4.290   1.807   3.433
 3597SOL     OW11689   1.949   3.050   5.314
 3597SOL    HW111690   2.019   3.108   5.354
 3597SOL    HW211691   1.986   2.960   5.295
 3598SOL     OW11692   1.389   5.894   5.321
 3598SOL    HW111693   1.456   5.850   5.261
 3598SOL    HW211694   1.389   5.992   5.306
 3599SOL     OW11695   4.568   2.026   6.495
 3599SOL    HW111696   4.643   2.054   6.555
 3599SOL    HW211697   4.594   1.944   6.445
 3600SOL     OW11698   2.463   3.669   0.559
 3600SOL    HW111699   2.481   3.610   0.480
 3600SOL    HW211700   2.408   3.619   0.626
 3601SOL     OW11701   5.301   1.541   5.111
 3601SOL    HW111702   5.276   1.530   5.015
 3601SOL    HW211703   5.345   1.457   5.144
 3602SOL     OW11704   2.020   2.764   1.655
 3602SOL    HW111705   2.108   2.757   1.608
 3602SOL    HW211706   1.948   2.722   1.599
 3603SOL     OW11707   3.100   0.588   6.027
 3603SOL    HW111708   3.114   0.553   5.935
 3603SOL    HW211709   3.010   0.559   6.060
 3604SOL     OW11710   0.254   0.709   3.443
 3604SOL    HW111711   0.267   0.627   3.387
 3604SOL    HW211712   0.269   0.686   3.539
 3605SOL     OW11713   0.990   5.345   3.358
 3605SOL    HW111714   0.964   5.249   3.369
 3605SOL    HW211715   0.926   5.389   3.296
 3606SOL     OW11716   1.767   6.183   1.578
 3606SOL    HW111717   1.686   6.129   1.555
 3606SOL    HW211718   1.759   6.217   1.672
 3607SOL     OW11719   5.168   2.670   2.847
 3607SOL    HW111720   5.164   2.726   2.929
 3607SOL    HW211721   5.254   2.685   2.799
 3608SOL     OW11722   4.236   1.923   3.895
 3608SOL    HW111723   4.229   1.974   3.809
 3608SOL    HW211724   4.178   1.967   3.964
 3609SOL     OW11725   2.547   6.388   4.303
 3609SOL    HW111726   2.546   6.485   4.327
 3609SOL    HW211727   2.493   6.374   4.220
 3610SOL     OW11728   2.038   0.238   5.430
 3610SOL    HW111729   1.961   0.273   5.377
 3610SOL    HW211730   2.014   0.239   5.527
 3611SOL     OW11731   4.732   4.592   4.456
 3611SOL    HW111732   4.786   4.635   4.384
 3611SOL    HW211733   4.782   4.514   4.494
 3612SOL     OW11734   6.186   1.143   6.509
 3612SOL    HW111735   6.266   1.132   6.567
 3612SOL    HW211736   6.145   1.053   6.492
 3613SOL     OW11737   3.386   5.218   1.158
 3613SOL    HW111738   3.402   5.172   1.245
 3613SOL    HW211739   3.474   5.243   1.117
 3614SOL     OW11740   3.423   3.924   6.709
 3614SOL    HW111741   3.460   3.956   6.796
 3614SOL    HW211742   3.478   3.961   6.634
 3615SOL     OW11743   5.838   2.874   5.786
 3615SOL    HW111744   5.920   2.822   5.762
 3615SOL    HW211745   5.836   2.959   5.735
 3616SOL     OW11746   2.160   1.932   6.606
 3616SOL    HW111747   2.183   1.958   6.700
 3616SOL    HW211748   2.112   2.007   6.561
 3617SOL     OW11749   4.269   7.000   5.683
 3617SOL    HW111750   4.324   6.962   5.608
 3617SOL    HW211751   4.174   7.007   5.654
 3618SOL     OW11752   1.626   3.569   4.621
 3618SOL    HW111753   1.635   3.630   4.542
 3618SOL    HW211754   1.678   3.607   4.698
 3619SOL     OW11755   5.976   2.667   0.925
 3619SOL    HW111756   6.059   2.656   0.979
 3619SOL    HW211757   5.896   2.664   0.986
 3620SOL     OW11758   5.998   6.305   4.483
 3620SOL    HW111759   5.992   6.228   4.548
 3620SOL    HW211760   6.047   6.381   4.526
 3621SOL     OW11761   3.714   3.350   4.281
 3621SOL    HW111762   3.665   3.358   4.194
 3621SOL    HW211763   3.652   3.312   4.350
 3622SOL     OW11764   0.691   0.155   0.958
 3622SOL    HW111765   0.744   0.102   0.892
 3622SOL    HW211766   0.674   0.100   1.039
 3623SOL     OW11767   1.188   5.775   5.991
 3623SOL    HW111768   1.261   5.829   6.035
 3623SOL    HW211769   1.189   5.792   5.893
 3624SOL     OW11770   3.012   0.780   1.831
 3624SOL    HW111771   3.024   0.872   1.867
 3624SOL    HW211772   3.033   0.779   1.733
 3625SOL     OW11773   6.483   2.612   6.786
 3625SOL    HW111774   6.402   2.653   6.743
 3625SOL    HW211775   6.499   2.521   6.748
 3626SOL     OW11776   0.556   3.313   4.779
 3626SOL    HW111777   0.485   3.303   4.710
 3626SOL    HW211778   0.513   3.324   4.869
 3627SOL     OW11779   4.766   2.912   1.299
 3627SOL    HW111780   4.710   2.988   1.333
 3627SOL    HW211781   4.708   2.847   1.250
 3628SOL     OW11782   1.241   1.489   1.921
 3628SOL    HW111783   1.222   1.392   1.907
 3628SOL    HW211784   1.323   1.514   1.870
 3629SOL     OW11785   0.630   1.579   4.193
 3629SOL    HW111786   0.622   1.678   4.203
 3629SOL    HW211787   0.614   1.535   4.282
 3630SOL     OW11788   6.727   2.940   3.477
 3630SOL    HW111789   6.827   2.947   3.480
 3630SOL    HW211790   6.700   2.899   3.390
 3631SOL     OW11791   1.657   6.396   2.678
 3631SOL    HW111792   1.630   6.435   2.766
 3631SOL    HW211793   1.757   6.390   2.673
 3632SOL     OW11794   4.117   3.609   0.776
 3632SOL    HW111795   4.127   3.525   0.723
 3632SOL    HW211796   4.194   3.670   0.757
 3633SOL     OW11797   3.744   2.488   6.046
 3633SOL    HW111798   3.735   2.581   6.011
 3633SOL    HW211799   3.808   2.437   5.988
 3634SOL     OW11800   2.929   5.721   6.007
 3634SOL    HW111801   2.964   5.636   5.967
 3634SOL    HW211802   2.953   5.726   6.104
 3635SOL     OW11803   2.690   0.671   1.856
 3635SOL    HW111804   2.633   0.631   1.928
 3635SOL    HW211805   2.673   0.769   1.851
 3636SOL     OW11806   0.855   5.583   0.069
 3636SOL    HW111807   0.954   5.572   0.080
 3636SOL    HW211808   0.809   5.501   0.101
 3637SOL     OW11809   0.396   2.916   6.864
 3637SOL    HW111810   0.492   2.923   6.893
 3637SOL    HW211811   0.337   2.911   6.945
 3638SOL     OW11812   5.729   4.384   2.543
 3638SOL    HW111813   5.798   4.417   2.479
 3638SOL    HW211814   5.761   4.299   2.585
 3639SOL     OW11815   4.009   3.773   4.880
 3639SOL    HW111816   3.941   3.716   4.834
 3639SOL    HW211817   3.991   3.869   4.861
 3640SOL     OW11818   5.459   2.847   0.432
 3640SOL    HW111819   5.540   2.796   0.461
 3640SOL    HW211820   5.457   2.852   0.333
 3641SOL     OW11821   6.623   3.772   1.521
 3641SOL    HW111822   6.551   3.756   1.589
 3641SOL    HW211823   6.685   3.694   1.520
 3642SOL     OW11824   5.972   1.983   6.563
 3642SOL    HW111825   5.945   1.893   6.598
 3642SOL    HW211826   5.926   2.054   6.616
 3643SOL     OW11827   4.584   5.914   6.150
 3643SOL    HW111828   4.624   6.001   6.121
 3643SOL    HW211829   4.484   5.922   6.148
 3644SOL     OW11830   3.410   0.602   2.003
 3644SOL    HW111831   3.316   0.596   2.036
 3644SOL    HW211832   3.461   0.667   2.059
 3645SOL     OW11833   1.588   3.926   4.478
 3645SOL    HW111834   1.601   4.012   4.528
 3645SOL    HW211835   1.676   3.896   4.442
 3646SOL     OW11836   2.675   4.739   4.775
 3646SOL    HW111837   2.734   4.706   4.848
 3646SOL    HW211838   2.613   4.666   4.746
 3647SOL     OW11839   1.815   6.990   0.146
 3647SOL    HW111840   1.719   6.961   0.140
 3647SOL    HW211841   1.845   6.986   0.241
 3648SOL     OW11842   5.157   5.530   3.162
 3648SOL    HW111843   5.144   5.447   3.106
 3648SOL    HW211844   5.087   5.597   3.139
 3649SOL     OW11845   5.152   3.647   0.505
 3649SOL    HW111846   5.173   3.725   0.446
 3649SOL    HW211847   5.061   3.611   0.482
 3650SOL     OW11848   4.845   4.521   0.659
 3650SOL    HW111849   4.897   4.542   0.576
 3650SOL    HW211850   4.776   4.592   0.673
 3651SOL     OW11851   1.365   2.365   6.072
 3651SOL    HW111852   1.401   2.421   6.146
 3651SOL    HW211853   1.265   2.362   6.079
 3652SOL     OW11854   4.999   1.343   1.884
 3652SOL    HW111855   4.927   1.274   1.887
 3652SOL    HW211856   5.022   1.363   1.788
 3653SOL     OW11857   0.720   1.391   2.088
 3653SOL    HW111858   0.703   1.390   2.187
 3653SOL    HW211859   0.803   1.338   2.069
 3654SOL     OW11860   4.980   0.442   0.808
 3654SOL    HW111861   4.917   0.364   0.811
 3654SOL    HW211862   5.075   0.408   0.808
 3655SOL     OW11863   1.544   1.534   3.818
 3655SOL    HW111864   1.449   1.566   3.822
 3655SOL    HW211865   1.582   1.533   3.911
 3656SOL     OW11866   0.440   5.631   1.736
 3656SOL    HW111867   0.468   5.547   1.782
 3656SOL    HW211868   0.455   5.709   1.796
 3657SOL     OW11869   4.897   6.338   4.823
 3657SOL    HW111870   4.945   6.425   4.830
 3657SOL    HW211871   4.822   6.347   4.758
 3658SOL     OW11872   1.117   5.567   6.174
 3658SOL    HW111873   1.019   5.551   6.160
 3658SOL    HW211874   1.147   5.644   6.118
 3659SOL     OW11875   6.952   1.670   6.219
 3659SOL    HW111876   6.979   1.732   6.146
 3659SOL    HW211877   7.011   1.589   6.219
 3660SOL     OW11878   5.675   5.388   5.951
 3660SOL    HW111879   5.720   5.382   6.040
 3660SOL    HW211880   5.738   5.356   5.880
 3661SOL     OW11881   6.713   1.824   5.302
 3661SOL    HW111882   6.780   1.788   5.366
 3661SOL    HW211883   6.714   1.768   5.219
 3662SOL     OW11884   3.689   1.172   5.839
 3662SOL    HW111885   3.597   1.199   5.869
 3662SOL    HW211886   3.699   1.073   5.846
 3663SOL     OW11887   2.418   2.791   6.944
 3663SOL    HW111888   2.436   2.870   6.886
 3663SOL    HW211889   2.322   2.791   6.973
 3664SOL     OW11890   3.793   1.846   2.559
 3664SOL    HW111891   3.827   1.932   2.595
 3664SOL    HW211892   3.708   1.862   2.508
 3665SOL     OW11893   0.512   5.848   5.916
 3665SOL    HW111894   0.456   5.797   5.851
 3665SOL    HW211895   0.542   5.934   5.874
 3666SOL     OW11896   2.147   1.927   4.349
 3666SOL    HW111897   2.196   1.858   4.403
 3666SOL    HW211898   2.060   1.948   4.393
 3667SOL     OW11899   2.293   0.986   2.704
 3667SOL    HW111900   2.290   0.970   2.606
 3667SOL    HW211901   2.357   1.060   2.724
 3668SOL     OW11902   0.756   0.025   1.720
 3668SOL    HW111903   0.849   0.020   1.755
 3668SOL    HW211904   0.716   0.114   1.743
 3669SOL     OW11905   6.872   1.757   4.041
 3669SOL    HW111906   6.953   1.700   4.029
 3669SOL    HW211907   6.804   1.708   4.095
 3670SOL     OW11908   3.234   5.278   1.604
 3670SOL    HW111909   3.187   5.226   1.532
 3670SOL    HW211910   3.333   5.266   1.594
 3671SOL     OW11911   0.126   0.455   3.381
 3671SOL    HW111912   0.184   0.388   3.336
 3671SOL    HW211913   0.091   0.417   3.467
 3672SOL     OW11914   4.396   1.205   3.228
 3672SOL    HW111915   4.437   1.133   3.284
 3672SOL    HW211916   4.324   1.165   3.171
 3673SOL     OW11917   4.978   6.126   0.673
 3673SOL    HW111918   4.985   6.029   0.650
 3673SOL    HW211919   4.939   6.135   0.764
 3674SOL     OW11920   1.147   5.608   5.558
 3674SOL    HW111921   1.109   5.582   5.469
 3674SOL    HW211922   1.220   5.674   5.545
 3675SOL     OW11923   6.926   1.763   4.346
 3675SOL    HW111924   6.979   1.776   4.430
 3675SOL    HW211925   6.849   1.702   4.364
 3676SOL     OW11926   4.942   1.805   3.040
 3676SOL    HW111927   4.985   1.861   3.110
 3676SOL    HW211928   4.853   1.773   3.072
 3677SOL     OW11929   2.042   0.380   4.073
 3677SOL    HW111930   1.987   0.393   3.991
 3677SOL    HW211931   2.132   0.343   4.048
 3678SOL     OW11932   1.380   0.549   3.816
 3678SOL    HW111933   1.298   0.499   3.843
 3678SOL    HW211934   1.457   0.485   3.807
 3679SOL     OW11935   4.989   1.014   2.361
 3679SOL    HW111936   4.964   0.979   2.271
 3679SOL    HW211937   4.907   1.042   2.410
 3680SOL     OW11938   3.995   1.222   4.051
 3680SOL    HW111939   4.054   1.268   3.985
 3680SOL    HW211940   3.994   1.275   4.136
 3681SOL     OW11941   1.333   0.121   5.047
 3681SOL    HW111942   1.292   0.197   4.996
 3681SOL    HW211943   1.428   0.110   5.019
 3682SOL     OW11944   5.641   2.231   1.197
 3682SOL    HW111945   5.571   2.227   1.126
 3682SOL    HW211946   5.609   2.182   1.278
 3683SOL     OW11947   0.214   0.903   5.813
 3683SOL    HW111948   0.261   0.923   5.728
 3683SOL    HW211949   0.127   0.953   5.817
 3684SOL     OW11950   1.643   6.976   5.451
 3684SOL    HW111951   1.619   6.977   5.548
 3684SOL    HW211952   1.611   0.041   5.408
 3685SOL     OW11953   2.069   5.585   5.571
 3685SOL    HW111954   2.166   5.572   5.547
 3685SOL    HW211955   2.012   5.550   5.496
 3686SOL     OW11956   6.966   4.094   3.679
 3686SOL    HW111957   6.922   4.136   3.758
 3686SOL    HW211958   0.018   4.031   3.710
 3687SOL     OW11959   4.697   5.843   3.362
 3687SOL    HW111960   4.703   5.898   3.279
 3687SOL    HW211961   4.603   5.846   3.398
 3688SOL     OW11962   5.876   3.467   0.166
 3688SOL    HW111963   5.792   3.521   0.160
 3688SOL    HW211964   5.855   3.371   0.146
 3689SOL     OW11965   1.471   0.277   5.650
 3689SOL    HW111966   1.508   0.369   5.636
 3689SOL    HW211967   1.467   0.229   5.562
 3690SOL     OW11968   5.110   5.079   1.085
 3690SOL    HW111969   5.079   5.003   1.027
 3690SOL    HW211970   5.209   5.086   1.081
 3691SOL     OW11971   2.317   2.102   0.291
 3691SOL    HW111972   2.282   2.014   0.260
 3691SOL    HW211973   2.241   2.166   0.302
 3692SOL     OW11974   0.572   3.461   6.284
 3692SOL    HW111975   0.633   3.432   6.211
 3692SOL    HW211976   0.605   3.548   6.323
 3693SOL     OW11977   0.822   1.962   2.794
 3693SOL    HW111978   0.819   1.952   2.695
 3693SOL    HW211979   0.731   1.942   2.832
 3694SOL     OW11980   0.019   0.083   2.063
 3694SOL    HW111981   0.052   0.027   1.987
 3694SOL    HW211982   6.965   0.035   2.111
 3695SOL     OW11983   6.652   3.103   2.925
 3695SOL    HW111984   6.605   3.171   2.869
 3695SOL    HW211985   6.676   3.023   2.870
 3696SOL     OW11986   5.106   0.913   4.762
 3696SOL    HW111987   5.058   0.844   4.815
 3696SOL    HW211988   5.053   0.998   4.761
 3697SOL     OW11989   6.343   6.499   3.454
 3697SOL    HW111990   6.270   6.564   3.473
 3697SOL    HW211991   6.376   6.460   3.540
 3698SOL     OW11992   2.234   0.315   3.030
 3698SOL    HW111993   2.160   0.333   2.967
 3698SOL    HW211994   2.214   0.357   3.119
 3699SOL     OW11995   2.562   2.180   4.043
 3699SOL    HW111996   2.550   2.147   4.137
 3699SOL    HW211997   2.568   2.279   4.042
 3700SOL     OW11998   1.036   4.910   5.388
 3700SOL    HW111999   1.001   4.946   5.301
 3700SOL    HW212000   0.962   4.905   5.455
 3701SOL     OW12001   1.245   0.157   2.872
 3701SOL    HW112002   1.319   0.222   2.856
 3701SOL    HW212003   1.276   0.065   2.848
 3702SOL     OW12004   5.064   4.457   3.755
 3702SOL    HW112005   5.062   4.524   3.681
 3702SOL    HW212006   5.032   4.499   3.840
 3703SOL     OW12007   1.078   1.819   5.665
 3703SOL    HW112008   1.023   1.894   5.628
 3703SOL    HW212009   1.175   1.844   5.658
 3704SOL     OW12010   6.811   2.028   1.212
 3704SOL    HW112011   6.869   1.956   1.251
 3704SOL    HW212012   6.796   2.100   1.280
 3705SOL     OW12013   4.977   4.952   3.565
 3705SOL    HW112014   4.964   4.943   3.466
 3705SOL    HW212015   4.985   5.049   3.589
 3706SOL     OW12016   1.211   3.492   0.358
 3706SOL    HW112017   1.285   3.538   0.309
 3706SOL    HW212018   1.197   3.536   0.446
 3707SOL     OW12019   1.797   4.879   3.808
 3707SOL    HW112020   1.702   4.851   3.793
 3707SOL    HW212021   1.850   4.800   3.839
 3708SOL     OW12022   3.970   0.017   0.801
 3708SOL    HW112023   3.872   0.027   0.814
 3708SOL    HW212024   3.993   0.033   0.705
 3709SOL     OW12025   2.183   0.701   2.840
 3709SOL    HW112026   2.112   0.766   2.867
 3709SOL    HW212027   2.272   0.736   2.867
 3710SOL     OW12028   0.071   5.496   5.403
 3710SOL    HW112029   0.151   5.437   5.414
 3710SOL    HW212030   0.014   5.491   5.485
 3711SOL     OW12031   1.754   6.135   4.473
 3711SOL    HW112032   1.705   6.048   4.484
 3711SOL    HW212033   1.832   6.137   4.537
 3712SOL     OW12034   1.811   5.070   5.130
 3712SOL    HW112035   1.753   5.068   5.048
 3712SOL    HW212036   1.753   5.066   5.212
 3713SOL     OW12037   6.699   6.312   5.281
 3713SOL    HW112038   6.737   6.394   5.324
 3713SOL    HW212039   6.657   6.337   5.194
 3714SOL     OW12040   0.946   4.839   0.261
 3714SOL    HW112041   0.988   4.898   0.192
 3714SOL    HW212042   1.017   4.800   0.319
 3715SOL     OW12043   6.609   5.975   3.560
 3715SOL    HW112044   6.657   6.057   3.591
 3715SOL    HW212045   6.578   5.988   3.466
 3716SOL     OW12046   5.170   5.569   3.676
 3716SOL    HW112047   5.105   5.505   3.636
 3716SOL    HW212048   5.121   5.639   3.729
 3717SOL     OW12049   4.163   1.092   1.277
 3717SOL    HW112050   4.223   1.144   1.216
 3717SOL    HW212051   4.179   1.120   1.372
 3718SOL     OW12052   0.202   6.824   5.983
 3718SOL    HW112053   0.267   6.820   6.059
 3718SOL    HW212054   0.137   6.749   5.990
 3719SOL     OW12055   4.484   3.470   6.563
 3719SOL    HW112056   4.457   3.525   6.642
 3719SOL    HW212057   4.406   3.416   6.532
 3720SOL     OW12058   6.982   3.083   1.630
 3720SOL    HW112059   7.005   3.020   1.704
 3720SOL    HW212060   0.032   3.155   1.625
 3721SOL     OW12061   6.638   4.406   6.460
 3721SOL    HW112062   6.701   4.440   6.391
 3721SOL    HW212063   6.627   4.307   6.450
 3722SOL     OW12064   4.022   0.244   2.538
 3722SOL    HW112065   4.110   0.275   2.572
 3722SOL    HW212066   3.965   0.212   2.614
 3723SOL     OW12067   4.510   5.156   6.424
 3723SOL    HW112068   4.510   5.213   6.506
 3723SOL    HW212069   4.587   5.091   6.429
 3724SOL     OW12070   1.465   4.840   4.773
 3724SOL    HW112071   1.547   4.795   4.738
 3724SOL    HW212072   1.416   4.778   4.834
 3725SOL     OW12073   0.571   0.019   6.577
 3725SOL    HW112074   0.558   6.949   6.535
 3725SOL    HW212075   0.660   0.021   6.623
 3726SOL     OW12076   5.665   3.489   3.759
 3726SOL    HW112077   5.670   3.517   3.663
 3726SOL    HW212078   5.756   3.464   3.791
 3727SOL     OW12079   0.190   3.241   4.205
 3727SOL    HW112080   0.092   3.226   4.212
 3727SOL    HW212081   0.235   3.155   4.179
 3728SOL     OW12082   3.229   3.597   6.947
 3728SOL    HW112083   3.164   3.540   6.897
 3728SOL    HW212084   3.272   3.544   0.001
 3729SOL     OW12085   0.833   0.126   5.576
 3729SOL    HW112086   0.860   0.151   5.669
 3729SOL    HW212087   0.860   0.032   5.557
 3730SOL     OW12088   3.991   5.970   5.884
 3730SOL    HW112089   4.075   5.937   5.841
 3730SOL    HW212090   3.947   5.895   5.934
 3731SOL     OW12091   0.573   2.227   6.183
 3731SOL    HW112092   0.521   2.153   6.228
 3731SOL    HW212093   0.664   2.233   6.224
 3732SOL     OW12094   2.502   1.951   6.914
 3732SOL    HW112095   2.536   1.877   6.973
 3732SOL    HW212096   2.503   2.037   6.964
 3733SOL     OW12097   1.881   2.153   3.684
 3733SOL    HW112098   1.974   2.118   3.673
 3733SOL    HW212099   1.831   2.143   3.598
 3734SOL     OW12100   4.207   0.028   1.438
 3734SOL    HW112101   4.216   0.103   1.373
 3734SOL    HW212102   4.256   0.051   1.523
 3735SOL     OW12103   4.332   0.264   2.437
 3735SOL    HW112104   4.369   0.357   2.436
 3735SOL    HW212105   4.258   0.257   2.370
 3736SOL     OW12106   6.927   1.097   1.391
 3736SOL    HW112107   6.840   1.121   1.434
 3736SOL    HW212108   6.990   1.175   1.396
 3737SOL     OW12109   0.397   2.375   3.369
 3737SOL    HW112110   0.478   2.316   3.366
 3737SOL    HW212111   0.331   2.337   3.433
 3738SOL     OW12112   6.486   6.328   0.851
 3738SOL    HW112113   6.452   6.298   0.762
 3738SOL    HW212114   6.539   6.254   0.893
 3739SOL     OW12115   2.995   4.901   0.986
 3739SOL    HW112116   3.067   4.966   1.011
 3739SOL    HW212117   2.986   4.897   0.886
 3740SOL     OW12118   5.599   5.101   6.893
 3740SOL    HW112119   5.669   5.054   6.839
 3740SOL    HW212120   5.639   5.133   6.979
 3741SOL     OW12121   5.210   2.605   0.581
 3741SOL    HW112122   5.262   2.679   0.623
 3741SOL    HW212123   5.246   2.586   0.490
 3742SOL     OW12124   3.799   5.951   0.264
 3742SOL    HW112125   3.787   5.977   0.360
 3742SOL    HW212126   3.781   6.031   0.206
 3743SOL     OW12127   4.005   3.628   1.284
 3743SOL    HW112128   4.064   3.660   1.358
 3743SOL    HW212129   4.061   3.579   1.216
 3744SOL     OW12130   0.206   6.328   2.298
 3744SOL    HW112131   0.133   6.331   2.230
 3744SOL    HW212132   0.284   6.382   2.265
 3745SOL     OW12133   4.826   3.829   2.511
 3745SOL    HW112134   4.889   3.794   2.443
 3745SOL    HW212135   4.738   3.782   2.502
 3746SOL     OW12136   6.744   0.567   3.839
 3746SOL    HW112137   6.797   0.651   3.825
 3746SOL    HW212138   6.657   0.573   3.789
 3747SOL     OW12139   4.371   6.540   6.162
 3747SOL    HW112140   4.344   6.615   6.222
 3747SOL    HW212141   4.289   6.498   6.123
 3748SOL     OW12142   5.532   1.253   2.592
 3748SOL    HW112143   5.463   1.316   2.558
 3748SOL    HW212144   5.506   1.221   2.683
 3749SOL     OW12145   0.139   5.803   3.126
 3749SOL    HW112146   0.051   5.795   3.080
 3749SOL    HW212147   0.133   5.764   3.218
 3750SOL     OW12148   5.682   4.010   6.886
 3750SOL    HW112149   5.644   4.040   6.798
 3750SOL    HW212150   5.648   4.068   6.959
 3751SOL     OW12151   1.891   3.378   1.504
 3751SOL    HW112152   1.826   3.316   1.460
 3751SOL    HW212153   1.969   3.325   1.538
 3752SOL     OW12154   0.639   0.354   6.372
 3752SOL    HW112155   0.613   0.404   6.289
 3752SOL    HW212156   0.678   0.418   6.438
 3753SOL     OW12157   0.135   6.027   4.652
 3753SOL    HW112158   0.053   6.085   4.643
 3753SOL    HW212159   0.138   5.988   4.744
 3754SOL     OW12160   5.653   6.305   1.271
 3754SOL    HW112161   5.637   6.228   1.333
 3754SOL    HW212162   5.749   6.306   1.244
 3755SOL     OW12163   5.091   3.968   3.936
 3755SOL    HW112164   5.069   4.062   3.958
 3755SOL    HW212165   5.010   3.911   3.948
 3756SOL     OW12166   1.655   1.981   6.105
 3756SOL    HW112167   1.576   2.042   6.104
 3756SOL    HW212168   1.738   2.036   6.113
 3757SOL     OW12169   3.383   5.882   6.783
 3757SOL    HW112170   3.283   5.886   6.776
 3757SOL    HW212171   3.417   5.970   6.817
 3758SOL     OW12172   1.962   0.930   4.151
 3758SOL    HW112173   1.940   0.866   4.225
 3758SOL    HW212174   2.036   0.892   4.095
 3759SOL     OW12175   5.138   4.512   5.883
 3759SOL    HW112176   5.160   4.486   5.977
 3759SOL    HW212177   5.054   4.464   5.854
 3760SOL     OW12178   1.714   2.469   4.579
 3760SOL    HW112179   1.745   2.545   4.636
 3760SOL    HW212180   1.743   2.483   4.485
 3761SOL     OW12181   0.502   6.267   4.887
 3761SOL    HW112182   0.560   6.348   4.878
 3761SOL    HW212183   0.551   6.187   4.851
 3762SOL     OW12184   0.695   4.324   0.063
 3762SOL    HW112185   0.652   4.411   0.089
 3762SOL    HW212186   0.632   4.249   0.081
 3763SOL     OW12187   5.994   2.704   6.443
 3763SOL    HW112188   6.012   2.724   6.539
 3763SOL    HW212189   5.924   2.633   6.436
 3764SOL     OW12190   2.631   0.190   4.075
 3764SOL    HW112191   2.617   0.231   4.166
 3764SOL    HW212192   2.589   0.248   4.006
 3765SOL     OW12193   5.490   0.642   3.238
 3765SOL    HW112194   5.541   0.706   3.295
 3765SOL    HW212195   5.441   0.691   3.166
 3766SOL     OW12196   0.123   1.007   4.277
 3766SOL    HW112197   0.187   1.038   4.206
 3766SOL    HW212198   0.034   1.049   4.262
 3767SOL     OW12199   1.749   4.984   6.555
 3767SOL    HW112200   1.666   5.017   6.510
 3767SOL    HW212201   1.767   4.890   6.527
 3768SOL     OW12202   4.687   6.690   6.791
 3768SOL    HW112203   4.739   6.728   6.868
 3768SOL    HW212204   4.729   6.719   6.705
 3769SOL     OW12205   5.357   6.304   5.224
 3769SOL    HW112206   5.363   6.228   5.289
 3769SOL    HW212207   5.445   6.313   5.176
 3770SOL     OW12208   2.289   1.197   6.466
 3770SOL    HW112209   2.193   1.177   6.447
 3770SOL    HW212210   2.297   1.246   6.552
 3771SOL     OW12211   5.238   2.387   6.725
 3771SOL    HW112212   5.223   2.299   6.681
 3771SOL    HW212213   5.152   2.419   6.766
 3772SOL     OW12214   5.908   0.871   1.346
 3772SOL    HW112215   5.898   0.934   1.270
 3772SOL    HW212216   5.843   0.896   1.418
 3773SOL     OW12217   6.149   2.707   5.824
 3773SOL    HW112218   6.120   2.612   5.828
 3773SOL    HW212219   6.141   2.749   5.915
 3774SOL     OW12220   0.301   0.523   7.011
 3774SOL    HW112221   0.307   0.579   6.929
 3774SOL    HW212222   0.265   0.433   6.987
 3775SOL     OW12223   5.247   3.534   3.497
 3775SOL    HW112224   5.226   3.559   3.403
 3775SOL    HW212225   5.344   3.508   3.503
 3776SOL     OW12226   2.254   2.737   1.543
 3776SOL    HW112227   2.340   2.786   1.556
 3776SOL    HW212228   2.273   2.644   1.511
 3777SOL     OW12229   2.823   5.322   4.388
 3777SOL    HW112230   2.826   5.362   4.296
 3777SOL    HW212231   2.865   5.232   4.387
 3778SOL     OW12232   3.039   5.684   1.894
 3778SOL    HW112233   3.003   5.673   1.801
 3778SOL    HW212234   2.973   5.649   1.960
 3779SOL     OW12235   2.663   4.581   6.822
 3779SOL    HW112236   2.686   4.566   6.726
 3779SOL    HW212237   2.731   4.535   6.880
 3780SOL     OW12238   3.057   5.977   5.523
 3780SOL    HW112239   3.104   5.995   5.609
 3780SOL    HW212240   3.115   5.922   5.464
 3781SOL     OW12241   3.555   6.762   4.528
 3781SOL    HW112242   3.493   6.686   4.508
 3781SOL    HW212243   3.643   6.725   4.557
 3782SOL     OW12244   1.974   1.628   4.188
 3782SOL    HW112245   2.055   1.684   4.169
 3782SOL    HW212246   2.002   1.544   4.234
 3783SOL     OW12247   5.384   6.518   4.855
 3783SOL    HW112248   5.347   6.570   4.932
 3783SOL    HW212249   5.466   6.563   4.820
 3784SOL     OW12250   5.636   1.124   3.258
 3784SOL    HW112251   5.607   1.218   3.239
 3784SOL    HW212252   5.593   1.092   3.342
 3785SOL     OW12253   2.477   2.118   0.992
 3785SOL    HW112254   2.543   2.192   1.003
 3785SOL    HW212255   2.511   2.036   1.039
 3786SOL     OW12256   2.750   5.205   3.114
 3786SOL    HW112257   2.846   5.179   3.107
 3786SOL    HW212258   2.705   5.148   3.183
 3787SOL     OW12259   4.806   1.078   4.145
 3787SOL    HW112260   4.901   1.055   4.163
 3787SOL    HW212261   4.799   1.174   4.119
 3788SOL     OW12262   6.344   3.031   2.758
 3788SOL    HW112263   6.415   2.989   2.702
 3788SOL    HW212264   6.347   3.131   2.747
 3789SOL     OW12265   1.500   4.811   3.895
 3789SOL    HW112266   1.448   4.892   3.864
 3789SOL    HW212267   1.500   4.743   3.823
 3790SOL     OW12268   1.761   3.205   4.280
 3790SOL    HW112269   1.668   3.241   4.288
 3790SOL    HW212270   1.803   3.202   4.371
 3791SOL     OW12271   5.342   6.735   1.576
 3791SOL    HW112272   5.421   6.735   1.636
 3791SOL    HW212273   5.335   6.648   1.528
 3792SOL     OW12274   6.033   6.308   5.103
 3792SOL    HW112275   6.038   6.351   5.193
 3792SOL    HW212276   6.074   6.217   5.107
 3793SOL     OW12277   2.040   1.650   2.243
 3793SOL    HW112278   1.957   1.634   2.191
 3793SOL    HW212279   2.028   1.729   2.303
 3794SOL     OW12280   4.428   6.333   1.908
 3794SOL    HW112281   4.512   6.372   1.947
 3794SOL    HW212282   4.353   6.399   1.919
 3795SOL     OW12283   4.870   0.854   6.480
 3795SOL    HW112284   4.821   0.942   6.479
 3795SOL    HW212285   4.945   0.858   6.546
 3796SOL     OW12286   1.237   2.123   1.930
 3796SOL    HW112287   1.175   2.046   1.948
 3796SOL    HW212288   1.217   2.197   1.995
 3797SOL     OW12289   1.019   5.149   2.289
 3797SOL    HW112290   1.009   5.207   2.370
 3797SOL    HW212291   1.115   5.147   2.261
 3798SOL     OW12292   2.382   4.823   2.671
 3798SOL    HW112293   2.364   4.889   2.598
 3798SOL    HW212294   2.453   4.859   2.732
 3799SOL     OW12295   1.796   1.423   5.365
 3799SOL    HW112296   1.714   1.478   5.349
 3799SOL    HW212297   1.867   1.448   5.299
 3800SOL     OW12298   5.235   2.288   4.801
 3800SOL    HW112299   5.224   2.247   4.891
 3800SOL    HW212300   5.322   2.259   4.761
 3801SOL     OW12301   6.733   5.821   6.016
 3801SOL    HW112302   6.664   5.754   6.042
 3801SOL    HW212303   6.816   5.773   5.987
 3802SOL     OW12304   1.002   1.948   4.762
 3802SOL    HW112305   0.995   1.848   4.769
 3802SOL    HW212306   1.088   1.972   4.717
 3803SOL     OW12307   4.053   6.893   1.683
 3803SOL    HW112308   4.117   6.889   1.760
 3803SOL    HW212309   4.077   6.970   1.625
 3804SOL     OW12310   4.438   2.113   4.314
 3804SOL    HW112311   4.440   2.213   4.319
 3804SOL    HW212312   4.386   2.077   4.391
 3805SOL     OW12313   3.003   4.217   1.749
 3805SOL    HW112314   2.981   4.310   1.776
 3805SOL    HW212315   2.927   4.178   1.697
 3806SOL     OW12316   2.921   2.630   0.423
 3806SOL    HW112317   3.004   2.653   0.473
 3806SOL    HW212318   2.941   2.627   0.325
 3807SOL     OW12319   0.804   6.747   4.179
 3807SOL    HW112320   0.874   6.679   4.199
 3807SOL    HW212321   0.727   6.703   4.134
 3808SOL     OW12322   3.562   6.886   1.900
 3808SOL    HW112323   3.623   6.962   1.925
 3808SOL    HW212324   3.563   6.817   1.972
 3809SOL     OW12325   5.841   1.660   0.014
 3809SOL    HW112326   5.866   1.633   0.107
 3809SOL    HW212327   5.755   1.616   7.009
 3810SOL     OW12328   3.315   3.240   5.434
 3810SOL    HW112329   3.369   3.156   5.427
 3810SOL    HW212330   3.336   3.300   5.357
 3811SOL     OW12331   0.584   4.888   4.638
 3811SOL    HW112332   0.600   4.791   4.618
 3811SOL    HW212333   0.486   4.908   4.628
 3812SOL     OW12334   6.262   1.551   5.462
 3812SOL    HW112335   6.268   1.546   5.561
 3812SOL    HW212336   6.337   1.607   5.426
 3813SOL     OW12337   3.251   5.594   0.425
 3813SOL    HW112338   3.248   5.628   0.330
 3813SOL    HW212339   3.221   5.499   0.427
 3814SOL     OW12340   6.799   5.838   2.137
 3814SOL    HW112341   6.719   5.849   2.078
 3814SOL    HW212342   6.866   5.908   2.116
 3815SOL     OW12343   5.581   2.179   1.903
 3815SOL    HW112344   5.670   2.134   1.896
 3815SOL    HW212345   5.539   2.182   1.812
 3816SOL     OW12346   0.003   6.739   2.013
 3816SOL    HW112347   0.084   6.768   1.961
 3816SOL    HW212348   7.011   6.640   2.005
 3817SOL     OW12349   4.719   2.005   4.326
 3817SOL    HW112350   4.658   2.070   4.371
 3817SOL    HW212351   4.732   1.925   4.384
 3818SOL     OW12352   4.485   5.922   2.403
 3818SOL    HW112353   4.458   6.010   2.442
 3818SOL    HW212354   4.460   5.918   2.307
 3819SOL     OW12355   5.255   4.923   0.419
 3819SOL    HW112356   5.164   4.962   0.405
 3819SOL    HW212357   5.258   4.876   0.507
 3820SOL     OW12358   4.694   5.809   3.786
 3820SOL    HW112359   4.678   5.896   3.739
 3820SOL    HW212360   4.726   5.826   3.879
 3821SOL     OW12361   1.562   3.451   1.961
 3821SOL    HW112362   1.624   3.434   1.884
 3821SOL    HW212363   1.488   3.384   1.959
 3822SOL     OW12364   2.484   5.132   1.263
 3822SOL    HW112365   2.390   5.100   1.265
 3822SOL    HW212366   2.542   5.068   1.313
 3823SOL     OW12367   3.752   2.735   5.952
 3823SOL    HW112368   3.834   2.742   5.894
 3823SOL    HW212369   3.671   2.737   5.894
 3824SOL     OW12370   6.251   1.880   6.032
 3824SOL    HW112371   6.257   1.878   6.132
 3824SOL    HW212372   6.226   1.788   5.999
 3825SOL     OW12373   0.542   6.463   5.651
 3825SOL    HW112374   0.451   6.482   5.688
 3825SOL    HW212375   0.572   6.539   5.594
 3826SOL     OW12376   6.714   3.463   1.446
 3826SOL    HW112377   6.661   3.380   1.462
 3826SOL    HW212378   6.807   3.451   1.482
 3827SOL     OW12379   3.641   3.468   0.750
 3827SOL    HW112380   3.542   3.465   0.764
 3827SOL    HW212381   3.684   3.397   0.805
 3828SOL     OW12382   4.415   2.471   1.960
 3828SOL    HW112383   4.444   2.493   1.867
 3828SOL    HW212384   4.495   2.474   2.021
 3829SOL     OW12385   2.724   5.268   3.583
 3829SOL    HW112386   2.790   5.322   3.531
 3829SOL    HW212387   2.772   5.211   3.649
 3830SOL     OW12388   2.515   0.316   4.920
 3830SOL    HW112389   2.538   0.387   4.854
 3830SOL    HW212390   2.558   0.336   5.007
 3831SOL     OW12391   4.355   1.856   2.869
 3831SOL    HW112392   4.354   1.926   2.797
 3831SOL    HW212393   4.353   1.765   2.827
 3832SOL     OW12394   6.708   0.860   1.737
 3832SOL    HW112395   6.755   0.845   1.650
 3832SOL    HW212396   6.612   0.884   1.720
 3833SOL     OW12397   0.799   4.898   0.942
 3833SOL    HW112398   0.892   4.863   0.935
 3833SOL    HW212399   0.795   4.969   1.013
 3834SOL     OW12400   2.980   1.679   0.691
 3834SOL    HW112401   2.908   1.616   0.662
 3834SOL    HW212402   3.002   1.662   0.787
 3835SOL     OW12403   3.860   5.769   6.025
 3835SOL    HW112404   3.878   5.672   6.011
 3835SOL    HW212405   3.771   5.780   6.070
 3836SOL     OW12406   1.593   3.956   6.136
 3836SOL    HW112407   1.684   3.944   6.175
 3836SOL    HW212408   1.541   4.021   6.191
 3837SOL     OW12409   4.354   3.774   0.495
 3837SOL    HW112410   4.437   3.822   0.522
 3837SOL    HW212411   4.366   3.736   0.403
 3838SOL     OW12412   5.857   2.137   4.498
 3838SOL    HW112413   5.937   2.174   4.544
 3838SOL    HW212414   5.851   2.038   4.515
 3839SOL     OW12415   5.539   6.250   5.740
 3839SOL    HW112416   5.520   6.278   5.834
 3839SOL    HW212417   5.516   6.325   5.678
 3840SOL     OW12418   1.800   1.299   3.606
 3840SOL    HW112419   1.787   1.219   3.548
 3840SOL    HW212420   1.719   1.313   3.663
 3841SOL     OW12421   1.035   3.898   4.967
 3841SOL    HW112422   1.122   3.947   4.965
 3841SOL    HW212423   0.967   3.950   4.914
 3842SOL     OW12424   0.671   4.996   0.236
 3842SOL    HW112425   0.733   4.929   0.275
 3842SOL    HW212426   0.648   5.064   0.306
 3843SOL     OW12427   5.921   3.124   0.732
 3843SOL    HW112428   5.882   3.216   0.724
 3843SOL    HW212429   5.851   3.057   0.711
 3844SOL     OW12430   2.078   4.949   5.927
 3844SOL    HW112431   2.112   4.863   5.890
 3844SOL    HW212432   2.012   4.989   5.863
 3845SOL     OW12433   3.438   3.848   3.293
 3845SOL    HW112434   3.517   3.807   3.248
 3845SOL    HW212435   3.458   3.943   3.315
 3846SOL     OW12436   0.409   4.552   4.256
 3846SOL    HW112437   0.404   4.546   4.355
 3846SOL    HW212438   0.427   4.647   4.228
 3847SOL     OW12439   0.136   0.596   5.788
 3847SOL    HW112440   0.079   0.675   5.811
 3847SOL    HW212441   0.105   0.516   5.839
 3848SOL     OW12442   2.673   4.953   1.403
 3848SOL    HW112443   2.644   4.858   1.408
 3848SOL    HW212444   2.771   4.957   1.382
 3849SOL     OW12445   0.831   2.200   5.741
 3849SOL    HW112446   0.838   2.297   5.764
 3849SOL    HW212447   0.832   2.146   5.825
 3850SOL     OW12448   3.437   4.045   1.848
 3850SOL    HW112449   3.522   4.096   1.835
 3850SOL    HW212450   3.360   4.098   1.813
 3851SOL     OW12451   1.941   3.268   2.985
 3851SOL    HW112452   1.973   3.333   2.915
 3851SOL    HW212453   1.865   3.309   3.035
 3852SOL     OW12454   4.182   0.770   4.533
 3852SOL    HW112455   4.183   0.799   4.629
 3852SOL    HW212456   4.102   0.713   4.516
 3853SOL     OW12457   0.999   3.780   2.394
 3853SOL    HW112458   1.038   3.770   2.485
 3853SOL    HW212459   1.070   3.809   2.330
 3854SOL     OW12460   0.826   3.600   4.424
 3854SOL    HW112461   0.762   3.676   4.432
 3854SOL    HW212462   0.855   3.591   4.328
 3855SOL     OW12463   6.307   3.180   5.788
 3855SOL    HW112464   6.378   3.204   5.855
 3855SOL    HW212465   6.320   3.085   5.759
 3856SOL     OW12466   0.199   6.178   5.891
 3856SOL    HW112467   0.221   6.154   5.797
 3856SOL    HW212468   0.283   6.176   5.946
 3857SOL     OW12469   1.206   6.529   4.697
 3857SOL    HW112470   1.189   6.442   4.743
 3857SOL    HW212471   1.121   6.583   4.695
 3858SOL     OW12472   2.387   5.970   6.823
 3858SOL    HW112473   2.418   5.994   6.732
 3858SOL    HW212474   2.427   6.033   6.890
 3859SOL     OW12475   0.292   3.383   2.598
 3859SOL    HW112476   0.348   3.374   2.515
 3859SOL    HW212477   0.254   3.475   2.602
 3860SOL     OW12478   2.538   6.755   5.683
 3860SOL    HW112479   2.566   6.738   5.777
 3860SOL    HW212480   2.569   6.680   5.624
 3861SOL     OW12481   4.668   4.457   0.985
 3861SOL    HW112482   4.642   4.481   0.891
 3861SOL    HW212483   4.718   4.371   0.984
 3862SOL     OW12484   1.225   5.859   5.750
 3862SOL    HW112485   1.243   5.834   5.655
 3862SOL    HW212486   1.164   5.938   5.753
 3863SOL     OW12487   3.274   3.921   1.371
 3863SOL    HW112488   3.244   3.894   1.463
 3863SOL    HW212489   3.199   3.905   1.306
 3864SOL     OW12490   2.680   1.840   0.065
 3864SOL    HW112491   2.646   1.910   0.127
 3864SOL    HW212492   2.714   1.762   0.118
 3865SOL     OW12493   4.970   0.514   2.278
 3865SOL    HW112494   5.061   0.471   2.274
 3865SOL    HW212495   4.964   0.584   2.207
 3866SOL     OW12496   3.829   6.885   6.858
 3866SOL    HW112497   3.833   6.980   6.889
 3866SOL    HW212498   3.816   6.884   6.758
 3867SOL     OW12499   2.135   3.470   3.312
 3867SOL    HW112500   2.145   3.455   3.411
 3867SOL    HW212501   2.142   3.567   3.293
 3868SOL     OW12502   2.287   6.514   2.629
 3868SOL    HW112503   2.248   6.436   2.679
 3868SOL    HW212504   2.377   6.535   2.665
 3869SOL     OW12505   0.642   3.378   3.255
 3869SOL    HW112506   0.581   3.369   3.176
 3869SOL    HW212507   0.708   3.304   3.255
 3870SOL     OW12508   2.648   4.653   0.315
 3870SOL    HW112509   2.604   4.649   0.225
 3870SOL    HW212510   2.743   4.622   0.307
 3871SOL     OW12511   2.462   0.445   3.344
 3871SOL    HW112512   2.366   0.427   3.322
 3871SOL    HW212513   2.514   0.451   3.259
 3872SOL     OW12514   3.890   4.216   0.784
 3872SOL    HW112515   3.830   4.219   0.703
 3872SOL    HW212516   3.852   4.153   0.851
 3873SOL     OW12517   5.642   4.506   2.128
 3873SOL    HW112518   5.730   4.549   2.147
 3873SOL    HW212519   5.589   4.502   2.213
 3874SOL     OW12520   4.650   0.682   6.405
 3874SOL    HW112521   4.686   0.593   6.434
 3874SOL    HW212522   4.726   0.746   6.395
 3875SOL     OW12523   1.438   5.223   1.017
 3875SOL    HW112524   1.470   5.237   1.111
 3875SOL    HW212525   1.458   5.305   0.963
 3876SOL     OW12526   5.147   3.650   3.729
 3876SOL    HW112527   5.193   3.585   3.669
 3876SOL    HW212528   5.139   3.738   3.682
 3877SOL     OW12529   6.313   0.717   2.529
 3877SOL    HW112530   6.224   0.726   2.574
 3877SOL    HW212531   6.299   0.697   2.432
 3878SOL     OW12532   3.323   6.428   6.154
 3878SOL    HW112533   3.350   6.509   6.101
 3878SOL    HW212534   3.246   6.383   6.109
 3879SOL     OW12535   3.826   6.207   2.057
 3879SOL    HW112536   3.823   6.258   1.971
 3879SOL    HW212537   3.912   6.156   2.062
 3880SOL     OW12538   5.255   3.070   4.344
 3880SOL    HW112539   5.215   3.160   4.360
 3880SOL    HW212540   5.268   3.056   4.245
 3881SOL     OW12541   1.420   3.656   0.589
 3881SOL    HW112542   1.376   3.723   0.648
 3881SOL    HW212543   1.363   3.639   0.508
 3882SOL     OW12544   0.272   0.479   5.395
 3882SOL    HW112545   0.194   0.519   5.442
 3882SOL    HW212546   0.241   0.410   5.331
 3883SOL     OW12547   3.557   0.647   5.919
 3883SOL    HW112548   3.569   0.631   6.017
 3883SOL    HW212549   3.644   0.636   5.872
 3884SOL     OW12550   1.722   5.479   6.034
 3884SOL    HW112551   1.771   5.511   5.953
 3884SOL    HW212552   1.634   5.526   6.041
 3885SOL     OW12553   6.592   1.107   4.276
 3885SOL    HW112554   6.604   1.154   4.363
 3885SOL    HW212555   6.537   1.165   4.215
 3886SOL     OW12556   6.809   6.417   5.714
 3886SOL    HW112557   6.807   6.497   5.653
 3886SOL    HW212558   6.882   6.355   5.684
 3887SOL     OW12559   4.393   2.182   6.062
 3887SOL    HW112560   4.303   2.139   6.057
 3887SOL    HW212561   4.386   2.277   6.032
 3888SOL     OW12562   6.613   1.869   0.750
 3888SOL    HW112563   6.523   1.889   0.788
 3888SOL    HW212564   6.683   1.883   0.820
 3889SOL     OW12565   0.758   6.328   6.097
 3889SOL    HW112566   0.836   6.351   6.038
 3889SOL    HW212567   0.733   6.232   6.085
 3890SOL     OW12568   5.240   3.989   3.204
 3890SOL    HW112569   5.221   4.049   3.282
 3890SOL    HW212570   5.244   3.894   3.235
 3891SOL     OW12571   5.408   4.789   5.516
 3891SOL    HW112572   5.494   4.821   5.556
 3891SOL    HW212573   5.386   4.698   5.552
 3892SOL     OW12574   5.017   6.561   2.874
 3892SOL    HW112575   4.927   6.536   2.837
 3892SOL    HW212576   5.020   6.660   2.888
 3893SOL     OW12577   3.159   5.837   3.634
 3893SOL    HW112578   3.075   5.829   3.581
 3893SOL    HW212579   3.157   5.920   3.689
 3894SOL     OW12580   5.117   3.975   6.933
 3894SOL    HW112581   5.212   4.004   6.943
 3894SOL    HW212582   5.082   3.942   0.001
 3895SOL     OW12583   2.659   2.153   5.576
 3895SOL    HW112584   2.704   2.068   5.605
 3895SOL    HW212585   2.728   2.225   5.564
 3896SOL     OW12586   6.528   2.956   5.916
 3896SOL    HW112587   6.468   2.975   5.994
 3896SOL    HW212588   6.475   2.915   5.842
 3897SOL     OW12589   3.578   6.681   2.085
 3897SOL    HW112590   3.524   6.707   2.165
 3897SOL    HW212591   3.532   6.606   2.037
 3898SOL     OW12592   3.777   4.062   4.443
 3898SOL    HW112593   3.684   4.086   4.472
 3898SOL    HW212594   3.826   4.021   4.521
 3899SOL     OW12595   4.565   1.783   5.048
 3899SOL    HW112596   4.664   1.769   5.056
 3899SOL    HW212597   4.540   1.867   5.096
 3900SOL     OW12598   6.411   2.610   3.530
 3900SOL    HW112599   6.451   2.518   3.521
 3900SOL    HW212600   6.463   2.675   3.475
 3901SOL     OW12601   2.110   5.780   5.312
 3901SOL    HW112602   2.150   5.721   5.383
 3901SOL    HW212603   2.105   5.874   5.346
 3902SOL     OW12604   4.394   5.142   1.451
 3902SOL    HW112605   4.399   5.043   1.453
 3902SOL    HW212606   4.370   5.173   1.359
 3903SOL     OW12607   4.343   2.418   5.940
 3903SOL    HW112608   4.270   2.474   5.900
 3903SOL    HW212609   4.431   2.447   5.904
 3904SOL     OW12610   2.094   6.090   1.217
 3904SOL    HW112611   2.032   6.059   1.145
 3904SOL    HW212612   2.041   6.135   1.289
 3905SOL     OW12613   6.740   0.528   5.226
 3905SOL    HW112614   6.648   0.567   5.231
 3905SOL    HW212615   6.791   0.571   5.152
 3906SOL     OW12616   0.363   5.683   4.645
 3906SOL    HW112617   0.316   5.608   4.599
 3906SOL    HW212618   0.380   5.757   4.579
 3907SOL     OW12619   0.799   1.122   4.813
 3907SOL    HW112620   0.838   1.038   4.775
 3907SOL    HW212621   0.704   1.106   4.839
 3908SOL     OW12622   1.438   0.408   4.563
 3908SOL    HW112623   1.416   0.363   4.477
 3908SOL    HW212624   1.402   0.501   4.562
 3909SOL     OW12625   6.167   2.065   6.892
 3909SOL    HW112626   6.193   2.092   6.799
 3909SOL    HW212627   6.072   2.034   6.892
 3910SOL     OW12628   3.571   2.688   0.449
 3910SOL    HW112629   3.487   2.633   0.452
 3910SOL    HW212630   3.589   2.716   0.355
 3911SOL     OW12631   0.068   0.879   0.982
 3911SOL    HW112632   0.144   0.837   1.033
 3911SOL    HW212633   0.032   0.957   1.033
 3912SOL     OW12634   3.889   2.266   0.281
 3912SOL    HW112635   3.805   2.218   0.256
 3912SOL    HW212636   3.917   2.240   0.373
 3913SOL     OW12637   4.803   5.370   1.439
 3913SOL    HW112638   4.827   5.400   1.346
 3913SOL    HW212639   4.713   5.406   1.463
 3914SOL     OW12640   0.226   1.129   0.286
 3914SOL    HW112641   0.278   1.179   0.217
 3914SOL    HW212642   0.133   1.112   0.252
 3915SOL     OW12643   4.822   5.880   6.314
 3915SOL    HW112644   4.740   5.888   6.259
 3915SOL    HW212645   4.865   5.970   6.324
 3916SOL     OW12646   2.233   1.961   2.358
 3916SOL    HW112647   2.249   2.058   2.339
 3916SOL    HW212648   2.224   1.947   2.457
 3917SOL     OW12649   3.144   4.350   1.400
 3917SOL    HW112650   3.130   4.302   1.487
 3917SOL    HW212651   3.172   4.444   1.418
 3918SOL     OW12652   5.396   0.645   0.495
 3918SOL    HW112653   5.357   0.736   0.483
 3918SOL    HW212654   5.397   0.597   0.407
 3919SOL     OW12655   3.962   0.002   2.300
 3919SOL    HW112656   3.870   0.020   2.333
 3919SOL    HW212657   4.029   0.039   2.365
 3920SOL     OW12658   3.070   1.601   5.464
 3920SOL    HW112659   3.096   1.594   5.560
 3920SOL    HW212660   2.998   1.669   5.454
 3921SOL     OW12661   6.893   3.076   6.162
 3921SOL    HW112662   6.953   3.156   6.167
 3921SOL    HW212663   6.938   2.999   6.206
 3922SOL     OW12664   4.719   4.499   3.150
 3922SOL    HW112665   4.780   4.569   3.114
 3922SOL    HW212666   4.768   4.442   3.216
 3923SOL     OW12667   5.409   1.116   1.361
 3923SOL    HW112668   5.348   1.163   1.297
 3923SOL    HW212669   5.473   1.058   1.311
 3924SOL     OW12670   5.489   5.424   4.272
 3924SOL    HW112671   5.409   5.485   4.272
 3924SOL    HW212672   5.570   5.475   4.303
 3925SOL     OW12673   5.465   3.801   0.721
 3925SOL    HW112674   5.513   3.889   0.722
 3925SOL    HW212675   5.366   3.818   0.719
 3926SOL     OW12676   0.089   5.999   6.108
 3926SOL    HW112677   0.182   5.963   6.113
 3926SOL    HW212678   0.075   6.042   6.019
 3927SOL     OW12679   5.325   2.211   6.047
 3927SOL    HW112680   5.259   2.284   6.066
 3927SOL    HW212681   5.292   2.155   5.972
 3928SOL     OW12682   3.265   6.086   2.086
 3928SOL    HW112683   3.220   6.174   2.094
 3928SOL    HW212684   3.315   6.066   2.171
 3929SOL     OW12685   0.389   2.770   4.999
 3929SOL    HW112686   0.473   2.788   5.051
 3929SOL    HW212687   0.352   2.681   5.026
 3930SOL     OW12688   1.964   4.632   3.833
 3930SOL    HW112689   2.024   4.655   3.756
 3930SOL    HW212690   2.013   4.572   3.897
 3931SOL     OW12691   2.211   2.168   1.496
 3931SOL    HW112692   2.175   2.240   1.556
 3931SOL    HW212693   2.296   2.133   1.534
 3932SOL     OW12694   2.450   4.986   3.741
 3932SOL    HW112695   2.425   4.900   3.786
 3932SOL    HW212696   2.543   5.011   3.767
 3933SOL     OW12697   2.311   5.470   1.326
 3933SOL    HW112698   2.219   5.497   1.354
 3933SOL    HW212699   2.340   5.390   1.379
 3934SOL     OW12700   0.280   0.850   1.573
 3934SOL    HW112701   0.207   0.790   1.606
 3934SOL    HW212702   0.251   0.893   1.488
 3935SOL     OW12703   6.523   3.724   6.115
 3935SOL    HW112704   6.511   3.741   6.017
 3935SOL    HW212705   6.523   3.625   6.132
 3936SOL     OW12706   6.715   4.607   5.381
 3936SOL    HW112707   6.801   4.645   5.414
 3936SOL    HW212708   6.640   4.636   5.440
 3937SOL     OW12709   6.899   6.290   1.745
 3937SOL    HW112710   6.924   6.194   1.760
 3937SOL    HW212711   6.982   6.344   1.731
 3938SOL     OW12712   1.299   3.500   2.209
 3938SOL    HW112713   1.209   3.457   2.198
 3938SOL    HW212714   1.291   3.598   2.187
 3939SOL     OW12715   1.308   1.156   2.415
 3939SOL    HW112716   1.218   1.113   2.409
 3939SOL    HW212717   1.343   1.146   2.508
 3940SOL     OW12718   3.337   5.673   0.978
 3940SOL    HW112719   3.278   5.751   1.000
 3940SOL    HW212720   3.428   5.705   0.955
 3941SOL     OW12721   5.649   5.997   3.197
 3941SOL    HW112722   5.561   5.997   3.244
 3941SOL    HW212723   5.713   5.937   3.246
 3942SOL     OW12724   6.680   5.978   5.619
 3942SOL    HW112725   6.659   6.031   5.537
 3942SOL    HW212726   6.778   5.957   5.622
 3943SOL     OW12727   1.446   2.718   0.315
 3943SOL    HW112728   1.501   2.799   0.335
 3943SOL    HW212729   1.503   2.650   0.269
 3944SOL     OW12730   5.313   3.014   6.698
 3944SOL    HW112731   5.213   3.015   6.703
 3944SOL    HW212732   5.342   3.060   6.614
 3945SOL     OW12733   5.652   0.522   3.576
 3945SOL    HW112734   5.560   0.559   3.571
 3945SOL    HW212735   5.649   0.423   3.575
 3946SOL     OW12736   0.793   3.156   0.418
 3946SOL    HW112737   0.881   3.203   0.405
 3946SOL    HW212738   0.782   3.132   0.515
 3947SOL     OW12739   5.928   5.307   1.922
 3947SOL    HW112740   5.977   5.299   1.835
 3947SOL    HW212741   5.891   5.217   1.948
 3948SOL     OW12742   1.368   2.701   5.991
 3948SOL    HW112743   1.406   2.610   6.008
 3948SOL    HW212744   1.408   2.739   5.907
 3949SOL     OW12745   6.542   0.011   1.333
 3949SOL    HW112746   6.587   0.015   1.423
 3949SOL    HW212747   6.505   0.101   1.311
 3950SOL     OW12748   3.061   4.575   1.628
 3950SOL    HW112749   2.988   4.556   1.694
 3950SOL    HW212750   3.142   4.606   1.678
 3951SOL     OW12751   1.121   2.445   4.326
 3951SOL    HW112752   1.023   2.437   4.344
 3951SOL    HW212753   1.164   2.356   4.339
 3952SOL     OW12754   5.771   3.794   6.760
 3952SOL    HW112755   5.845   3.827   6.702
 3952SOL    HW212756   5.743   3.867   6.823
 3953SOL     OW12757   3.236   3.811   6.240
 3953SOL    HW112758   3.211   3.717   6.217
 3953SOL    HW212759   3.156   3.859   6.276
 3954SOL     OW12760   0.154   2.866   5.365
 3954SOL    HW112761   0.157   2.808   5.446
 3954SOL    HW212762   0.238   2.921   5.360
 3955SOL     OW12763   0.285   4.185   0.239
 3955SOL    HW112764   0.235   4.118   0.184
 3955SOL    HW212765   0.229   4.213   0.317
 3956SOL     OW12766   0.183   3.164   5.617
 3956SOL    HW112767   0.156   3.257   5.641
 3956SOL    HW212768   0.219   3.118   5.698
 3957SOL     OW12769   0.839   1.902   3.232
 3957SOL    HW112770   0.892   1.932   3.152
 3957SOL    HW212771   0.843   1.803   3.239
 3958SOL     OW12772   5.693   6.035   6.663
 3958SOL    HW112773   5.783   5.993   6.677
 3958SOL    HW212774   5.622   5.966   6.669
 3959SOL     OW12775   2.454   5.240   0.631
 3959SOL    HW112776   2.448   5.305   0.707
 3959SOL    HW212777   2.478   5.149   0.666
 3960SOL     OW12778   4.766   3.425   0.857
 3960SOL    HW112779   4.691   3.477   0.898
 3960SOL    HW212780   4.807   3.478   0.783
 3961SOL     OW12781   5.757   0.475   2.068
 3961SOL    HW112782   5.712   0.480   2.157
 3961SOL    HW212783   5.832   0.541   2.065
 3962SOL     OW12784   0.865   6.691   5.739
 3962SOL    HW112785   0.897   6.775   5.695
 3962SOL    HW212786   0.773   6.669   5.708
 3963SOL     OW12787   4.501   5.494   3.285
 3963SOL    HW112788   4.532   5.587   3.306
 3963SOL    HW212789   4.402   5.496   3.268
 3964SOL     OW12790   5.560   6.557   5.716
 3964SOL    HW112791   5.629   6.553   5.788
 3964SOL    HW212792   5.599   6.599   5.634
 3965SOL     OW12793   3.975   3.111   0.457
 3965SOL    HW112794   3.949   3.207   0.446
 3965SOL    HW212795   4.072   3.105   0.481
 3966SOL     OW12796   6.206   4.338   5.099
 3966SOL    HW112797   6.159   4.415   5.143
 3966SOL    HW212798   6.232   4.271   5.169
 3967SOL     OW12799   1.722   5.989   6.823
 3967SOL    HW112800   1.687   5.963   6.733
 3967SOL    HW212801   1.692   5.923   6.892
 3968SOL     OW12802   5.763   0.617   1.544
 3968SOL    HW112803   5.795   0.602   1.637
 3968SOL    HW212804   5.673   0.661   1.546
 3969SOL     OW12805   0.530   5.856   1.856
 3969SOL    HW112806   0.578   5.861   1.943
 3969SOL    HW212807   0.560   5.930   1.796
 3970SOL     OW12808   4.810   4.462   3.950
 3970SOL    HW112809   4.847   4.436   4.040
 3970SOL    HW212810   4.766   4.382   3.909
 3971SOL     OW12811   1.981   6.119   3.809
 3971SOL    HW112812   2.039   6.052   3.854
 3971SOL    HW212813   1.952   6.189   3.875
 3972SOL     OW12814   1.074   0.025   0.424
 3972SOL    HW112815   0.977   0.039   0.403
 3972SOL    HW212816   1.127   0.102   0.389
 3973SOL     OW12817   3.553   2.966   2.969
 3973SOL    HW112818   3.475   3.024   2.946
 3973SOL    HW212819   3.583   2.986   3.063
 3974SOL     OW12820   6.054   0.883   6.155
 3974SOL    HW112821   5.966   0.932   6.150
 3974SOL    HW212822   6.051   0.804   6.094
 3975SOL     OW12823   6.435   6.646   5.651
 3975SOL    HW112824   6.371   6.599   5.711
 3975SOL    HW212825   6.521   6.662   5.700
 3976SOL     OW12826   1.022   3.180   6.624
 3976SOL    HW112827   0.967   3.097   6.619
 3976SOL    HW212828   1.077   3.179   6.708
 3977SOL     OW12829   4.297   6.744   6.329
 3977SOL    HW112830   4.351   6.691   6.395
 3977SOL    HW212831   4.229   6.798   6.377
 3978SOL     OW12832   6.153   3.521   6.843
 3978SOL    HW112833   6.191   3.597   6.791
 3978SOL    HW212834   6.059   3.542   6.869
 3979SOL     OW12835   1.561   6.815   3.068
 3979SOL    HW112836   1.574   6.899   3.121
 3979SOL    HW212837   1.463   6.802   3.051
 3980SOL     OW12838   5.019   3.454   4.876
 3980SOL    HW112839   5.094   3.444   4.941
 3980SOL    HW212840   4.947   3.511   4.916
 3981SOL     OW12841   6.032   1.578   5.314
 3981SOL    HW112842   6.006   1.483   5.298
 3981SOL    HW212843   6.126   1.582   5.347
 3982SOL     OW12844   3.524   1.890   3.850
 3982SOL    HW112845   3.526   1.803   3.800
 3982SOL    HW212846   3.595   1.888   3.921
 3983SOL     OW12847   3.751   6.672   3.809
 3983SOL    HW112848   3.722   6.750   3.753
 3983SOL    HW212849   3.677   6.606   3.813
 3984SOL     OW12850   1.457   6.446   1.694
 3984SOL    HW112851   1.443   6.540   1.724
 3984SOL    HW212852   1.538   6.443   1.634
 3985SOL     OW12853   1.589   3.761   1.738
 3985SOL    HW112854   1.506   3.731   1.784
 3985SOL    HW212855   1.627   3.840   1.786
 3986SOL     OW12856   1.244   3.036   2.259
 3986SOL    HW112857   1.333   3.012   2.297
 3986SOL    HW212858   1.175   2.973   2.295
 3987SOL     OW12859   2.796   4.784   6.250
 3987SOL    HW112860   2.788   4.744   6.159
 3987SOL    HW212861   2.848   4.869   6.245
 3988SOL     OW12862   4.340   2.134   0.128
 3988SOL    HW112863   4.357   2.098   0.036
 3988SOL    HW212864   4.243   2.127   0.149
 3989SOL     OW12865   4.226   1.319   6.587
 3989SOL    HW112866   4.283   1.248   6.544
 3989SOL    HW212867   4.177   1.279   6.664
 3990SOL     OW12868   0.980   3.235   3.697
 3990SOL    HW112869   0.908   3.210   3.762
 3990SOL    HW212870   1.003   3.155   3.641
 3991SOL     OW12871   6.687   1.683   4.453
 3991SOL    HW112872   6.653   1.726   4.537
 3991SOL    HW212873   6.611   1.644   4.402
 3992SOL     OW12874   5.002   3.956   6.095
 3992SOL    HW112875   5.080   4.018   6.095
 3992SOL    HW212876   5.033   3.863   6.080
 3993SOL     OW12877   1.773   1.351   3.212
 3993SOL    HW112878   1.779   1.403   3.127
 3993SOL    HW212879   1.689   1.297   3.213
 3994SOL     OW12880   2.506   1.932   3.874
 3994SOL    HW112881   2.530   1.926   3.777
 3994SOL    HW212882   2.545   2.016   3.913
 3995SOL     OW12883   1.570   3.952   2.198
 3995SOL    HW112884   1.590   3.855   2.191
 3995SOL    HW212885   1.538   3.986   2.109
 3996SOL     OW12886   5.481   6.851   3.206
 3996SOL    HW112887   5.386   6.859   3.176
 3996SOL    HW212888   5.486   6.787   3.283
 3997SOL     OW12889   5.701   3.797   2.984
 3997SOL    HW112890   5.751   3.882   2.972
 3997SOL    HW212891   5.697   3.748   2.897
 3998SOL     OW12892   6.450   2.341   3.232
 3998SOL    HW112893   6.392   2.311   3.157
 3998SOL    HW212894   6.420   2.296   3.317
 3999SOL     OW12895   5.085   2.482   1.444
 3999SOL    HW112896   5.041   2.510   1.359
 3999SOL    HW212897   5.109   2.563   1.498
 4000SOL     OW12898   3.328   5.609   2.192
 4000SOL    HW112899   3.427   5.598   2.204
 4000SOL    HW212900   3.310   5.655   2.105
 4001SOL     OW12901   2.210   4.323   4.583
 4001SOL    HW112902   2.120   4.282   4.593
 4001SOL    HW212903   2.254   4.332   4.673
 4002SOL     OW12904   3.645   3.827   3.771
 4002SOL    HW112905   3.565   3.885   3.763
 4002SOL    HW212906   3.650   3.766   3.692
 4003SOL     OW12907   3.041   1.037   5.176
 4003SOL    HW112908   3.072   1.084   5.094
 4003SOL    HW212909   2.959   0.984   5.156
 4004SOL     OW12910   0.968   3.803   3.179
 4004SOL    HW112911   1.033   3.775   3.250
 4004SOL    HW212912   0.876   3.771   3.204
 4005SOL     OW12913   5.213   2.783   1.048
 4005SOL    HW112914   5.118   2.811   1.031
 4005SOL    HW212915   5.256   2.847   1.112
 4006SOL     OW12916   4.850   5.222   3.597
 4006SOL    HW112917   4.785   5.160   3.552
 4006SOL    HW212918   4.829   5.228   3.694
 4007SOL     OW12919   6.770   1.316   3.336
 4007SOL    HW112920   6.747   1.274   3.248
 4007SOL    HW212921   6.767   1.416   3.327
 4008SOL     OW12922   3.255   0.192   1.033
 4008SOL    HW112923   3.260   0.187   0.933
 4008SOL    HW212924   3.314   0.266   1.066
 4009SOL     OW12925   4.465   2.138   0.757
 4009SOL    HW112926   4.405   2.145   0.837
 4009SOL    HW212927   4.559   2.159   0.783
 4010SOL     OW12928   2.323   4.992   1.839
 4010SOL    HW112929   2.242   4.983   1.897
 4010SOL    HW212930   2.396   4.935   1.876
 4011SOL     OW12931   5.441   5.914   6.910
 4011SOL    HW112932   5.502   5.984   6.947
 4011SOL    HW212933   5.494   5.832   6.886
 4012SOL     OW12934   4.207   0.399   2.663
 4012SOL    HW112935   4.181   0.416   2.759
 4012SOL    HW212936   4.292   0.347   2.661
 4013SOL     OW12937   0.309   1.288   6.566
 4013SOL    HW112938   0.359   1.201   6.563
 4013SOL    HW212939   0.214   1.273   6.540
 4014SOL     OW12940   3.010   4.870   2.487
 4014SOL    HW112941   3.108   4.888   2.494
 4014SOL    HW212942   2.972   4.920   2.410
 4015SOL     OW12943   4.009   4.648   5.981
 4015SOL    HW112944   4.008   4.582   6.057
 4015SOL    HW212945   3.934   4.627   5.918
 4016SOL     OW12946   4.210   5.851   5.792
 4016SOL    HW112947   4.201   5.770   5.851
 4016SOL    HW212948   4.307   5.864   5.770
 4017SOL     OW12949   0.621   4.857   6.151
 4017SOL    HW112950   0.711   4.825   6.181
 4017SOL    HW212951   0.621   4.868   6.051
 4018SOL     OW12952   4.632   6.505   1.870
 4018SOL    HW112953   4.592   6.557   1.795
 4018SOL    HW212954   4.630   6.559   1.954
 4019SOL     OW12955   5.130   3.365   3.672
 4019SOL    HW112956   5.225   3.336   3.669
 4019SOL    HW212957   5.114   3.435   3.602
 4020SOL     OW12958   6.347   4.790   4.042
 4020SOL    HW112959   6.332   4.856   3.968
 4020SOL    HW212960   6.444   4.769   4.049
 4021SOL     OW12961   3.876   3.454   6.127
 4021SOL    HW112962   3.813   3.520   6.087
 4021SOL    HW212963   3.827   3.368   6.144
 4022SOL     OW12964   2.596   0.613   1.518
 4022SOL    HW112965   2.669   0.667   1.475
 4022SOL    HW212966   2.615   0.516   1.505
 4023SOL     OW12967   0.570   2.342   5.321
 4023SOL    HW112968   0.511   2.419   5.344
 4023SOL    HW212969   0.578   2.334   5.222
 4024SOL     OW12970   0.636   5.037   4.298
 4024SOL    HW112971   0.721   5.017   4.249
 4024SOL    HW212972   0.657   5.060   4.393
 4025SOL     OW12973   0.731   5.997   4.414
 4025SOL    HW112974   0.814   5.942   4.406
 4025SOL    HW212975   0.756   6.092   4.429
 4026SOL     OW12976   6.404   6.440   3.701
 4026SOL    HW112977   6.417   6.358   3.756
 4026SOL    HW212978   6.363   6.512   3.757
 4027SOL     OW12979   2.758   4.164   5.642
 4027SOL    HW112980   2.683   4.103   5.665
 4027SOL    HW212981   2.845   4.121   5.669
 4028SOL     OW12982   4.697   1.503   2.634
 4028SOL    HW112983   4.716   1.588   2.585
 4028SOL    HW212984   4.768   1.435   2.613
 4029SOL     OW12985   2.406   5.414   6.324
 4029SOL    HW112986   2.347   5.334   6.329
 4029SOL    HW212987   2.350   5.497   6.330
 4030SOL     OW12988   0.634   1.160   2.838
 4030SOL    HW112989   0.658   1.237   2.898
 4030SOL    HW212990   0.539   1.170   2.808
 4031SOL     OW12991   5.641   6.733   1.172
 4031SOL    HW112992   5.580   6.795   1.222
 4031SOL    HW212993   5.711   6.786   1.126
 4032SOL     OW12994   5.970   0.196   1.185
 4032SOL    HW112995   6.007   0.116   1.137
 4032SOL    HW212996   5.915   0.250   1.122
 4033SOL     OW12997   2.617   2.287   2.766
 4033SOL    HW112998   2.577   2.255   2.680
 4033SOL    HW212999   2.704   2.242   2.782
 4034SOL     OW13000   0.235   3.070   4.985
 4034SOL    HW113001   0.171   3.005   5.026
 4034SOL    HW213002   0.197   3.162   4.989
 4035SOL     OW13003   5.536   1.771   1.694
 4035SOL    HW113004   5.590   1.761   1.778
 4035SOL    HW213005   5.576   1.714   1.622
 4036SOL     OW13006   2.683   5.567   3.534
 4036SOL    HW113007   2.619   5.578   3.458
 4036SOL    HW213008   2.632   5.547   3.618
 4037SOL     OW13009   2.643   0.747   5.962
 4037SOL    HW113010   2.653   0.767   5.865
 4037SOL    HW213011   2.657   0.831   6.015
 4038SOL     OW13012   3.564   4.429   5.958
 4038SOL    HW113013   3.605   4.368   5.890
 4038SOL    HW213014   3.464   4.420   5.956
 4039SOL     OW13015   5.933   4.804   1.430
 4039SOL    HW113016   5.987   4.807   1.346
 4039SOL    HW213017   5.935   4.894   1.475
 4040SOL     OW13018   3.539   5.434   5.329
 4040SOL    HW113019   3.594   5.352   5.311
 4040SOL    HW213020   3.597   5.505   5.369
 4041SOL     OW13021   2.338   6.229   0.924
 4041SOL    HW113022   2.429   6.214   0.964
 4041SOL    HW213023   2.284   6.286   0.986
 4042SOL     OW13024   5.977   0.491   3.655
 4042SOL    HW113025   5.936   0.552   3.587
 4042SOL    HW213026   6.053   0.442   3.612
 4043SOL     OW13027   5.531   3.760   6.526
 4043SOL    HW113028   5.578   3.807   6.601
 4043SOL    HW213029   5.581   3.776   6.441
 4044SOL     OW13030   4.009   5.204   3.462
 4044SOL    HW113031   4.036   5.158   3.377
 4044SOL    HW213032   3.992   5.135   3.533
 4045SOL     OW13033   5.157   6.813   5.695
 4045SOL    HW113034   5.215   6.781   5.771
 4045SOL    HW213035   5.214   6.836   5.617
 4046SOL     OW13036   6.983   1.736   2.958
 4046SOL    HW113037   0.023   1.674   2.908
 4046SOL    HW213038   6.895   1.691   2.976
 4047SOL     OW13039   2.623   2.989   6.510
 4047SOL    HW113040   2.647   3.063   6.447
 4047SOL    HW213041   2.552   3.021   6.573
 4048SOL     OW13042   4.569   1.173   2.036
 4048SOL    HW113043   4.528   1.083   2.048
 4048SOL    HW213044   4.508   1.231   1.982
 4049SOL     OW13045   4.236   5.086   6.425
 4049SOL    HW113046   4.332   5.115   6.421
 4049SOL    HW213047   4.209   5.075   6.520
 4050SOL     OW13048   0.067   5.474   2.789
 4050SOL    HW113049   7.007   5.517   2.831
 4050SOL    HW213050   0.058   5.477   2.689
 4051SOL     OW13051   5.187   1.205   5.970
 4051SOL    HW113052   5.259   1.266   5.935
 4051SOL    HW213053   5.186   1.121   5.916
 4052SOL     OW13054   6.112   2.213   3.740
 4052SOL    HW113055   6.187   2.158   3.777
 4052SOL    HW213056   6.074   2.270   3.813
 4053SOL     OW13057   1.062   5.513   4.943
 4053SOL    HW113058   1.058   5.594   4.884
 4053SOL    HW213059   1.137   5.523   5.008
 4054SOL     OW13060   4.865   4.274   1.019
 4054SOL    HW113061   4.838   4.230   1.105
 4054SOL    HW213062   4.961   4.301   1.025
 4055SOL     OW13063   1.407   3.705   1.927
 4055SOL    HW113064   1.342   3.684   1.854
 4055SOL    HW213065   1.453   3.621   1.956
 4056SOL     OW13066   4.962   3.217   0.907
 4056SOL    HW113067   4.926   3.166   0.985
 4056SOL    HW213068   4.913   3.303   0.898
 4057SOL     OW13069   6.446   3.765   6.432
 4057SOL    HW113070   6.504   3.685   6.446
 4057SOL    HW213071   6.400   3.757   6.344
 4058SOL     OW13072   2.752   6.016   5.287
 4058SOL    HW113073   2.799   6.103   5.271
 4058SOL    HW213074   2.755   5.993   5.384
 4059SOL     OW13075   0.970   1.586   4.063
 4059SOL    HW113076   1.039   1.648   4.100
 4059SOL    HW213077   0.901   1.639   4.014
 4060SOL     OW13078   6.442   5.662   5.417
 4060SOL    HW113079   6.442   5.653   5.318
 4060SOL    HW213080   6.363   5.615   5.455
 4061SOL     OW13081   2.676   5.341   2.069
 4061SOL    HW113082   2.718   5.261   2.025
 4061SOL    HW213083   2.748   5.405   2.096
 4062SOL     OW13084   2.202   1.850   1.722
 4062SOL    HW113085   2.146   1.931   1.741
 4062SOL    HW213086   2.217   1.800   1.807
 4063SOL     OW13087   5.374   1.136   0.787
 4063SOL    HW113088   5.308   1.183   0.845
 4063SOL    HW213089   5.341   1.045   0.765
 4064SOL     OW13090   1.949   1.948   4.856
 4064SOL    HW113091   1.932   1.930   4.952
 4064SOL    HW213092   1.868   1.923   4.802
 4065SOL     OW13093   1.908   7.003   0.391
 4065SOL    HW113094   1.989   6.945   0.389
 4065SOL    HW213095   1.931   0.070   0.436
 4066SOL     OW13096   0.099   4.208   3.492
 4066SOL    HW113097   0.198   4.215   3.498
 4066SOL    HW213098   0.061   4.191   3.583
 4067SOL     OW13099   5.898   4.646   2.127
 4067SOL    HW113100   5.947   4.733   2.128
 4067SOL    HW213101   5.962   4.572   2.109
 4068SOL     OW13102   1.886   2.426   5.517
 4068SOL    HW113103   1.969   2.389   5.477
 4068SOL    HW213104   1.903   2.450   5.613
 4069SOL     OW13105   3.968   0.400   6.646
 4069SOL    HW113106   3.961   0.339   6.567
 4069SOL    HW213107   4.062   0.405   6.677
 4070SOL     OW13108   1.568   2.922   3.241
 4070SOL    HW113109   1.581   2.901   3.338
 4070SOL    HW213110   1.478   2.890   3.212
 4071SOL     OW13111   0.639   0.529   4.081
 4071SOL    HW113112   0.604   0.437   4.096
 4071SOL    HW213113   0.562   0.592   4.068
 4072SOL     OW13114   1.574   5.770   3.897
 4072SOL    HW113115   1.493   5.749   3.842
 4072SOL    HW213116   1.587   5.869   3.902
 4073SOL     OW13117   2.825   5.262   0.394
 4073SOL    HW113118   2.842   5.203   0.473
 4073SOL    HW213119   2.827   5.208   0.310
 4074SOL     OW13120   1.185   5.664   2.540
 4074SOL    HW113121   1.106   5.645   2.599
 4074SOL    HW213122   1.249   5.724   2.589
 4075SOL     OW13123   4.821   0.309   0.361
 4075SOL    HW113124   4.798   0.254   0.442
 4075SOL    HW213125   4.842   0.249   0.284
 4076SOL     OW13126   3.044   3.550   5.519
 4076SOL    HW113127   3.128   3.543   5.572
 4076SOL    HW213128   3.049   3.488   5.441
 4077SOL     OW13129   3.783   1.989   1.491
 4077SOL    HW113130   3.877   2.002   1.524
 4077SOL    HW213131   3.719   2.025   1.558
 4078SOL     OW13132   3.003   4.852   2.959
 4078SOL    HW113133   2.981   4.903   2.875
 4078SOL    HW213134   3.078   4.789   2.940
 4079SOL     OW13135   1.332   2.712   3.878
 4079SOL    HW113136   1.392   2.643   3.837
 4079SOL    HW213137   1.321   2.788   3.814
 4080SOL     OW13138   5.178   1.614   4.813
 4080SOL    HW113139   5.251   1.682   4.800
 4080SOL    HW213140   5.181   1.548   4.737
 4081SOL     OW13141   1.480   3.553   3.544
 4081SOL    HW113142   1.518   3.541   3.452
 4081SOL    HW213143   1.532   3.497   3.609
 4082SOL     OW13144   1.459   3.368   1.028
 4082SOL    HW113145   1.456   3.302   0.953
 4082SOL    HW213146   1.368   3.409   1.039
 4083SOL     OW13147   5.157   2.726   3.924
 4083SOL    HW113148   5.108   2.690   3.844
 4083SOL    HW213149   5.148   2.825   3.926
 4084SOL     OW13150   6.522   1.970   4.555
 4084SOL    HW113151   6.445   1.995   4.496
 4084SOL    HW213152   6.606   1.970   4.500
 4085SOL     OW13153   3.711   5.717   0.581
 4085SOL    HW113154   3.784   5.692   0.518
 4085SOL    HW213155   3.677   5.635   0.627
 4086SOL     OW13156   1.855   5.674   1.610
 4086SOL    HW113157   1.820   5.725   1.532
 4086SOL    HW213158   1.778   5.635   1.661
 4087SOL     OW13159   2.555   2.101   3.003
 4087SOL    HW113160   2.497   2.178   2.977
 4087SOL    HW213161   2.640   2.136   3.043
 4088SOL     OW13162   6.265   1.710   1.486
 4088SOL    HW113163   6.220   1.631   1.527
 4088SOL    HW213164   6.357   1.720   1.524
 4089SOL     OW13165   0.725   1.378   4.039
 4089SOL    HW113166   0.726   1.475   4.064
 4089SOL    HW213167   0.642   1.335   4.074
 4090SOL     OW13168   2.580   4.106   6.283
 4090SOL    HW113169   2.631   4.133   6.201
 4090SOL    HW213170   2.594   4.008   6.300
 4091SOL     OW13171   5.108   6.458   0.375
 4091SOL    HW113172   5.146   6.416   0.458
 4091SOL    HW213173   5.182   6.478   0.311
 4092SOL     OW13174   0.424   2.987   5.218
 4092SOL    HW113175   0.488   2.911   5.233
 4092SOL    HW213176   0.373   2.971   5.133
 4093SOL     OW13177   5.628   0.841   3.377
 4093SOL    HW113178   5.670   0.837   3.468
 4093SOL    HW213179   5.697   0.864   3.309
 4094SOL     OW13180   1.852   4.150   5.145
 4094SOL    HW113181   1.940   4.186   5.175
 4094SOL    HW213182   1.799   4.120   5.225
 4095SOL     OW13183   1.257   3.111   5.938
 4095SOL    HW113184   1.253   3.205   5.972
 4095SOL    HW213185   1.339   3.066   5.973
 4096SOL     OW13186   4.783   5.032   6.972
 4096SOL    HW113187   4.867   5.071   7.011
 4096SOL    HW213188   4.707   5.048   0.014
 4097SOL     OW13189   3.472   3.619   6.056
 4097SOL    HW113190   3.553   3.615   5.998
 4097SOL    HW213191   3.393   3.647   6.002
 4098SOL     OW13192   0.392   2.766   2.795
 4098SOL    HW113193   0.365   2.826   2.720
 4098SOL    HW213194   0.347   2.677   2.784
 4099SOL     OW13195   2.986   5.946   1.916
 4099SOL    HW113196   3.059   5.979   1.856
 4099SOL    HW213197   2.978   5.846   1.906
 4100SOL     OW13198   4.737   5.992   3.586
 4100SOL    HW113199   4.726   5.940   3.501
 4100SOL    HW213200   4.701   6.084   3.573
 4101SOL     OW13201   6.087   1.417   6.833
 4101SOL    HW113202   6.185   1.433   6.820
 4101SOL    HW213203   6.050   1.369   6.753
 4102SOL     OW13204   6.121   0.453   0.830
 4102SOL    HW113205   6.100   0.535   0.884
 4102SOL    HW213206   6.097   0.470   0.734
 4103SOL     OW13207   0.808   0.772   1.927
 4103SOL    HW113208   0.799   0.739   2.021
 4103SOL    HW213209   0.904   0.769   1.899
 4104SOL     OW13210   1.615   4.305   2.377
 4104SOL    HW113211   1.553   4.233   2.408
 4104SOL    HW213212   1.573   4.394   2.393
 4105SOL     OW13213   4.188   5.312   0.456
 4105SOL    HW113214   4.171   5.395   0.402
 4105SOL    HW213215   4.256   5.256   0.409
 4106SOL     OW13216   0.045   3.760   4.960
 4106SOL    HW113217   0.125   3.719   5.004
 4106SOL    HW213218   0.003   3.827   5.021
 4107SOL     OW13219   0.101   6.202   1.106
 4107SOL    HW113220   0.201   6.200   1.110
 4107SOL    HW213221   0.072   6.237   1.018
 4108SOL     OW13222   0.231   4.129   6.545
 4108SOL    HW113223   0.157   4.087   6.598
 4108SOL    HW213224   0.213   4.226   6.534
 4109SOL     OW13225   3.973   6.593   3.982
 4109SOL    HW113226   4.030   6.674   3.976
 4109SOL    HW213227   3.882   6.613   3.944
 4110SOL     OW13228   4.156   3.439   5.939
 4110SOL    HW113229   4.062   3.442   5.973
 4110SOL    HW213230   4.168   3.506   5.866
 4111SOL     OW13231   3.563   2.980   0.037
 4111SOL    HW113232   3.659   2.992   0.062
 4111SOL    HW213233   3.554   2.984   6.957
 4112SOL     OW13234   4.466   1.532   5.106
 4112SOL    HW113235   4.416   1.503   5.024
 4112SOL    HW213236   4.498   1.626   5.093
 4113SOL     OW13237   3.454   5.810   5.661
 4113SOL    HW113238   3.490   5.898   5.629
 4113SOL    HW213239   3.529   5.754   5.696
 4114SOL     OW13240   3.664   1.057   4.775
 4114SOL    HW113241   3.701   1.144   4.807
 4114SOL    HW213242   3.659   1.058   4.675
 4115SOL     OW13243   4.790   5.785   2.285
 4115SOL    HW113244   4.877   5.744   2.257
 4115SOL    HW213245   4.806   5.844   2.364
 4116SOL     OW13246   3.668   2.093   1.709
 4116SOL    HW113247   3.661   2.180   1.757
 4116SOL    HW213248   3.602   2.028   1.746
 4117SOL     OW13249   1.156   5.267   1.053
 4117SOL    HW113250   1.120   5.343   0.999
 4117SOL    HW213251   1.244   5.238   1.016
 4118SOL     OW13252   1.187   6.658   1.178
 4118SOL    HW113253   1.286   6.668   1.168
 4118SOL    HW213254   1.160   6.564   1.160
 4119SOL     OW13255   3.664   1.315   4.320
 4119SOL    HW113256   3.606   1.286   4.244
 4119SOL    HW213257   3.755   1.339   4.285
 4120SOL     OW13258   4.319   6.730   2.122
 4120SOL    HW113259   4.345   6.819   2.084
 4120SOL    HW213260   4.307   6.665   2.047
 4121SOL     OW13261   6.574   2.406   4.678
 4121SOL    HW113262   6.603   2.439   4.768
 4121SOL    HW213263   6.643   2.432   4.610
 4122SOL     OW13264   0.578   6.730   5.037
 4122SOL    HW113265   0.620   6.820   5.027
 4122SOL    HW213266   0.514   6.731   5.113
 4123SOL     OW13267   5.637   4.276   6.137
 4123SOL    HW113268   5.729   4.241   6.118
 4123SOL    HW213269   5.577   4.255   6.060
 4124SOL     OW13270   5.502   6.639   3.698
 4124SOL    HW113271   5.485   6.563   3.636
 4124SOL    HW213272   5.437   6.713   3.681
 4125SOL     OW13273   4.625   0.911   1.566
 4125SOL    HW113274   4.529   0.912   1.538
 4125SOL    HW213275   4.683   0.942   1.491
 4126SOL     OW13276   1.681   4.175   4.601
 4126SOL    HW113277   1.762   4.227   4.573
 4126SOL    HW213278   1.613   4.238   4.638
 4127SOL     OW13279   5.291   3.432   4.986
 4127SOL    HW113280   5.391   3.422   4.985
 4127SOL    HW213281   5.255   3.394   5.071
 4128SOL     OW13282   1.792   3.641   2.364
 4128SOL    HW113283   1.780   3.603   2.455
 4128SOL    HW213284   1.887   3.670   2.352
 4129SOL     OW13285   5.916   1.967   6.249
 4129SOL    HW113286   5.906   2.040   6.316
 4129SOL    HW213287   6.013   1.947   6.235
 4130SOL     OW13288   6.612   3.973   6.139
 4130SOL    HW113289   6.571   3.883   6.156
 4130SOL    HW213290   6.547   4.030   6.088
 4131SOL     OW13291   0.004   5.749   3.898
 4131SOL    HW113292   0.102   5.746   3.917
 4131SOL    HW213293   7.006   5.707   3.809
 4132SOL     OW13294   5.368   3.155   3.656
 4132SOL    HW113295   5.406   3.184   3.568
 4132SOL    HW213296   5.278   3.115   3.642
 4133SOL     OW13297   2.950   0.841   0.936
 4133SOL    HW113298   2.926   0.750   0.970
 4133SOL    HW213299   3.030   0.835   0.877
 4134SOL     OW13300   2.212   2.162   1.049
 4134SOL    HW113301   2.312   2.163   1.041
 4134SOL    HW213302   2.176   2.075   1.016
 4135SOL     OW13303   1.893   0.336   2.490
 4135SOL    HW113304   1.913   0.240   2.474
 4135SOL    HW213305   1.946   0.393   2.427
 4136SOL     OW13306   0.447   2.379   3.870
 4136SOL    HW113307   0.500   2.297   3.892
 4136SOL    HW213308   0.371   2.388   3.935
 4137SOL     OW13309   3.535   4.061   6.929
 4137SOL    HW113310   3.555   4.159   6.921
 4137SOL    HW213311   3.477   4.045   7.009
 4138SOL     OW13312   4.725   4.852   4.598
 4138SOL    HW113313   4.726   4.759   4.562
 4138SOL    HW213314   4.731   4.849   4.698
 4139SOL     OW13315   1.744   2.241   6.120
 4139SOL    HW113316   1.705   2.331   6.099
 4139SOL    HW213317   1.827   2.227   6.065
 4140SOL     OW13318   4.041   1.212   5.609
 4140SOL    HW113319   3.978   1.206   5.531
 4140SOL    HW213320   4.134   1.192   5.579
 4141SOL     OW13321   5.272   5.251   1.730
 4141SOL    HW113322   5.329   5.333   1.724
 4141SOL    HW213323   5.176   5.276   1.725
 4142SOL     OW13324   6.789   4.917   0.932
 4142SOL    HW113325   6.710   4.945   0.986
 4142SOL    HW213326   6.820   4.826   0.962
 4143SOL     OW13327   6.896   2.829   0.762
 4143SOL    HW113328   6.880   2.886   0.681
 4143SOL    HW213329   6.817   2.768   0.775
 4144SOL     OW13330   5.281   1.450   1.638
 4144SOL    HW113331   5.309   1.490   1.550
 4144SOL    HW213332   5.257   1.524   1.701
 4145SOL     OW13333   0.315   6.526   1.377
 4145SOL    HW113334   0.230   6.478   1.354
 4145SOL    HW213335   0.335   6.512   1.474
 4146SOL     OW13336   5.610   0.160   6.290
 4146SOL    HW113337   5.603   0.232   6.358
 4146SOL    HW213338   5.663   0.193   6.212
 4147SOL     OW13339   3.476   1.965   6.611
 4147SOL    HW113340   3.528   1.880   6.615
 4147SOL    HW213341   3.397   1.960   6.673
 4148SOL     OW13342   0.471   0.786   4.062
 4148SOL    HW113343   0.475   0.883   4.036
 4148SOL    HW213344   0.380   0.765   4.098
 4149SOL     OW13345   5.910   2.649   0.639
 4149SOL    HW113346   5.954   2.645   0.729
 4149SOL    HW213347   5.964   2.707   0.578
 4150SOL     OW13348   5.663   0.553   6.250
 4150SOL    HW113349   5.623   0.530   6.161
 4150SOL    HW213350   5.763   0.548   6.245
 4151SOL     OW13351   6.245   5.916   0.361
 4151SOL    HW113352   6.161   5.906   0.415
 4151SOL    HW213353   6.241   6.000   0.307
 4152SOL     OW13354   4.164   4.823   2.124
 4152SOL    HW113355   4.089   4.825   2.191
 4152SOL    HW213356   4.164   4.736   2.076
 4153SOL     OW13357   5.556   5.225   6.540
 4153SOL    HW113358   5.647   5.216   6.579
 4153SOL    HW213359   5.549   5.313   6.493
 4154SOL     OW13360   6.354   3.716   4.738
 4154SOL    HW113361   6.259   3.686   4.739
 4154SOL    HW213362   6.412   3.643   4.776
 4155SOL     OW13363   0.761   3.570   2.619
 4155SOL    HW113364   0.723   3.590   2.529
 4155SOL    HW213365   0.751   3.472   2.639
 4156SOL     OW13366   5.939   6.841   5.325
 4156SOL    HW113367   5.899   6.795   5.247
 4156SOL    HW213368   6.038   6.822   5.328
 4157SOL     OW13369   4.080   0.522   4.193
 4157SOL    HW113370   4.114   0.562   4.278
 4157SOL    HW213371   4.032   0.591   4.140
 4158SOL     OW13372   0.772   5.453   3.222
 4158SOL    HW113373   0.774   5.553   3.231
 4158SOL    HW213374   0.683   5.419   3.251
 4159SOL     OW13375   1.569   3.082   3.726
 4159SOL    HW113376   1.612   3.149   3.785
 4159SOL    HW213377   1.520   3.129   3.652
 4160SOL     OW13378   6.324   0.322   0.510
 4160SOL    HW113379   6.259   0.323   0.435
 4160SOL    HW213380   6.329   0.413   0.552
 4161SOL     OW13381   1.361   0.561   6.349
 4161SOL    HW113382   1.431   0.530   6.414
 4161SOL    HW213383   1.273   0.521   6.373
 4162SOL     OW13384   6.309   6.714   4.688
 4162SOL    HW113385   6.373   6.787   4.665
 4162SOL    HW213386   6.282   6.722   4.784
 4163SOL     OW13387   5.548   1.409   3.243
 4163SOL    HW113388   5.553   1.428   3.145
 4163SOL    HW213389   5.593   1.483   3.294
 4164SOL     OW13390   1.893   0.678   6.425
 4164SOL    HW113391   1.967   0.706   6.364
 4164SOL    HW213392   1.863   0.585   6.401
 4165SOL     OW13393   4.006   6.702   0.813
 4165SOL    HW113394   3.914   6.731   0.837
 4165SOL    HW213395   4.055   6.675   0.896
 4166SOL     OW13396   4.188   2.773   0.691
 4166SOL    HW113397   4.179   2.675   0.709
 4166SOL    HW213398   4.122   2.800   0.621
 4167SOL     OW13399   2.007   2.433   1.573
 4167SOL    HW113400   1.991   2.487   1.491
 4167SOL    HW213401   2.105   2.436   1.597
 4168SOL     OW13402   0.104   5.342   1.651
 4168SOL    HW113403   0.144   5.269   1.595
 4168SOL    HW213404   0.004   5.329   1.655
 4169SOL     OW13405   4.886   3.761   3.970
 4169SOL    HW113406   4.888   3.752   4.069
 4169SOL    HW213407   4.912   3.673   3.928
 4170SOL     OW13408   3.967   2.744   5.542
 4170SOL    HW113409   3.921   2.681   5.480
 4170SOL    HW213410   4.032   2.800   5.492
 4171SOL     OW13411   5.403   3.505   1.341
 4171SOL    HW113412   5.489   3.548   1.313
 4171SOL    HW213413   5.411   3.472   1.435
 4172SOL     OW13414   7.010   1.809   0.745
 4172SOL    HW113415   6.975   1.901   0.729
 4172SOL    HW213416   6.955   1.743   0.693
 4173SOL     OW13417   5.817   2.649   5.230
 4173SOL    HW113418   5.772   2.694   5.153
 4173SOL    HW213419   5.809   2.550   5.220
 4174SOL     OW13420   4.739   0.536   3.646
 4174SOL    HW113421   4.753   0.461   3.711
 4174SOL    HW213422   4.662   0.514   3.586
 4175SOL     OW13423   3.274   0.120   3.803
 4175SOL    HW113424   3.184   0.161   3.818
 4175SOL    HW213425   3.301   0.131   3.707
 4176SOL     OW13426   4.908   0.472   2.754
 4176SOL    HW113427   4.866   0.429   2.834
 4176SOL    HW213428   4.885   0.570   2.753
 4177SOL     OW13429   0.390   5.649   4.024
 4177SOL    HW113430   0.435   5.570   4.065
 4177SOL    HW213431   0.426   5.733   4.067
 4178SOL     OW13432   3.051   1.555   5.990
 4178SOL    HW113433   3.112   1.506   5.929
 4178SOL    HW213434   2.988   1.491   6.034
 4179SOL     OW13435   5.704   3.372   5.379
 4179SOL    HW113436   5.773   3.306   5.347
 4179SOL    HW213437   5.745   3.463   5.383
 4180SOL     OW13438   5.175   4.303   1.577
 4180SOL    HW113439   5.101   4.240   1.600
 4180SOL    HW213440   5.161   4.390   1.624
 4181SOL     OW13441   0.757   1.637   6.405
 4181SOL    HW113442   0.745   1.545   6.369
 4181SOL    HW213443   0.679   1.693   6.380
 4182SOL     OW13444   0.257   0.249   2.117
 4182SOL    HW113445   0.177   0.188   2.120
 4182SOL    HW213446   0.238   0.327   2.058
 4183SOL     OW13447   2.867   1.709   2.045
 4183SOL    HW113448   2.935   1.749   1.982
 4183SOL    HW213449   2.776   1.714   2.003
 4184SOL     OW13450   3.909   5.202   0.349
 4184SOL    HW113451   3.912   5.300   0.330
 4184SOL    HW213452   3.841   5.183   0.421
 4185SOL     OW13453   0.297   6.936   3.143
 4185SOL    HW113454   0.289   6.856   3.202
 4185SOL    HW213455   0.383   6.983   3.161
 4186SOL     OW13456   2.423   3.939   0.621
 4186SOL    HW113457   2.443   3.851   0.579
 4186SOL    HW213458   2.375   3.925   0.707
 4187SOL     OW13459   3.572   3.233   6.605
 4187SOL    HW113460   3.640   3.274   6.545
 4187SOL    HW213461   3.482   3.240   6.562
 4188SOL     OW13462   4.887   0.112   3.936
 4188SOL    HW113463   4.987   0.117   3.933
 4188SOL    HW213464   4.859   0.017   3.928
 4189SOL     OW13465   2.396   1.564   4.244
 4189SOL    HW113466   2.431   1.611   4.163
 4189SOL    HW213467   2.375   1.469   4.220
 4190SOL     OW13468   3.032   0.452   6.840
 4190SOL    HW113469   3.010   0.361   6.874
 4190SOL    HW213470   3.027   0.452   6.740
 4191SOL     OW13471   6.429   2.955   3.234
 4191SOL    HW113472   6.421   2.992   3.142
 4191SOL    HW213473   6.452   2.857   3.229
 4192SOL     OW13474   5.828   1.547   3.073
 4192SOL    HW113475   5.880   1.504   3.000
 4192SOL    HW213476   5.787   1.477   3.131
 4193SOL     OW13477   2.482   6.796   2.255
 4193SOL    HW113478   2.387   6.827   2.268
 4193SOL    HW213479   2.536   6.871   2.216
 4194SOL     OW13480   6.742   1.970   4.346
 4194SOL    HW113481   6.804   1.894   4.366
 4194SOL    HW213482   6.794   2.048   4.313
 4195SOL     OW13483   5.358   0.343   1.084
 4195SOL    HW113484   5.437   0.319   1.141
 4195SOL    HW213485   5.297   0.403   1.135
 4196SOL     OW13486   5.123   2.902   4.547
 4196SOL    HW113487   5.086   2.822   4.499
 4196SOL    HW213488   5.184   2.953   4.486
 4197SOL     OW13489   5.335   4.457   4.648
 4197SOL    HW113490   5.285   4.406   4.718
 4197SOL    HW213491   5.426   4.479   4.682
 4198SOL     OW13492   5.916   3.846   6.496
 4198SOL    HW113493   5.842   3.866   6.432
 4198SOL    HW213494   6.001   3.889   6.463
 4199SOL     OW13495   3.063   3.465   5.255
 4199SOL    HW113496   3.141   3.451   5.192
 4199SOL    HW213497   2.978   3.465   5.202
 4200SOL     OW13498   1.909   0.042   6.482
 4200SOL    HW113499   1.997   0.088   6.484
 4200SOL    HW213500   1.913   6.980   6.540
 4201SOL     OW13501   6.100   0.043   3.510
 4201SOL    HW113502   6.179   7.000   3.507
 4201SOL    HW213503   6.133   0.137   3.519
 4202SOL     OW13504   5.489   5.026   5.715
 4202SOL    HW113505   5.433   5.051   5.636
 4202SOL    HW213506   5.538   4.941   5.695
 4203SOL     OW13507   5.164   5.343   2.828
 4203SOL    HW113508   5.081   5.288   2.841
 4203SOL    HW213509   5.237   5.307   2.885
 4204SOL     OW13510   3.429   3.271   1.150
 4204SOL    HW113511   3.483   3.347   1.186
 4204SOL    HW213512   3.423   3.199   1.220
 4205SOL     OW13513   2.931   5.162   4.889
 4205SOL    HW113514   2.864   5.140   4.960
 4205SOL    HW213515   2.977   5.078   4.859
 4206SOL     OW13516   5.274   0.285   4.858
 4206SOL    HW113517   5.259   0.381   4.882
 4206SOL    HW213518   5.217   0.262   4.778
 4207SOL     OW13519   1.383   0.825   1.726
 4207SOL    HW113520   1.428   0.772   1.654
 4207SOL    HW213521   1.286   0.837   1.703
 4208SOL     OW13522   1.143   2.469   0.915
 4208SOL    HW113523   1.215   2.416   0.960
 4208SOL    HW213524   1.159   2.472   0.817
 4209SOL     OW13525   2.054   0.048   4.850
 4209SOL    HW113526   2.137   0.094   4.881
 4209SOL    HW213527   2.072   0.001   4.764
 4210SOL     OW13528   3.650   3.026   1.031
 4210SOL    HW113529   3.673   3.103   1.091
 4210SOL    HW213530   3.610   3.062   0.946
 4211SOL     OW13531   4.585   4.346   4.370
 4211SOL    HW113532   4.563   4.409   4.445
 4211SOL    HW213533   4.569   4.391   4.282
 4212SOL     OW13534   6.086   0.979   2.998
 4212SOL    HW113535   6.161   1.045   2.999
 4212SOL    HW213536   6.018   1.007   2.930
 4213SOL     OW13537   1.614   0.844   2.315
 4213SOL    HW113538   1.599   0.825   2.412
 4213SOL    HW213539   1.709   0.873   2.301
 4214SOL     OW13540   0.932   3.432   5.446
 4214SOL    HW113541   0.946   3.364   5.374
 4214SOL    HW213542   0.886   3.512   5.406
 4215SOL     OW13543   0.636   5.463   5.005
 4215SOL    HW113544   0.709   5.400   4.979
 4215SOL    HW213545   0.549   5.430   4.968
 4216SOL     OW13546   1.092   2.584   4.106
 4216SOL    HW113547   1.152   2.664   4.111
 4216SOL    HW213548   1.110   2.524   4.184
 4217SOL     OW13549   0.531   0.701   2.850
 4217SOL    HW113550   0.567   0.790   2.878
 4217SOL    HW213551   0.607   0.642   2.821
 4218SOL     OW13552   4.738   0.306   2.012
 4218SOL    HW113553   4.812   0.250   1.974
 4218SOL    HW213554   4.747   0.310   2.111
 4219SOL     OW13555   4.096   5.341   4.591
 4219SOL    HW113556   4.072   5.378   4.501
 4219SOL    HW213557   4.044   5.390   4.661
 4220SOL     OW13558   6.486   3.652   3.925
 4220SOL    HW113559   6.535   3.585   3.980
 4220SOL    HW213560   6.546   3.688   3.854
 4221SOL     OW13561   4.956   5.273   6.465
 4221SOL    HW113562   4.941   5.294   6.561
 4221SOL    HW213563   5.042   5.313   6.434
 4222SOL     OW13564   5.293   2.432   2.128
 4222SOL    HW113565   5.232   2.408   2.052
 4222SOL    HW213566   5.250   2.501   2.185
 4223SOL     OW13567   3.264   4.120   2.376
 4223SOL    HW113568   3.260   4.180   2.296
 4223SOL    HW213569   3.352   4.073   2.377
 4224SOL     OW13570   4.534   2.482   4.952
 4224SOL    HW113571   4.507   2.510   4.860
 4224SOL    HW213572   4.504   2.552   5.018
 4225SOL     OW13573   6.161   0.137   4.726
 4225SOL    HW113574   6.225   0.155   4.800
 4225SOL    HW213575   6.182   0.050   4.684
 4226SOL     OW13576   0.803   1.757   3.573
 4226SOL    HW113577   0.770   1.828   3.511
 4226SOL    HW213578   0.725   1.706   3.610
 4227SOL     OW13579   3.878   4.462   6.772
 4227SOL    HW113580   3.787   4.453   6.732
 4227SOL    HW213581   3.944   4.413   6.715
 4228SOL     OW13582   6.551   5.675   3.325
 4228SOL    HW113583   6.539   5.605   3.396
 4228SOL    HW213584   6.632   5.653   3.271
 4229SOL     OW13585   4.673   4.689   5.848
 4229SOL    HW113586   4.743   4.755   5.875
 4229SOL    HW213587   4.583   4.730   5.857
 4230SOL     OW13588   3.440   0.893   5.418
 4230SOL    HW113589   3.463   0.958   5.491
 4230SOL    HW213590   3.502   0.905   5.341
 4231SOL     OW13591   4.627   6.694   4.934
 4231SOL    HW113592   4.558   6.732   4.872
 4231SOL    HW213593   4.671   6.768   4.985
 4232SOL     OW13594   1.888   5.046   2.803
 4232SOL    HW113595   1.870   5.015   2.709
 4232SOL    HW213596   1.868   4.972   2.867
 4233SOL     OW13597   6.726   6.785   6.659
 4233SOL    HW113598   6.682   6.721   6.722
 4233SOL    HW213599   6.825   6.786   6.676
 4234SOL     OW13600   3.069   5.269   6.265
 4234SOL    HW113601   3.051   5.241   6.170
 4234SOL    HW213602   3.146   5.332   6.266
 4235SOL     OW13603   6.259   3.569   5.544
 4235SOL    HW113604   6.348   3.541   5.578
 4235SOL    HW213605   6.262   3.664   5.514
 4236SOL     OW13606   0.944   3.205   4.337
 4236SOL    HW113607   0.944   3.143   4.258
 4236SOL    HW213608   0.940   3.151   4.421
 4237SOL     OW13609   5.296   3.721   5.037
 4237SOL    HW113610   5.283   3.711   5.135
 4237SOL    HW213611   5.294   3.631   4.993
 4238SOL     OW13612   4.059   5.235   4.070
 4238SOL    HW113613   4.108   5.316   4.038
 4238SOL    HW213614   4.124   5.163   4.095
 4239SOL     OW13615   4.518   6.580   5.673
 4239SOL    HW113616   4.537   6.631   5.757
 4239SOL    HW213617   4.440   6.519   5.688
 4240SOL     OW13618   2.771   4.847   6.597
 4240SOL    HW113619   2.761   4.945   6.576
 4240SOL    HW213620   2.797   4.798   6.514
 4241SOL     OW13621   4.748   0.159   0.567
 4241SOL    HW113622   4.676   0.091   0.579
 4241SOL    HW213623   4.796   0.173   0.653
 4242SOL     OW13624   2.109   0.175   2.717
 4242SOL    HW113625   2.055   0.244   2.765
 4242SOL    HW213626   2.203   0.208   2.705
 4243SOL     OW13627   0.737   3.723   2.359
 4243SOL    HW113628   0.743   3.782   2.279
 4243SOL    HW213629   0.815   3.739   2.419
 4244SOL     OW13630   4.699   6.665   1.251
 4244SOL    HW113631   4.798   6.660   1.260
 4244SOL    HW213632   4.673   6.639   1.158
 4245SOL     OW13633   6.818   3.054   0.910
 4245SOL    HW113634   6.854   2.977   0.857
 4245SOL    HW213635   6.742   3.096   0.861
 4246SOL     OW13636   4.995   2.220   3.184
 4246SOL    HW113637   4.994   2.313   3.222
 4246SOL    HW213638   4.924   2.212   3.114
 4247SOL     OW13639   1.704   4.781   5.209
 4247SOL    HW113640   1.686   4.875   5.181
 4247SOL    HW213641   1.624   4.744   5.256
 4248SOL     OW13642   1.746   0.742   2.795
 4248SOL    HW113643   1.751   0.701   2.886
 4248SOL    HW213644   1.812   0.697   2.735
 4249SOL     OW13645   0.039   0.435   5.131
 4249SOL    HW113646   0.008   0.414   5.039
 4249SOL    HW213647   0.006   0.526   5.157
 4250SOL     OW13648   0.006   5.693   4.173
 4250SOL    HW113649   0.050   5.776   4.208
 4250SOL    HW213650   6.986   5.712   4.083
 4251SOL     OW13651   6.206   1.876   6.304
 4251SOL    HW113652   6.226   1.940   6.379
 4251SOL    HW213653   6.238   1.785   6.329
 4252SOL     OW13654   6.661   6.052   6.722
 4252SOL    HW113655   6.710   5.967   6.744
 4252SOL    HW213656   6.568   6.030   6.692
 4253SOL     OW13657   4.388   5.603   2.757
 4253SOL    HW113658   4.399   5.606   2.856
 4253SOL    HW213659   4.377   5.695   2.721
 4254SOL     OW13660   2.066   3.166   6.853
 4254SOL    HW113661   2.126   3.226   6.905
 4254SOL    HW213662   1.997   3.126   6.914
 4255SOL     OW13663   0.516   3.871   2.857
 4255SOL    HW113664   0.531   3.966   2.885
 4255SOL    HW213665   0.473   3.821   2.932
 4256SOL     OW13666   0.495   5.136   2.252
 4256SOL    HW113667   0.536   5.214   2.205
 4256SOL    HW213668   0.397   5.133   2.234
 4257SOL     OW13669   6.233   0.970   5.329
 4257SOL    HW113670   6.221   0.964   5.428
 4257SOL    HW213671   6.174   0.903   5.284
 4258SOL     OW13672   4.057   5.616   0.056
 4258SOL    HW113673   3.963   5.652   0.056
 4258SOL    HW213674   4.120   5.688   0.027
 4259SOL     OW13675   0.937   6.562   2.099
 4259SOL    HW113676   0.961   6.467   2.122
 4259SOL    HW213677   0.849   6.585   2.142
 4260SOL     OW13678   5.130   0.212   4.652
 4260SOL    HW113679   5.031   0.211   4.661
 4260SOL    HW213680   5.160   0.130   4.604
 4261SOL     OW13681   1.743   0.230   3.539
 4261SOL    HW113682   1.745   0.327   3.564
 4261SOL    HW213683   1.817   0.182   3.585
 4262SOL     OW13684   1.730   4.153   6.691
 4262SOL    HW113685   1.766   4.154   6.784
 4262SOL    HW213686   1.777   4.083   6.638
 4263SOL     OW13687   2.859   2.254   4.141
 4263SOL    HW113688   2.843   2.304   4.226
 4263SOL    HW213689   2.790   2.281   4.073
 4264SOL     OW13690   5.415   1.187   4.242
 4264SOL    HW113691   5.383   1.241   4.164
 4264SOL    HW213692   5.513   1.200   4.253
 4265SOL     OW13693   3.128   1.187   0.844
 4265SOL    HW113694   3.137   1.100   0.794
 4265SOL    HW213695   3.052   1.179   0.910
 4266SOL     OW13696   1.726   6.840   0.514
 4266SOL    HW113697   1.738   6.748   0.477
 4266SOL    HW213698   1.777   6.905   0.457
 4267SOL     OW13699   1.942   4.227   4.653
 4267SOL    HW113700   1.902   4.234   4.744
 4267SOL    HW213701   1.923   4.136   4.615
 4268SOL     OW13702   1.650   4.415   5.881
 4268SOL    HW113703   1.661   4.321   5.915
 4268SOL    HW213704   1.589   4.414   5.802
 4269SOL     OW13705   3.016   1.355   4.285
 4269SOL    HW113706   3.098   1.330   4.337
 4269SOL    HW213707   3.002   1.454   4.290
 4270SOL     OW13708   3.662   2.293   0.744
 4270SOL    HW113709   3.675   2.207   0.695
 4270SOL    HW213710   3.746   2.347   0.739
 4271SOL     OW13711   6.818   0.686   1.161
 4271SOL    HW113712   6.781   0.760   1.105
 4271SOL    HW213713   6.742   0.636   1.204
 4272SOL     OW13714   6.638   1.895   5.951
 4272SOL    HW113715   6.679   1.974   5.906
 4272SOL    HW213716   6.611   1.920   6.044
 4273SOL     OW13717   3.534   5.290   4.922
 4273SOL    HW113718   3.471   5.308   4.847
 4273SOL    HW213719   3.627   5.309   4.893
 4274SOL     OW13720   6.873   1.125   1.806
 4274SOL    HW113721   6.854   1.169   1.894
 4274SOL    HW213722   6.805   1.052   1.791
 4275SOL     OW13723   0.636   2.934   3.148
 4275SOL    HW113724   0.694   2.856   3.122
 4275SOL    HW213725   0.646   2.951   3.246
 4276SOL     OW13726   2.746   6.271   3.859
 4276SOL    HW113727   2.786   6.179   3.866
 4276SOL    HW213728   2.659   6.273   3.908
 4277SOL     OW13729   6.232   5.454   3.426
 4277SOL    HW113730   6.305   5.515   3.457
 4277SOL    HW213731   6.264   5.401   3.347
 4278SOL     OW13732   1.261   6.853   2.095
 4278SOL    HW113733   1.228   6.791   2.167
 4278SOL    HW213734   1.196   6.928   2.084
 4279SOL     OW13735   2.041   2.389   3.324
 4279SOL    HW113736   2.088   2.425   3.244
 4279SOL    HW213737   2.048   2.289   3.324
 4280SOL     OW13738   0.488   0.276   5.883
 4280SOL    HW113739   0.467   0.351   5.945
 4280SOL    HW213740   0.488   0.309   5.789
 4281SOL     OW13741   4.187   5.420   3.681
 4281SOL    HW113742   4.282   5.450   3.694
 4281SOL    HW213743   4.176   5.384   3.589
 4282SOL     OW13744   3.589   4.270   1.214
 4282SOL    HW113745   3.678   4.308   1.242
 4282SOL    HW213746   3.566   4.193   1.273
 4283SOL     OW13747   5.132   1.116   3.920
 4283SOL    HW113748   5.093   1.162   3.840
 4283SOL    HW213749   5.100   1.021   3.923
 4284SOL     OW13750   4.685   6.005   6.618
 4284SOL    HW113751   4.745   6.082   6.639
 4284SOL    HW213752   4.633   6.024   6.536
 4285SOL     OW13753   2.809   0.190   5.802
 4285SOL    HW113754   2.726   0.230   5.841
 4285SOL    HW213755   2.879   0.261   5.795
 4286SOL     OW13756   5.662   1.241   6.292
 4286SOL    HW113757   5.693   1.291   6.373
 4286SOL    HW213758   5.562   1.246   6.287
 4287SOL     OW13759   4.628   0.494   6.846
 4287SOL    HW113760   4.693   0.425   6.814
 4287SOL    HW213761   4.670   0.585   6.841
 4288SOL     OW13762   6.587   6.493   2.324
 4288SOL    HW113763   6.551   6.516   2.234
 4288SOL    HW213764   6.517   6.446   2.377
 4289SOL     OW13765   0.808   3.469   4.729
 4289SOL    HW113766   0.721   3.435   4.765
 4289SOL    HW213767   0.790   3.540   4.661
 4290SOL     OW13768   0.345   1.341   2.984
 4290SOL    HW113769   0.406   1.397   2.928
 4290SOL    HW213770   0.355   1.245   2.960
 4291SOL     OW13771   5.322   3.431   6.222
 4291SOL    HW113772   5.409   3.469   6.251
 4291SOL    HW213773   5.327   3.403   6.126
 4292SOL     OW13774   5.826   1.998   1.125
 4292SOL    HW113775   5.925   2.011   1.126
 4292SOL    HW213776   5.781   2.086   1.138
 4293SOL     OW13777   4.219   4.314   0.078
 4293SOL    HW113778   4.213   4.381   0.003
 4293SOL    HW213779   4.212   4.222   0.040
 4294SOL     OW13780   2.258   1.997   6.222
 4294SOL    HW113781   2.276   2.093   6.202
 4294SOL    HW213782   2.173   1.969   6.178
 4295SOL     OW13783   4.468   6.488   3.073
 4295SOL    HW113784   4.522   6.405   3.059
 4295SOL    HW213785   4.510   6.543   3.145
 4296SOL     OW13786   2.614   6.262   1.953
 4296SOL    HW113787   2.572   6.343   1.912
 4296SOL    HW213788   2.707   6.284   1.983
 4297SOL     OW13789   5.975   4.831   0.884
 4297SOL    HW113790   5.880   4.861   0.878
 4297SOL    HW213791   6.035   4.910   0.889
 4298SOL     OW13792   3.568   6.523   0.722
 4298SOL    HW113793   3.602   6.566   0.806
 4298SOL    HW213794   3.590   6.426   0.724
 4299SOL     OW13795   1.222   2.756   0.507
 4299SOL    HW113796   1.306   2.774   0.455
 4299SOL    HW213797   1.209   2.830   0.574
 4300SOL     OW13798   3.164   0.729   0.820
 4300SOL    HW113799   3.106   0.650   0.802
 4300SOL    HW213800   3.195   0.726   0.916
 4301SOL     OW13801   3.189   6.979   1.483
 4301SOL    HW113802   3.161   6.949   1.391
 4301SOL    HW213803   3.272   6.930   1.510
 4302SOL     OW13804   1.622   5.572   5.718
 4302SOL    HW113805   1.715   5.580   5.752
 4302SOL    HW213806   1.561   5.629   5.774
 4303SOL     OW13807   6.007   4.060   3.663
 4303SOL    HW113808   6.039   4.146   3.622
 4303SOL    HW213809   5.975   4.078   3.756
 4304SOL     OW13810   3.330   3.652   1.218
 4304SOL    HW113811   3.322   3.641   1.119
 4304SOL    HW213812   3.420   3.620   1.248
 4305SOL     OW13813   1.430   0.425   5.383
 4305SOL    HW113814   1.484   0.478   5.318
 4305SOL    HW213815   1.349   0.477   5.411
 4306SOL     OW13816   5.547   3.707   5.342
 4306SOL    HW113817   5.613   3.686   5.414
 4306SOL    HW213818   5.458   3.667   5.366
 4307SOL     OW13819   6.507   2.100   5.520
 4307SOL    HW113820   6.424   2.067   5.475
 4307SOL    HW213821   6.585   2.088   5.459
 4308SOL     OW13822   5.001   4.660   0.398
 4308SOL    HW113823   4.902   4.647   0.402
 4308SOL    HW213824   5.025   4.751   0.434
 4309SOL     OW13825   1.546   3.369   0.537
 4309SOL    HW113826   1.478   3.349   0.466
 4309SOL    HW213827   1.593   3.454   0.515
 4310SOL     OW13828   0.120   1.782   2.533
 4310SOL    HW113829   0.032   1.820   2.508
 4310SOL    HW213830   0.182   1.856   2.560
 4311SOL     OW13831   0.540   6.447   2.432
 4311SOL    HW113832   0.460   6.393   2.455
 4311SOL    HW213833   0.519   6.508   2.355
 4312SOL     OW13834   0.307   4.709   2.313
 4312SOL    HW113835   0.265   4.752   2.233
 4312SOL    HW213836   0.242   4.711   2.389
 4313SOL     OW13837   6.389   1.866   0.387
 4313SOL    HW113838   6.396   1.882   0.288
 4313SOL    HW213839   6.321   1.927   0.426
 4314SOL     OW13840   6.639   2.466   5.576
 4314SOL    HW113841   6.540   2.458   5.584
 4314SOL    HW213842   6.683   2.423   5.655
 4315SOL     OW13843   2.492   1.642   3.982
 4315SOL    HW113844   2.415   1.584   3.954
 4315SOL    HW213845   2.483   1.732   3.939
 4316SOL     OW13846   5.010   6.963   2.067
 4316SOL    HW113847   5.037   0.040   2.074
 4316SOL    HW213848   4.990   6.927   2.158
 4317SOL     OW13849   4.376   0.972   6.086
 4317SOL    HW113850   4.370   0.915   6.168
 4317SOL    HW213851   4.468   0.968   6.049
 4318SOL     OW13852   0.608   1.653   3.735
 4318SOL    HW113853   0.554   1.598   3.799
 4318SOL    HW213854   0.547   1.708   3.678
 4319SOL     OW13855   0.988   4.768   2.144
 4319SOL    HW113856   0.927   4.718   2.205
 4319SOL    HW213857   0.955   4.762   2.050
 4320SOL     OW13858   3.860   5.479   0.266
 4320SOL    HW113859   3.934   5.450   0.206
 4320SOL    HW213860   3.828   5.570   0.238
 4321SOL     OW13861   6.271   0.376   2.655
 4321SOL    HW113862   6.191   0.431   2.679
 4321SOL    HW213863   6.242   0.299   2.599
 4322SOL     OW13864   1.244   3.231   5.295
 4322SOL    HW113865   1.148   3.243   5.272
 4322SOL    HW213866   1.259   3.256   5.391
 4323SOL     OW13867   4.025   5.650   6.665
 4323SOL    HW113868   4.079   5.600   6.597
 4323SOL    HW213869   3.969   5.585   6.718
 4324SOL     OW13870   0.005   4.287   5.712
 4324SOL    HW113871   0.039   4.276   5.619
 4324SOL    HW213872   6.981   4.202   5.743
 4325SOL     OW13873   2.992   0.730   2.495
 4325SOL    HW113874   2.950   0.799   2.553
 4325SOL    HW213875   3.022   0.772   2.409
 4326SOL     OW13876   4.816   2.170   3.008
 4326SOL    HW113877   4.726   2.167   2.964
 4326SOL    HW213878   4.887   2.170   2.939
 4327SOL     OW13879   3.342   6.059   4.049
 4327SOL    HW113880   3.397   5.983   4.013
 4327SOL    HW213881   3.302   6.033   4.137
 4328SOL     OW13882   5.606   6.207   4.893
 4328SOL    HW113883   5.627   6.284   4.954
 4328SOL    HW213884   5.516   6.221   4.852
 4329SOL     OW13885   6.169   2.365   5.773
 4329SOL    HW113886   6.158   2.360   5.873
 4329SOL    HW213887   6.211   2.280   5.741
 4330SOL     OW13888   2.959   4.870   4.910
 4330SOL    HW113889   2.953   4.792   4.971
 4330SOL    HW213890   2.965   4.838   4.815
 4331SOL     OW13891   6.423   0.840   1.691
 4331SOL    HW113892   6.350   0.906   1.703
 4331SOL    HW213893   6.429   0.814   1.595
 4332SOL     OW13894   0.094   4.751   2.525
 4332SOL    HW113895   7.019   4.783   2.524
 4332SOL    HW213896   0.143   4.796   2.600
 4333SOL     OW13897   3.821   2.137   5.550
 4333SOL    HW113898   3.875   2.118   5.632
 4333SOL    HW213899   3.734   2.088   5.555
 4334SOL     OW13900   0.759   2.669   3.741
 4334SOL    HW113901   0.841   2.638   3.789
 4334SOL    HW213902   0.716   2.592   3.694
 4335SOL     OW13903   3.145   3.354   0.791
 4335SOL    HW113904   3.120   3.259   0.775
 4335SOL    HW213905   3.062   3.408   0.806
 4336SOL     OW13906   2.752   5.434   6.004
 4336SOL    HW113907   2.766   5.494   5.925
 4336SOL    HW213908   2.676   5.372   5.985
 4337SOL     OW13909   1.309   5.201   3.475
 4337SOL    HW113910   1.314   5.284   3.530
 4337SOL    HW213911   1.328   5.222   3.379
 4338SOL     OW13912   4.650   1.030   5.987
 4338SOL    HW113913   4.681   1.125   5.989
 4338SOL    HW213914   4.687   0.982   6.067
 4339SOL     OW13915   4.223   2.993   6.294
 4339SOL    HW113916   4.238   3.087   6.326
 4339SOL    HW213917   4.140   2.990   6.239
 4340SOL     OW13918   0.075   3.237   0.657
 4340SOL    HW113919   0.175   3.233   0.655
 4340SOL    HW213920   0.045   3.264   0.749
 4341SOL     OW13921   0.142   6.524   2.523
 4341SOL    HW113922   0.059   6.482   2.557
 4341SOL    HW213923   0.185   6.465   2.454
 4342SOL     OW13924   5.383   4.104   2.965
 4342SOL    HW113925   5.371   4.081   3.061
 4342SOL    HW213926   5.295   4.134   2.926
 4343SOL     OW13927   4.219   0.441   5.791
 4343SOL    HW113928   4.123   0.461   5.812
 4343SOL    HW213929   4.226   0.410   5.696
 4344SOL     OW13930   0.157   2.769   3.690
 4344SOL    HW113931   0.221   2.701   3.656
 4344SOL    HW213932   0.066   2.729   3.697
 4345SOL     OW13933   2.873   3.392   2.352
 4345SOL    HW113934   2.902   3.479   2.313
 4345SOL    HW213935   2.829   3.337   2.282
 4346SOL     OW13936   1.711   3.997   1.735
 4346SOL    HW113937   1.772   4.017   1.811
 4346SOL    HW213938   1.764   3.957   1.660
 4347SOL     OW13939   5.798   4.897   1.193
 4347SOL    HW113940   5.747   4.867   1.274
 4347SOL    HW213941   5.766   4.988   1.166
 4348SOL     OW13942   5.599   6.096   4.173
 4348SOL    HW113943   5.543   6.013   4.169
 4348SOL    HW213944   5.680   6.079   4.229
 4349SOL     OW13945   0.111   3.553   4.262
 4349SOL    HW113946   0.101   3.523   4.357
 4349SOL    HW213947   0.173   3.632   4.259
 4350SOL     OW13948   4.656   1.082   4.917
 4350SOL    HW113949   4.697   1.167   4.949
 4350SOL    HW213950   4.700   1.005   4.963
 4351SOL     OW13951   1.088   6.219   0.657
 4351SOL    HW113952   1.091   6.300   0.715
 4351SOL    HW213953   1.118   6.243   0.565
 4352SOL     OW13954   3.926   3.812   1.108
 4352SOL    HW113955   3.943   3.746   1.182
 4352SOL    HW213956   3.829   3.811   1.085
 4353SOL     OW13957   3.096   2.509   0.936
 4353SOL    HW113958   3.116   2.435   0.872
 4353SOL    HW213959   3.022   2.565   0.900
 4354SOL     OW13960   5.590   6.879   4.010
 4354SOL    HW113961   5.661   6.828   3.961
 4354SOL    HW213962   5.622   6.901   4.102
 4355SOL     OW13963   1.192   6.255   3.630
 4355SOL    HW113964   1.231   6.186   3.691
 4355SOL    HW213965   1.252   6.334   3.627
 4356SOL     OW13966   5.394   2.496   6.473
 4356SOL    HW113967   5.413   2.505   6.571
 4356SOL    HW213968   5.464   2.439   6.430
 4357SOL     OW13969   6.869   1.159   2.304
 4357SOL    HW113970   6.772   1.167   2.285
 4357SOL    HW213971   6.922   1.188   2.224
 4358SOL     OW13972   1.382   6.898   6.954
 4358SOL    HW113973   1.305   6.858   7.003
 4358SOL    HW213974   1.447   6.935   0.001
 4359SOL     OW13975   1.935   1.559   6.989
 4359SOL    HW113976   2.006   1.534   0.035
 4359SOL    HW213977   1.913   1.657   6.999
 4360SOL     OW13978   1.199   3.357   3.640
 4360SOL    HW113979   1.112   3.315   3.666
 4360SOL    HW213980   1.225   3.326   3.548
 4361SOL     OW13981   0.304   0.825   1.116
 4361SOL    HW113982   0.332   0.729   1.118
 4361SOL    HW213983   0.384   0.883   1.126
 4362SOL     OW13984   0.757   6.000   4.060
 4362SOL    HW113985   0.691   6.066   4.096
 4362SOL    HW213986   0.726   5.907   4.080
 4363SOL     OW13987   4.522   1.398   2.196
 4363SOL    HW113988   4.545   1.312   2.151
 4363SOL    HW213989   4.594   1.465   2.178
 4364SOL     OW13990   3.907   3.868   2.961
 4364SOL    HW113991   3.846   3.917   2.899
 4364SOL    HW213992   3.884   3.889   3.056
 4365SOL     OW13993   2.974   2.220   1.694
 4365SOL    HW113994   2.973   2.296   1.758
 4365SOL    HW213995   2.918   2.145   1.729
 4366SOL     OW13996   4.520   6.340   4.626
 4366SOL    HW113997   4.477   6.347   4.536
 4366SOL    HW213998   4.617   6.317   4.616
 4367SOL     OW13999   2.600   5.520   3.799
 4367SOL    HW114000   2.543   5.577   3.858
 4367SOL    HW214001   2.622   5.434   3.846
 4368SOL     OW14002   4.517   4.480   2.652
 4368SOL    HW114003   4.443   4.420   2.684
 4368SOL    HW214004   4.603   4.450   2.691
 4369SOL     OW14005   4.192   4.834   3.213
 4369SOL    HW114006   4.205   4.765   3.142
 4369SOL    HW214007   4.189   4.789   3.303
 4370SOL     OW14008   3.808   4.812   1.464
 4370SOL    HW114009   3.773   4.737   1.522
 4370SOL    HW214010   3.834   4.775   1.375
 4371SOL     OW14011   3.361   0.785   1.575
 4371SOL    HW114012   3.372   0.695   1.616
 4371SOL    HW214013   3.409   0.853   1.630
 4372SOL     OW14014   1.892   3.202   4.524
 4372SOL    HW114015   1.915   3.187   4.620
 4372SOL    HW214016   1.974   3.232   4.475
 4373SOL     OW14017   4.776   1.226   5.301
 4373SOL    HW114018   4.808   1.289   5.232
 4373SOL    HW214019   4.687   1.257   5.336
 4374SOL     OW14020   2.632   1.478   1.538
 4374SOL    HW114021   2.694   1.523   1.602
 4374SOL    HW214022   2.543   1.523   1.541
 4375SOL     OW14023   3.808   0.865   3.479
 4375SOL    HW114024   3.803   0.858   3.579
 4375SOL    HW214025   3.870   0.940   3.455
 4376SOL     OW14026   6.618   6.606   1.100
 4376SOL    HW114027   6.650   6.682   1.044
 4376SOL    HW214028   6.525   6.624   1.131
 4377SOL     OW14029   5.972   6.459   6.127
 4377SOL    HW114030   5.968   6.393   6.053
 4377SOL    HW214031   6.034   6.425   6.199
 4378SOL     OW14032   1.807   5.582   2.303
 4378SOL    HW114033   1.720   5.631   2.298
 4378SOL    HW214034   1.790   5.484   2.291
 4379SOL     OW14035   1.348   0.383   1.815
 4379SOL    HW114036   1.424   0.448   1.820
 4379SOL    HW214037   1.282   0.415   1.747
 4380SOL     OW14038   1.574   6.072   5.058
 4380SOL    HW114039   1.523   5.987   5.042
 4380SOL    HW214040   1.538   6.117   5.139
 4381SOL     OW14041   3.582   6.453   5.081
 4381SOL    HW114042   3.483   6.439   5.074
 4381SOL    HW214043   3.630   6.380   5.033
 4382SOL     OW14044   4.981   3.665   4.241
 4382SOL    HW114045   5.079   3.648   4.232
 4382SOL    HW214046   4.944   3.613   4.318
 4383SOL     OW14047   0.796   3.109   5.760
 4383SOL    HW114048   0.858   3.063   5.824
 4383SOL    HW214049   0.829   3.095   5.666
 4384SOL     OW14050   3.773   5.991   0.567
 4384SOL    HW114051   3.765   5.891   0.577
 4384SOL    HW214052   3.702   6.035   0.621
 4385SOL     OW14053   0.245   2.232   2.197
 4385SOL    HW114054   0.309   2.182   2.139
 4385SOL    HW214055   0.192   2.296   2.142
 4386SOL     OW14056   0.794   3.002   6.771
 4386SOL    HW114057   0.859   2.927   6.785
 4386SOL    HW214058   0.769   3.042   6.859
 4387SOL     OW14059   0.104   3.538   1.816
 4387SOL    HW114060   0.116   3.544   1.915
 4387SOL    HW214061   0.193   3.549   1.772
 4388SOL     OW14062   3.702   0.868   6.094
 4388SOL    HW114063   3.662   0.781   6.126
 4388SOL    HW214064   3.640   0.910   6.028
 4389SOL     OW14065   5.690   2.604   2.633
 4389SOL    HW114066   5.603   2.556   2.647
 4389SOL    HW214067   5.680   2.700   2.658
 4390SOL     OW14068   4.800   2.957   2.284
 4390SOL    HW114069   4.897   2.931   2.279
 4390SOL    HW214070   4.758   2.945   2.194
 4391SOL     OW14071   1.116   5.540   0.102
 4391SOL    HW114072   1.134   5.597   0.182
 4391SOL    HW214073   1.159   5.581   0.021
 4392SOL     OW14074   4.887   3.093   4.570
 4392SOL    HW114075   4.908   3.139   4.656
 4392SOL    HW214076   4.971   3.055   4.532
 4393SOL     OW14077   4.671   6.716   3.130
 4393SOL    HW114078   4.769   6.701   3.140
 4393SOL    HW214079   4.654   6.780   3.054
 4394SOL     OW14080   5.130   0.478   2.592
 4394SOL    HW114081   5.139   0.570   2.554
 4394SOL    HW214082   5.045   0.472   2.645
 4395SOL     OW14083   5.091   1.671   1.351
 4395SOL    HW114084   5.043   1.752   1.385
 4395SOL    HW214085   5.174   1.657   1.403
 4396SOL     OW14086   0.809   0.981   4.422
 4396SOL    HW114087   0.743   1.055   4.421
 4396SOL    HW214088   0.762   0.894   4.407
 4397SOL     OW14089   6.771   0.286   4.791
 4397SOL    HW114090   6.701   0.216   4.806
 4397SOL    HW214091   6.841   0.279   4.862
 4398SOL     OW14092   0.032   4.674   4.220
 4398SOL    HW114093   0.084   4.675   4.134
 4398SOL    HW214094   0.042   4.763   4.265
 4399SOL     OW14095   1.853   1.429   0.786
 4399SOL    HW114096   1.875   1.510   0.732
 4399SOL    HW214097   1.840   1.455   0.882
 4400SOL     OW14098   3.423   6.501   4.779
 4400SOL    HW114099   3.364   6.473   4.704
 4400SOL    HW214100   3.374   6.492   4.866
 4401SOL     OW14101   5.732   5.775   4.241
 4401SOL    HW114102   5.812   5.778   4.181
 4401SOL    HW214103   5.725   5.684   4.281
 4402SOL     OW14104   0.629   6.145   2.788
 4402SOL    HW114105   0.618   6.244   2.786
 4402SOL    HW214106   0.563   6.104   2.725
 4403SOL     OW14107   0.888   0.518   3.118
 4403SOL    HW114108   0.833   0.579   3.175
 4403SOL    HW214109   0.858   0.423   3.131
 4404SOL     OW14110   0.484   3.790   3.167
 4404SOL    HW114111   0.567   3.746   3.200
 4404SOL    HW214112   0.410   3.723   3.164
 4405SOL     OW14113   3.512   4.497   5.587
 4405SOL    HW114114   3.611   4.495   5.575
 4405SOL    HW214115   3.471   4.552   5.514
 4406SOL     OW14116   5.823   3.782   1.351
 4406SOL    HW114117   5.736   3.733   1.363
 4406SOL    HW214118   5.889   3.721   1.306
 4407SOL     OW14119   6.641   0.242   6.958
 4407SOL    HW114120   6.667   0.192   0.021
 4407SOL    HW214121   6.645   0.181   6.879
 4408SOL     OW14122   4.686   0.056   6.634
 4408SOL    HW114123   4.635   0.017   6.711
 4408SOL    HW214124   4.631   0.127   6.591
 4409SOL     OW14125   3.528   0.325   1.985
 4409SOL    HW114126   3.540   0.268   2.067
 4409SOL    HW214127   3.435   0.313   1.950
 4410SOL     OW14128   2.255   4.852   1.602
 4410SOL    HW114129   2.219   4.762   1.624
 4410SOL    HW214130   2.312   4.884   1.678
 4411SOL     OW14131   3.680   3.614   2.650
 4411SOL    HW114132   3.679   3.517   2.628
 4411SOL    HW214133   3.749   3.661   2.595
 4412SOL     OW14134   3.839   1.568   6.563
 4412SOL    HW114135   3.760   1.507   6.562
 4412SOL    HW214136   3.920   1.518   6.529
 4413SOL     OW14137   4.409   6.116   4.206
 4413SOL    HW114138   4.327   6.127   4.261
 4413SOL    HW214139   4.417   6.020   4.178
 4414SOL     OW14140   3.967   4.789   1.790
 4414SOL    HW114141   3.952   4.726   1.713
 4414SOL    HW214142   4.048   4.761   1.840
 4415SOL     OW14143   5.000   2.932   6.574
 4415SOL    HW114144   5.020   2.876   6.655
 4415SOL    HW214145   4.906   2.914   6.544
 4416SOL     OW14146   3.299   0.391   4.613
 4416SOL    HW114147   3.363   0.324   4.652
 4416SOL    HW214148   3.216   0.394   4.670
 4417SOL     OW14149   6.945   5.605   2.134
 4417SOL    HW114150   6.882   5.651   2.072
 4417SOL    HW214151   6.914   5.616   2.229
 4418SOL     OW14152   4.073   6.838   3.586
 4418SOL    HW114153   4.031   6.748   3.600
 4418SOL    HW214154   4.064   6.892   3.669
 4419SOL     OW14155   0.594   5.392   6.996
 4419SOL    HW114156   0.678   5.365   0.022
 4419SOL    HW214157   0.536   5.312   6.980
 4420SOL     OW14158   5.278   1.875   6.860
 4420SOL    HW114159   5.233   1.936   6.926
 4420SOL    HW214160   5.377   1.874   6.878
 4421SOL     OW14161   1.469   2.032   3.079
 4421SOL    HW114162   1.459   1.943   3.123
 4421SOL    HW214163   1.458   2.104   3.147
 4422SOL     OW14164   2.357   4.259   6.265
 4422SOL    HW114165   2.446   4.217   6.250
 4422SOL    HW214166   2.286   4.205   6.218
 4423SOL     OW14167   1.395   2.175   6.485
 4423SOL    HW114168   1.405   2.162   6.386
 4423SOL    HW214169   1.395   2.085   6.530
 4424SOL     OW14170   6.161   6.711   2.955
 4424SOL    HW114171   6.102   6.645   3.003
 4424SOL    HW214172   6.151   6.801   2.997
 4425SOL     OW14173   3.747   4.732   6.440
 4425SOL    HW114174   3.670   4.726   6.376
 4425SOL    HW214175   3.820   4.788   6.399
 4426SOL     OW14176   0.506   0.526   5.268
 4426SOL    HW114177   0.494   0.619   5.234
 4426SOL    HW214178   0.421   0.495   5.311
 4427SOL     OW14179   1.313   0.465   3.078
 4427SOL    HW114180   1.217   0.480   3.055
 4427SOL    HW214181   1.321   0.386   3.139
 4428SOL     OW14182   2.064   5.694   4.015
 4428SOL    HW114183   2.059   5.656   3.922
 4428SOL    HW214184   1.974   5.690   4.057
 4429SOL     OW14185   3.345   6.957   3.590
 4429SOL    HW114186   3.343   6.915   3.681
 4429SOL    HW214187   3.406   6.904   3.531
 4430SOL     OW14188   2.475   0.743   2.597
 4430SOL    HW114189   2.425   0.668   2.554
 4430SOL    HW214190   2.418   0.825   2.598
 4431SOL     OW14191   2.829   1.834   3.694
 4431SOL    HW114192   2.877   1.765   3.639
 4431SOL    HW214193   2.740   1.852   3.654
 4432SOL     OW14194   2.868   3.435   2.698
 4432SOL    HW114195   2.875   3.429   2.598
 4432SOL    HW214196   2.776   3.410   2.726
 4433SOL     OW14197   5.937   0.411   2.406
 4433SOL    HW114198   5.868   0.340   2.391
 4433SOL    HW214199   6.001   0.381   2.477
 4434SOL     OW14200   6.133   2.422   4.234
 4434SOL    HW114201   6.233   2.423   4.240
 4434SOL    HW214202   6.105   2.452   4.143
 4435SOL     OW14203   3.556   2.922   1.896
 4435SOL    HW114204   3.477   2.872   1.931
 4435SOL    HW214205   3.528   3.015   1.871
 4436SOL     OW14206   4.683   1.799   0.013
 4436SOL    HW114207   4.653   1.763   0.101
 4436SOL    HW214208   4.644   1.890   7.019
 4437SOL     OW14209   3.597   0.725   4.574
 4437SOL    HW114210   3.645   0.746   4.659
 4437SOL    HW214211   3.628   0.788   4.502
 4438SOL     OW14212   4.329   3.055   6.763
 4438SOL    HW114213   4.292   2.986   6.701
 4438SOL    HW214214   4.351   3.013   6.850
 4439SOL     OW14215   1.577   5.632   2.761
 4439SOL    HW114216   1.563   5.730   2.780
 4439SOL    HW214217   1.577   5.618   2.662
 4440SOL     OW14218   1.148   6.601   6.437
 4440SOL    HW114219   1.200   6.520   6.461
 4440SOL    HW214220   1.206   6.682   6.447
 4441SOL     OW14221   5.422   2.424   2.715
 4441SOL    HW114222   5.358   2.481   2.664
 4441SOL    HW214223   5.374   2.374   2.786
 4442SOL     OW14224   3.608   5.752   3.766
 4442SOL    HW114225   3.670   5.687   3.807
 4442SOL    HW214226   3.547   5.705   3.702
 4443SOL     OW14227   3.001   2.041   5.920
 4443SOL    HW114228   3.003   1.946   5.950
 4443SOL    HW214229   3.032   2.100   5.995
 4444SOL     OW14230   5.129   6.930   0.537
 4444SOL    HW114231   5.132   7.016   0.487
 4444SOL    HW214232   5.221   6.893   0.548
 4445SOL     OW14233   1.159   0.744   6.223
 4445SOL    HW114234   1.152   0.723   6.125
 4445SOL    HW214235   1.243   0.703   6.260
 4446SOL     OW14236   6.413   0.276   3.101
 4446SOL    HW114237   6.418   0.251   3.004
 4446SOL    HW214238   6.400   0.375   3.109
 4447SOL     OW14239   5.501   2.135   5.699
 4447SOL    HW114240   5.545   2.225   5.698
 4447SOL    HW214241   5.461   2.117   5.610
 4448SOL     OW14242   2.536   3.549   6.810
 4448SOL    HW114243   2.565   3.516   6.900
 4448SOL    HW214244   2.616   3.562   6.751
 4449SOL     OW14245   2.040   1.067   4.898
 4449SOL    HW114246   2.039   1.077   4.799
 4449SOL    HW214247   2.001   0.979   4.923
 4450SOL     OW14248   3.856   3.009   3.226
 4450SOL    HW114249   3.901   2.986   3.139
 4450SOL    HW214250   3.759   3.025   3.210
 4451SOL     OW14251   6.687   4.938   2.702
 4451SOL    HW114252   6.658   4.846   2.726
 4451SOL    HW214253   6.631   4.972   2.626
 4452SOL     OW14254   6.325   6.452   6.621
 4452SOL    HW114255   6.377   6.429   6.703
 4452SOL    HW214256   6.232   6.480   6.647
 4453SOL     OW14257   5.026   2.187   1.411
 4453SOL    HW114258   5.079   2.166   1.328
 4453SOL    HW214259   5.036   2.284   1.433
 4454SOL     OW14260   5.367   2.433   1.462
 4454SOL    HW114261   5.400   2.526   1.447
 4454SOL    HW214262   5.275   2.424   1.426
 4455SOL     OW14263   3.701   0.974   2.592
 4455SOL    HW114264   3.676   0.877   2.592
 4455SOL    HW214265   3.632   1.026   2.642
 4456SOL     OW14266   1.051   5.072   3.467
 4456SOL    HW114267   1.014   5.091   3.558
 4456SOL    HW214268   1.129   5.133   3.450
 4457SOL     OW14269   5.267   2.172   6.562
 4457SOL    HW114270   5.366   2.164   6.574
 4457SOL    HW214271   5.225   2.082   6.572
 4458SOL     OW14272   3.131   2.195   6.406
 4458SOL    HW114273   3.140   2.242   6.494
 4458SOL    HW214274   3.107   2.099   6.422
 4459SOL     OW14275   4.877   6.703   4.801
 4459SOL    HW114276   4.787   6.695   4.843
 4459SOL    HW214277   4.867   6.713   4.702
 4460SOL     OW14278   2.905   2.445   6.283
 4460SOL    HW114279   2.967   2.401   6.349
 4460SOL    HW214280   2.906   2.394   6.197
 4461SOL     OW14281   2.185   6.891   2.291
 4461SOL    HW114282   2.207   6.974   2.343
 4461SOL    HW214283   2.086   6.880   2.287
 4462SOL     OW14284   6.677   5.697   0.955
 4462SOL    HW114285   6.709   5.610   0.918
 4462SOL    HW214286   6.674   5.765   0.882
 4463SOL     OW14287   1.515   3.428   6.403
 4463SOL    HW114288   1.613   3.435   6.421
 4463SOL    HW214289   1.477   3.350   6.452
 4464SOL     OW14290   5.877   3.223   6.105
 4464SOL    HW114291   5.935   3.188   6.032
 4464SOL    HW214292   5.782   3.221   6.076
 4465SOL     OW14293   1.588   5.952   1.573
 4465SOL    HW114294   1.501   5.953   1.523
 4465SOL    HW214295   1.570   5.934   1.669
 4466SOL     OW14296   1.225   1.872   2.720
 4466SOL    HW114297   1.218   1.954   2.776
 4466SOL    HW214298   1.182   1.888   2.631
 4467SOL     OW14299   1.415   6.518   3.143
 4467SOL    HW114300   1.368   6.598   3.106
 4467SOL    HW214301   1.356   6.472   3.209
 4468SOL     OW14302   1.377   2.807   0.805
 4468SOL    HW114303   1.296   2.783   0.858
 4468SOL    HW214304   1.400   2.732   0.743
 4469SOL     OW14305   4.038   0.237   0.928
 4469SOL    HW114306   3.996   0.151   0.901
 4469SOL    HW214307   4.136   0.224   0.940
 4470SOL     OW14308   4.800   3.798   1.415
 4470SOL    HW114309   4.769   3.727   1.351
 4470SOL    HW214310   4.883   3.766   1.461
 4471SOL     OW14311   7.018   2.769   1.509
 4471SOL    HW114312   6.964   2.711   1.449
 4471SOL    HW214313   6.973   2.775   1.598
 4472SOL     OW14314   1.760   4.036   2.413
 4472SOL    HW114315   1.733   4.133   2.414
 4472SOL    HW214316   1.718   3.991   2.335
 4473SOL     OW14317   6.533   6.753   4.340
 4473SOL    HW114318   6.628   6.741   4.312
 4473SOL    HW214319   6.504   6.847   4.320
 4474SOL     OW14320   4.529   0.452   2.532
 4474SOL    HW114321   4.607   0.487   2.481
 4474SOL    HW214322   4.507   0.514   2.607
 4475SOL     OW14323   1.892   4.491   0.340
 4475SOL    HW114324   1.809   4.459   0.387
 4475SOL    HW214325   1.877   4.584   0.306
 4476SOL     OW14326   4.950   6.681   2.050
 4476SOL    HW114327   4.992   6.772   2.044
 4476SOL    HW214328   5.014   6.613   2.014
 4477SOL     OW14329   1.408   1.126   0.231
 4477SOL    HW114330   1.336   1.076   0.278
 4477SOL    HW214331   1.382   1.222   0.223
 4478SOL     OW14332   2.227   6.518   2.363
 4478SOL    HW114333   2.232   6.519   2.462
 4478SOL    HW214334   2.234   6.611   2.328
 4479SOL     OW14335   1.040   0.468   6.052
 4479SOL    HW114336   1.075   0.375   6.063
 4479SOL    HW214337   0.946   0.472   6.085
 4480SOL     OW14338   0.983   5.129   4.697
 4480SOL    HW114339   0.982   5.070   4.617
 4480SOL    HW214340   1.060   5.106   4.756
 4481SOL     OW14341   0.656   6.286   4.126
 4481SOL    HW114342   0.745   6.303   4.168
 4481SOL    HW214343   0.584   6.328   4.182
 4482SOL     OW14344   0.216   4.433   3.754
 4482SOL    HW114345   0.182   4.472   3.668
 4482SOL    HW214346   0.314   4.448   3.762
 4483SOL     OW14347   5.410   3.165   2.050
 4483SOL    HW114348   5.346   3.110   1.996
 4483SOL    HW214349   5.498   3.171   2.002
 4484SOL     OW14350   3.636   2.428   5.556
 4484SOL    HW114351   3.672   2.386   5.640
 4484SOL    HW214352   3.540   2.402   5.545
 4485SOL     OW14353   5.136   1.424   6.567
 4485SOL    HW114354   5.064   1.373   6.616
 4485SOL    HW214355   5.214   1.435   6.628
 4486SOL     OW14356   6.468   3.443   4.787
 4486SOL    HW114357   6.393   3.444   4.853
 4486SOL    HW214358   6.472   3.354   4.742
 4487SOL     OW14359   2.922   3.273   6.121
 4487SOL    HW114360   2.984   3.330   6.067
 4487SOL    HW214361   2.933   3.177   6.096
 4488SOL     OW14362   6.411   1.909   5.092
 4488SOL    HW114363   6.345   1.843   5.127
 4488SOL    HW214364   6.426   1.892   4.995
 4489SOL     OW14365   5.723   5.968   4.430
 4489SOL    HW114366   5.702   5.933   4.521
 4489SOL    HW214367   5.737   5.891   4.367
 4490SOL     OW14368   6.574   1.895   2.945
 4490SOL    HW114369   6.606   1.965   2.881
 4490SOL    HW214370   6.640   1.819   2.947
 4491SOL     OW14371   0.934   3.749   2.712
 4491SOL    HW114372   0.925   3.790   2.803
 4491SOL    HW214373   0.861   3.682   2.698
 4492SOL     OW14374   4.602   2.562   0.116
 4492SOL    HW114375   4.557   2.569   0.205
 4492SOL    HW214376   4.670   2.635   0.108
 4493SOL     OW14377   5.597   5.723   4.959
 4493SOL    HW114378   5.588   5.650   5.026
 4493SOL    HW214379   5.622   5.809   5.005
 4494SOL     OW14380   0.286   4.163   5.127
 4494SOL    HW114381   0.355   4.135   5.061
 4494SOL    HW214382   0.196   4.129   5.098
 4495SOL     OW14383   4.869   6.640   1.655
 4495SOL    HW114384   4.888   6.694   1.736
 4495SOL    HW214385   4.890   6.544   1.673
 4496SOL     OW14386   5.366   3.824   5.667
 4496SOL    HW114387   5.335   3.747   5.722
 4496SOL    HW214388   5.301   3.842   5.594
 4497SOL     OW14389   6.120   5.121   0.177
 4497SOL    HW114390   6.048   5.102   0.111
 4497SOL    HW214391   6.089   5.097   0.269
 4498SOL     OW14392   0.242   3.481   6.777
 4498SOL    HW114393   0.286   3.518   6.695
 4498SOL    HW214394   0.149   3.516   6.784
 4499SOL     OW14395   6.991   3.363   5.958
 4499SOL    HW114396   6.936   3.308   5.895
 4499SOL    HW214397   6.930   3.412   6.021
 4500SOL     OW14398   2.898   3.669   4.355
 4500SOL    HW114399   2.953   3.602   4.306
 4500SOL    HW214400   2.802   3.641   4.352
 4501SOL     OW14401   0.050   4.668   5.251
 4501SOL    HW114402   0.054   4.574   5.219
 4501SOL    HW214403   0.140   4.696   5.286
 4502SOL     OW14404   1.253   2.683   0.140
 4502SOL    HW114405   1.160   2.696   0.175
 4502SOL    HW214406   1.319   2.701   0.214
 4503SOL     OW14407   1.558   1.614   3.542
 4503SOL    HW114408   1.562   1.573   3.633
 4503SOL    HW214409   1.474   1.586   3.496
 4504SOL     OW14410   5.695   2.805   5.032
 4504SOL    HW114411   5.653   2.895   5.020
 4504SOL    HW214412   5.741   2.779   4.947
 4505SOL     OW14413   1.594   6.364   5.224
 4505SOL    HW114414   1.688   6.333   5.243
 4505SOL    HW214415   1.529   6.303   5.269
 4506SOL     OW14416   3.739   0.875   5.323
 4506SOL    HW114417   3.834   0.873   5.293
 4506SOL    HW214418   3.701   0.783   5.318
 4507SOL     OW14419   5.265   4.069   0.528
 4507SOL    HW114420   5.311   4.045   0.613
 4507SOL    HW214421   5.280   4.165   0.508
 4508SOL     OW14422   1.430   3.631   7.008
 4508SOL    HW114423   1.336   3.605   6.989
 4508SOL    HW214424   1.490   3.598   6.934
 4509SOL     OW14425   3.004   1.654   4.286
 4509SOL    HW114426   3.080   1.648   4.351
 4509SOL    HW214427   3.036   1.697   4.202
 4510SOL     OW14428   5.185   0.004   5.006
 4510SOL    HW114429   5.110   7.007   4.943
 4510SOL    HW214430   5.257   0.057   4.960
 4511SOL     OW14431   6.321   2.271   0.533
 4511SOL    HW114432   6.274   2.238   0.615
 4511SOL    HW214433   6.415   2.237   0.533
 4512SOL     OW14434   2.522   5.991   6.584
 4512SOL    HW114435   2.548   5.895   6.579
 4512SOL    HW214436   2.604   6.048   6.586
 4513SOL     OW14437   5.234   0.229   1.766
 4513SOL    HW114438   5.161   0.252   1.831
 4513SOL    HW214439   5.293   0.309   1.754
 4514SOL     OW14440   3.277   1.289   5.336
 4514SOL    HW114441   3.349   1.233   5.294
 4514SOL    HW214442   3.213   1.319   5.265
 4515SOL     OW14443   0.205   5.014   0.816
 4515SOL    HW114444   0.106   5.012   0.802
 4515SOL    HW214445   0.245   4.928   0.783
 4516SOL     OW14446   1.097   1.582   5.406
 4516SOL    HW114447   1.078   1.643   5.482
 4516SOL    HW214448   1.152   1.504   5.439
 4517SOL     OW14449   3.736   6.945   5.956
 4517SOL    HW114450   3.752   6.860   6.005
 4517SOL    HW214451   3.674   7.003   6.008
 4518SOL     OW14452   1.032   2.256   3.489
 4518SOL    HW114453   1.033   2.243   3.390
 4518SOL    HW214454   0.944   2.224   3.526
 4519SOL     OW14455   0.538   3.166   3.579
 4519SOL    HW114456   0.517   3.134   3.671
 4519SOL    HW214457   0.532   3.265   3.576
 4520SOL     OW14458   0.066   4.824   3.126
 4520SOL    HW114459   7.017   4.787   3.063
 4520SOL    HW214460   0.023   4.842   3.215
 4521SOL     OW14461   5.041   2.745   6.766
 4521SOL    HW114462   5.016   2.678   6.835
 4521SOL    HW214463   5.073   2.698   6.683
 4522SOL     OW14464   6.605   6.923   3.433
 4522SOL    HW114465   6.673   6.899   3.503
 4522SOL    HW214466   6.647   6.985   3.366
 4523SOL     OW14467   3.311   4.234   0.003
 4523SOL    HW114468   3.370   4.194   0.073
 4523SOL    HW214469   3.215   4.218   0.026
 4524SOL     OW14470   5.404   0.894   4.778
 4524SOL    HW114471   5.326   0.885   4.716
 4524SOL    HW214472   5.374   0.936   4.864
 4525SOL     OW14473   6.313   1.382   4.693
 4525SOL    HW114474   6.225   1.343   4.721
 4525SOL    HW214475   6.384   1.355   4.759
 4526SOL     OW14476   4.695   6.903   0.257
 4526SOL    HW114477   4.610   6.944   0.288
 4526SOL    HW214478   4.693   6.804   0.273
 4527SOL     OW14479   4.866   1.056   2.866
 4527SOL    HW114480   4.944   1.117   2.849
 4527SOL    HW214481   4.782   1.110   2.866
 4528SOL     OW14482   5.625   0.074   0.363
 4528SOL    HW114483   5.591   0.119   0.281
 4528SOL    HW214484   5.725   0.067   0.359
 4529SOL     OW14485   3.013   0.231   3.003
 4529SOL    HW114486   2.972   0.312   2.962
 4529SOL    HW214487   3.099   0.256   3.046
 4530SOL     OW14488   0.172   3.252   5.342
 4530SOL    HW114489   0.188   3.216   5.434
 4530SOL    HW214490   0.074   3.249   5.321
 4531SOL     OW14491   0.446   3.085   3.854
 4531SOL    HW114492   0.379   3.024   3.897
 4531SOL    HW214493   0.431   3.178   3.885
 4532SOL     OW14494   6.121   1.242   0.756
 4532SOL    HW114495   6.056   1.317   0.745
 4532SOL    HW214496   6.088   1.178   0.825
 4533SOL     OW14497   1.712   5.865   3.115
 4533SOL    HW114498   1.714   5.964   3.110
 4533SOL    HW214499   1.774   5.826   3.047
 4534SOL     OW14500   6.504   3.895   4.907
 4534SOL    HW114501   6.421   3.863   4.861
 4534SOL    HW214502   6.544   3.970   4.853
 4535SOL     OW14503   4.885   3.214   2.128
 4535SOL    HW114504   4.917   3.198   2.221
 4535SOL    HW214505   4.851   3.129   2.089
 4536SOL     OW14506   6.076   1.315   4.778
 4536SOL    HW114507   6.073   1.385   4.849
 4536SOL    HW214508   6.047   1.227   4.817
 4537SOL     OW14509   4.038   2.741   0.059
 4537SOL    HW114510   4.126   2.704   0.029
 4537SOL    HW214511   3.971   2.728   7.006
 4538SOL     OW14512   2.955   1.705   3.150
 4538SOL    HW114513   2.871   1.691   3.097
 4538SOL    HW214514   3.004   1.619   3.159
 4539SOL     OW14515   2.442   1.871   3.104
 4539SOL    HW114516   2.484   1.952   3.061
 4539SOL    HW214517   2.403   1.813   3.033
 4540SOL     OW14518   3.709   2.962   4.630
 4540SOL    HW114519   3.679   2.923   4.717
 4540SOL    HW214520   3.804   2.992   4.638
 4541SOL     OW14521   5.054   1.721   0.889
 4541SOL    HW114522   4.977   1.720   0.953
 4541SOL    HW214523   5.130   1.772   0.930
 4542SOL     OW14524   6.129   6.586   2.216
 4542SOL    HW114525   6.139   6.510   2.281
 4542SOL    HW214526   6.143   6.552   2.123
 4543SOL     OW14527   5.497   1.739   1.138
 4543SOL    HW114528   5.592   1.723   1.164
 4543SOL    HW214529   5.448   1.652   1.134
 4544SOL     OW14530   3.549   5.728   6.625
 4544SOL    HW114531   3.483   5.780   6.678
 4544SOL    HW214532   3.504   5.649   6.584
 4545SOL     OW14533   4.045   2.404   5.609
 4545SOL    HW114534   4.039   2.312   5.648
 4545SOL    HW214535   4.056   2.397   5.509
 4546SOL     OW14536   0.535   6.787   6.438
 4546SOL    HW114537   0.501   6.810   6.347
 4546SOL    HW214538   0.563   6.691   6.439
 4547SOL     OW14539   5.402   2.228   1.659
 4547SOL    HW114540   5.342   2.200   1.584
 4547SOL    HW214541   5.437   2.320   1.641
 4548SOL     OW14542   0.400   4.060   3.604
 4548SOL    HW114543   0.395   4.150   3.560
 4548SOL    HW214544   0.489   4.019   3.584
 4549SOL     OW14545   6.662   3.505   3.190
 4549SOL    HW114546   6.574   3.459   3.175
 4549SOL    HW214547   6.730   3.438   3.220
 4550SOL     OW14548   0.872   6.057   3.369
 4550SOL    HW114549   0.783   6.035   3.329
 4550SOL    HW214550   0.861   6.074   3.467
 4551SOL     OW14551   0.742   3.128   5.225
 4551SOL    HW114552   0.720   3.075   5.144
 4551SOL    HW214553   0.657   3.161   5.267
 4552SOL     OW14554   0.887   3.048   4.594
 4552SOL    HW114555   0.858   3.119   4.658
 4552SOL    HW214556   0.814   2.980   4.583
 4553SOL     OW14557   4.522   5.236   0.581
 4553SOL    HW114558   4.438   5.189   0.552
 4553SOL    HW214559   4.547   5.304   0.513
 4554SOL     OW14560   4.258   0.096   2.814
 4554SOL    HW114561   4.340   0.152   2.826
 4554SOL    HW214562   4.282   0.012   2.765
 4555SOL     OW14563   5.017   2.497   6.873
 4555SOL    HW114564   5.041   2.462   6.963
 4555SOL    HW214565   4.939   2.445   6.836
 4556SOL     OW14566   4.529   0.627   3.873
 4556SOL    HW114567   4.579   0.593   3.793
 4556SOL    HW214568   4.503   0.722   3.858
 4557SOL     OW14569   5.751   0.251   6.081
 4557SOL    HW114570   5.676   0.250   6.015
 4557SOL    HW214571   5.831   0.293   6.039
 4558SOL     OW14572   6.415   3.374   6.768
 4558SOL    HW114573   6.427   3.292   6.713
 4558SOL    HW214574   6.342   3.430   6.728
 4559SOL     OW14575   1.982   6.229   1.423
 4559SOL    HW114576   1.990   6.327   1.406
 4559SOL    HW214577   1.900   6.211   1.477
 4560SOL     OW14578   5.313   3.198   3.380
 4560SOL    HW114579   5.219   3.192   3.412
 4560SOL    HW214580   5.328   3.286   3.336
 4561SOL     OW14581   3.488   0.477   6.451
 4561SOL    HW114582   3.429   0.434   6.519
 4561SOL    HW214583   3.510   0.411   6.379
 4562SOL     OW14584   2.886   5.917   6.851
 4562SOL    HW114585   2.836   6.001   6.831
 4562SOL    HW214586   2.833   5.862   6.916
 4563SOL     OW14587   5.554   1.903   6.933
 4563SOL    HW114588   5.596   1.879   0.001
 4563SOL    HW214589   5.529   1.999   6.933
 4564SOL     OW14590   1.418   6.094   6.921
 4564SOL    HW114591   1.363   6.152   6.982
 4564SOL    HW214592   1.461   6.152   6.851
 4565SOL     OW14593   1.197   1.195   5.224
 4565SOL    HW114594   1.273   1.194   5.159
 4565SOL    HW214595   1.128   1.262   5.193
 4566SOL     OW14596   0.022   0.918   6.795
 4566SOL    HW114597   6.996   1.004   6.818
 4566SOL    HW214598   0.112   0.915   6.840
 4567SOL     OW14599   6.522   1.577   0.632
 4567SOL    HW114600   6.540   1.675   0.630
 4567SOL    HW214601   6.427   1.561   0.659
 4568SOL     OW14602   3.311   4.313   5.672
 4568SOL    HW114603   3.378   4.385   5.688
 4568SOL    HW214604   3.356   4.224   5.676
 4569SOL     OW14605   1.152   1.796   4.138
 4569SOL    HW114606   1.250   1.817   4.138
 4569SOL    HW214607   1.104   1.863   4.195
 4570SOL     OW14608   7.015   6.108   3.464
 4570SOL    HW114609   6.945   6.070   3.403
 4570SOL    HW214610   6.988   6.095   3.559
 4571SOL     OW14611   3.233   3.431   4.599
 4571SOL    HW114612   3.312   3.396   4.649
 4571SOL    HW214613   3.262   3.466   4.510
 4572SOL     OW14614   1.472   6.726   1.169
 4572SOL    HW114615   1.565   6.693   1.153
 4572SOL    HW214616   1.463   6.758   1.263
 4573SOL     OW14617   5.615   5.544   1.245
 4573SOL    HW114618   5.522   5.543   1.283
 4573SOL    HW214619   5.676   5.495   1.306
 4574SOL     OW14620   6.894   4.284   2.054
 4574SOL    HW114621   6.799   4.260   2.032
 4574SOL    HW214622   6.956   4.230   1.997
 4575SOL     OW14623   6.472   1.446   1.291
 4575SOL    HW114624   6.420   1.411   1.213
 4575SOL    HW214625   6.476   1.546   1.287
 4576SOL     OW14626   3.143   6.004   6.920
 4576SOL    HW114627   3.208   5.972   6.990
 4576SOL    HW214628   3.061   5.947   6.921
 4577SOL     OW14629   1.180   3.759   3.366
 4577SOL    HW114630   1.274   3.775   3.334
 4577SOL    HW214631   1.182   3.720   3.457
 4578SOL     OW14632   0.237   3.808   3.985
 4578SOL    HW114633   0.309   3.751   4.024
 4578SOL    HW214634   0.170   3.830   4.055
 4579SOL     OW14635   5.218   2.058   3.165
 4579SOL    HW114636   5.138   2.115   3.181
 4579SOL    HW214637   5.300   2.114   3.166
 4580SOL     OW14638   5.754   5.670   0.623
 4580SOL    HW114639   5.730   5.708   0.712
 4580SOL    HW214640   5.772   5.745   0.559
 4581SOL     OW14641   3.451   5.629   3.323
 4581SOL    HW114642   3.524   5.589   3.379
 4581SOL    HW214643   3.385   5.674   3.383
 4582SOL     OW14644   5.171   6.310   2.860
 4582SOL    HW114645   5.155   6.287   2.764
 4582SOL    HW214646   5.104   6.377   2.890
 4583SOL     OW14647   3.009   2.086   5.465
 4583SOL    HW114648   3.064   2.043   5.537
 4583SOL    HW214649   2.972   2.173   5.498
 4584SOL     OW14650   0.568   5.366   5.629
 4584SOL    HW114651   0.520   5.312   5.698
 4584SOL    HW214652   0.666   5.364   5.647
 4585SOL     OW14653   3.079   5.782   3.197
 4585SOL    HW114654   3.145   5.851   3.168
 4585SOL    HW214655   2.992   5.798   3.151
 4586SOL     OW14656   3.704   5.497   1.841
 4586SOL    HW114657   3.632   5.441   1.881
 4586SOL    HW214658   3.671   5.539   1.756
 4587SOL     OW14659   2.819   3.081   1.183
 4587SOL    HW114660   2.871   2.997   1.192
 4587SOL    HW214661   2.867   3.144   1.122
 4588SOL     OW14662   3.930   3.459   5.474
 4588SOL    HW114663   4.028   3.442   5.481
 4588SOL    HW214664   3.910   3.508   5.389
 4589SOL     OW14665   5.964   2.315   3.940
 4589SOL    HW114666   5.924   2.377   3.871
 4589SOL    HW214667   5.931   2.341   4.031
 4590SOL     OW14668   4.882   4.909   2.533
 4590SOL    HW114669   4.798   4.962   2.518
 4590SOL    HW214670   4.858   4.821   2.573
 4591SOL     OW14671   5.789   5.451   5.359
 4591SOL    HW114672   5.709   5.412   5.404
 4591SOL    HW214673   5.812   5.395   5.279
 4592SOL     OW14674   3.878   2.521   0.192
 4592SOL    HW114675   3.905   2.429   0.222
 4592SOL    HW214676   3.947   2.556   0.129
 4593SOL     OW14677   3.743   6.407   2.817
 4593SOL    HW114678   3.732   6.505   2.830
 4593SOL    HW214679   3.818   6.389   2.754
 4594SOL     OW14680   2.635   1.800   1.947
 4594SOL    HW114681   2.581   1.737   1.892
 4594SOL    HW214682   2.584   1.826   2.029
 4595SOL     OW14683   4.051   3.107   6.536
 4595SOL    HW114684   3.987   3.104   6.458
 4595SOL    HW214685   4.053   3.018   6.580
 4596SOL     OW14686   5.883   6.750   2.155
 4596SOL    HW114687   5.910   6.680   2.222
 4596SOL    HW214688   5.918   6.839   2.184
 4597SOL     OW14689   5.222   4.126   6.132
 4597SOL    HW114690   5.216   4.220   6.167
 4597SOL    HW214691   5.290   4.075   6.185
 4598SOL     OW14692   2.203   5.406   6.702
 4598SOL    HW114693   2.248   5.488   6.739
 4598SOL    HW214694   2.272   5.337   6.682
 4599SOL     OW14695   1.534   4.720   1.363
 4599SOL    HW114696   1.623   4.765   1.372
 4599SOL    HW214697   1.469   4.764   1.424
 4600SOL     OW14698   3.165   5.895   0.786
 4600SOL    HW114699   3.088   5.832   0.799
 4600SOL    HW214700   3.198   5.888   0.691
 4601SOL     OW14701   2.132   0.635   5.063
 4601SOL    HW114702   2.227   0.638   5.094
 4601SOL    HW214703   2.114   0.548   5.017
 4602SOL     OW14704   1.865   0.009   2.251
 4602SOL    HW114705   1.879   0.097   2.205
 4602SOL    HW214706   1.880   0.021   2.349
 4603SOL     OW14707   3.422   6.939   1.678
 4603SOL    HW114708   3.417   0.019   1.666
 4603SOL    HW214709   3.463   6.918   1.767
 4604SOL     OW14710   3.517   0.176   2.546
 4604SOL    HW114711   3.515   0.275   2.562
 4604SOL    HW214712   3.507   0.128   2.632
 4605SOL     OW14713   5.444   0.608   4.768
 4605SOL    HW114714   5.443   0.708   4.779
 4605SOL    HW214715   5.372   0.568   4.825
 4606SOL     OW14716   6.313   6.086   4.721
 4606SOL    HW114717   6.355   6.166   4.678
 4606SOL    HW214718   6.264   6.034   4.652
 4607SOL     OW14719   3.316   1.286   1.605
 4607SOL    HW114720   3.277   1.217   1.666
 4607SOL    HW214721   3.408   1.309   1.635
 4608SOL     OW14722   1.800   4.582   5.036
 4608SOL    HW114723   1.740   4.503   5.046
 4608SOL    HW214724   1.787   4.644   5.114
 4609SOL     OW14725   4.813   6.796   7.006
 4609SOL    HW114726   4.875   6.717   7.012
 4609SOL    HW214727   4.783   6.822   0.078
 4610SOL     OW14728   0.292   2.561   6.569
 4610SOL    HW114729   0.291   2.660   6.580
 4610SOL    HW214730   0.278   2.517   6.658
 4611SOL     OW14731   0.558   4.109   0.145
 4611SOL    HW114732   0.466   4.144   0.166
 4611SOL    HW214733   0.550   4.022   0.096
 4612SOL     OW14734   2.102   6.312   6.074
 4612SOL    HW114735   2.020   6.256   6.065
 4612SOL    HW214736   2.101   6.358   6.162
 4613SOL     OW14737   3.466   5.512   2.696
 4613SOL    HW114738   3.383   5.488   2.645
 4613SOL    HW214739   3.464   5.466   2.785
 4614SOL     OW14740   1.759   5.454   0.219
 4614SOL    HW114741   1.729   5.415   0.306
 4614SOL    HW214742   1.859   5.463   0.219
 4615SOL     OW14743   1.497   1.895   0.249
 4615SOL    HW114744   1.434   1.920   0.175
 4615SOL    HW214745   1.473   1.947   0.331
 4616SOL     OW14746   6.035   0.898   6.496
 4616SOL    HW114747   5.990   0.825   6.546
 4616SOL    HW214748   5.999   0.902   6.403
 4617SOL     OW14749   1.109   2.799   1.596
 4617SOL    HW114750   1.133   2.705   1.621
 4617SOL    HW214751   1.127   2.859   1.674
 4618SOL     OW14752   0.984   2.624   5.881
 4618SOL    HW114753   1.016   2.653   5.791
 4618SOL    HW214754   0.906   2.563   5.871
 4619SOL     OW14755   4.459   0.888   3.784
 4619SOL    HW114756   4.529   0.959   3.769
 4619SOL    HW214757   4.372   0.932   3.807
 4620SOL     OW14758   2.799   4.346   6.654
 4620SOL    HW114759   2.853   4.263   6.641
 4620SOL    HW214760   2.807   4.404   6.574
 4621SOL     OW14761   0.507   0.726   4.964
 4621SOL    HW114762   0.525   0.744   5.060
 4621SOL    HW214763   0.537   0.634   4.941
 4622SOL     OW14764   1.899   3.152   0.328
 4622SOL    HW114765   1.936   3.061   0.306
 4622SOL    HW214766   1.841   3.146   0.409
 4623SOL     OW14767   6.700   4.787   1.367
 4623SOL    HW114768   6.743   4.708   1.323
 4623SOL    HW214769   6.767   4.861   1.377
 4624SOL     OW14770   4.775   0.503   4.214
 4624SOL    HW114771   4.859   0.460   4.247
 4624SOL    HW214772   4.793   0.599   4.190
 4625SOL     OW14773   0.859   3.811   6.747
 4625SOL    HW114774   0.918   3.891   6.743
 4625SOL    HW214775   0.765   3.840   6.768
 4626SOL     OW14776   6.207   4.963   1.438
 4626SOL    HW114777   6.181   4.906   1.360
 4626SOL    HW214778   6.304   4.951   1.458
 4627SOL     OW14779   3.501   6.191   5.583
 4627SOL    HW114780   3.547   6.268   5.539
 4627SOL    HW214781   3.505   6.202   5.683
 4628SOL     OW14782   6.250   4.765   2.185
 4628SOL    HW114783   6.181   4.703   2.223
 4628SOL    HW214784   6.298   4.718   2.111
 4629SOL     OW14785   2.085   4.659   5.494
 4629SOL    HW114786   2.016   4.588   5.503
 4629SOL    HW214787   2.048   4.737   5.444
 4630SOL     OW14788   2.080   5.642   3.259
 4630SOL    HW114789   2.170   5.685   3.252
 4630SOL    HW214790   2.083   5.567   3.325
 4631SOL     OW14791   3.081   6.559   2.791
 4631SOL    HW114792   3.029   6.474   2.803
 4631SOL    HW214793   3.118   6.563   2.698
 4632SOL     OW14794   4.574   5.587   4.168
 4632SOL    HW114795   4.511   5.520   4.208
 4632SOL    HW214796   4.594   5.561   4.074
 4633SOL     OW14797   6.665   2.011   5.062
 4633SOL    HW114798   6.639   2.093   5.012
 4633SOL    HW214799   6.594   1.987   5.128
 4634SOL     OW14800   2.398   4.806   0.677
 4634SOL    HW114801   2.314   4.801   0.731
 4634SOL    HW214802   2.454   4.883   0.709
 4635SOL     OW14803   5.106   3.219   2.672
 4635SOL    HW114804   5.008   3.227   2.690
 4635SOL    HW214805   5.133   3.122   2.673
 4636SOL     OW14806   2.973   5.761   0.446
 4636SOL    HW114807   2.960   5.669   0.411
 4636SOL    HW214808   3.069   5.787   0.436
 4637SOL     OW14809   1.324   0.972   5.423
 4637SOL    HW114810   1.363   1.050   5.374
 4637SOL    HW214811   1.236   0.998   5.463
 4638SOL     OW14812   4.622   3.168   5.929
 4638SOL    HW114813   4.686   3.208   5.864
 4638SOL    HW214814   4.672   3.116   5.998
 4639SOL     OW14815   0.668   3.888   5.949
 4639SOL    HW114816   0.594   3.936   5.998
 4639SOL    HW214817   0.707   3.818   6.009
 4640SOL     OW14818   5.127   4.539   3.044
 4640SOL    HW114819   5.051   4.499   3.094
 4640SOL    HW214820   5.117   4.639   3.041
 4641SOL     OW14821   2.794   4.847   4.474
 4641SOL    HW114822   2.752   4.757   4.482
 4641SOL    HW214823   2.726   4.917   4.492
 4642SOL     OW14824   6.512   5.749   4.377
 4642SOL    HW114825   6.533   5.699   4.293
 4642SOL    HW214826   6.588   5.740   4.441
 4643SOL     OW14827   3.842   2.387   1.656
 4643SOL    HW114828   3.793   2.431   1.581
 4643SOL    HW214829   3.785   2.387   1.738
 4644SOL     OW14830   1.344   5.972   4.488
 4644SOL    HW114831   1.266   5.934   4.538
 4644SOL    HW214832   1.323   6.066   4.461
 4645SOL     OW14833   1.909   6.509   4.469
 4645SOL    HW114834   1.834   6.561   4.428
 4645SOL    HW214835   1.876   6.462   4.551
 4646SOL     OW14836   3.093   0.364   2.288
 4646SOL    HW114837   3.068   0.268   2.278
 4646SOL    HW214838   3.190   0.376   2.271
 4647SOL     OW14839   6.359   0.394   3.742
 4647SOL    HW114840   6.401   0.475   3.702
 4647SOL    HW214841   6.302   0.421   3.820
 4648SOL     OW14842   2.625   5.630   2.147
 4648SOL    HW114843   2.614   5.689   2.067
 4648SOL    HW214844   2.537   5.589   2.170
 4649SOL     OW14845   5.001   0.728   5.460
 4649SOL    HW114846   5.100   0.726   5.473
 4649SOL    HW214847   4.976   0.812   5.411
 4650SOL     OW14848   4.991   5.242   2.509
 4650SOL    HW114849   4.986   5.218   2.606
 4650SOL    HW214850   5.008   5.159   2.455
 4651SOL     OW14851   0.185   1.985   1.546
 4651SOL    HW114852   0.173   2.017   1.451
 4651SOL    HW214853   0.276   2.010   1.578
 4652SOL     OW14854   6.615   0.158   5.037
 4652SOL    HW114855   6.617   0.070   5.084
 4652SOL    HW214856   6.690   0.215   5.068
 4653SOL     OW14857   6.926   6.346   6.979
 4653SOL    HW114858   0.007   6.345   6.979
 4653SOL    HW214859   6.893   6.373   0.049
 4654SOL     OW14860   0.805   0.064   0.318
 4654SOL    HW114861   0.818   0.013   0.233
 4654SOL    HW214862   0.750   0.145   0.300
 4655SOL     OW14863   0.363   4.534   3.293
 4655SOL    HW114864   0.319   4.613   3.252
 4655SOL    HW214865   0.451   4.561   3.333
 4656SOL     OW14866   1.017   0.778   3.866
 4656SOL    HW114867   1.112   0.808   3.865
 4656SOL    HW214868   0.970   0.816   3.946
 4657SOL     OW14869   5.140   6.909   1.641
 4657SOL    HW114870   5.212   6.971   1.670
 4657SOL    HW214871   5.179   6.833   1.590
 4658SOL     OW14872   4.451   0.336   3.139
 4658SOL    HW114873   4.467   0.345   3.237
 4658SOL    HW214874   4.384   0.404   3.109
 4659SOL     OW14875   2.194   2.576   4.991
 4659SOL    HW114876   2.221   2.609   4.901
 4659SOL    HW214877   2.095   2.583   5.001
 4660SOL     OW14878   0.388   1.537   5.711
 4660SOL    HW114879   0.383   1.446   5.752
 4660SOL    HW214880   0.396   1.529   5.612
 4661SOL     OW14881   3.512   4.112   4.523
 4661SOL    HW114882   3.458   4.135   4.442
 4661SOL    HW214883   3.488   4.020   4.554
 4662SOL     OW14884   4.962   0.429   5.376
 4662SOL    HW114885   5.029   0.375   5.428
 4662SOL    HW214886   4.978   0.526   5.393
 4663SOL     OW14887   0.090   2.616   2.607
 4663SOL    HW114888   0.016   2.548   2.614
 4663SOL    HW214889   0.068   2.695   2.663
 4664SOL     OW14890   3.053   2.367   0.003
 4664SOL    HW114891   2.985   2.355   6.950
 4664SOL    HW214892   3.142   2.333   6.992
 4665SOL     OW14893   4.812   0.294   6.793
 4665SOL    HW114894   4.786   0.202   6.823
 4665SOL    HW214895   4.910   0.307   6.807
 4666SOL     OW14896   1.943   1.652   0.651
 4666SOL    HW114897   2.025   1.666   0.707
 4666SOL    HW214898   1.905   1.741   0.625
 4667SOL     OW14899   0.340   4.936   6.785
 4667SOL    HW114900   0.352   4.985   6.699
 4667SOL    HW214901   0.301   4.846   6.768
 4668SOL     OW14902   6.569   1.789   4.743
 4668SOL    HW114903   6.558   1.858   4.671
 4668SOL    HW214904   6.648   1.814   4.800
 4669SOL     OW14905   1.222   6.831   0.360
 4669SOL    HW114906   1.154   6.898   0.390
 4669SOL    HW214907   1.314   6.863   0.383
 4670SOL     OW14908   2.124   2.113   4.966
 4670SOL    HW114909   2.085   2.045   4.904
 4670SOL    HW214910   2.222   2.122   4.949
 4671SOL     OW14911   5.964   3.098   1.731
 4671SOL    HW114912   6.022   3.149   1.795
 4671SOL    HW214913   5.997   3.004   1.723
 4672SOL     OW14914   2.281   3.852   6.324
 4672SOL    HW114915   2.324   3.922   6.381
 4672SOL    HW214916   2.255   3.774   6.380
 4673SOL     OW14917   3.019   0.863   2.254
 4673SOL    HW114918   3.067   0.950   2.252
 4673SOL    HW214919   2.937   0.869   2.197
 4674SOL     OW14920   4.402   5.907   5.075
 4674SOL    HW114921   4.357   5.948   5.154
 4674SOL    HW214922   4.500   5.901   5.092
 4675SOL     OW14923   1.174   4.124   6.995
 4675SOL    HW114924   1.268   4.111   6.965
 4675SOL    HW214925   1.166   4.101   0.073
 4676SOL     OW14926   1.405   5.524   3.564
 4676SOL    HW114927   1.331   5.515   3.498
 4676SOL    HW214928   1.482   5.467   3.536
 4677SOL     OW14929   1.605   2.536   0.192
 4677SOL    HW114930   1.656   2.622   0.198
 4677SOL    HW214931   1.614   2.498   0.100
 4678SOL     OW14932   1.693   4.445   3.124
 4678SOL    HW114933   1.628   4.520   3.111
 4678SOL    HW214934   1.653   4.360   3.091
 4679SOL     OW14935   5.403   6.860   1.304
 4679SOL    HW114936   5.344   6.796   1.254
 4679SOL    HW214937   5.379   6.858   1.401
 4680SOL     OW14938   2.781   1.426   1.804
 4680SOL    HW114939   2.835   1.374   1.738
 4680SOL    HW214940   2.826   1.513   1.823
 4681SOL     OW14941   5.492   3.768   1.118
 4681SOL    HW114942   5.565   3.699   1.116
 4681SOL    HW214943   5.441   3.760   1.204
 4682SOL     OW14944   4.810   3.799   6.416
 4682SOL    HW114945   4.896   3.774   6.370
 4682SOL    HW214946   4.751   3.719   6.422
 4683SOL     OW14947   5.919   4.094   3.916
 4683SOL    HW114948   5.881   4.186   3.907
 4683SOL    HW214949   5.865   4.042   3.981
 4684SOL     OW14950   4.657   6.446   0.071
 4684SOL    HW114951   4.605   6.530   0.053
 4684SOL    HW214952   4.708   6.457   0.157
 4685SOL     OW14953   2.564   3.532   5.858
 4685SOL    HW114954   2.648   3.579   5.887
 4685SOL    HW214955   2.485   3.576   5.901
 4686SOL     OW14956   3.399   5.761   0.625
 4686SOL    HW114957   3.492   5.727   0.639
 4686SOL    HW214958   3.350   5.702   0.561
 4687SOL     OW14959   2.908   0.908   2.679
 4687SOL    HW114960   2.991   0.921   2.734
 4687SOL    HW214961   2.848   0.843   2.724
 4688SOL     OW14962   5.407   2.962   5.780
 4688SOL    HW114963   5.399   2.980   5.878
 4688SOL    HW214964   5.456   3.038   5.736
 4689SOL     OW14965   5.625   0.603   0.617
 4689SOL    HW114966   5.686   0.582   0.541
 4689SOL    HW214967   5.536   0.631   0.581
 4690SOL     OW14968   2.257   1.320   0.689
 4690SOL    HW114969   2.175   1.271   0.720
 4690SOL    HW214970   2.253   1.333   0.590
 4691SOL     OW14971   5.743   4.507   0.756
 4691SOL    HW114972   5.824   4.464   0.715
 4691SOL    HW214973   5.690   4.552   0.684
 4692SOL     OW14974   6.593   4.521   3.433
 4692SOL    HW114975   6.496   4.535   3.453
 4692SOL    HW214976   6.603   4.462   3.353
 4693SOL     OW14977   1.581   1.060   3.556
 4693SOL    HW114978   1.537   1.137   3.603
 4693SOL    HW214979   1.511   0.997   3.523
 4694SOL     OW14980   2.584   1.047   0.556
 4694SOL    HW114981   2.535   1.042   0.643
 4694SOL    HW214982   2.682   1.055   0.574
 4695SOL     OW14983   1.319   5.933   0.544
 4695SOL    HW114984   1.365   5.848   0.517
 4695SOL    HW214985   1.371   5.977   0.617
 4696SOL     OW14986   1.326   5.443   5.997
 4696SOL    HW114987   1.241   5.412   6.040
 4696SOL    HW214988   1.376   5.502   6.060
 4697SOL     OW14989   2.428   4.462   0.867
 4697SOL    HW114990   2.438   4.476   0.966
 4697SOL    HW214991   2.504   4.504   0.819
 4698SOL     OW14992   4.690   0.732   3.458
 4698SOL    HW114993   4.722   0.684   3.539
 4698SOL    HW214994   4.735   0.821   3.451
 4699SOL     OW14995   1.069   0.574   1.884
 4699SOL    HW114996   0.992   0.512   1.872
 4699SOL    HW214997   1.109   0.593   1.794
 4700SOL     OW14998   6.075   2.320   2.764
 4700SOL    HW114999   5.979   2.295   2.779
 4700SOL    HW215000   6.079   2.401   2.706
 4701SOL     OW15001   3.450   2.051   2.115
 4701SOL    HW115002   3.512   2.115   2.071
 4701SOL    HW215003   3.496   1.962   2.127
 4702SOL     OW15004   4.735   4.967   6.448
 4702SOL    HW115005   4.782   4.950   6.361
 4702SOL    HW215006   4.800   5.007   6.513
 4703SOL     OW15007   1.000   4.764   2.813
 4703SOL    HW115008   0.991   4.672   2.852
 4703SOL    HW215009   0.955   4.766   2.723
 4704SOL     OW15010   0.001   5.875   5.765
 4704SOL    HW115011   6.968   5.959   5.778
 4704SOL    HW215012   0.094   5.898   5.740
 4705SOL     OW15013   2.956   2.704   1.395
 4705SOL    HW115014   3.032   2.658   1.442
 4705SOL    HW215015   2.906   2.760   1.460
 4706SOL     OW15016   1.260   0.182   0.334
 4706SOL    HW115017   1.267   0.236   0.250
 4706SOL    HW215018   1.256   0.243   0.413
 4707SOL     OW15019   1.415   6.489   1.353
 4707SOL    HW115020   1.508   6.455   1.367
 4707SOL    HW215021   1.398   6.565   1.415
 4708SOL     OW15022   0.924   2.474   3.906
 4708SOL    HW115023   0.971   2.520   3.982
 4708SOL    HW215024   0.982   2.399   3.873
 4709SOL     OW15025   4.860   4.008   4.967
 4709SOL    HW115026   4.822   4.026   4.877
 4709SOL    HW215027   4.899   3.915   4.970
 4710SOL     OW15028   5.699   6.490   4.198
 4710SOL    HW115029   5.632   6.491   4.123
 4710SOL    HW215030   5.680   6.413   4.259
 4711SOL     OW15031   6.010   3.429   2.983
 4711SOL    HW115032   6.024   3.331   2.998
 4711SOL    HW215033   6.082   3.480   3.030
 4712SOL     OW15034   4.591   4.274   5.421
 4712SOL    HW115035   4.573   4.292   5.324
 4712SOL    HW215036   4.637   4.352   5.462
 4713SOL     OW15037   5.473   4.045   1.002
 4713SOL    HW115038   5.479   3.953   1.041
 4713SOL    HW215039   5.450   4.111   1.074
 4714SOL     OW15040   6.330   1.338   6.364
 4714SOL    HW115041   6.283   1.268   6.416
 4714SOL    HW215042   6.417   1.359   6.408
 4715SOL     OW15043   6.294   1.985   2.434
 4715SOL    HW115044   6.212   1.928   2.431
 4715SOL    HW215045   6.269   2.079   2.456
 4716SOL     OW15046   3.916   4.894   5.477
 4716SOL    HW115047   4.014   4.906   5.497
 4716SOL    HW215048   3.862   4.931   5.552
 4717SOL     OW15049   3.280   5.321   5.784
 4717SOL    HW115050   3.264   5.329   5.686
 4717SOL    HW215051   3.211   5.261   5.824
 4718SOL     OW15052   5.516   3.366   0.971
 4718SOL    HW115053   5.566   3.428   0.911
 4718SOL    HW215054   5.580   3.307   1.019
 4719SOL     OW15055   6.180   3.417   3.763
 4719SOL    HW115056   6.190   3.322   3.791
 4719SOL    HW215057   6.168   3.422   3.664
 4720SOL     OW15058   2.949   4.698   6.783
 4720SOL    HW115059   3.023   4.717   6.719
 4720SOL    HW215060   2.862   4.731   6.745
 4721SOL     OW15061   6.330   3.417   2.812
 4721SOL    HW115062   6.299   3.404   2.906
 4721SOL    HW215063   6.321   3.513   2.786
 4722SOL     OW15064   1.128   4.312   6.175
 4722SOL    HW115065   1.137   4.320   6.274
 4722SOL    HW215066   1.191   4.377   6.131
 4723SOL     OW15067   3.874   3.941   6.134
 4723SOL    HW115068   3.787   3.936   6.084
 4723SOL    HW215069   3.948   3.912   6.075
 4724SOL     OW15070   0.410   6.448   4.204
 4724SOL    HW115071   0.371   6.363   4.238
 4724SOL    HW215072   0.341   6.497   4.150
 4725SOL     OW15073   5.708   4.890   0.421
 4725SOL    HW115074   5.643   4.900   0.346
 4725SOL    HW215075   5.801   4.884   0.385
 4726SOL     OW15076   2.047   3.090   6.015
 4726SOL    HW115077   2.038   3.002   6.060
 4726SOL    HW215078   2.113   3.083   5.940
 4727SOL     OW15079   0.718   6.037   0.761
 4727SOL    HW115080   0.649   5.969   0.787
 4727SOL    HW215081   0.806   5.992   0.746
 4728SOL     OW15082   6.320   0.877   3.747
 4728SOL    HW115083   6.375   0.910   3.824
 4728SOL    HW215084   6.247   0.942   3.727
 4729SOL     OW15085   6.094   0.724   0.280
 4729SOL    HW115086   6.133   0.755   0.192
 4729SOL    HW215087   6.116   0.628   0.294
 4730SOL     OW15088   3.324   6.396   5.026
 4730SOL    HW115089   3.245   6.352   4.982
 4730SOL    HW215090   3.292   6.456   5.099
 4731SOL     OW15091   3.025   0.128   0.752
 4731SOL    HW115092   2.961   0.101   0.680
 4731SOL    HW215093   3.091   0.054   0.768
 4732SOL     OW15094   0.484   3.644   4.326
 4732SOL    HW115095   0.503   3.549   4.350
 4732SOL    HW215096   0.508   3.704   4.403
 4733SOL     OW15097   2.152   3.551   3.043
 4733SOL    HW115098   2.209   3.498   3.106
 4733SOL    HW215099   2.137   3.500   2.959
 4734SOL     OW15100   5.327   3.791   6.192
 4734SOL    HW115101   5.374   3.871   6.229
 4734SOL    HW215102   5.393   3.717   6.177
 4735SOL     OW15103   6.938   6.272   5.054
 4735SOL    HW115104   6.971   6.341   5.119
 4735SOL    HW215105   7.012   6.209   5.032
 4736SOL     OW15106   6.563   2.125   3.483
 4736SOL    HW115107   6.661   2.145   3.475
 4736SOL    HW215108   6.523   2.185   3.552
 4737SOL     OW15109   1.722   5.246   1.300
 4737SOL    HW115110   1.750   5.196   1.381
 4737SOL    HW215111   1.622   5.258   1.301
 4738SOL     OW15112   2.216   0.511   3.661
 4738SOL    HW115113   2.162   0.589   3.693
 4738SOL    HW215114   2.306   0.512   3.705
 4739SOL     OW15115   6.305   3.508   4.995
 4739SOL    HW115116   6.259   3.450   5.062
 4739SOL    HW215117   6.237   3.566   4.949
 4740SOL     OW15118   0.278   1.195   1.911
 4740SOL    HW115119   0.190   1.205   1.864
 4740SOL    HW215120   0.349   1.244   1.860
 4741SOL     OW15121   4.230   4.862   1.243
 4741SOL    HW115122   4.321   4.831   1.269
 4741SOL    HW215123   4.198   4.809   1.165
 4742SOL     OW15124   2.942   6.125   0.962
 4742SOL    HW115125   2.919   6.218   0.990
 4742SOL    HW215126   3.005   6.128   0.884
 4743SOL     OW15127   2.327   1.802   6.413
 4743SOL    HW115128   2.280   1.847   6.489
 4743SOL    HW215129   2.286   1.831   6.326
 4744SOL     OW15130   1.979   3.651   5.391
 4744SOL    HW115131   2.026   3.579   5.340
 4744SOL    HW215132   1.887   3.620   5.415
 4745SOL     OW15133   3.376   5.337   5.132
 4745SOL    HW115134   3.428   5.325   5.217
 4745SOL    HW215135   3.436   5.320   5.054
 4746SOL     OW15136   6.037   5.838   0.500
 4746SOL    HW115137   5.975   5.916   0.498
 4746SOL    HW215138   5.991   5.757   0.463
 4747SOL     OW15139   6.972   2.130   0.477
 4747SOL    HW115140   0.032   2.083   0.516
 4747SOL    HW215141   6.889   2.094   0.518
 4748SOL     OW15142   1.165   0.507   1.633
 4748SOL    HW115143   1.084   0.467   1.591
 4748SOL    HW215144   1.229   0.537   1.562
 4749SOL     OW15145   2.203   6.356   0.045
 4749SOL    HW115146   2.283   6.417   0.047
 4749SOL    HW215147   2.129   6.396   0.099
 4750SOL     OW15148   6.911   1.405   4.476
 4750SOL    HW115149   6.940   1.416   4.381
 4750SOL    HW215150   6.828   1.349   4.479
 4751SOL     OW15151   1.534   4.832   6.271
 4751SOL    HW115152   1.487   4.812   6.185
 4751SOL    HW215153   1.479   4.799   6.347
 4752SOL     OW15154   2.914   6.636   1.504
 4752SOL    HW115155   2.814   6.647   1.510
 4752SOL    HW215156   2.958   6.700   1.567
 4753SOL     OW15157   5.598   6.792   5.042
 4753SOL    HW115158   5.569   6.736   5.120
 4753SOL    HW215159   5.639   6.877   5.076
 4754SOL     OW15160   0.348   6.839   5.735
 4754SOL    HW115161   0.297   6.833   5.821
 4754SOL    HW215162   0.443   6.815   5.751
 4755SOL     OW15163   2.270   1.498   6.158
 4755SOL    HW115164   2.329   1.460   6.230
 4755SOL    HW215165   2.194   1.549   6.200
 4756SOL     OW15166   4.416   2.823   1.522
 4756SOL    HW115167   4.421   2.725   1.501
 4756SOL    HW215168   4.492   2.849   1.581
 4757SOL     OW15169   2.252   2.395   1.728
 4757SOL    HW115170   2.342   2.353   1.712
 4757SOL    HW215171   2.255   2.448   1.813
 4758SOL     OW15172   5.022   4.840   5.235
 4758SOL    HW115173   5.090   4.867   5.168
 4758SOL    HW215174   5.059   4.852   5.327
 4759SOL     OW15175   5.509   6.038   6.016
 4759SOL    HW115176   5.525   5.970   6.088
 4759SOL    HW215177   5.412   6.061   6.013
 4760SOL     OW15178   1.992   1.018   1.629
 4760SOL    HW115179   2.081   1.004   1.673
 4760SOL    HW215180   1.995   0.981   1.537
 4761SOL     OW15181   6.794   0.280   6.358
 4761SOL    HW115182   6.825   0.190   6.329
 4761SOL    HW215183   6.698   0.293   6.331
 4762SOL     OW15184   2.908   5.063   2.312
 4762SOL    HW115185   2.975   5.130   2.281
 4762SOL    HW215186   2.828   5.110   2.349
 4763SOL     OW15187   5.841   6.246   3.040
 4763SOL    HW115188   5.795   6.161   3.064
 4763SOL    HW215189   5.782   6.323   3.064
 4764SOL     OW15190   4.417   3.584   5.265
 4764SOL    HW115191   4.371   3.630   5.189
 4764SOL    HW215192   4.501   3.541   5.232
 4765SOL     OW15193   4.297   6.060   5.272
 4765SOL    HW115194   4.291   6.149   5.225
 4765SOL    HW215195   4.258   6.068   5.363
 4766SOL     OW15196   2.552   0.199   3.486
 4766SOL    HW115197   2.498   0.121   3.456
 4766SOL    HW215198   2.517   0.283   3.444
 4767SOL     OW15199   3.905   6.876   0.379
 4767SOL    HW115200   3.984   6.820   0.352
 4767SOL    HW215201   3.823   6.818   0.382
 4768SOL     OW15202   5.872   0.752   4.541
 4768SOL    HW115203   5.845   0.749   4.445
 4768SOL    HW215204   5.813   0.690   4.594
 4769SOL     OW15205   3.960   6.279   1.582
 4769SOL    HW115206   4.043   6.244   1.538
 4769SOL    HW215207   3.886   6.284   1.515
 4770SOL     OW15208   2.353   0.682   3.489
 4770SOL    HW115209   2.281   0.672   3.558
 4770SOL    HW215210   2.403   0.597   3.479
 4771SOL     OW15211   3.654   4.334   6.217
 4771SOL    HW115212   3.564   4.357   6.253
 4771SOL    HW215213   3.657   4.355   6.120
 4772SOL     OW15214   2.985   1.091   1.490
 4772SOL    HW115215   2.912   1.047   1.543
 4772SOL    HW215216   2.976   1.191   1.497
 4773SOL     OW15217   0.245   5.959   3.761
 4773SOL    HW115218   0.318   5.963   3.693
 4773SOL    HW215219   0.264   6.024   3.834
 4774SOL     OW15220   1.022   3.658   2.034
 4774SOL    HW115221   0.973   3.736   1.995
 4774SOL    HW215222   1.119   3.679   2.042
 4775SOL     OW15223   4.481   0.350   3.414
 4775SOL    HW115224   4.418   0.296   3.470
 4775SOL    HW215225   4.486   0.443   3.451
 4776SOL     OW15226   3.112   6.211   2.585
 4776SOL    HW115227   3.137   6.205   2.488
 4776SOL    HW215228   3.028   6.159   2.600
 4777SOL     OW15229   2.429   4.559   1.132
 4777SOL    HW115230   2.475   4.552   1.221
 4777SOL    HW215231   2.388   4.650   1.123
 4778SOL     OW15232   4.786   3.573   1.875
 4778SOL    HW115233   4.734   3.546   1.795
 4778SOL    HW215234   4.724   3.601   1.948
 4779SOL     OW15235   6.729   0.428   3.199
 4779SOL    HW115236   6.692   0.336   3.186
 4779SOL    HW215237   6.794   0.447   3.125
 4780SOL     OW15238   0.999   6.777   6.121
 4780SOL    HW115239   0.986   6.686   6.161
 4780SOL    HW215240   1.082   6.778   6.067
 4781SOL     OW15241   2.109   5.175   1.310
 4781SOL    HW115242   2.148   5.087   1.283
 4781SOL    HW215243   2.132   5.193   1.405
 4782SOL     OW15244   5.356   6.654   6.564
 4782SOL    HW115245   5.293   6.684   6.492
 4782SOL    HW215246   5.308   6.650   6.651
 4783SOL     OW15247   5.170   3.919   1.103
 4783SOL    HW115248   5.143   3.835   1.151
 4783SOL    HW215249   5.268   3.919   1.086
 4784SOL     OW15250   5.644   5.037   5.416
 4784SOL    HW115251   5.579   5.047   5.341
 4784SOL    HW215252   5.699   4.954   5.402
 4785SOL     OW15253   6.774   6.406   0.431
 4785SOL    HW115254   6.700   6.342   0.452
 4785SOL    HW215255   6.780   6.418   0.332
 4786SOL     OW15256   1.811   3.038   2.033
 4786SOL    HW115257   1.793   2.983   2.115
 4786SOL    HW215258   1.869   2.987   1.970
 4787SOL     OW15259   3.153   2.120   3.578
 4787SOL    HW115260   3.104   2.166   3.503
 4787SOL    HW215261   3.116   2.152   3.665
 4788SOL     OW15262   0.959   5.080   5.172
 4788SOL    HW115263   0.887   5.095   5.105
 4788SOL    HW215264   1.021   5.158   5.172
 4789SOL     OW15265   5.704   0.466   6.804
 4789SOL    HW115266   5.717   0.536   6.874
 4789SOL    HW215267   5.791   0.419   6.787
 4790SOL     OW15268   5.517   2.240   6.613
 4790SOL    HW115269   5.504   2.302   6.690
 4790SOL    HW215270   5.561   2.156   6.644
 4791SOL     OW15271   5.400   6.972   2.231
 4791SOL    HW115272   5.469   0.020   2.258
 4791SOL    HW215273   5.332   6.964   2.304
 4792SOL     OW15274   2.229   2.655   2.955
 4792SOL    HW115275   2.147   2.598   2.945
 4792SOL    HW215276   2.239   2.714   2.874
 4793SOL     OW15277   1.348   0.213   6.576
 4793SOL    HW115278   1.300   0.299   6.592
 4793SOL    HW215279   1.309   0.168   6.496
 4794SOL     OW15280   2.412   6.344   3.126
 4794SOL    HW115281   2.442   6.434   3.158
 4794SOL    HW215282   2.314   6.334   3.144
 4795SOL     OW15283   6.477   3.220   4.614
 4795SOL    HW115284   6.404   3.164   4.655
 4795SOL    HW215285   6.533   3.163   4.554
 4796SOL     OW15286   5.652   3.617   0.210
 4796SOL    HW115287   5.674   3.612   0.308
 4796SOL    HW215288   5.707   3.689   0.167
 4797SOL     OW15289   0.878   4.854   5.925
 4797SOL    HW115290   0.968   4.896   5.935
 4797SOL    HW215291   0.889   4.759   5.895
 4798SOL     OW15292   0.229   4.347   4.187
 4798SOL    HW115293   0.275   4.433   4.209
 4798SOL    HW215294   0.153   4.364   4.125
 4799SOL     OW15295   5.068   1.318   4.898
 4799SOL    HW115296   4.989   1.312   4.837
 4799SOL    HW215297   5.147   1.276   4.854
 4800SOL     OW15298   2.754   2.700   5.703
 4800SOL    HW115299   2.672   2.664   5.747
 4800SOL    HW215300   2.787   2.635   5.635
 4801SOL     OW15301   1.656   1.535   0.577
 4801SOL    HW115302   1.606   1.456   0.541
 4801SOL    HW215303   1.750   1.533   0.545
 4802SOL     OW15304   2.709   0.033   1.605
 4802SOL    HW115305   2.766   0.108   1.639
 4802SOL    HW215306   2.719   0.026   1.506
 4803SOL     OW15307   0.458   6.653   0.628
 4803SOL    HW115308   0.521   6.600   0.684
 4803SOL    HW215309   0.496   6.662   0.535
 4804SOL     OW15310   4.327   4.871   6.288
 4804SOL    HW115311   4.266   4.835   6.217
 4804SOL    HW215312   4.283   4.949   6.332
 4805SOL     OW15313   0.215   1.539   0.254
 4805SOL    HW115314   0.162   1.508   0.174
 4805SOL    HW215315   0.238   1.635   0.243
 4806SOL     OW15316   0.274   4.082   3.152
 4806SOL    HW115317   0.363   4.082   3.197
 4806SOL    HW215318   0.205   4.048   3.216
 4807SOL     OW15319   0.637   5.729   1.556
 4807SOL    HW115320   0.597   5.786   1.483
 4807SOL    HW215321   0.563   5.687   1.609
 4808SOL     OW15322   5.160   3.420   1.729
 4808SOL    HW115323   5.193   3.331   1.696
 4808SOL    HW215324   5.099   3.405   1.806
 4809SOL     OW15325   3.292   4.988   6.823
 4809SOL    HW115326   3.314   5.064   6.884
 4809SOL    HW215327   3.193   4.984   6.808
 4810SOL     OW15328   0.743   5.533   1.426
 4810SOL    HW115329   0.686   5.595   1.481
 4810SOL    HW215330   0.839   5.550   1.446
 4811SOL     OW15331   3.716   5.146   1.861
 4811SOL    HW115332   3.743   5.062   1.907
 4811SOL    HW215333   3.705   5.128   1.763
 4812SOL     OW15334   0.155   5.503   4.071
 4812SOL    HW115335   0.089   5.551   4.129
 4812SOL    HW215336   0.238   5.558   4.063
 4813SOL     OW15337   4.730   1.566   2.184
 4813SOL    HW115338   4.748   1.662   2.205
 4813SOL    HW215339   4.817   1.519   2.167
 4814SOL     OW15340   6.932   3.713   1.159
 4814SOL    HW115341   6.905   3.790   1.100
 4814SOL    HW215342   6.857   3.647   1.164
 4815SOL     OW15343   4.581   5.435   1.585
 4815SOL    HW115344   4.562   5.340   1.607
 4815SOL    HW215345   4.629   5.479   1.661
 4816SOL     OW15346   5.431   5.130   2.554
 4816SOL    HW115347   5.429   5.044   2.502
 4816SOL    HW215348   5.408   5.112   2.650
 4817SOL     OW15349   1.465   2.325   5.825
 4817SOL    HW115350   1.418   2.242   5.795
 4817SOL    HW215351   1.440   2.346   5.919
 4818SOL     OW15352   6.972   0.076   3.844
 4818SOL    HW115353   6.927   0.165   3.838
 4818SOL    HW215354   6.924   0.019   3.911
 4819SOL     OW15355   1.447   3.185   6.901
 4819SOL    HW115356   1.530   3.235   6.874
 4819SOL    HW215357   1.457   3.088   6.876
 4820SOL     OW15358   6.700   3.401   2.528
 4820SOL    HW115359   6.631   3.429   2.461
 4820SOL    HW215360   6.790   3.435   2.501
 4821SOL     OW15361   6.664   5.920   2.385
 4821SOL    HW115362   6.721   5.910   2.303
 4821SOL    HW215363   6.655   6.017   2.407
 4822SOL     OW15364   1.062   3.905   4.033
 4822SOL    HW115365   1.010   3.933   4.113
 4822SOL    HW215366   1.135   3.842   4.060
 4823SOL     OW15367   1.590   2.810   2.010
 4823SOL    HW115368   1.499   2.772   1.993
 4823SOL    HW215369   1.616   2.793   2.105
 4824SOL     OW15370   5.533   0.402   5.209
 4824SOL    HW115371   5.472   0.367   5.281
 4824SOL    HW215372   5.526   0.344   5.128
 4825SOL     OW15373   1.279   0.636   4.495
 4825SOL    HW115374   1.186   0.627   4.461
 4825SOL    HW215375   1.316   0.725   4.468
 4826SOL     OW15376   4.370   0.219   1.304
 4826SOL    HW115377   4.392   0.241   1.399
 4826SOL    HW215378   4.370   0.303   1.249
 4827SOL     OW15379   6.775   1.926   0.961
 4827SOL    HW115380   6.834   1.992   0.913
 4827SOL    HW215381   6.800   1.923   1.057
 4828SOL     OW15382   4.677   0.729   2.460
 4828SOL    HW115383   4.644   0.764   2.548
 4828SOL    HW215384   4.732   0.647   2.476
 4829SOL     OW15385   3.775   7.011   5.696
 4829SOL    HW115386   3.770   6.985   5.792
 4829SOL    HW215387   3.861   6.981   5.657
 4830SOL     OW15388   3.385   5.685   3.623
 4830SOL    HW115389   3.301   5.739   3.630
 4830SOL    HW215390   3.365   5.595   3.584
 4831SOL     OW15391   3.415   5.130   6.021
 4831SOL    HW115392   3.385   5.124   6.116
 4831SOL    HW215393   3.361   5.067   5.965
 4832SOL     OW15394   3.063   3.210   4.602
 4832SOL    HW115395   3.118   3.293   4.595
 4832SOL    HW215396   2.994   3.211   4.529
 4833SOL     OW15397   6.549   2.778   4.661
 4833SOL    HW115398   6.538   2.696   4.604
 4833SOL    HW215399   6.510   2.761   4.752
 4834SOL     OW15400   2.279   5.691   1.746
 4834SOL    HW115401   2.289   5.720   1.651
 4834SOL    HW215402   2.199   5.736   1.786
 4835SOL     OW15403   0.065   2.911   5.115
 4835SOL    HW115404   0.087   2.877   5.207
 4835SOL    HW215405   6.995   2.957   5.117
 4836SOL     OW15406   5.290   1.190   4.731
 4836SOL    HW115407   5.227   1.116   4.704
 4836SOL    HW215408   5.335   1.226   4.650
 4837SOL     OW15409   0.070   3.621   4.543
 4837SOL    HW115410   0.002   3.681   4.586
 4837SOL    HW215411   0.090   3.544   4.603
 4838SOL     OW15412   1.344   4.497   6.134
 4838SOL    HW115413   1.424   4.459   6.088
 4838SOL    HW215414   1.367   4.521   6.228
 4839SOL     OW15415   2.416   1.975   0.761
 4839SOL    HW115416   2.430   2.051   0.824
 4839SOL    HW215417   2.451   1.890   0.801
 4840SOL     OW15418   5.483   3.140   5.152
 4840SOL    HW115419   5.488   3.100   5.060
 4840SOL    HW215420   5.529   3.228   5.152
 4841SOL     OW15421   3.153   5.384   3.004
 4841SOL    HW115422   3.198   5.307   2.956
 4841SOL    HW215423   3.222   5.436   3.054
 4842SOL     OW15424   2.783   5.444   3.189
 4842SOL    HW115425   2.693   5.484   3.205
 4842SOL    HW215426   2.772   5.348   3.162
 4843SOL     OW15427   0.310   2.373   2.441
 4843SOL    HW115428   0.316   2.472   2.439
 4843SOL    HW215429   0.265   2.340   2.358
 4844SOL     OW15430   0.912   5.678   5.215
 4844SOL    HW115431   0.812   5.673   5.215
 4844SOL    HW215432   0.946   5.677   5.121
 4845SOL     OW15433   4.777   4.149   4.731
 4845SOL    HW115434   4.681   4.171   4.712
 4845SOL    HW215435   4.821   4.225   4.778
 4846SOL     OW15436   6.844   3.806   5.274
 4846SOL    HW115437   6.831   3.864   5.193
 4846SOL    HW215438   6.913   3.736   5.255
 4847SOL     OW15439   2.597   6.058   5.927
 4847SOL    HW115440   2.510   6.068   5.880
 4847SOL    HW215441   2.583   6.014   6.015
 4848SOL     OW15442   2.630   0.737   4.003
 4848SOL    HW115443   2.683   0.674   3.947
 4848SOL    HW215444   2.622   0.825   3.955
 4849SOL     OW15445   1.942   6.529   1.439
 4849SOL    HW115446   1.945   6.625   1.413
 4849SOL    HW215447   1.995   6.516   1.523
 4850SOL     OW15448   4.746   0.863   0.553
 4850SOL    HW115449   4.737   0.766   0.574
 4850SOL    HW215450   4.699   0.917   0.622
 4851SOL     OW15451   3.714   5.681   6.844
 4851SOL    HW115452   3.653   5.698   6.767
 4851SOL    HW215453   3.780   5.609   6.819
 4852SOL     OW15454   4.282   5.126   5.050
 4852SOL    HW115455   4.259   5.128   4.952
 4852SOL    HW215456   4.347   5.200   5.070
 4853SOL     OW15457   3.930   1.204   3.157
 4853SOL    HW115458   3.877   1.142   3.099
 4853SOL    HW215459   3.907   1.299   3.135
 4854SOL     OW15460   6.119   6.348   1.582
 4854SOL    HW115461   6.175   6.284   1.636
 4854SOL    HW215462   6.063   6.297   1.517
 4855SOL     OW15463   6.330   4.788   4.522
 4855SOL    HW115464   6.281   4.703   4.540
 4855SOL    HW215465   6.404   4.771   4.457
 4856SOL     OW15466   0.163   3.821   3.005
 4856SOL    HW115467   0.217   3.902   3.027
 4856SOL    HW215468   0.201   3.741   3.052
 4857SOL     OW15469   2.554   1.960   4.464
 4857SOL    HW115470   2.647   1.959   4.428
 4857SOL    HW215471   2.523   1.867   4.480
 4858SOL     OW15472   0.310   6.359   4.574
 4858SOL    HW115473   0.408   6.341   4.571
 4858SOL    HW215474   0.274   6.328   4.663
 4859SOL     OW15475   0.790   6.058   2.272
 4859SOL    HW115476   0.869   6.007   2.308
 4859SOL    HW215477   0.728   5.996   2.226
 4860SOL     OW15478   5.005   5.440   0.748
 4860SOL    HW115479   5.012   5.539   0.757
 4860SOL    HW215480   4.995   5.400   0.839
 4861SOL     OW15481   0.720   4.795   6.503
 4861SOL    HW115482   0.714   4.742   6.588
 4861SOL    HW215483   0.777   4.746   6.437
 4862SOL     OW15484   2.871   4.753   5.335
 4862SOL    HW115485   2.883   4.675   5.274
 4862SOL    HW215486   2.835   4.721   5.423
 4863SOL     OW15487   4.378   2.233   3.053
 4863SOL    HW115488   4.428   2.160   3.100
 4863SOL    HW215489   4.283   2.204   3.038
 4864SOL     OW15490   3.051   1.127   1.799
 4864SOL    HW115491   2.999   1.209   1.774
 4864SOL    HW215492   3.079   1.078   1.716
 4865SOL     OW15493   3.749   5.930   5.411
 4865SOL    HW115494   3.753   5.833   5.435
 4865SOL    HW215495   3.829   5.977   5.448
 4866SOL     OW15496   5.940   4.428   1.149
 4866SOL    HW115497   5.882   4.506   1.125
 4866SOL    HW215498   5.884   4.346   1.159
 4867SOL     OW15499   5.053   5.883   2.442
 4867SOL    HW115500   5.001   5.863   2.524
 4867SOL    HW215501   5.116   5.959   2.460
 4868SOL     OW15502   0.272   5.676   1.420
 4868SOL    HW115503   0.341   5.747   1.409
 4868SOL    HW215504   0.291   5.624   1.503
 4869SOL     OW15505   0.055   1.457   0.038
 4869SOL    HW115506   0.098   1.410   6.981
 4869SOL    HW215507   6.978   1.433   0.042
 4870SOL     OW15508   5.876   6.569   2.355
 4870SOL    HW115509   5.847   6.537   2.445
 4870SOL    HW215510   5.819   6.527   2.284
 4871SOL     OW15511   1.281   3.397   3.901
 4871SOL    HW115512   1.380   3.389   3.910
 4871SOL    HW215513   1.256   3.385   3.804
 4872SOL     OW15514   1.413   0.532   2.690
 4872SOL    HW115515   1.503   0.499   2.662
 4872SOL    HW215516   1.424   0.607   2.756
 4873SOL     OW15517   6.902   5.564   5.217
 4873SOL    HW115518   6.924   5.662   5.213
 4873SOL    HW215519   6.959   5.520   5.287
 4874SOL     OW15520   5.397   3.448   3.194
 4874SOL    HW115521   5.461   3.479   3.124
 4874SOL    HW215522   5.304   3.478   3.170
 4875SOL     OW15523   5.741   1.932   0.833
 4875SOL    HW115524   5.810   1.999   0.857
 4875SOL    HW215525   5.697   1.897   0.916
 4876SOL     OW15526   0.446   1.404   0.174
 4876SOL    HW115527   0.457   1.408   0.075
 4876SOL    HW215528   0.353   1.433   0.199
 4877SOL     OW15529   6.159   1.035   1.406
 4877SOL    HW115530   6.101   1.037   1.487
 4877SOL    HW215531   6.206   0.947   1.400
 4878SOL     OW15532   6.839   2.040   1.801
 4878SOL    HW115533   6.768   1.973   1.826
 4878SOL    HW215534   6.926   2.012   1.840
 4879SOL     OW15535   4.491   5.213   3.212
 4879SOL    HW115536   4.511   5.311   3.216
 4879SOL    HW215537   4.539   5.173   3.134
 4880SOL     OW15538   5.988   1.574   6.450
 4880SOL    HW115539   6.043   1.604   6.372
 4880SOL    HW215540   5.898   1.547   6.418
 4881SOL     OW15541   3.919   6.277   6.459
 4881SOL    HW115542   3.830   6.268   6.416
 4881SOL    HW215543   3.946   6.190   6.501
 4882SOL     OW15544   5.696   0.581   5.395
 4882SOL    HW115545   5.647   0.536   5.320
 4882SOL    HW215546   5.691   0.524   5.477
 4883SOL     OW15547   6.808   4.706   1.702
 4883SOL    HW115548   6.758   4.786   1.734
 4883SOL    HW215549   6.895   4.699   1.751
 4884SOL     OW15550   3.141   6.312   1.783
 4884SOL    HW115551   3.168   6.400   1.742
 4884SOL    HW215552   3.151   6.239   1.715
 4885SOL     OW15553   1.978   6.842   1.568
 4885SOL    HW115554   2.060   6.845   1.625
 4885SOL    HW215555   1.992   6.899   1.487
 4886SOL     OW15556   6.376   0.326   0.047
 4886SOL    HW115557   6.471   0.310   0.020
 4886SOL    HW215558   6.374   0.389   0.125
 4887SOL     OW15559   0.262   2.337   3.629
 4887SOL    HW115560   0.181   2.388   3.658
 4887SOL    HW215561   0.326   2.330   3.706
 4888SOL     OW15562   2.533   5.564   2.696
 4888SOL    HW115563   2.477   5.556   2.613
 4888SOL    HW215564   2.538   5.476   2.742
 4889SOL     OW15565   0.996   1.752   0.429
 4889SOL    HW115566   0.980   1.751   0.527
 4889SOL    HW215567   1.050   1.833   0.405
 4890SOL     OW15568   1.363   0.875   4.401
 4890SOL    HW115569   1.408   0.925   4.475
 4890SOL    HW215570   1.270   0.911   4.388
 4891SOL     OW15571   0.774   4.943   0.681
 4891SOL    HW115572   0.767   4.924   0.778
 4891SOL    HW215573   0.779   4.857   0.630
 4892SOL     OW15574   0.616   5.723   0.756
 4892SOL    HW115575   0.548   5.771   0.699
 4892SOL    HW215576   0.578   5.707   0.847
 4893SOL     OW15577   0.657   3.225   6.425
 4893SOL    HW115578   0.582   3.289   6.408
 4893SOL    HW215579   0.737   3.275   6.459
 4894SOL     OW15580   2.127   1.462   3.111
 4894SOL    HW115581   2.099   1.369   3.086
 4894SOL    HW215582   2.169   1.461   3.201
 4895SOL     OW15583   0.809   2.923   0.257
 4895SOL    HW115584   0.777   2.839   0.301
 4895SOL    HW215585   0.809   2.998   0.323
 4896SOL     OW15586   3.560   5.015   4.881
 4896SOL    HW115587   3.470   4.983   4.851
 4896SOL    HW215588   3.553   5.112   4.907
 4897SOL     OW15589   3.820   5.811   6.546
 4897SOL    HW115590   3.885   5.770   6.610
 4897SOL    HW215591   3.727   5.783   6.570
 4898SOL     OW15592   5.441   1.738   5.276
 4898SOL    HW115593   5.374   1.673   5.240
 4898SOL    HW215594   5.430   1.745   5.376
 4899SOL     OW15595   5.857   4.370   3.778
 4899SOL    HW115596   5.764   4.378   3.813
 4899SOL    HW215597   5.855   4.361   3.678
 4900SOL     OW15598   1.006   6.857   5.570
 4900SOL    HW115599   1.009   6.787   5.499
 4900SOL    HW215600   1.099   6.875   5.604
 4901SOL     OW15601   0.705   6.983   4.058
 4901SOL    HW115602   0.789   6.939   4.090
 4901SOL    HW215603   0.626   6.932   4.091
 4902SOL     OW15604   2.110   4.605   1.688
 4902SOL    HW115605   2.165   4.551   1.624
 4902SOL    HW215606   2.141   4.588   1.781
 4903SOL     OW15607   4.964   0.082   6.509
 4903SOL    HW115608   4.995   0.143   6.583
 4903SOL    HW215609   4.866   0.066   6.518
 4904SOL     OW15610   2.579   5.989   4.180
 4904SOL    HW115611   2.540   5.996   4.271
 4904SOL    HW215612   2.666   6.038   4.177
 4905SOL     OW15613   4.827   3.124   1.773
 4905SOL    HW115614   4.763   3.071   1.828
 4905SOL    HW215615   4.880   3.184   1.832
 4906SOL     OW15616   5.003   0.394   0.066
 4906SOL    HW115617   5.095   0.393   0.105
 4906SOL    HW215618   4.953   0.312   0.094
 4907SOL     OW15619   3.536   0.820   3.759
 4907SOL    HW115620   3.542   0.720   3.764
 4907SOL    HW215621   3.556   0.859   3.849
 4908SOL     OW15622   3.523   6.594   6.763
 4908SOL    HW115623   3.595   6.560   6.824
 4908SOL    HW215624   3.489   6.518   6.707
 4909SOL     OW15625   6.351   6.484   5.323
 4909SOL    HW115626   6.377   6.483   5.227
 4909SOL    HW215627   6.400   6.411   5.371
 4910SOL     OW15628   5.767   0.442   5.097
 4910SOL    HW115629   5.728   0.477   5.012
 4910SOL    HW215630   5.698   0.388   5.145
 4911SOL     OW15631   6.843   2.716   6.183
 4911SOL    HW115632   6.816   2.761   6.098
 4911SOL    HW215633   6.893   2.780   6.240
 4912SOL     OW15634   2.839   2.264   2.463
 4912SOL    HW115635   2.743   2.283   2.483
 4912SOL    HW215636   2.847   2.230   2.369
 4913SOL     OW15637   3.221   4.104   3.246
 4913SOL    HW115638   3.314   4.122   3.277
 4913SOL    HW215639   3.206   4.149   3.158
 4914SOL     OW15640   2.424   6.593   3.630
 4914SOL    HW115641   2.431   6.602   3.531
 4914SOL    HW215642   2.513   6.568   3.668
 4915SOL     OW15643   3.498   5.828   4.001
 4915SOL    HW115644   3.522   5.746   4.053
 4915SOL    HW215645   3.520   5.814   3.904
 4916SOL     OW15646   2.124   1.511   2.632
 4916SOL    HW115647   2.105   1.588   2.693
 4916SOL    HW215648   2.217   1.519   2.596
 4917SOL     OW15649   2.255   4.927   0.965
 4917SOL    HW115650   2.237   4.876   1.049
 4917SOL    HW215651   2.194   4.895   0.892
 4918SOL     OW15652   2.391   0.391   2.221
 4918SOL    HW115653   2.459   0.321   2.201
 4918SOL    HW215654   2.305   0.368   2.174
 4919SOL     OW15655   2.434   2.679   1.927
 4919SOL    HW115656   2.480   2.617   1.864
 4919SOL    HW215657   2.336   2.657   1.931
 4920SOL     OW15658   4.214   0.809   0.444
 4920SOL    HW115659   4.141   0.876   0.431
 4920SOL    HW215660   4.302   0.857   0.450
 4921SOL     OW15661   1.127   4.535   1.569
 4921SOL    HW115662   1.162   4.620   1.609
 4921SOL    HW215663   1.068   4.489   1.636
 4922SOL     OW15664   1.620   2.940   5.183
 4922SOL    HW115665   1.661   2.993   5.110
 4922SOL    HW215666   1.665   2.962   5.270
 4923SOL     OW15667   4.777   0.979   1.369
 4923SOL    HW115668   4.737   1.010   1.283
 4923SOL    HW215669   4.820   0.890   1.356
 4924SOL     OW15670   0.808   4.123   4.633
 4924SOL    HW115671   0.817   4.034   4.678
 4924SOL    HW215672   0.711   4.146   4.622
 4925SOL     OW15673   4.759   6.206   6.950
 4925SOL    HW115674   4.696   6.273   6.988
 4925SOL    HW215675   4.778   6.135   7.019
 4926SOL     OW15676   4.832   2.574   1.909
 4926SOL    HW115677   4.765   2.535   1.972
 4926SOL    HW215678   4.824   2.530   1.820
 4927SOL     OW15679   3.483   2.851   3.773
 4927SOL    HW115680   3.544   2.844   3.852
 4927SOL    HW215681   3.534   2.884   3.693
 4928SOL     OW15682   0.354   5.953   6.977
 4928SOL    HW115683   0.410   6.033   6.957
 4928SOL    HW215684   0.306   5.923   6.894
 4929SOL     OW15685   1.092   5.203   4.242
 4929SOL    HW115686   1.144   5.252   4.312
 4929SOL    HW215687   1.148   5.190   4.161
 4930SOL     OW15688   0.421   2.111   0.931
 4930SOL    HW115689   0.465   2.022   0.916
 4930SOL    HW215690   0.478   2.167   0.990
 4931SOL     OW15691   0.142   0.708   0.185
 4931SOL    HW115692   0.052   0.748   0.166
 4931SOL    HW215693   0.174   0.657   0.105
 4932SOL     OW15694   2.705   2.323   1.347
 4932SOL    HW115695   2.805   2.328   1.343
 4932SOL    HW215696   2.669   2.410   1.379
 4933SOL     OW15697   2.596   0.969   3.878
 4933SOL    HW115698   2.640   1.047   3.924
 4933SOL    HW215699   2.609   0.977   3.780
 4934SOL     OW15700   1.042   6.121   4.576
 4934SOL    HW115701   1.017   6.026   4.553
 4934SOL    HW215702   0.970   6.161   4.633
 4935SOL     OW15703   1.267   0.809   0.028
 4935SOL    HW115704   1.257   0.908   0.022
 4935SOL    HW215705   1.177   0.766   0.032
 4936SOL     OW15706   4.012   5.380   1.008
 4936SOL    HW115707   4.030   5.349   1.101
 4936SOL    HW215708   3.926   5.342   0.975
 4937SOL     OW15709   0.765   2.837   5.892
 4937SOL    HW115710   0.748   2.783   5.974
 4937SOL    HW215711   0.845   2.896   5.906
 4938SOL     OW15712   3.408   4.439   1.634
 4938SOL    HW115713   3.466   4.480   1.705
 4938SOL    HW215714   3.353   4.511   1.590
 4939SOL     OW15715   1.645   1.936   1.572
 4939SOL    HW115716   1.700   1.856   1.547
 4939SOL    HW215717   1.584   1.959   1.497
 4940SOL     OW15718   0.306   2.984   4.184
 4940SOL    HW115719   0.279   2.916   4.115
 4940SOL    HW215720   0.405   2.995   4.182
 4941SOL     OW15721   3.874   2.527   5.341
 4941SOL    HW115722   3.796   2.589   5.325
 4941SOL    HW215723   3.949   2.553   5.281
 4942SOL     OW15724   5.957   2.039   3.916
 4942SOL    HW115725   5.950   2.138   3.909
 4942SOL    HW215726   5.956   2.012   4.013
 4943SOL     OW15727   5.741   3.105   6.487
 4943SOL    HW115728   5.823   3.146   6.447
 4943SOL    HW215729   5.725   3.015   6.447
 4944SOL     OW15730   1.489   5.561   1.158
 4944SOL    HW115731   1.454   5.577   1.251
 4944SOL    HW215732   1.580   5.602   1.150
 4945SOL     OW15733   2.029   0.863   5.231
 4945SOL    HW115734   2.067   0.778   5.195
 4945SOL    HW215735   1.971   0.906   5.163
 4946SOL     OW15736   1.850   5.177   0.207
 4946SOL    HW115737   1.823   5.273   0.200
 4946SOL    HW215738   1.902   5.163   0.291
 4947SOL     OW15739   1.798   0.771   1.430
 4947SOL    HW115740   1.883   0.823   1.418
 4947SOL    HW215741   1.725   0.833   1.456
 4948SOL     OW15742   1.544   2.426   1.682
 4948SOL    HW115743   1.503   2.480   1.608
 4948SOL    HW215744   1.640   2.452   1.693
 4949SOL     OW15745   6.727   3.535   0.133
 4949SOL    HW115746   6.744   3.436   0.128
 4949SOL    HW215747   6.672   3.563   0.054
 4950SOL     OW15748   2.069   4.168   5.285
 4950SOL    HW115749   2.145   4.224   5.255
 4950SOL    HW215750   2.093   4.071   5.278
 4951SOL     OW15751   5.146   5.674   3.402
 4951SOL    HW115752   5.178   5.628   3.318
 4951SOL    HW215753   5.164   5.614   3.481
 4952SOL     OW15754   0.753   6.295   5.686
 4952SOL    HW115755   0.714   6.214   5.731
 4952SOL    HW215756   0.679   6.353   5.651
 4953SOL     OW15757   1.305   2.320   4.736
 4953SOL    HW115758   1.332   2.381   4.662
 4953SOL    HW215759   1.264   2.237   4.698
 4954SOL     OW15760   3.016   4.001   4.857
 4954SOL    HW115761   2.987   4.071   4.921
 4954SOL    HW215762   2.949   3.926   4.858
 4955SOL     OW15763   3.290   5.899   0.108
 4955SOL    HW115764   3.256   5.805   0.106
 4955SOL    HW215765   3.276   5.937   0.200
 4956SOL     OW15766   2.454   6.929   4.851
 4956SOL    HW115767   2.478   0.004   4.829
 4956SOL    HW215768   2.395   6.892   4.779
 4957SOL     OW15769   6.404   4.443   0.057
 4957SOL    HW115770   6.381   4.533   0.094
 4957SOL    HW215771   6.387   4.443   6.978
 4958SOL     OW15772   2.811   6.713   0.312
 4958SOL    HW115773   2.750   6.674   0.243
 4958SOL    HW215774   2.845   6.802   0.280
 4959SOL     OW15775   0.373   3.381   2.324
 4959SOL    HW115776   0.361   3.289   2.286
 4959SOL    HW215777   0.420   3.439   2.258
 4960SOL     OW15778   4.017   5.712   4.350
 4960SOL    HW115779   3.952   5.778   4.389
 4960SOL    HW215780   4.109   5.737   4.378
 4961SOL     OW15781   3.769   1.123   0.637
 4961SOL    HW115782   3.695   1.061   0.613
 4961SOL    HW215783   3.837   1.074   0.691
 4962SOL     OW15784   0.949   4.221   1.290
 4962SOL    HW115785   0.992   4.311   1.280
 4962SOL    HW215786   1.016   4.157   1.327
 4963SOL     OW15787   0.908   3.955   6.373
 4963SOL    HW115788   0.958   3.937   6.288
 4963SOL    HW215789   0.816   3.986   6.351
 4964SOL     OW15790   2.646   6.821   4.656
 4964SOL    HW115791   2.562   6.821   4.709
 4964SOL    HW215792   2.721   6.855   4.712
 4965SOL     OW15793   1.450   6.200   2.847
 4965SOL    HW115794   1.431   6.212   2.944
 4965SOL    HW215795   1.489   6.284   2.810
 4966SOL     OW15796   3.708   5.985   4.116
 4966SOL    HW115797   3.638   5.950   4.052
 4966SOL    HW215798   3.700   5.936   4.203
 4967SOL     OW15799   4.081   4.700   5.299
 4967SOL    HW115800   4.090   4.796   5.274
 4967SOL    HW215801   3.985   4.672   5.290
 4968SOL     OW15802   0.142   1.645   3.999
 4968SOL    HW115803   0.114   1.619   4.091
 4968SOL    HW215804   0.241   1.646   3.993
 4969SOL     OW15805   0.639   5.989   3.015
 4969SOL    HW115806   0.669   6.052   2.944
 4969SOL    HW215807   0.553   5.945   2.987
 4970SOL     OW15808   1.730   1.396   1.694
 4970SOL    HW115809   1.823   1.434   1.694
 4970SOL    HW215810   1.694   1.397   1.601
 4971SOL     OW15811   6.503   6.419   2.826
 4971SOL    HW115812   6.405   6.432   2.809
 4971SOL    HW215813   6.515   6.368   2.912
 4972SOL     OW15814   1.672   4.097   1.236
 4972SOL    HW115815   1.606   4.151   1.288
 4972SOL    HW215816   1.653   4.000   1.246
 4973SOL     OW15817   0.118   0.516   0.990
 4973SOL    HW115818   0.214   0.539   1.000
 4973SOL    HW215819   0.108   0.417   0.981
 4974SOL     OW15820   3.696   4.980   5.114
 4974SOL    HW115821   3.650   4.981   5.025
 4974SOL    HW215822   3.794   4.996   5.101
 4975SOL     OW15823   6.045   3.056   0.409
 4975SOL    HW115824   6.015   3.056   0.504
 4975SOL    HW215825   6.068   3.149   0.380
 4976SOL     OW15826   1.369   6.614   4.247
 4976SOL    HW115827   1.419   6.562   4.178
 4976SOL    HW215828   1.350   6.705   4.212
 4977SOL     OW15829   2.632   5.059   6.277
 4977SOL    HW115830   2.709   5.011   6.319
 4977SOL    HW215831   2.592   5.002   6.205
 4978SOL     OW15832   5.212   4.346   4.871
 4978SOL    HW115833   5.136   4.288   4.900
 4978SOL    HW215834   5.279   4.352   4.946
 4979SOL     OW15835   1.757   6.502   6.299
 4979SOL    HW115836   1.784   6.562   6.223
 4979SOL    HW215837   1.772   6.549   6.386
 4980SOL     OW15838   6.142   4.326   2.846
 4980SOL    HW115839   6.110   4.253   2.785
 4980SOL    HW215840   6.157   4.288   2.937
 4981SOL     OW15841   3.792   4.896   1.968
 4981SOL    HW115842   3.863   4.878   1.900
 4981SOL    HW215843   3.708   4.846   1.943
 4982SOL     OW15844   4.546   1.116   6.780
 4982SOL    HW115845   4.467   1.067   6.742
 4982SOL    HW215846   4.559   1.202   6.730
 4983SOL     OW15847   6.674   5.347   2.961
 4983SOL    HW115848   6.739   5.393   2.902
 4983SOL    HW215849   6.599   5.409   2.984
 4984SOL     OW15850   4.838   4.659   2.679
 4984SOL    HW115851   4.904   4.601   2.726
 4984SOL    HW215852   4.751   4.656   2.727
 4985SOL     OW15853   6.003   5.429   2.984
 4985SOL    HW115854   5.964   5.419   3.076
 4985SOL    HW215855   5.950   5.496   2.933
 4986SOL     OW15856   0.869   5.123   2.071
 4986SOL    HW115857   0.893   5.132   2.167
 4986SOL    HW215858   0.827   5.034   2.055
 4987SOL     OW15859   0.999   0.508   2.172
 4987SOL    HW115860   1.080   0.562   2.150
 4987SOL    HW215861   0.952   0.483   2.087
 4988SOL     OW15862   6.079   6.932   3.101
 4988SOL    HW115863   6.003   6.892   3.153
 4988SOL    HW215864   6.123   7.003   3.156
 4989SOL     OW15865   4.287   1.295   2.352
 4989SOL    HW115866   4.372   1.331   2.314
 4989SOL    HW215867   4.299   1.282   2.451
 4990SOL     OW15868   4.720   1.758   5.398
 4990SOL    HW115869   4.797   1.774   5.336
 4990SOL    HW215870   4.738   1.803   5.486
 4991SOL     OW15871   0.639   5.592   5.282
 4991SOL    HW115872   0.648   5.519   5.214
 4991SOL    HW215873   0.545   5.627   5.281
 4992SOL     OW15874   6.808   1.599   3.368
 4992SOL    HW115875   6.889   1.566   3.415
 4992SOL    HW215876   6.769   1.677   3.417
 4993SOL     OW15877   4.358   5.959   4.763
 4993SOL    HW115878   4.404   5.888   4.710
 4993SOL    HW215879   4.275   5.989   4.716
 4994SOL     OW15880   3.014   5.155   6.018
 4994SOL    HW115881   3.052   5.160   5.925
 4994SOL    HW215882   2.933   5.096   6.018
 4995SOL     OW15883   0.771   0.823   4.808
 4995SOL    HW115884   0.790   0.731   4.843
 4995SOL    HW215885   0.676   0.829   4.780
 4996SOL     OW15886   6.649   1.255   4.498
 4996SOL    HW115887   6.650   1.202   4.583
 4996SOL    HW215888   6.558   1.291   4.482
 4997SOL     OW15889   3.076   1.929   1.406
 4997SOL    HW115890   2.993   1.954   1.357
 4997SOL    HW215891   3.124   2.012   1.434
 4998SOL     OW15892   0.919   3.018   4.077
 4998SOL    HW115893   1.013   3.036   4.049
 4998SOL    HW215894   0.858   3.085   4.035
 4999SOL     OW15895   0.798   3.869   4.750
 4999SOL    HW115896   0.792   3.871   4.850
 4999SOL    HW215897   0.872   3.808   4.723
 5000SOL     OW15898   2.906   5.854   3.510
 5000SOL    HW115899   2.914   5.953   3.527
 5000SOL    HW215900   2.942   5.833   3.420
 5001SOL     OW15901   1.037   5.445   2.831
 5001SOL    HW115902   1.127   5.465   2.869
 5001SOL    HW215903   0.981   5.398   2.899
 5002SOL     OW15904   0.845   3.827   2.953
 5002SOL    HW115905   0.821   3.904   3.012
 5002SOL    HW215906   0.914   3.771   2.998
 5003SOL     OW15907   4.129   6.035   3.582
 5003SOL    HW115908   4.066   6.031   3.659
 5003SOL    HW215909   4.136   6.129   3.549
 5004SOL     OW15910   2.863   5.997   6.561
 5004SOL    HW115911   2.888   5.980   6.656
 5004SOL    HW215912   2.937   6.044   6.515
 5005SOL     OW15913   3.008   3.017   6.047
 5005SOL    HW115914   2.946   2.969   5.983
 5005SOL    HW215915   3.089   2.961   6.063
 5006SOL     OW15916   5.206   1.662   1.786
 5006SOL    HW115917   5.174   1.687   1.878
 5006SOL    HW215918   5.202   1.743   1.727
 5007SOL     OW15919   6.243   0.370   1.516
 5007SOL    HW115920   6.145   0.392   1.514
 5007SOL    HW215921   6.295   0.452   1.539
 5008SOL     OW15922   6.333   6.722   1.414
 5008SOL    HW115923   6.405   6.767   1.362
 5008SOL    HW215924   6.346   6.623   1.409
 5009SOL     OW15925   1.522   2.381   0.742
 5009SOL    HW115926   1.562   2.419   0.659
 5009SOL    HW215927   1.432   2.343   0.721
 5010SOL     OW15928   3.703   2.821   0.621
 5010SOL    HW115929   3.699   2.781   0.712
 5010SOL    HW215930   3.623   2.792   0.568
 5011SOL     OW15931   2.143   3.780   6.978
 5011SOL    HW115932   2.230   3.783   6.930
 5011SOL    HW215933   2.123   3.870   7.017
 5012SOL     OW15934   5.906   1.920   5.574
 5012SOL    HW115935   5.813   1.924   5.538
 5012SOL    HW215936   5.928   1.825   5.599
 5013SOL     OW15937   6.274   0.302   5.637
 5013SOL    HW115938   6.199   0.245   5.603
 5013SOL    HW215939   6.361   0.268   5.601
 5014SOL     OW15940   6.361   3.188   1.607
 5014SOL    HW115941   6.437   3.210   1.546
 5014SOL    HW215942   6.297   3.127   1.560
 5015SOL     OW15943   5.939   0.304   4.290
 5015SOL    HW115944   5.894   0.391   4.271
 5015SOL    HW215945   5.926   0.280   4.386
 5016SOL     OW15946   1.271   3.330   4.786
 5016SOL    HW115947   1.219   3.258   4.740
 5016SOL    HW215948   1.257   3.416   4.737
 5017SOL     OW15949   0.659   2.220   1.044
 5017SOL    HW115950   0.744   2.272   1.045
 5017SOL    HW215951   0.617   2.223   1.135
 5018SOL     OW15952   0.697   5.369   1.671
 5018SOL    HW115953   0.666   5.419   1.590
 5018SOL    HW215954   0.620   5.355   1.733
 5019SOL     OW15955   1.433   5.507   5.304
 5019SOL    HW115956   1.529   5.522   5.329
 5019SOL    HW215957   1.395   5.434   5.360
 5020SOL     OW15958   0.098   6.826   4.519
 5020SOL    HW115959   0.145   6.914   4.510
 5020SOL    HW215960   0.160   6.752   4.494
 5021SOL     OW15961   1.927   0.918   0.936
 5021SOL    HW115962   1.891   0.958   0.852
 5021SOL    HW215963   2.021   0.888   0.920
 5022SOL     OW15964   0.455   3.072   1.501
 5022SOL    HW115965   0.400   3.004   1.548
 5022SOL    HW215966   0.509   3.028   1.429
 5023SOL     OW15967   0.556   4.239   1.951
 5023SOL    HW115968   0.589   4.333   1.943
 5023SOL    HW215969   0.602   4.194   2.028
 5024SOL     OW15970   5.287   3.830   1.436
 5024SOL    HW115971   5.256   3.765   1.368
 5024SOL    HW215972   5.312   3.781   1.520
 5025SOL     OW15973   4.128   1.382   3.876
 5025SOL    HW115974   4.221   1.405   3.906
 5025SOL    HW215975   4.082   1.464   3.843
 5026SOL     OW15976   5.853   6.030   4.906
 5026SOL    HW115977   5.777   6.084   4.869
 5026SOL    HW215978   5.864   6.050   5.003
 5027SOL     OW15979   4.939   0.662   0.127
 5027SOL    HW115980   4.995   0.672   0.210
 5027SOL    HW215981   4.936   0.566   0.100
 5028SOL     OW15982   0.176   2.133   2.540
 5028SOL    HW115983   0.235   2.212   2.523
 5028SOL    HW215984   0.093   2.141   2.484
 5029SOL     OW15985   6.433   2.496   2.042
 5029SOL    HW115986   6.465   2.555   1.968
 5029SOL    HW215987   6.349   2.450   2.015
 5030SOL     OW15988   7.005   5.163   6.514
 5030SOL    HW115989   0.016   5.083   6.461
 5030SOL    HW215990   6.964   5.230   6.452
 5031SOL     OW15991   0.012   1.036   5.196
 5031SOL    HW115992   0.085   1.027   5.127
 5031SOL    HW215993   6.947   0.997   5.159
 5032SOL     OW15994   3.699   2.723   5.578
 5032SOL    HW115995   3.687   2.628   5.552
 5032SOL    HW215996   3.796   2.745   5.585
 5033SOL     OW15997   2.024   1.223   0.761
 5033SOL    HW115998   1.968   1.306   0.771
 5033SOL    HW215999   1.966   1.148   0.731
 5034SOL     OW16000   4.645   6.142   4.001
 5034SOL    HW116001   4.639   6.210   4.074
 5034SOL    HW216002   4.557   6.137   3.954
 5035SOL     OW16003   0.587   4.354   4.593
 5035SOL    HW116004   0.566   4.369   4.497
 5035SOL    HW216005   0.554   4.263   4.621
 5036SOL     OW16006   6.265   3.815   5.420
 5036SOL    HW116007   6.339   3.827   5.353
 5036SOL    HW216008   6.179   3.844   5.379
 5037SOL     OW16009   4.309   4.484   1.427
 5037SOL    HW116010   4.340   4.441   1.512
 5037SOL    HW216011   4.280   4.414   1.363
 5038SOL     OW16012   3.309   3.505   4.331
 5038SOL    HW116013   3.394   3.545   4.299
 5038SOL    HW216014   3.309   3.407   4.314
 5039SOL     OW16015   2.073   3.321   6.137
 5039SOL    HW116016   2.064   3.237   6.085
 5039SOL    HW216017   2.029   3.396   6.088
 5040SOL     OW16018   1.187   4.690   5.523
 5040SOL    HW116019   1.237   4.738   5.594
 5040SOL    HW216020   1.153   4.755   5.455
 5041SOL     OW16021   0.574   3.436   2.149
 5041SOL    HW116022   0.661   3.485   2.159
 5041SOL    HW216023   0.590   3.349   2.104
 5042SOL     OW16024   0.183   4.001   6.227
 5042SOL    HW116025   0.134   3.988   6.141
 5042SOL    HW216026   0.124   4.050   6.292
 5043SOL     OW16027   3.973   0.735   0.583
 5043SOL    HW116028   3.993   0.829   0.558
 5043SOL    HW216029   4.052   0.677   0.561
 5044SOL     OW16030   6.801   5.520   0.778
 5044SOL    HW116031   6.850   5.433   0.787
 5044SOL    HW216032   6.757   5.524   0.688
 5045SOL     OW16033   6.085   4.309   6.467
 5045SOL    HW116034   6.057   4.398   6.503
 5045SOL    HW216035   6.182   4.312   6.443
 5046SOL     OW16036   3.455   3.422   3.826
 5046SOL    HW116037   3.443   3.341   3.769
 5046SOL    HW216038   3.431   3.504   3.773
 5047SOL     OW16039   1.847   3.597   2.938
 5047SOL    HW116040   1.823   3.672   2.999
 5047SOL    HW216041   1.938   3.613   2.900
 5048SOL     OW16042   1.904   1.157   5.392
 5048SOL    HW116043   1.883   1.254   5.396
 5048SOL    HW216044   1.820   1.105   5.381
 5049SOL     OW16045   6.313   0.837   5.902
 5049SOL    HW116046   6.255   0.906   5.858
 5049SOL    HW216047   6.290   0.832   5.999
 5050SOL     OW16048   1.852   1.182   0.021
 5050SOL    HW116049   1.838   1.221   6.949
 5050SOL    HW216050   1.858   1.256   0.088
 5051SOL     OW16051   3.572   4.577   1.373
 5051SOL    HW116052   3.484   4.610   1.408
 5051SOL    HW216053   3.562   4.552   1.276
 5052SOL     OW16054   3.380   2.250   5.540
 5052SOL    HW116055   3.399   2.153   5.537
 5052SOL    HW216056   3.362   2.284   5.447
 5053SOL     OW16057   0.408   5.140   2.527
 5053SOL    HW116058   0.456   5.143   2.439
 5053SOL    HW216059   0.435   5.058   2.577
 5054SOL     OW16060   3.986   4.375   5.415
 5054SOL    HW116061   4.084   4.380   5.399
 5054SOL    HW216062   3.938   4.363   5.328
 5055SOL     OW16063   0.042   3.573   6.247
 5055SOL    HW116064   0.112   3.507   6.273
 5055SOL    HW216065   0.016   3.628   6.326
 5056SOL     OW16066   5.260   3.986   4.934
 5056SOL    HW116067   5.290   3.902   4.980
 5056SOL    HW216068   5.322   4.007   4.859
 5057SOL     OW16069   0.971   6.869   2.074
 5057SOL    HW116070   0.904   6.884   2.002
 5057SOL    HW216071   0.986   6.771   2.087
 5058SOL     OW16072   3.072   5.003   6.619
 5058SOL    HW116073   3.112   4.913   6.636
 5058SOL    HW216074   3.144   5.067   6.595
 5059SOL     OW16075   0.309   6.884   2.854
 5059SOL    HW116076   0.277   6.892   2.948
 5059SOL    HW216077   0.284   6.795   2.818
 5060SOL     OW16078   6.491   1.996   6.155
 5060SOL    HW116079   6.479   1.966   6.249
 5060SOL    HW216080   6.412   1.966   6.100
 5061SOL     OW16081   4.433   2.895   0.229
 5061SOL    HW116082   4.444   2.982   0.278
 5061SOL    HW216083   4.355   2.846   0.267
 5062SOL     OW16084   0.511   6.932   1.641
 5062SOL    HW116085   0.445   7.007   1.652
 5062SOL    HW216086   0.604   6.969   1.651
 5063SOL     OW16087   0.559   6.635   1.953
 5063SOL    HW116088   0.614   6.577   2.013
 5063SOL    HW216089   0.577   6.731   1.973
 5064SOL     OW16090   4.772   3.011   0.799
 5064SOL    HW116091   4.742   2.995   0.705
 5064SOL    HW216092   4.794   3.108   0.811
 5065SOL     OW16093   2.475   6.837   5.351
 5065SOL    HW116094   2.563   6.821   5.394
 5065SOL    HW216095   2.478   6.806   5.256
 5066SOL     OW16096   5.591   3.993   1.482
 5066SOL    HW116097   5.497   4.025   1.481
 5066SOL    HW216098   5.646   4.052   1.541
 5067SOL     OW16099   5.285   1.156   6.901
 5067SOL    HW116100   5.371   1.115   6.871
 5067SOL    HW216101   5.299   1.254   6.919
 5068SOL     OW16102   3.270   4.549   0.504
 5068SOL    HW116103   3.211   4.514   0.432
 5068SOL    HW216104   3.214   4.589   0.577
 5069SOL     OW16105   0.705   4.682   3.026
 5069SOL    HW116106   0.698   4.766   2.974
 5069SOL    HW216107   0.670   4.605   2.971
 5070SOL     OW16108   4.944   3.327   4.180
 5070SOL    HW116109   4.934   3.349   4.277
 5070SOL    HW216110   4.987   3.403   4.132
 5071SOL     OW16111   4.343   2.266   5.492
 5071SOL    HW116112   4.310   2.173   5.507
 5071SOL    HW216113   4.378   2.304   5.578
 5072SOL     OW16114   0.088   4.476   0.834
 5072SOL    HW116115   0.018   4.413   0.801
 5072SOL    HW216116   0.089   4.557   0.775
 5073SOL     OW16117   6.256   6.902   2.068
 5073SOL    HW116118   6.195   6.854   2.132
 5073SOL    HW216119   6.221   6.893   1.975
 5074SOL     OW16120   2.974   4.116   6.691
 5074SOL    HW116121   2.969   4.093   6.788
 5074SOL    HW216122   3.053   4.070   6.650
 5075SOL     OW16123   0.168   6.247   5.603
 5075SOL    HW116124   0.196   6.210   5.514
 5075SOL    HW216125   0.073   6.224   5.621
 5076SOL     OW16126   3.151   0.502   0.545
 5076SOL    HW116127   3.145   0.410   0.506
 5076SOL    HW216128   3.167   0.495   0.643
 5077SOL     OW16129   1.535   2.619   3.734
 5077SOL    HW116130   1.596   2.697   3.749
 5077SOL    HW216131   1.536   2.594   3.638
 5078SOL     OW16132   1.547   1.898   4.395
 5078SOL    HW116133   1.603   1.827   4.352
 5078SOL    HW216134   1.511   1.863   4.481
 5079SOL     OW16135   3.509   5.208   5.663
 5079SOL    HW116136   3.433   5.234   5.723
 5079SOL    HW216137   3.479   5.138   5.599
 5080SOL     OW16138   5.887   6.724   5.071
 5080SOL    HW116139   5.816   6.777   5.025
 5080SOL    HW216140   5.872   6.626   5.055
 5081SOL     OW16141   3.258   3.407   3.478
 5081SOL    HW116142   3.267   3.463   3.395
 5081SOL    HW216143   3.248   3.467   3.557
 5082SOL     OW16144   5.250   5.966   5.983
 5082SOL    HW116145   5.299   5.879   5.992
 5082SOL    HW216146   5.162   5.950   5.938
 5083SOL     OW16147   1.257   6.362   2.154
 5083SOL    HW116148   1.210   6.445   2.184
 5083SOL    HW216149   1.251   6.355   2.054
 5084SOL     OW16150   1.277   5.404   3.845
 5084SOL    HW116151   1.364   5.358   3.828
 5084SOL    HW216152   1.291   5.503   3.843
 5085SOL     OW16153   5.752   1.244   6.886
 5085SOL    HW116154   5.712   1.333   6.909
 5085SOL    HW216155   5.831   1.258   6.826
 5086SOL     OW16156   6.523   4.669   3.719
 5086SOL    HW116157   6.528   4.611   3.800
 5086SOL    HW216158   6.428   4.692   3.701
 5087SOL     OW16159   6.569   5.721   4.708
 5087SOL    HW116160   6.490   5.663   4.683
 5087SOL    HW216161   6.537   5.812   4.732
 5088SOL     OW16162   6.209   0.640   5.688
 5088SOL    HW116163   6.146   0.572   5.651
 5088SOL    HW216164   6.204   0.639   5.788
 5089SOL     OW16165   6.008   3.130   2.701
 5089SOL    HW116166   6.012   3.159   2.605
 5089SOL    HW216167   6.100   3.134   2.741
 5090SOL     OW16168   2.259   4.944   1.308
 5090SOL    HW116169   2.262   4.922   1.405
 5090SOL    HW216170   2.251   4.859   1.255
 5091SOL     OW16171   1.278   6.411   2.546
 5091SOL    HW116172   1.344   6.345   2.511
 5091SOL    HW216173   1.285   6.496   2.494
 5092SOL     OW16174   3.556   2.042   0.929
 5092SOL    HW116175   3.656   2.050   0.926
 5092SOL    HW216176   3.516   2.130   0.951
 5093SOL     OW16177   1.311   1.664   2.124
 5093SOL    HW116178   1.364   1.745   2.100
 5093SOL    HW216179   1.296   1.608   2.042
 5094SOL     OW16180   0.882   6.195   4.886
 5094SOL    HW116181   0.949   6.131   4.923
 5094SOL    HW216182   0.808   6.144   4.842
 5095SOL     OW16183   2.023   0.406   4.958
 5095SOL    HW116184   2.108   0.354   4.944
 5095SOL    HW216185   1.967   0.400   4.875
 5096SOL     OW16186   5.068   3.650   1.004
 5096SOL    HW116187   4.979   3.638   0.960
 5096SOL    HW216188   5.140   3.622   0.941
 5097SOL     OW16189   1.619   6.983   5.734
 5097SOL    HW116190   1.646   7.017   5.824
 5097SOL    HW216191   1.562   6.902   5.746
 5098SOL     OW16192   0.441   1.611   2.454
 5098SOL    HW116193   0.348   1.593   2.487
 5098SOL    HW216194   0.504   1.615   2.532
 5099SOL     OW16195   1.049   0.063   5.328
 5099SOL    HW116196   1.014   0.156   5.343
 5099SOL    HW216197   1.054   0.015   5.416
 5100SOL     OW16198   5.854   6.408   0.244
 5100SOL    HW116199   5.881   6.354   0.324
 5100SOL    HW216200   5.881   6.361   0.160
 5101SOL     OW16201   4.307   6.511   6.852
 5101SOL    HW116202   4.365   6.577   6.900
 5101SOL    HW216203   4.361   6.460   6.786
 5102SOL     OW16204   4.599   0.201   5.187
 5102SOL    HW116205   4.590   0.297   5.160
 5102SOL    HW216206   4.513   0.169   5.226
 5103SOL     OW16207   0.518   1.188   4.154
 5103SOL    HW116208   0.551   1.174   4.248
 5103SOL    HW216209   0.558   1.118   4.095
 5104SOL     OW16210   1.827   0.967   1.940
 5104SOL    HW116211   1.813   1.016   1.853
 5104SOL    HW216212   1.794   0.873   1.931
 5105SOL     OW16213   3.692   3.872   6.534
 5105SOL    HW116214   3.716   3.962   6.571
 5105SOL    HW216215   3.609   3.880   6.478
 5106SOL     OW16216   3.504   0.054   2.787
 5106SOL    HW116217   3.438   0.104   2.841
 5106SOL    HW216218   3.506   6.978   2.816
 5107SOL     OW16219   2.650   6.810   6.265
 5107SOL    HW116220   2.669   6.828   6.169
 5107SOL    HW216221   2.551   6.804   6.279
 5108SOL     OW16222   2.947   3.396   3.975
 5108SOL    HW116223   2.945   3.360   3.881
 5108SOL    HW216224   2.962   3.495   3.973
 5109SOL     OW16225   0.757   0.830   1.124
 5109SOL    HW116226   0.685   0.898   1.140
 5109SOL    HW216227   0.841   0.860   1.170
 5110SOL     OW16228   1.817   5.951   5.293
 5110SOL    HW116229   1.819   6.020   5.220
 5110SOL    HW216230   1.786   5.864   5.256
 5111SOL     OW16231   1.496   1.245   6.667
 5111SOL    HW116232   1.536   1.175   6.609
 5111SOL    HW216233   1.397   1.237   6.666
 5112SOL     OW16234   0.494   6.298   3.914
 5112SOL    HW116235   0.566   6.318   3.980
 5112SOL    HW216236   0.436   6.224   3.948
 5113SOL     OW16237   1.289   0.372   0.113
 5113SOL    HW116238   1.357   0.441   0.088
 5113SOL    HW216239   1.288   0.300   0.044
 5114SOL     OW16240   3.605   5.019   6.747
 5114SOL    HW116241   3.636   5.013   6.652
 5114SOL    HW216242   3.554   4.937   6.771
 5115SOL     OW16243   1.341   3.661   5.643
 5115SOL    HW116244   1.295   3.581   5.681
 5115SOL    HW216245   1.275   3.716   5.593
 5116SOL     OW16246   5.940   4.810   0.243
 5116SOL    HW116247   5.893   4.823   0.156
 5116SOL    HW216248   5.975   4.716   0.249
 5117SOL     OW16249   2.536   4.521   4.679
 5117SOL    HW116250   2.559   4.428   4.708
 5117SOL    HW216251   2.571   4.537   4.587
 5118SOL     OW16252   4.242   5.769   6.930
 5118SOL    HW116253   4.223   5.771   6.832
 5118SOL    HW216254   4.229   5.861   6.968
 5119SOL     OW16255   5.934   0.680   2.041
 5119SOL    HW116256   5.959   0.777   2.043
 5119SOL    HW216257   5.990   0.630   2.107
 5120SOL     OW16258   5.199   1.262   2.385
 5120SOL    HW116259   5.238   1.178   2.424
 5120SOL    HW216260   5.100   1.262   2.398
 5121SOL     OW16261   0.129   3.421   5.701
 5121SOL    HW116262   0.199   3.491   5.714
 5121SOL    HW216263   0.053   3.460   5.649
 5122SOL     OW16264   1.911   0.109   3.731
 5122SOL    HW116265   2.000   0.137   3.767
 5122SOL    HW216266   1.909   0.010   3.719
 5123SOL     OW16267   4.701   4.326   2.824
 5123SOL    HW116268   4.722   4.239   2.868
 5123SOL    HW216269   4.762   4.397   2.860
 5124SOL     OW16270   3.072   6.750   6.804
 5124SOL    HW116271   2.975   6.774   6.817
 5124SOL    HW216272   3.081   6.652   6.791
 5125SOL     OW16273   6.909   3.321   4.244
 5125SOL    HW116274   6.841   3.340   4.314
 5125SOL    HW216275   6.924   3.403   4.189
 5126SOL     OW16276   6.237   4.874   5.968
 5126SOL    HW116277   6.318   4.822   5.942
 5126SOL    HW216278   6.212   4.937   5.894
 5127SOL     OW16279   5.372   3.340   6.664
 5127SOL    HW116280   5.284   3.293   6.652
 5127SOL    HW216281   5.429   3.286   6.726
 5128SOL     OW16282   0.154   0.809   6.557
 5128SOL    HW116283   0.146   0.773   6.464
 5128SOL    HW216284   0.064   0.842   6.587
 5129SOL     OW16285   4.218   1.561   2.163
 5129SOL    HW116286   4.299   1.504   2.146
 5129SOL    HW216287   4.146   1.504   2.203
 5130SOL     OW16288   1.210   5.129   3.979
 5130SOL    HW116289   1.233   5.039   3.943
 5130SOL    HW216290   1.263   5.198   3.930
 5131SOL     OW16291   3.037   5.114   3.134
 5131SOL    HW116292   3.111   5.182   3.141
 5131SOL    HW216293   3.073   5.031   3.091
 5132SOL     OW16294   3.698   1.597   0.055
 5132SOL    HW116295   3.784   1.549   0.071
 5132SOL    HW216296   3.622   1.532   0.066
 5133SOL     OW16297   4.094   4.732   6.455
 5133SOL    HW116298   4.182   4.729   6.502
 5133SOL    HW216299   4.021   4.750   6.521
 5134SOL     OW16300   6.580   6.384   1.452
 5134SOL    HW116301   6.554   6.328   1.531
 5134SOL    HW216302   6.671   6.357   1.420
 5135SOL     OW16303   6.084   3.221   1.949
 5135SOL    HW116304   6.024   3.291   1.987
 5135SOL    HW216305   6.075   3.137   2.002
 5136SOL     OW16306   0.795   0.872   5.962
 5136SOL    HW116307   0.729   0.797   5.957
 5136SOL    HW216308   0.886   0.838   5.938
 5137SOL     OW16309   5.568   1.287   5.538
 5137SOL    HW116310   5.658   1.244   5.534
 5137SOL    HW216311   5.498   1.220   5.511
 5138SOL     OW16312   3.512   3.042   4.477
 5138SOL    HW116313   3.414   3.033   4.494
 5138SOL    HW216314   3.563   2.997   4.550
 5139SOL     OW16315   1.579   0.182   4.686
 5139SOL    HW116316   1.539   0.264   4.644
 5139SOL    HW216317   1.571   0.105   4.622
 5140SOL     OW16318   4.418   2.378   6.435
 5140SOL    HW116319   4.395   2.407   6.342
 5140SOL    HW216320   4.343   2.401   6.497
 5141SOL     OW16321   6.699   2.953   1.862
 5141SOL    HW116322   6.628   2.897   1.905
 5141SOL    HW216323   6.730   3.022   1.927
 5142SOL     OW16324   6.873   0.206   2.985
 5142SOL    HW116325   6.957   0.167   2.947
 5142SOL    HW216326   6.844   0.283   2.929
 5143SOL     OW16327   0.448   4.815   4.186
 5143SOL    HW116328   0.372   4.853   4.134
 5143SOL    HW216329   0.502   4.890   4.225
 5144SOL     OW16330   2.342   3.379   6.065
 5144SOL    HW116331   2.319   3.427   5.981
 5144SOL    HW216332   2.260   3.373   6.123
 5145SOL     OW16333   2.867   6.466   0.014
 5145SOL    HW116334   2.951   6.506   0.052
 5145SOL    HW216335   2.833   6.524   6.960
 5146SOL     OW16336   5.161   5.009   5.983
 5146SOL    HW116337   5.225   5.071   5.938
 5146SOL    HW216338   5.209   4.957   6.054
 5147SOL     OW16339   4.681   2.670   3.543
 5147SOL    HW116340   4.661   2.684   3.640
 5147SOL    HW216341   4.605   2.620   3.500
 5148SOL     OW16342   0.500   6.681   1.207
 5148SOL    HW116343   0.543   6.747   1.270
 5148SOL    HW216344   0.430   6.629   1.255
 5149SOL     OW16345   5.591   4.461   3.241
 5149SOL    HW116346   5.683   4.422   3.244
 5149SOL    HW216347   5.548   4.436   3.154
 5150SOL     OW16348   0.830   5.552   4.264
 5150SOL    HW116349   0.896   5.541   4.190
 5150SOL    HW216350   0.875   5.537   4.352
 5151SOL     OW16351   5.650   4.903   1.423
 5151SOL    HW116352   5.554   4.898   1.395
 5151SOL    HW216353   5.658   4.886   1.521
 5152SOL     OW16354   1.084   1.217   6.244
 5152SOL    HW116355   1.160   1.214   6.309
 5152SOL    HW216356   1.116   1.191   6.153
 5153SOL     OW16357   1.061   1.716   0.953
 5153SOL    HW116358   1.126   1.641   0.939
 5153SOL    HW216359   1.015   1.738   0.867
 5154SOL     OW16360   0.245   2.499   6.822
 5154SOL    HW116361   0.199   2.427   6.873
 5154SOL    HW216362   0.188   2.582   6.822
 5155SOL     OW16363   1.561   1.287   0.837
 5155SOL    HW116364   1.520   1.366   0.882
 5155SOL    HW216365   1.658   1.283   0.860
 5156SOL     OW16366   5.184   5.158   5.620
 5156SOL    HW116367   5.222   5.208   5.541
 5156SOL    HW216368   5.197   5.212   5.703
 5157SOL     OW16369   4.260   0.423   1.937
 5157SOL    HW116370   4.340   0.397   1.884
 5157SOL    HW216371   4.177   0.400   1.886
 5158SOL     OW16372   2.875   1.413   2.659
 5158SOL    HW116373   2.776   1.397   2.660
 5158SOL    HW216374   2.894   1.499   2.611
 5159SOL     OW16375   6.322   2.903   5.712
 5159SOL    HW116376   6.319   2.872   5.617
 5159SOL    HW216377   6.235   2.882   5.757
 5160SOL     OW16378   6.633   6.342   3.586
 5160SOL    HW116379   6.718   6.374   3.629
 5160SOL    HW216380   6.556   6.394   3.621
 5161SOL     OW16381   0.953   3.386   0.334
 5161SOL    HW116382   0.904   3.412   0.417
 5161SOL    HW216383   1.050   3.408   0.344
 5162SOL     OW16384   6.949   6.488   2.946
 5162SOL    HW116385   0.017   6.461   2.907
 5162SOL    HW216386   6.958   6.578   2.989
 5163SOL     OW16387   3.000   6.928   2.555
 5163SOL    HW116388   2.951   7.013   2.571
 5163SOL    HW216389   2.957   6.854   2.606
 5164SOL     OW16390   3.344   3.659   0.903
 5164SOL    HW116391   3.349   3.723   0.827
 5164SOL    HW216392   3.430   3.609   0.911
 5165SOL     OW16393   1.296   4.636   6.809
 5165SOL    HW116394   1.197   4.623   6.814
 5165SOL    HW216395   1.341   4.547   6.800
 5166SOL     OW16396   1.686   5.569   1.805
 5166SOL    HW116397   1.687   5.647   1.867
 5166SOL    HW216398   1.733   5.492   1.848
 5167SOL     OW16399   4.869   2.289   5.087
 5167SOL    HW116400   4.916   2.361   5.138
 5167SOL    HW216401   4.869   2.312   4.990
 5168SOL     OW16402   4.441   2.185   2.375
 5168SOL    HW116403   4.425   2.278   2.407
 5168SOL    HW216404   4.412   2.177   2.280
 5169SOL     OW16405   4.074   6.935   3.313
 5169SOL    HW116406   4.040   6.888   3.231
 5169SOL    HW216407   4.042   6.886   3.395
 5170SOL     OW16408   1.021   3.267   6.075
 5170SOL    HW116409   1.094   3.326   6.109
 5170SOL    HW216410   0.979   3.218   6.151
 5171SOL     OW16411   2.136   5.708   5.048
 5171SOL    HW116412   2.132   5.737   5.143
 5171SOL    HW216413   2.055   5.740   4.999
 5172SOL     OW16414   7.017   5.580   3.653
 5172SOL    HW116415   0.067   5.576   3.581
 5172SOL    HW216416   6.944   5.643   3.625
 5173SOL     OW16417   4.746   3.916   5.718
 5173SOL    HW116418   4.697   3.851   5.661
 5173SOL    HW216419   4.707   4.007   5.706
 5174SOL     OW16420   2.753   6.493   3.273
 5174SOL    HW116421   2.730   6.449   3.186
 5174SOL    HW216422   2.778   6.424   3.340
 5175SOL     OW16423   2.819   4.329   6.921
 5175SOL    HW116424   2.870   4.397   6.973
 5175SOL    HW216425   2.841   4.339   6.824
 5176SOL     OW16426   5.469   5.510   0.527
 5176SOL    HW116427   5.559   5.551   0.517
 5176SOL    HW216428   5.444   5.462   0.443
 5177SOL     OW16429   5.324   0.803   6.872
 5177SOL    HW116430   5.292   0.713   6.903
 5177SOL    HW216431   5.301   0.872   6.940
 5178SOL     OW16432   1.199   3.992   1.877
 5178SOL    HW116433   1.268   3.924   1.855
 5178SOL    HW216434   1.110   3.947   1.885
 5179SOL     OW16435   5.998   4.522   2.982
 5179SOL    HW116436   6.062   4.464   2.931
 5179SOL    HW216437   6.042   4.609   3.004
 5180SOL     OW16438   2.205   0.000   2.062
 5180SOL    HW116439   2.275   6.983   2.001
 5180SOL    HW216440   2.184   6.953   2.133
 5181SOL     OW16441   0.690   0.171   6.048
 5181SOL    HW116442   0.715   0.075   6.037
 5181SOL    HW216443   0.609   0.191   5.993
 5182SOL     OW16444   3.894   5.376   3.046
 5182SOL    HW116445   3.847   5.395   2.960
 5182SOL    HW216446   3.856   5.293   3.087
 5183SOL     OW16447   4.344   1.620   3.669
 5183SOL    HW116448   4.357   1.540   3.728
 5183SOL    HW216449   4.397   1.697   3.704
 5184SOL     OW16450   2.359   1.036   4.099
 5184SOL    HW116451   2.451   1.020   4.065
 5184SOL    HW216452   2.359   1.116   4.159
 5185SOL     OW16453   6.216   1.007   1.731
 5185SOL    HW116454   6.120   0.977   1.728
 5185SOL    HW216455   6.226   1.078   1.801
 5186SOL     OW16456   6.816   3.499   6.112
 5186SOL    HW116457   6.775   3.431   6.173
 5186SOL    HW216458   6.895   3.541   6.157
 5187SOL     OW16459   2.102   4.974   5.090
 5187SOL    HW116460   2.140   4.938   5.005
 5187SOL    HW216461   2.008   5.003   5.075
 5188SOL     OW16462   6.688   6.740   2.414
 5188SOL    HW116463   6.632   6.661   2.388
 5188SOL    HW216464   6.658   6.820   2.362
 5189SOL     OW16465   4.981   6.953   5.966
 5189SOL    HW116466   4.923   7.000   6.032
 5189SOL    HW216467   5.034   7.020   5.914
 5190SOL     OW16468   1.669   3.804   1.241
 5190SOL    HW116469   1.661   3.774   1.336
 5190SOL    HW216470   1.625   3.738   1.181
 5191SOL     OW16471   3.391   5.080   2.272
 5191SOL    HW116472   3.365   5.176   2.281
 5191SOL    HW216473   3.370   5.048   2.180
 5192SOL     OW16474   2.343   4.975   2.443
 5192SOL    HW116475   2.322   5.068   2.412
 5192SOL    HW216476   2.432   4.948   2.407
 5193SOL     OW16477   6.116   0.592   6.843
 5193SOL    HW116478   6.066   0.675   6.818
 5193SOL    HW216479   6.093   0.567   6.937
 5194SOL     OW16480   4.791   2.396   6.735
 5194SOL    HW116481   4.694   2.395   6.711
 5194SOL    HW216482   4.844   2.432   6.658
 5195SOL     OW16483   6.646   0.572   4.870
 5195SOL    HW116484   6.701   0.491   4.850
 5195SOL    HW216485   6.573   0.580   4.803
 5196SOL     OW16486   5.582   6.238   2.797
 5196SOL    HW116487   5.512   6.173   2.766
 5196SOL    HW216488   5.622   6.284   2.718
 5197SOL     OW16489   1.107   4.164   5.947
 5197SOL    HW116490   1.023   4.123   5.912
 5197SOL    HW216491   1.086   4.228   6.021
 5198SOL     OW16492   5.289   5.328   2.418
 5198SOL    HW116493   5.345   5.266   2.473
 5198SOL    HW216494   5.238   5.276   2.350
 5199SOL     OW16495   6.561   4.933   1.107
 5199SOL    HW116496   6.577   4.894   1.197
 5199SOL    HW216497   6.532   4.861   1.044
 5200SOL     OW16498   0.433   3.806   5.493
 5200SOL    HW116499   0.433   3.895   5.447
 5200SOL    HW216500   0.502   3.806   5.565
 5201SOL     OW16501   1.717   5.354   4.160
 5201SOL    HW116502   1.795   5.297   4.186
 5201SOL    HW216503   1.742   5.413   4.084
 5202SOL     OW16504   6.627   3.796   0.588
 5202SOL    HW116505   6.679   3.877   0.615
 5202SOL    HW216506   6.533   3.804   0.621
 5203SOL     OW16507   0.972   2.424   6.600
 5203SOL    HW116508   1.030   2.426   6.519
 5203SOL    HW216509   0.988   2.507   6.654
 5204SOL     OW16510   4.607   5.106   0.139
 5204SOL    HW116511   4.542   5.032   0.154
 5204SOL    HW216512   4.557   5.192   0.128
 5205SOL     OW16513   1.865   0.236   2.094
 5205SOL    HW116514   1.957   0.252   2.059
 5205SOL    HW216515   1.802   0.225   2.016
 5206SOL     OW16516   0.704   4.393   6.814
 5206SOL    HW116517   0.707   4.394   6.914
 5206SOL    HW216518   0.788   4.353   6.778
 5207SOL     OW16519   1.262   5.359   4.402
 5207SOL    HW116520   1.328   5.366   4.327
 5207SOL    HW216521   1.287   5.422   4.475
 5208SOL     OW16522   3.805   1.083   0.141
 5208SOL    HW116523   3.905   1.091   0.138
 5208SOL    HW216524   3.768   1.087   0.048
 5209SOL     OW16525   5.979   5.697   3.463
 5209SOL    HW116526   6.026   5.729   3.545
 5209SOL    HW216527   5.962   5.599   3.470
 5210SOL     OW16528   5.079   4.701   3.980
 5210SOL    HW116529   5.108   4.739   3.893
 5210SOL    HW216530   5.037   4.773   4.036
 5211SOL     OW16531   3.692   3.169   3.823
 5211SOL    HW116532   3.735   3.080   3.836
 5211SOL    HW216533   3.601   3.158   3.783
 5212SOL     OW16534   0.865   2.005   0.899
 5212SOL    HW116535   0.949   1.952   0.914
 5212SOL    HW216536   0.822   2.023   0.988
 5213SOL     OW16537   4.853   2.561   5.712
 5213SOL    HW116538   4.877   2.465   5.730
 5213SOL    HW216539   4.808   2.600   5.792
 5214SOL     OW16540   5.558   1.702   5.778
 5214SOL    HW116541   5.465   1.722   5.808
 5214SOL    HW216542   5.617   1.779   5.799
 5215SOL     OW16543   4.940   4.922   3.294
 5215SOL    HW116544   4.893   4.905   3.208
 5215SOL    HW216545   5.023   4.866   3.299
 5216SOL     OW16546   5.043   5.031   0.629
 5216SOL    HW116547   5.134   4.989   0.626
 5216SOL    HW216548   4.988   4.987   0.700
 5217SOL     OW16549   3.374   5.450   3.929
 5217SOL    HW116550   3.353   5.388   4.006
 5217SOL    HW216551   3.432   5.524   3.961
 5218SOL     OW16552   1.325   6.511   3.621
 5218SOL    HW116553   1.389   6.535   3.548
 5218SOL    HW216554   1.293   6.594   3.666
 5219SOL     OW16555   3.503   7.001   6.558
 5219SOL    HW116556   3.460   0.013   6.643
 5219SOL    HW216557   3.500   6.901   6.554
 5220SOL     OW16558   0.402   6.036   2.642
 5220SOL    HW116559   0.345   6.043   2.560
 5220SOL    HW216560   0.465   5.960   2.632
 5221SOL     OW16561   5.628   0.976   4.337
 5221SOL    HW116562   5.615   1.001   4.432
 5221SOL    HW216563   5.650   1.058   4.283
 5222SOL     OW16564   1.781   0.675   3.555
 5222SOL    HW116565   1.828   0.752   3.598
 5222SOL    HW216566   1.819   0.659   3.464
 5223SOL     OW16567   5.067   0.785   1.466
 5223SOL    HW116568   4.988   0.771   1.406
 5223SOL    HW216569   5.123   0.701   1.467
 5224SOL     OW16570   6.434   1.817   2.669
 5224SOL    HW116571   6.531   1.843   2.669
 5224SOL    HW216572   6.388   1.863   2.593
 5225SOL     OW16573   6.152   6.060   4.093
 5225SOL    HW116574   6.186   6.154   4.087
 5225SOL    HW216575   6.078   6.056   4.160
 5226SOL     OW16576   0.597   6.577   4.067
 5226SOL    HW116577   0.535   6.531   4.130
 5226SOL    HW216578   0.577   6.547   3.973
 5227SOL     OW16579   6.484   4.806   3.368
 5227SOL    HW116580   6.565   4.826   3.313
 5227SOL    HW216581   6.501   4.724   3.423
 5228SOL     OW16582   5.599   1.735   0.516
 5228SOL    HW116583   5.686   1.754   0.561
 5228SOL    HW216584   5.615   1.678   0.436
 5229SOL     OW16585   1.361   3.813   6.156
 5229SOL    HW116586   1.382   3.716   6.168
 5229SOL    HW216587   1.435   3.857   6.104
 5230SOL     OW16588   0.240   0.306   0.302
 5230SOL    HW116589   0.249   0.258   0.389
 5230SOL    HW216590   0.198   0.396   0.317
 5231SOL     OW16591   4.062   3.324   4.120
 5231SOL    HW116592   4.002   3.323   4.040
 5231SOL    HW216593   4.039   3.248   4.181
 5232SOL     OW16594   4.633   2.292   0.314
 5232SOL    HW116595   4.644   2.289   0.215
 5232SOL    HW216596   4.559   2.230   0.342
 5233SOL     OW16597   6.997   6.026   2.036
 5233SOL    HW116598   6.988   6.125   2.052
 5233SOL    HW216599   0.074   6.004   2.022
 5234SOL     OW16600   3.366   6.799   0.646
 5234SOL    HW116601   3.458   6.837   0.632
 5234SOL    HW216602   3.347   6.730   0.576
 5235SOL     OW16603   1.762   3.381   0.833
 5235SOL    HW116604   1.842   3.426   0.874
 5235SOL    HW216605   1.740   3.300   0.887
 5236SOL     OW16606   5.180   3.673   1.254
 5236SOL    HW116607   5.247   3.609   1.290
 5236SOL    HW216608   5.144   3.639   1.167
 5237SOL     OW16609   2.353   1.797   5.271
 5237SOL    HW116610   2.323   1.893   5.267
 5237SOL    HW216611   2.452   1.793   5.260
 5238SOL     OW16612   1.542   4.917   0.574
 5238SOL    HW116613   1.583   4.828   0.592
 5238SOL    HW216614   1.563   4.979   0.650
 5239SOL     OW16615   3.428   3.069   4.050
 5239SOL    HW116616   3.354   3.088   3.986
 5239SOL    HW216617   3.495   3.143   4.045
 5240SOL     OW16618   3.405   2.163   5.185
 5240SOL    HW116619   3.365   2.072   5.195
 5240SOL    HW216620   3.334   2.232   5.200
 5241SOL     OW16621   1.159   6.235   6.156
 5241SOL    HW116622   1.247   6.231   6.203
 5241SOL    HW216623   1.100   6.161   6.188
 5242SOL     OW16624   5.930   1.200   5.879
 5242SOL    HW116625   5.889   1.254   5.951
 5242SOL    HW216626   5.881   1.113   5.870
 5243SOL     OW16627   1.054   5.489   0.873
 5243SOL    HW116628   0.957   5.509   0.870
 5243SOL    HW216629   1.088   5.475   0.780
 5244SOL     OW16630   4.357   4.429   5.811
 5244SOL    HW116631   4.313   4.344   5.785
 5244SOL    HW216632   4.371   4.486   5.730
 5245SOL     OW16633   4.092   3.813   6.486
 5245SOL    HW116634   4.038   3.777   6.410
 5245SOL    HW216635   4.094   3.747   6.561
 5246SOL     OW16636   0.780   3.269   2.642
 5246SOL    HW116637   0.870   3.242   2.608
 5246SOL    HW216638   0.719   3.190   2.643
 5247SOL     OW16639   6.938   5.294   0.836
 5247SOL    HW116640   6.939   5.199   0.803
 5247SOL    HW216641   6.971   5.297   0.930
 5248SOL     OW16642   5.374   1.162   6.300
 5248SOL    HW116643   5.362   1.067   6.328
 5248SOL    HW216644   5.285   1.209   6.301
 5249SOL     OW16645   0.633   4.737   5.110
 5249SOL    HW116646   0.644   4.814   5.047
 5249SOL    HW216647   0.714   4.732   5.170
 5250SOL     OW16648   0.125   2.167   5.795
 5250SOL    HW116649   0.156   2.142   5.887
 5250SOL    HW216650   0.200   2.212   5.746
 5251SOL     OW16651   6.551   3.231   1.417
 5251SOL    HW116652   6.540   3.191   1.326
 5251SOL    HW216653   6.621   3.181   1.468
 5252SOL     OW16654   3.481   6.573   1.208
 5252SOL    HW116655   3.571   6.610   1.188
 5252SOL    HW216656   3.465   6.491   1.151
 5253SOL     OW16657   5.663   3.646   4.647
 5253SOL    HW116658   5.611   3.565   4.675
 5253SOL    HW216659   5.662   3.714   4.721
 5254SOL     OW16660   4.515   1.198   4.168
 5254SOL    HW116661   4.574   1.174   4.245
 5254SOL    HW216662   4.569   1.197   4.083
 5255SOL     OW16663   3.053   6.548   5.384
 5255SOL    HW116664   3.153   6.544   5.377
 5255SOL    HW216665   3.018   6.460   5.414
 5256SOL     OW16666   4.999   0.761   3.560
 5256SOL    HW116667   5.044   0.837   3.514
 5256SOL    HW216668   4.986   0.783   3.657
 5257SOL     OW16669   3.661   6.645   0.240
 5257SOL    HW116670   3.654   6.715   0.169
 5257SOL    HW216671   3.655   6.555   0.198
 5258SOL     OW16672   4.841   4.342   2.310
 5258SOL    HW116673   4.847   4.434   2.347
 5258SOL    HW216674   4.746   4.311   2.310
 5259SOL     OW16675   4.280   6.337   2.619
 5259SOL    HW116676   4.276   6.415   2.558
 5259SOL    HW216677   4.338   6.266   2.579
 5260SOL     OW16678   5.911   3.279   1.060
 5260SOL    HW116679   5.820   3.237   1.059
 5260SOL    HW216680   5.910   3.359   1.120
 5261SOL     OW16681   0.322   3.147   4.710
 5261SOL    HW116682   0.387   3.107   4.774
 5261SOL    HW216683   0.317   3.091   4.627
 5262SOL     OW16684   2.623   6.572   2.204
 5262SOL    HW116685   2.578   6.661   2.213
 5262SOL    HW216686   2.562   6.509   2.156
 5263SOL     OW16687   1.413   6.883   6.137
 5263SOL    HW116688   1.497   6.831   6.120
 5263SOL    HW216689   1.433   6.981   6.134
 5264SOL     OW16690   6.735   1.407   1.373
 5264SOL    HW116691   6.752   1.333   1.438
 5264SOL    HW216692   6.637   1.413   1.353
 5265SOL     OW16693   5.539   4.895   2.268
 5265SOL    HW116694   5.607   4.857   2.331
 5265SOL    HW216695   5.449   4.892   2.311
 5266SOL     OW16696   1.348   6.193   1.797
 5266SOL    HW116697   1.251   6.212   1.811
 5266SOL    HW216698   1.391   6.271   1.753
 5267SOL     OW16699   4.782   5.174   5.140
 5267SOL    HW116700   4.866   5.165   5.087
 5267SOL    HW216701   4.796   5.138   5.232
 5268SOL     OW16702   6.796   5.175   5.641
 5268SOL    HW116703   6.792   5.121   5.725
 5268SOL    HW216704   6.714   5.232   5.635
 5269SOL     OW16705   1.630   5.360   4.454
 5269SOL    HW116706   1.562   5.371   4.382
 5269SOL    HW216707   1.678   5.446   4.470
 5270SOL     OW16708   5.974   2.797   1.828
 5270SOL    HW116709   5.887   2.839   1.853
 5270SOL    HW216710   5.957   2.706   1.789
 5271SOL     OW16711   4.869   4.810   4.825
 5271SOL    HW116712   4.828   4.890   4.868
 5271SOL    HW216713   4.921   4.759   4.893
 5272SOL     OW16714   6.886   6.103   4.665
 5272SOL    HW116715   6.891   6.046   4.747
 5272SOL    HW216716   6.805   6.079   4.612
 5273SOL     OW16717   0.616   1.963   3.895
 5273SOL    HW116718   0.697   1.993   3.844
 5273SOL    HW216719   0.537   1.959   3.833
 5274SOL     OW16720   0.070   4.610   3.926
 5274SOL    HW116721   0.133   4.557   3.870
 5274SOL    HW216722   6.997   4.570   3.918
 5275SOL     OW16723   2.362   6.914   6.204
 5275SOL    HW116724   2.376   6.952   6.295
 5275SOL    HW216725   2.276   6.949   6.165
 5276SOL     OW16726   6.923   6.889   1.737
 5276SOL    HW116727   6.991   6.893   1.811
 5276SOL    HW216728   6.871   6.804   1.744
 5277SOL     OW16729   1.344   1.534   3.320
 5277SOL    HW116730   1.252   1.530   3.279
 5277SOL    HW216731   1.376   1.441   3.338
 5278SOL     OW16732   0.417   6.158   6.062
 5278SOL    HW116733   0.516   6.171   6.053
 5278SOL    HW216734   0.399   6.062   6.083
 5279SOL     OW16735   1.363   5.803   6.382
 5279SOL    HW116736   1.427   5.789   6.459
 5279SOL    HW216737   1.282   5.851   6.415
 5280SOL     OW16738   3.630   6.395   4.618
 5280SOL    HW116739   3.613   6.301   4.588
 5280SOL    HW216740   3.548   6.431   4.663
 5281SOL     OW16741   1.314   1.121   4.090
 5281SOL    HW116742   1.223   1.116   4.130
 5281SOL    HW216743   1.383   1.112   4.161
 5282SOL     OW16744   1.616   0.092   2.908
 5282SOL    HW116745   1.571   0.036   2.838
 5282SOL    HW216746   1.573   0.182   2.910
 5283SOL     OW16747   0.353   0.798   3.747
 5283SOL    HW116748   0.255   0.780   3.740
 5283SOL    HW216749   0.376   0.817   3.843
 5284SOL     OW16750   5.142   1.774   2.043
 5284SOL    HW116751   5.134   1.698   2.107
 5284SOL    HW216752   5.227   1.824   2.061
 5285SOL     OW16753   0.921   3.183   3.393
 5285SOL    HW116754   0.971   3.133   3.464
 5285SOL    HW216755   0.918   3.280   3.415
 5286SOL     OW16756   6.362   2.881   0.750
 5286SOL    HW116757   6.366   2.937   0.667
 5286SOL    HW216758   6.273   2.895   0.794
 5287SOL     OW16759   3.511   5.323   1.538
 5287SOL    HW116760   3.496   5.408   1.589
 5287SOL    HW216761   3.538   5.344   1.445
 5288SOL     OW16762   5.464   0.117   1.408
 5288SOL    HW116763   5.529   0.173   1.357
 5288SOL    HW216764   5.447   0.032   1.358
 5289SOL     OW16765   1.834   5.222   6.703
 5289SOL    HW116766   1.812   5.130   6.669
 5289SOL    HW216767   1.853   5.283   6.627
 5290SOL     OW16768   1.920   4.004   5.957
 5290SOL    HW116769   1.991   3.943   5.993
 5290SOL    HW216770   1.910   3.988   5.859
 5291SOL     OW16771   2.991   3.831   5.497
 5291SOL    HW116772   2.975   3.746   5.445
 5291SOL    HW216773   3.035   3.898   5.437
 5292SOL     OW16774   0.085   4.375   6.515
 5292SOL    HW116775   0.114   4.468   6.493
 5292SOL    HW216776   0.009   4.379   6.580
 5293SOL     OW16777   2.286   5.322   4.538
 5293SOL    HW116778   2.240   5.370   4.612
 5293SOL    HW216779   2.385   5.341   4.543
 5294SOL     OW16780   4.421   0.583   5.149
 5294SOL    HW116781   4.432   0.643   5.228
 5294SOL    HW216782   4.405   0.489   5.181
 5295SOL     OW16783   3.186   0.943   2.998
 5295SOL    HW116784   3.143   1.033   3.001
 5295SOL    HW216785   3.162   0.891   3.081
 5296SOL     OW16786   3.671   4.445   0.737
 5296SOL    HW116787   3.638   4.378   0.670
 5296SOL    HW216788   3.766   4.468   0.716
 5297SOL     OW16789   2.768   3.663   0.354
 5297SOL    HW116790   2.812   3.658   0.443
 5297SOL    HW216791   2.785   3.753   0.313
 5298SOL     OW16792   2.629   6.663   0.086
 5298SOL    HW116793   2.712   6.674   0.031
 5298SOL    HW216794   2.556   6.624   0.029
 5299SOL     OW16795   2.937   1.982   0.818
 5299SOL    HW116796   2.991   2.039   0.880
 5299SOL    HW216797   2.957   2.008   0.723
 5300SOL     OW16798   1.272   4.466   0.491
 5300SOL    HW116799   1.361   4.427   0.470
 5300SOL    HW216800   1.229   4.413   0.564
 5301SOL     OW16801   4.418   0.672   0.003
 5301SOL    HW116802   4.500   0.663   0.059
 5301SOL    HW216803   4.339   0.636   0.053
 5302SOL     OW16804   4.480   5.762   3.553
 5302SOL    HW116805   4.410   5.690   3.556
 5302SOL    HW216806   4.561   5.732   3.603
 5303SOL     OW16807   6.683   5.078   6.584
 5303SOL    HW116808   6.693   5.113   6.491
 5303SOL    HW216809   6.703   4.980   6.585
 5304SOL     OW16810   5.882   1.378   0.838
 5304SOL    HW116811   5.854   1.389   0.934
 5304SOL    HW216812   5.903   1.467   0.799
 5305SOL     OW16813   1.310   5.529   2.830
 5305SOL    HW116814   1.328   5.456   2.896
 5305SOL    HW216815   1.396   5.573   2.804
 5306SOL     OW16816   0.265   4.288   5.843
 5306SOL    HW116817   0.303   4.380   5.850
 5306SOL    HW216818   0.165   4.294   5.834
 5307SOL     OW16819   4.653   2.494   0.471
 5307SOL    HW116820   4.680   2.419   0.411
 5307SOL    HW216821   4.571   2.539   0.435
 5308SOL     OW16822   1.402   4.857   2.623
 5308SOL    HW116823   1.477   4.923   2.613
 5308SOL    HW216824   1.413   4.785   2.555
 5309SOL     OW16825   4.027   6.146   2.702
 5309SOL    HW116826   4.067   6.099   2.623
 5309SOL    HW216827   3.972   6.081   2.755
 5310SOL     OW16828   5.954   3.143   2.431
 5310SOL    HW116829   6.041   3.144   2.381
 5310SOL    HW216830   5.916   3.051   2.430
 5311SOL     OW16831   5.904   0.257   0.018
 5311SOL    HW116832   5.817   0.252   0.067
 5311SOL    HW216833   5.898   0.200   6.955
 5312SOL     OW16834   0.161   6.162   1.555
 5312SOL    HW116835   0.107   6.191   1.476
 5312SOL    HW216836   0.107   6.099   1.611
 5313SOL     OW16837   6.936   4.732   5.532
 5313SOL    HW116838   0.001   4.701   5.487
 5313SOL    HW216839   6.930   4.831   5.526
 5314SOL     OW16840   5.386   6.689   0.708
 5314SOL    HW116841   5.462   6.739   0.747
 5314SOL    HW216842   5.411   6.655   0.617
 5315SOL     OW16843   4.423   2.204   3.397
 5315SOL    HW116844   4.467   2.135   3.455
 5315SOL    HW216845   4.467   2.204   3.307
 5316SOL     OW16846   0.805   3.642   5.277
 5316SOL    HW116847   0.835   3.638   5.182
 5316SOL    HW216848   0.706   3.626   5.281
 5317SOL     OW16849   6.985   1.388   5.642
 5317SOL    HW116850   0.023   1.349   5.570
 5317SOL    HW216851   6.889   1.373   5.620
 5318SOL     OW16852   0.307   2.822   0.424
 5318SOL    HW116853   0.379   2.790   0.487
 5318SOL    HW216854   0.219   2.820   0.471
 5319SOL     OW16855   4.599   6.388   0.619
 5319SOL    HW116856   4.526   6.438   0.665
 5319SOL    HW216857   4.568   6.295   0.600
 5320SOL     OW16858   4.140   5.916   1.216
 5320SOL    HW116859   4.043   5.915   1.240
 5320SOL    HW216860   4.183   5.832   1.249
 5321SOL     OW16861   1.858   4.238   4.899
 5321SOL    HW116862   1.769   4.273   4.869
 5321SOL    HW216863   1.851   4.205   4.993
 5322SOL     OW16864   5.513   0.131   0.594
 5322SOL    HW116865   5.564   0.111   0.511
 5322SOL    HW216866   5.533   0.062   0.664
 5323SOL     OW16867   4.460   1.281   5.887
 5323SOL    HW116868   4.454   1.184   5.864
 5323SOL    HW216869   4.556   1.307   5.896
 5324SOL     OW16870   2.858   2.095   6.702
 5324SOL    HW116871   2.869   2.160   6.627
 5324SOL    HW216872   2.801   2.019   6.674
 5325SOL     OW16873   2.645   1.742   5.215
 5325SOL    HW116874   2.645   1.654   5.168
 5325SOL    HW216875   2.680   1.813   5.153
 5326SOL     OW16876   6.296   5.868   3.531
 5326SOL    HW116877   6.295   5.967   3.543
 5326SOL    HW216878   6.265   5.845   3.439
 5327SOL     OW16879   5.905   2.471   4.887
 5327SOL    HW116880   5.838   2.406   4.923
 5327SOL    HW216881   5.980   2.482   4.953
 5328SOL     OW16882   4.018   3.821   5.931
 5328SOL    HW116883   4.035   3.765   5.850
 5328SOL    HW216884   4.060   3.778   6.011
 5329SOL     OW16885   1.255   5.448   6.396
 5329SOL    HW116886   1.204   5.502   6.330
 5329SOL    HW216887   1.255   5.494   6.485
 5330SOL     OW16888   3.665   4.233   0.571
 5330SOL    HW116889   3.722   4.256   0.493
 5330SOL    HW216890   3.645   4.135   0.570
 5331SOL     OW16891   6.394   1.796   6.721
 5331SOL    HW116892   6.342   1.846   6.652
 5331SOL    HW216893   6.470   1.853   6.753
 5332SOL     OW16894   1.808   4.201   1.497
 5332SOL    HW116895   1.745   4.253   1.554
 5332SOL    HW216896   1.779   4.205   1.402
 5333SOL     OW16897   1.187   1.000   2.949
 5333SOL    HW116898   1.158   1.022   2.856
 5333SOL    HW216899   1.115   0.949   2.996
 5334SOL     OW16900   3.147   0.509   5.313
 5334SOL    HW116901   3.049   0.492   5.324
 5334SOL    HW216902   3.164   0.544   5.221
 5335SOL     OW16903   6.045   5.874   0.854
 5335SOL    HW116904   5.980   5.911   0.920
 5335SOL    HW216905   6.004   5.796   0.806
 5336SOL     OW16906   1.739   3.358   2.184
 5336SOL    HW116907   1.822   3.382   2.234
 5336SOL    HW216908   1.763   3.330   2.091
 5337SOL     OW16909   4.605   3.956   1.465
 5337SOL    HW116910   4.687   3.904   1.440
 5337SOL    HW216911   4.624   4.009   1.548
 5338SOL     OW16912   5.986   1.673   6.773
 5338SOL    HW116913   6.056   1.620   6.726
 5338SOL    HW216914   5.945   1.617   6.845
 5339SOL     OW16915   6.549   1.903   3.892
 5339SOL    HW116916   6.560   1.828   3.827
 5339SOL    HW216917   6.554   1.866   3.985
 5340SOL     OW16918   5.865   3.179   0.167
 5340SOL    HW116919   5.804   3.220   0.236
 5340SOL    HW216920   5.896   3.090   0.199
 5341SOL     OW16921   3.833   2.388   5.799
 5341SOL    HW116922   3.911   2.430   5.751
 5341SOL    HW216923   3.854   2.293   5.819
 5342SOL     OW16924   3.655   0.617   5.294
 5342SOL    HW116925   3.620   0.568   5.373
 5342SOL    HW216926   3.682   0.552   5.223
 5343SOL     OW16927   3.521   3.741   3.526
 5343SOL    HW116928   3.499   3.764   3.431
 5343SOL    HW216929   3.449   3.775   3.587
 5344SOL     OW16930   1.485   2.942   2.626
 5344SOL    HW116931   1.542   2.885   2.685
 5344SOL    HW216932   1.485   2.904   2.533
 5345SOL     OW16933   4.510   5.843   0.801
 5345SOL    HW116934   4.584   5.896   0.759
 5345SOL    HW216935   4.463   5.789   0.731
 5346SOL     OW16936   3.250   6.391   3.723
 5346SOL    HW116937   3.153   6.406   3.708
 5346SOL    HW216938   3.276   6.300   3.692
 5347SOL     OW16939   6.846   2.412   2.231
 5347SOL    HW116940   6.865   2.484   2.298
 5347SOL    HW216941   6.748   2.405   2.216
 5348SOL     OW16942   0.860   1.447   0.467
 5348SOL    HW116943   0.946   1.459   0.418
 5348SOL    HW216944   0.840   1.350   0.476
 5349SOL     OW16945   0.897   2.328   0.510
 5349SOL    HW116946   0.800   2.316   0.528
 5349SOL    HW216947   0.951   2.283   0.581
 5350SOL     OW16948   2.602   0.369   6.030
 5350SOL    HW116949   2.554   0.449   6.066
 5350SOL    HW216950   2.574   0.352   5.936
 5351SOL     OW16951   4.862   5.725   1.465
 5351SOL    HW116952   4.783   5.758   1.412
 5351SOL    HW216953   4.838   5.723   1.562
 5352SOL     OW16954   2.284   6.089   3.690
 5352SOL    HW116955   2.359   6.044   3.641
 5352SOL    HW216956   2.313   6.110   3.784
 5353SOL     OW16957   4.186   6.027   4.575
 5353SOL    HW116958   4.111   6.081   4.538
 5353SOL    HW216959   4.220   5.964   4.505
 5354SOL     OW16960   2.499   4.530   2.638
 5354SOL    HW116961   2.588   4.506   2.677
 5354SOL    HW216962   2.475   4.624   2.663
 5355SOL     OW16963   4.577   2.028   3.519
 5355SOL    HW116964   4.658   2.070   3.477
 5355SOL    HW216965   4.524   1.981   3.448
 5356SOL     OW16966   5.875   3.883   1.611
 5356SOL    HW116967   5.803   3.953   1.610
 5356SOL    HW216968   5.875   3.833   1.525
 5357SOL     OW16969   3.318   1.105   1.021
 5357SOL    HW116970   3.241   1.131   0.963
 5357SOL    HW216971   3.292   1.114   1.117
 5358SOL     OW16972   4.104   2.530   0.780
 5358SOL    HW116973   4.201   2.521   0.802
 5358SOL    HW216974   4.052   2.550   0.863
 5359SOL     OW16975   2.213   1.618   0.759
 5359SOL    HW116976   2.230   1.536   0.815
 5359SOL    HW216977   2.291   1.633   0.698
 5360SOL     OW16978   3.833   6.876   4.933
 5360SOL    HW116979   3.772   6.803   4.962
 5360SOL    HW216980   3.868   6.925   5.013
 5361SOL     OW16981   2.566   1.011   4.784
 5361SOL    HW116982   2.474   1.028   4.818
 5361SOL    HW216983   2.601   1.093   4.739
 5362SOL     OW16984   5.029   4.622   3.533
 5362SOL    HW116985   5.067   4.619   3.440
 5362SOL    HW216986   4.982   4.710   3.547
 5363SOL     OW16987   0.991   6.023   6.015
 5363SOL    HW116988   1.016   6.095   5.951
 5363SOL    HW216989   1.048   5.942   5.999
 5364SOL     OW16990   6.204   5.244   1.059
 5364SOL    HW116991   6.279   5.249   1.125
 5364SOL    HW216992   6.208   5.325   0.999
 5365SOL     OW16993   4.610   3.146   6.343
 5365SOL    HW116994   4.523   3.148   6.295
 5365SOL    HW216995   4.682   3.115   6.280
 5366SOL     OW16996   4.908   4.875   0.797
 5366SOL    HW116997   4.857   4.792   0.777
 5366SOL    HW216998   4.994   4.851   0.842
 5367SOL     OW16999   0.563   5.073   0.578
 5367SOL    HW117000   0.552   5.159   0.627
 5367SOL    HW217001   0.636   5.019   0.620
 5368SOL     OW17002   5.243   1.650   2.988
 5368SOL    HW117003   5.324   1.667   2.932
 5368SOL    HW217004   5.237   1.552   3.009
 5369SOL     OW17005   2.432   5.803   3.395
 5369SOL    HW117006   2.492   5.864   3.446
 5369SOL    HW217007   2.389   5.853   3.320
 5370SOL     OW17008   4.045   2.994   1.483
 5370SOL    HW117009   4.062   2.932   1.406
 5370SOL    HW217010   4.080   3.085   1.459
 5371SOL     OW17011   2.259   4.527   4.400
 5371SOL    HW117012   2.180   4.543   4.341
 5371SOL    HW217013   2.238   4.454   4.465
 5372SOL     OW17014   2.875   5.532   2.131
 5372SOL    HW117015   2.936   5.592   2.183
 5372SOL    HW217016   2.781   5.566   2.137
 5373SOL     OW17017   2.988   4.819   4.291
 5373SOL    HW117018   3.053   4.748   4.319
 5373SOL    HW217019   2.917   4.829   4.361
 5374SOL     OW17020   1.153   3.477   6.714
 5374SOL    HW117021   1.168   3.379   6.729
 5374SOL    HW217022   1.219   3.511   6.646
 5375SOL     OW17023   1.024   4.703   4.973
 5375SOL    HW117024   0.972   4.782   4.940
 5375SOL    HW217025   0.961   4.634   5.008
 5376SOL     OW17026   1.388   3.630   1.440
 5376SOL    HW117027   1.484   3.658   1.433
 5376SOL    HW217028   1.345   3.637   1.350
 5377SOL     OW17029   6.774   0.303   1.740
 5377SOL    HW117030   6.857   0.332   1.789
 5377SOL    HW217031   6.719   0.244   1.800
 5378SOL     OW17032   6.648   0.866   1.054
 5378SOL    HW117033   6.704   0.932   1.004
 5378SOL    HW217034   6.573   0.914   1.101
 5379SOL     OW17035   0.242   5.105   3.827
 5379SOL    HW117036   0.174   5.036   3.855
 5379SOL    HW217037   0.311   5.062   3.770
 5380SOL     OW17038   1.994   1.193   3.366
 5380SOL    HW117039   1.930   1.116   3.355
 5380SOL    HW217040   1.948   1.278   3.341
 5381SOL     OW17041   6.523   3.675   0.864
 5381SOL    HW117042   6.504   3.773   0.858
 5381SOL    HW217043   6.596   3.652   0.800
 5382SOL     OW17044   2.998   0.190   1.510
 5382SOL    HW117045   3.025   0.094   1.498
 5382SOL    HW217046   2.987   0.233   1.420
 5383SOL     OW17047   2.992   2.410   5.338
 5383SOL    HW117048   2.947   2.345   5.277
 5383SOL    HW217049   3.076   2.444   5.295
 5384SOL     OW17050   6.263   0.148   3.760
 5384SOL    HW117051   6.197   0.167   3.833
 5384SOL    HW217052   6.321   0.228   3.745
 5385SOL     OW17053   3.093   3.828   3.090
 5385SOL    HW117054   3.053   3.876   3.012
 5385SOL    HW217055   3.153   3.890   3.140
 5386SOL     OW17056   4.790   6.326   4.229
 5386SOL    HW117057   4.826   6.330   4.136
 5386SOL    HW217058   4.854   6.369   4.292
 5387SOL     OW17059   2.337   5.826   2.767
 5387SOL    HW117060   2.271   5.752   2.757
 5387SOL    HW217061   2.430   5.789   2.759
 5388SOL     OW17062   5.471   5.956   2.734
 5388SOL    HW117063   5.373   5.955   2.717
 5388SOL    HW217064   5.497   5.876   2.788
 5389SOL     OW17065   5.427   0.655   1.548
 5389SOL    HW117066   5.327   0.644   1.543
 5389SOL    HW217067   5.449   0.718   1.622
 5390SOL     OW17068   4.418   5.250   3.975
 5390SOL    HW117069   4.408   5.286   4.068
 5390SOL    HW217070   4.412   5.150   3.978
 5391SOL     OW17071   2.442   3.210   0.501
 5391SOL    HW117072   2.476   3.289   0.450
 5391SOL    HW217073   2.378   3.159   0.444
 5392SOL     OW17074   6.424   3.229   1.118
 5392SOL    HW117075   6.416   3.286   1.037
 5392SOL    HW217076   6.333   3.210   1.155
 5393SOL     OW17077   6.692   6.864   6.979
 5393SOL    HW117078   6.666   6.959   6.995
 5393SOL    HW217079   6.631   6.824   6.911
 5394SOL     OW17080   0.375   3.610   6.564
 5394SOL    HW117081   0.469   3.594   6.594
 5394SOL    HW217082   0.376   3.668   6.482
 5395SOL     OW17083   4.861   0.721   1.329
 5395SOL    HW117084   4.871   0.688   1.235
 5395SOL    HW217085   4.806   0.657   1.381
 5396SOL     OW17086   5.228   3.516   2.827
 5396SOL    HW117087   5.260   3.586   2.890
 5396SOL    HW217088   5.300   3.448   2.813
 5397SOL     OW17089   0.059   3.118   2.183
 5397SOL    HW117090   0.059   3.207   2.228
 5397SOL    HW217091   0.144   3.106   2.132
 5398SOL     OW17092   3.196   2.601   1.516
 5398SOL    HW117093   3.238   2.635   1.600
 5398SOL    HW217094   3.248   2.521   1.483
 5399SOL     OW17095   2.452   6.511   0.928
 5399SOL    HW117096   2.408   6.579   0.870
 5399SOL    HW217097   2.550   6.507   0.908
 5400SOL     OW17098   2.807   4.223   0.788
 5400SOL    HW117099   2.779   4.316   0.815
 5400SOL    HW217100   2.729   4.177   0.745
 5401SOL     OW17101   5.722   3.158   2.197
 5401SOL    HW117102   5.710   3.251   2.231
 5401SOL    HW217103   5.665   3.096   2.251
 5402SOL     OW17104   2.485   5.752   1.945
 5402SOL    HW117105   2.488   5.843   1.903
 5402SOL    HW217106   2.488   5.682   1.874
 5403SOL     OW17107   6.943   3.430   6.508
 5403SOL    HW117108   6.995   3.363   6.454
 5403SOL    HW217109   6.845   3.412   6.498
 5404SOL     OW17110   1.064   2.517   3.563
 5404SOL    HW117111   1.039   2.421   3.557
 5404SOL    HW217112   1.008   2.571   3.500
 5405SOL     OW17113   6.763   5.065   0.006
 5405SOL    HW117114   6.808   5.089   6.940
 5405SOL    HW217115   6.805   4.983   0.045
 5406SOL     OW17116   2.352   1.558   6.767
 5406SOL    HW117117   2.316   1.643   6.806
 5406SOL    HW217118   2.449   1.550   6.790
 5407SOL     OW17119   4.233   3.099   0.554
 5407SOL    HW117120   4.255   3.031   0.624
 5407SOL    HW217121   4.301   3.095   0.481
 5408SOL     OW17122   2.668   1.145   5.086
 5408SOL    HW117123   2.688   1.047   5.088
 5408SOL    HW217124   2.573   1.160   5.114
 5409SOL     OW17125   5.276   0.206   3.053
 5409SOL    HW117126   5.261   0.283   2.991
 5409SOL    HW217127   5.332   0.235   3.130
 5410SOL     OW17128   2.556   2.486   1.815
 5410SOL    HW117129   2.606   2.492   1.729
 5410SOL    HW217130   2.602   2.422   1.876
 5411SOL     OW17131   6.290   4.890   6.245
 5411SOL    HW117132   6.244   4.973   6.275
 5411SOL    HW217133   6.279   4.879   6.146
 5412SOL     OW17134   5.029   2.909   0.522
 5412SOL    HW117135   4.984   2.997   0.507
 5412SOL    HW217136   5.003   2.846   0.449
 5413SOL     OW17137   3.042   1.343   1.629
 5413SOL    HW117138   3.043   1.438   1.660
 5413SOL    HW217139   3.133   1.318   1.597
 5414SOL     OW17140   5.205   1.751   4.528
 5414SOL    HW117141   5.206   1.766   4.429
 5414SOL    HW217142   5.187   1.838   4.574
 5415SOL     OW17143   0.487   5.854   1.381
 5415SOL    HW117144   0.463   5.950   1.395
 5415SOL    HW217145   0.509   5.839   1.285
 5416SOL     OW17146   4.241   5.251   5.429
 5416SOL    HW117147   4.225   5.323   5.361
 5416SOL    HW217148   4.332   5.261   5.467
 5417SOL     OW17149   3.626   6.584   5.889
 5417SOL    HW117150   3.603   6.653   5.819
 5417SOL    HW217151   3.545   6.565   5.944
 5418SOL     OW17152   3.222   0.211   3.219
 5418SOL    HW117153   3.181   0.142   3.279
 5418SOL    HW217154   3.193   0.302   3.248
 5419SOL     OW17155   3.527   4.959   0.162
 5419SOL    HW117156   3.586   4.992   0.235
 5419SOL    HW217157   3.543   4.861   0.147
 5420SOL     OW17158   1.975   3.230   3.241
 5420SOL    HW117159   1.988   3.210   3.144
 5420SOL    HW217160   2.021   3.316   3.263
 5421SOL     OW17161   1.668   3.690   1.481
 5421SOL    HW117162   1.768   3.683   1.488
 5421SOL    HW217163   1.628   3.698   1.572
 5422SOL     OW17164   0.533   4.839   0.901
 5422SOL    HW117165   0.486   4.928   0.908
 5422SOL    HW217166   0.628   4.849   0.931
 5423SOL     OW17167   6.382   3.006   7.011
 5423SOL    HW117168   6.458   3.071   7.006
 5423SOL    HW217169   6.297   3.052   6.985
 5424SOL     OW17170   5.403   3.048   4.569
 5424SOL    HW117171   5.376   3.053   4.472
 5424SOL    HW217172   5.330   3.087   4.625
 5425SOL     OW17173   4.245   0.844   4.831
 5425SOL    HW117174   4.153   0.882   4.841
 5425SOL    HW217175   4.310   0.902   4.880
 5426SOL     OW17176   5.741   6.287   4.418
 5426SOL    HW117177   5.724   6.206   4.475
 5426SOL    HW217178   5.839   6.305   4.415
 5427SOL     OW17179   4.430   5.581   6.490
 5427SOL    HW117180   4.415   5.655   6.424
 5427SOL    HW217181   4.507   5.604   6.549
 5428SOL     OW17182   0.418   7.006   1.287
 5428SOL    HW117183   0.355   6.982   1.213
 5428SOL    HW217184   0.421   0.086   1.297
 5429SOL     OW17185   1.892   2.088   6.969
 5429SOL    HW117186   1.895   2.163   0.016
 5429SOL    HW217187   1.889   2.125   6.877
 5430SOL     OW17188   0.340   2.292   5.658
 5430SOL    HW117189   0.410   2.226   5.683
 5430SOL    HW217190   0.379   2.384   5.658
 5431SOL     OW17191   3.509   6.092   6.998
 5431SOL    HW117192   3.454   6.038   0.043
 5431SOL    HW217193   3.596   6.116   0.021
 5432SOL     OW17194   5.535   0.206   6.565
 5432SOL    HW117195   5.514   0.108   6.558
 5432SOL    HW217196   5.634   0.218   6.572
 5433SOL     OW17197   0.431   2.045   4.522
 5433SOL    HW117198   0.394   2.022   4.431
 5433SOL    HW217199   0.407   2.139   4.544
 5434SOL     OW17200   3.008   0.401   5.794
 5434SOL    HW117201   2.935   0.469   5.794
 5434SOL    HW217202   3.086   0.436   5.743
 5435SOL     OW17203   5.610   0.259   1.935
 5435SOL    HW117204   5.671   0.334   1.961
 5435SOL    HW217205   5.640   0.221   1.848
 5436SOL     OW17206   4.814   4.046   4.035
 5436SOL    HW117207   4.796   4.079   4.127
 5436SOL    HW217208   4.821   3.946   4.036
 5437SOL     OW17209   2.714   4.217   0.351
 5437SOL    HW117210   2.736   4.314   0.342
 5437SOL    HW217211   2.739   4.169   0.267
 5438SOL     OW17212   6.969   2.495   1.679
 5438SOL    HW117213   0.022   2.538   1.626
 5438SOL    HW217214   6.963   2.540   1.769
 5439SOL     OW17215   1.268   1.617   1.568
 5439SOL    HW117216   1.222   1.703   1.545
 5439SOL    HW217217   1.315   1.626   1.656
 5440SOL     OW17218   1.389   1.190   1.060
 5440SOL    HW117219   1.426   1.276   1.023
 5440SOL    HW217220   1.364   1.204   1.156
 5441SOL     OW17221   4.075   1.694   3.833
 5441SOL    HW117222   4.030   1.729   3.751
 5441SOL    HW217223   4.155   1.750   3.853
 5442SOL     OW17224   4.279   6.849   2.693
 5442SOL    HW117225   4.292   6.873   2.597
 5442SOL    HW217226   4.204   6.783   2.701
 5443SOL     OW17227   3.587   6.725   5.025
 5443SOL    HW117228   3.517   6.732   4.954
 5443SOL    HW217229   3.590   6.631   5.060
 5444SOL     OW17230   0.997   0.911   4.103
 5444SOL    HW117231   1.001   1.011   4.114
 5444SOL    HW217232   0.955   0.871   4.185
 5445SOL     OW17233   6.496   4.127   3.443
 5445SOL    HW117234   6.465   4.054   3.505
 5445SOL    HW217235   6.596   4.132   3.444
 5446SOL     OW17236   6.336   5.554   4.608
 5446SOL    HW117237   6.349   5.530   4.512
 5446SOL    HW217238   6.245   5.526   4.638
 5447SOL     OW17239   2.817   2.313   6.891
 5447SOL    HW117240   2.786   2.370   6.815
 5447SOL    HW217241   2.829   2.219   6.859
 5448SOL     OW17242   4.185   2.816   5.407
 5448SOL    HW117243   4.163   2.754   5.332
 5448SOL    HW217244   4.277   2.797   5.439
 5449SOL     OW17245   1.454   2.533   6.264
 5449SOL    HW117246   1.422   2.627   6.268
 5449SOL    HW217247   1.530   2.521   6.328
 5450SOL     OW17248   2.204   0.739   1.761
 5450SOL    HW117249   2.300   0.757   1.741
 5450SOL    HW217250   2.158   0.707   1.678
 5451SOL     OW17251   1.827   6.162   3.307
 5451SOL    HW117252   1.781   6.142   3.220
 5451SOL    HW217253   1.764   6.209   3.369
 5452SOL     OW17254   2.297   4.783   6.914
 5452SOL    HW117255   2.338   4.701   6.875
 5452SOL    HW217256   2.351   4.863   6.887
 5453SOL     OW17257   6.439   3.943   0.760
 5453SOL    HW117258   6.478   4.020   0.811
 5453SOL    HW217259   6.391   3.978   0.680
 5454SOL     OW17260   0.081   4.134   6.968
 5454SOL    HW117261   0.060   4.095   0.038
 5454SOL    HW217262   0.036   4.223   6.959
 5455SOL     OW17263   6.307   3.089   0.507
 5455SOL    HW117264   6.355   3.051   0.428
 5455SOL    HW217265   6.211   3.060   0.504
 5456SOL     OW17266   3.652   0.016   6.333
 5456SOL    HW117267   3.593   0.016   6.414
 5456SOL    HW217268   3.710   6.954   6.334
 5457SOL     OW17269   5.173   2.063   1.186
 5457SOL    HW117270   5.155   2.141   1.125
 5457SOL    HW217271   5.200   1.984   1.132
 5458SOL     OW17272   0.830   4.708   6.964
 5458SOL    HW117273   0.880   4.643   6.906
 5458SOL    HW217274   0.819   4.669   0.035
 5459SOL     OW17275   1.652   5.337   0.417
 5459SOL    HW117276   1.615   5.253   0.378
 5459SOL    HW217277   1.591   5.370   0.489
 5460SOL     OW17278   3.285   0.230   2.011
 5460SOL    HW117279   3.262   0.138   1.981
 5460SOL    HW217280   3.200   0.283   2.021
 5461SOL     OW17281   5.826   6.455   5.009
 5461SOL    HW117282   5.823   6.430   4.912
 5461SOL    HW217283   5.906   6.415   5.052
 5462SOL     OW17284   1.905   0.574   0.870
 5462SOL    HW117285   1.923   0.623   0.785
 5462SOL    HW217286   1.971   0.601   0.940
 5463SOL     OW17287   6.173   2.001   0.484
 5463SOL    HW117288   6.197   2.022   0.578
 5463SOL    HW217289   6.141   2.084   0.438
 5464SOL     OW17290   1.222   0.548   4.152
 5464SOL    HW117291   1.154   0.571   4.222
 5464SOL    HW217292   1.277   0.629   4.131
 5465SOL     OW17293   3.563   6.869   3.394
 5465SOL    HW117294   3.618   6.951   3.382
 5465SOL    HW217295   3.499   6.860   3.318
 5466SOL     OW17296   5.587   4.793   4.689
 5466SOL    HW117297   5.517   4.857   4.721
 5466SOL    HW217298   5.657   4.783   4.759
 5467SOL     OW17299   5.283   1.930   2.906
 5467SOL    HW117300   5.287   1.974   2.996
 5467SOL    HW217301   5.224   1.849   2.912
 5468SOL     OW17302   4.925   1.717   4.240
 5468SOL    HW117303   4.872   1.745   4.320
 5468SOL    HW217304   4.863   1.688   4.167
 5469SOL     OW17305   3.538   4.712   6.252
 5469SOL    HW117306   3.525   4.615   6.230
 5469SOL    HW217307   3.539   4.766   6.168
 5470SOL     OW17308   1.720   5.135   3.421
 5470SOL    HW117309   1.759   5.044   3.406
 5470SOL    HW217310   1.696   5.177   3.334
 5471SOL     OW17311   5.389   6.555   1.077
 5471SOL    HW117312   5.398   6.472   1.131
 5471SOL    HW217313   5.475   6.607   1.081
 5472SOL     OW17314   4.489   4.012   6.258
 5472SOL    HW117315   4.576   4.059   6.268
 5472SOL    HW217316   4.416   4.068   6.298
 5473SOL     OW17317   0.725   3.660   3.284
 5473SOL    HW117318   0.737   3.564   3.258
 5473SOL    HW217319   0.720   3.667   3.384
 5474SOL     OW17320   1.520   4.693   4.331
 5474SOL    HW117321   1.431   4.733   4.353
 5474SOL    HW217322   1.567   4.752   4.264
 5475SOL     OW17323   3.447   2.667   1.311
 5475SOL    HW117324   3.350   2.663   1.333
 5475SOL    HW217325   3.501   2.664   1.395
 5476SOL     OW17326   2.527   3.409   6.361
 5476SOL    HW117327   2.547   3.507   6.359
 5476SOL    HW217328   2.553   3.368   6.274
 5477SOL     OW17329   2.111   3.754   3.393
 5477SOL    HW117330   2.102   3.719   3.486
 5477SOL    HW217331   2.068   3.844   3.386
 5478SOL     OW17332   5.750   5.589   6.276
 5478SOL    HW117333   5.805   5.512   6.309
 5478SOL    HW217334   5.811   5.661   6.243
 5479SOL     OW17335   4.821   0.916   5.060
 5479SOL    HW117336   4.805   0.938   5.157
 5479SOL    HW217337   4.874   0.990   5.018
 5480SOL     OW17338   1.171   3.930   4.432
 5480SOL    HW117339   1.112   4.006   4.405
 5480SOL    HW217340   1.121   3.844   4.424
 5481SOL     OW17341   2.905   0.304   4.572
 5481SOL    HW117342   2.828   0.244   4.548
 5481SOL    HW217343   2.953   0.265   4.651
 5482SOL     OW17344   3.751   4.570   1.590
 5482SOL    HW117345   3.706   4.533   1.670
 5482SOL    HW217346   3.705   4.537   1.507
 5483SOL     OW17347   0.806   2.960   5.485
 5483SOL    HW117348   0.803   2.862   5.466
 5483SOL    HW217349   0.773   3.010   5.405
 5484SOL     OW17350   4.655   0.365   4.742
 5484SOL    HW117351   4.659   0.406   4.833
 5484SOL    HW217352   4.738   0.388   4.691
 5485SOL     OW17353   2.804   6.665   5.380
 5485SOL    HW117354   2.802   6.727   5.301
 5485SOL    HW217355   2.896   6.628   5.391
 5486SOL     OW17356   2.435   5.737   5.128
 5486SOL    HW117357   2.336   5.743   5.132
 5486SOL    HW217358   2.462   5.671   5.057
 5487SOL     OW17359   3.001   4.349   6.000
 5487SOL    HW117360   3.055   4.423   6.040
 5487SOL    HW217361   2.984   4.369   5.903
 5488SOL     OW17362   6.457   1.123   0.314
 5488SOL    HW117363   6.462   1.190   0.239
 5488SOL    HW217364   6.527   1.145   0.382
 5489SOL     OW17365   6.639   3.287   2.209
 5489SOL    HW117366   6.717   3.350   2.207
 5489SOL    HW217367   6.568   3.320   2.146
 5490SOL     OW17368   1.074   6.873   2.548
 5490SOL    HW117369   0.999   6.863   2.482
 5490SOL    HW217370   1.083   6.969   2.574
 5491SOL     OW17371   6.895   3.061   0.555
 5491SOL    HW117372   6.972   3.118   0.584
 5491SOL    HW217373   6.809   3.111   0.571
 5492SOL     OW17374   0.744   2.678   5.455
 5492SOL    HW117375   0.736   2.589   5.499
 5492SOL    HW217376   0.820   2.676   5.390
 5493SOL     OW17377   4.125   3.613   1.902
 5493SOL    HW117378   4.129   3.647   1.996
 5493SOL    HW217379   4.184   3.533   1.893
 5494SOL     OW17380   6.178   4.465   4.856
 5494SOL    HW117381   6.230   4.431   4.778
 5494SOL    HW217382   6.181   4.398   4.930
 5495SOL     OW17383   6.310   0.645   0.641
 5495SOL    HW117384   6.210   0.644   0.642
 5495SOL    HW217385   6.344   0.717   0.701
 5496SOL     OW17386   4.561   0.545   4.405
 5496SOL    HW117387   4.499   0.466   4.405
 5496SOL    HW217388   4.641   0.524   4.348
 5497SOL     OW17389   0.376   0.825   5.528
 5497SOL    HW117390   0.323   0.785   5.454
 5497SOL    HW217391   0.387   0.758   5.601
 5498SOL     OW17392   0.250   4.652   1.702
 5498SOL    HW117393   0.235   4.734   1.758
 5498SOL    HW217394   0.165   4.602   1.693
 5499SOL     OW17395   0.025   0.452   4.372
 5499SOL    HW117396   0.124   0.437   4.366
 5499SOL    HW217397   0.006   0.550   4.372
 5500SOL     OW17398   1.825   0.640   0.310
 5500SOL    HW117399   1.772   0.617   0.392
 5500SOL    HW217400   1.871   0.727   0.323
 5501SOL     OW17401   4.001   1.886   0.347
 5501SOL    HW117402   3.919   1.835   0.323
 5501SOL    HW217403   4.081   1.841   0.308
 5502SOL     OW17404   5.321   3.636   6.652
 5502SOL    HW117405   5.374   3.668   6.574
 5502SOL    HW217406   5.375   3.573   6.707
 5503SOL     OW17407   0.280   3.552   0.157
 5503SOL    HW117408   0.232   3.546   0.245
 5503SOL    HW217409   0.227   3.503   0.087
 5504SOL     OW17410   3.920   1.249   6.761
 5504SOL    HW117411   4.010   1.287   6.782
 5504SOL    HW217412   3.930   1.176   6.694
 5505SOL     OW17413   2.356   4.246   4.107
 5505SOL    HW117414   2.308   4.180   4.049
 5505SOL    HW217415   2.370   4.331   4.057
 5506SOL     OW17416   0.405   3.696   6.111
 5506SOL    HW117417   0.366   3.716   6.201
 5506SOL    HW217418   0.341   3.640   6.059
 5507SOL     OW17419   3.170   0.152   6.268
 5507SOL    HW117420   3.089   0.210   6.256
 5507SOL    HW217421   3.145   0.072   6.323
 5508SOL     OW17422   0.992   1.090   6.837
 5508SOL    HW117423   1.035   1.064   6.750
 5508SOL    HW217424   0.961   1.008   6.885
 5509SOL     OW17425   0.064   5.378   1.111
 5509SOL    HW117426   0.120   5.336   1.183
 5509SOL    HW217427   6.992   5.396   1.147
 5510SOL     OW17428   4.371   5.594   0.083
 5510SOL    HW117429   4.462   5.629   0.064
 5510SOL    HW217430   4.303   5.652   0.038
 5511SOL     OW17431   0.543   1.523   5.444
 5511SOL    HW117432   0.494   1.531   5.357
 5511SOL    HW217433   0.608   1.598   5.452
 5512SOL     OW17434   3.848   0.972   2.212
 5512SOL    HW117435   3.794   1.025   2.146
 5512SOL    HW217436   3.789   0.904   2.256
 5513SOL     OW17437   4.269   4.474   6.496
 5513SOL    HW117438   4.339   4.521   6.442
 5513SOL    HW217439   4.310   4.434   6.577
 5514SOL     OW17440   2.977   6.794   5.661
 5514SOL    HW117441   2.941   6.887   5.651
 5514SOL    HW217442   2.990   6.754   5.570
 5515SOL     OW17443   1.860   5.710   2.035
 5515SOL    HW117444   1.846   5.635   2.100
 5515SOL    HW217445   1.847   5.797   2.083
 5516SOL     OW17446   2.600   2.886   5.295
 5516SOL    HW117447   2.568   2.795   5.271
 5516SOL    HW217448   2.534   2.954   5.263
 5517SOL     OW17449   1.766   3.908   2.682
 5517SOL    HW117450   1.758   3.934   2.585
 5517SOL    HW217451   1.828   3.831   2.691
 5518SOL     OW17452   4.938   4.620   5.043
 5518SOL    HW117453   4.950   4.524   5.070
 5518SOL    HW217454   4.875   4.665   5.106
 5519SOL     OW17455   4.398   2.458   3.743
 5519SOL    HW117456   4.443   2.467   3.654
 5519SOL    HW217457   4.345   2.374   3.745
 5520SOL     OW17458   5.576   6.659   2.429
 5520SOL    HW117459   5.672   6.662   2.399
 5520SOL    HW217460   5.555   6.741   2.481
 5521SOL     OW17461   5.485   5.455   2.150
 5521SOL    HW117462   5.458   5.421   2.240
 5521SOL    HW217463   5.460   5.388   2.080
 5522SOL     OW17464   5.597   5.146   0.909
 5522SOL    HW117465   5.559   5.226   0.864
 5522SOL    HW217466   5.658   5.098   0.846
 5523SOL     OW17467   6.054   1.365   2.464
 5523SOL    HW117468   5.955   1.348   2.462
 5523SOL    HW217469   6.098   1.312   2.392
 5524SOL     OW17470   3.192   0.707   4.762
 5524SOL    HW117471   3.188   0.800   4.799
 5524SOL    HW217472   3.268   0.700   4.698
 5525SOL     OW17473   6.826   2.660   1.347
 5525SOL    HW117474   6.752   2.677   1.412
 5525SOL    HW217475   6.803   2.700   1.258
 5526SOL     OW17476   4.532   4.844   3.332
 5526SOL    HW117477   4.516   4.747   3.347
 5526SOL    HW217478   4.455   4.896   3.368
 5527SOL     OW17479   5.195   2.304   4.114
 5527SOL    HW117480   5.183   2.402   4.132
 5527SOL    HW217481   5.287   2.277   4.141
 5528SOL     OW17482   1.006   1.484   1.518
 5528SOL    HW117483   1.028   1.473   1.421
 5528SOL    HW217484   1.082   1.530   1.564
 5529SOL     OW17485   3.277   0.659   2.619
 5529SOL    HW117486   3.189   0.670   2.574
 5529SOL    HW217487   3.303   0.745   2.662
 5530SOL     OW17488   6.654   2.277   1.369
 5530SOL    HW117489   6.571   2.323   1.403
 5530SOL    HW217490   6.690   2.217   1.441
 5531SOL     OW17491   3.613   3.923   1.111
 5531SOL    HW117492   3.595   3.969   1.197
 5531SOL    HW217493   3.528   3.887   1.073
 5532SOL     OW17494   1.831   3.104   1.333
 5532SOL    HW117495   1.923   3.074   1.358
 5532SOL    HW217496   1.790   3.037   1.272
 5533SOL     OW17497   3.926   1.844   4.197
 5533SOL    HW117498   3.956   1.937   4.218
 5533SOL    HW217499   4.006   1.786   4.184
 5534SOL     OW17500   0.935   1.594   5.773
 5534SOL    HW117501   0.932   1.603   5.873
 5534SOL    HW217502   0.972   1.678   5.733
 5535SOL     OW17503   1.025   2.120   3.248
 5535SOL    HW117504   1.101   2.070   3.207
 5535SOL    HW217505   0.965   2.057   3.297
 5536SOL     OW17506   3.041   0.673   4.516
 5536SOL    HW117507   3.130   0.681   4.561
 5536SOL    HW217508   2.973   0.728   4.566
 5537SOL     OW17509   2.759   0.992   3.031
 5537SOL    HW117510   2.760   0.909   2.975
 5537SOL    HW217511   2.702   0.977   3.112
 5538SOL     OW17512   4.902   5.850   4.849
 5538SOL    HW117513   4.918   5.949   4.850
 5538SOL    HW217514   4.805   5.832   4.832
 5539SOL     OW17515   2.604   2.684   1.130
 5539SOL    HW117516   2.537   2.622   1.171
 5539SOL    HW217517   2.696   2.646   1.142
 5540SOL     OW17518   4.861   4.700   3.049
 5540SOL    HW117519   4.787   4.731   2.989
 5540SOL    HW217520   4.943   4.754   3.031
 5541SOL     OW17521   5.096   1.072   5.547
 5541SOL    HW117522   5.109   1.162   5.505
 5541SOL    HW217523   5.015   1.028   5.508
 5542SOL     OW17524   4.051   4.523   6.231
 5542SOL    HW117525   4.069   4.544   6.327
 5542SOL    HW217526   4.077   4.428   6.212
 5543SOL     OW17527   6.485   2.825   6.340
 5543SOL    HW117528   6.556   2.762   6.371
 5543SOL    HW217529   6.397   2.779   6.342
 5544SOL     OW17530   6.053   0.862   5.563
 5544SOL    HW117531   5.986   0.853   5.637
 5544SOL    HW217532   6.120   0.788   5.570
 5545SOL     OW17533   3.244   2.036   2.273
 5545SOL    HW117534   3.315   2.014   2.207
 5545SOL    HW217535   3.283   2.091   2.347
 5546SOL     OW17536   1.850   5.085   5.794
 5546SOL    HW117537   1.909   5.166   5.797
 5546SOL    HW217538   1.827   5.064   5.699
 5547SOL     OW17539   3.124   5.335   5.220
 5547SOL    HW117540   3.219   5.344   5.191
 5547SOL    HW217541   3.074   5.420   5.198
 5548SOL     OW17542   6.593   3.703   5.313
 5548SOL    HW117543   6.690   3.708   5.287
 5548SOL    HW217544   6.543   3.777   5.271
 5549SOL     OW17545   2.715   5.127   6.986
 5549SOL    HW117546   2.797   5.147   6.932
 5549SOL    HW217547   2.646   5.197   6.970
 5550SOL     OW17548   4.377   6.538   1.295
 5550SOL    HW117549   4.341   6.631   1.298
 5550SOL    HW217550   4.476   6.540   1.310
 5551SOL     OW17551   1.061   1.694   2.956
 5551SOL    HW117552   1.110   1.669   2.872
 5551SOL    HW217553   1.036   1.791   2.952
 5552SOL     OW17554   0.287   2.656   1.503
 5552SOL    HW117555   0.335   2.662   1.415
 5552SOL    HW217556   0.201   2.706   1.498
 5553SOL     OW17557   5.264   5.910   0.911
 5553SOL    HW117558   5.263   5.862   0.823
 5553SOL    HW217559   5.310   5.852   0.979
 5554SOL     OW17560   3.077   2.033   4.659
 5554SOL    HW117561   3.144   2.061   4.728
 5554SOL    HW217562   3.003   2.100   4.655
 5555SOL     OW17563   0.207   5.594   3.416
 5555SOL    HW117564   0.274   5.586   3.490
 5555SOL    HW217565   0.172   5.688   3.413
 5556SOL     OW17566   0.322   1.990   4.986
 5556SOL    HW117567   0.367   1.937   5.058
 5556SOL    HW217568   0.255   2.052   5.028
 5557SOL     OW17569   2.246   0.090   3.700
 5557SOL    HW117570   2.260   7.018   3.661
 5557SOL    HW217571   2.240   0.157   3.626
 5558SOL     OW17572   5.121   3.269   5.190
 5558SOL    HW117573   5.145   3.186   5.241
 5558SOL    HW217574   5.022   3.280   5.189
 5559SOL     OW17575   2.036   0.376   1.247
 5559SOL    HW117576   1.986   0.396   1.332
 5559SOL    HW217577   2.006   0.439   1.176
 5560SOL     OW17578   0.088   1.337   3.980
 5560SOL    HW117579   0.144   1.326   3.898
 5560SOL    HW217580   0.136   1.394   4.046
 5561SOL     OW17581   1.546   2.799   3.491
 5561SOL    HW117582   1.605   2.850   3.553
 5561SOL    HW217583   1.593   2.717   3.460
 5562SOL     OW17584   2.533   2.691   6.185
 5562SOL    HW117585   2.501   2.756   6.254
 5562SOL    HW217586   2.570   2.610   6.229
 5563SOL     OW17587   4.467   6.041   1.840
 5563SOL    HW117588   4.501   6.106   1.772
 5563SOL    HW217589   4.398   5.981   1.798
 5564SOL     OW17590   5.523   3.850   1.973
 5564SOL    HW117591   5.500   3.920   1.905
 5564SOL    HW217592   5.443   3.831   2.029
 5565SOL     OW17593   3.529   3.287   5.675
 5565SOL    HW117594   3.597   3.282   5.602
 5565SOL    HW217595   3.488   3.378   5.676
 5566SOL     OW17596   1.773   4.842   1.400
 5566SOL    HW117597   1.766   4.940   1.416
 5566SOL    HW217598   1.853   4.806   1.447
 5567SOL     OW17599   1.330   5.521   1.767
 5567SOL    HW117600   1.269   5.442   1.764
 5567SOL    HW217601   1.418   5.497   1.727
 5568SOL     OW17602   3.179   2.170   1.524
 5568SOL    HW117603   3.238   2.250   1.512
 5568SOL    HW217604   3.113   2.188   1.597
 5569SOL     OW17605   5.124   1.663   6.938
 5569SOL    HW117606   5.187   1.740   6.920
 5569SOL    HW217607   5.069   1.684   7.019
 5570SOL     OW17608   6.883   4.564   5.739
 5570SOL    HW117609   6.959   4.499   5.739
 5570SOL    HW217610   6.893   4.626   5.661
 5571SOL     OW17611   6.935   4.831   6.177
 5571SOL    HW117612   6.875   4.826   6.257
 5571SOL    HW217613   6.881   4.821   6.094
 5572SOL     OW17614   5.181   2.520   6.178
 5572SOL    HW117615   5.162   2.610   6.216
 5572SOL    HW217616   5.279   2.509   6.166
 5573SOL     OW17617   0.837   3.960   0.328
 5573SOL    HW117618   0.841   3.870   0.283
 5573SOL    HW217619   0.877   4.029   0.267
 5574SOL     OW17620   0.710   5.728   4.879
 5574SOL    HW117621   0.664   5.642   4.903
 5574SOL    HW217622   0.675   5.760   4.791
 5575SOL     OW17623   1.698   0.728   0.967
 5575SOL    HW117624   1.761   0.652   0.948
 5575SOL    HW217625   1.751   0.812   0.978
 5576SOL     OW17626   6.148   5.720   6.898
 5576SOL    HW117627   6.117   5.798   6.844
 5576SOL    HW217628   6.086   5.643   6.883
 5577SOL     OW17629   2.111   3.874   5.510
 5577SOL    HW117630   2.069   3.787   5.488
 5577SOL    HW217631   2.170   3.903   5.435
 5578SOL     OW17632   3.880   2.629   6.774
 5578SOL    HW117633   3.939   2.700   6.737
 5578SOL    HW217634   3.794   2.626   6.722
 5579SOL     OW17635   5.030   4.321   0.097
 5579SOL    HW117636   4.945   4.283   0.060
 5579SOL    HW217637   5.035   4.303   0.195
 5580SOL     OW17638   6.132   1.416   0.396
 5580SOL    HW117639   6.061   1.352   0.368
 5580SOL    HW217640   6.181   1.379   0.475
 5581SOL     OW17641   2.217   1.997   6.849
 5581SOL    HW117642   2.176   2.024   6.936
 5581SOL    HW217643   2.316   1.989   6.860
 5582SOL     OW17644   3.953   3.619   3.318
 5582SOL    HW117645   3.853   3.611   3.321
 5582SOL    HW217646   3.994   3.536   3.353
 5583SOL     OW17647   4.311   7.009   1.106
 5583SOL    HW117648   4.238   6.973   1.164
 5583SOL    HW217649   4.399   6.998   1.153
 5584SOL     OW17650   6.398   3.207   3.353
 5584SOL    HW117651   6.394   3.113   3.320
 5584SOL    HW217652   6.360   3.268   3.283
 5585SOL     OW17653   5.957   0.056   4.146
 5585SOL    HW117654   6.051   0.048   4.112
 5585SOL    HW217655   5.952   0.128   4.214
 5586SOL     OW17656   2.026   1.086   6.379
 5586SOL    HW117657   1.981   1.058   6.465
 5586SOL    HW217658   1.956   1.119   6.315
 5587SOL     OW17659   3.476   0.114   4.278
 5587SOL    HW117660   3.470   0.068   4.189
 5587SOL    HW217661   3.472   0.213   4.264
 5588SOL     OW17662   3.886   0.378   6.284
 5588SOL    HW117663   3.956   0.309   6.269
 5588SOL    HW217664   3.872   0.390   6.382
 5589SOL     OW17665   4.391   3.075   0.040
 5589SOL    HW117666   4.484   3.112   0.033
 5589SOL    HW217667   4.392   2.994   0.098
 5590SOL     OW17668   0.460   6.495   3.268
 5590SOL    HW117669   0.536   6.490   3.333
 5590SOL    HW217670   0.420   6.404   3.258
 5591SOL     OW17671   4.608   1.016   0.019
 5591SOL    HW117672   4.519   1.007   0.063
 5591SOL    HW217673   4.596   1.058   6.948
 5592SOL     OW17674   1.760   2.671   2.427
 5592SOL    HW117675   1.724   2.695   2.517
 5592SOL    HW217676   1.842   2.615   2.438
 5593SOL     OW17677   1.844   3.270   5.605
 5593SOL    HW117678   1.829   3.235   5.698
 5593SOL    HW217679   1.918   3.219   5.562
 5594SOL     OW17680   2.414   0.782   0.056
 5594SOL    HW117681   2.341   0.770   0.124
 5594SOL    HW217682   2.393   0.727   6.994
 5595SOL     OW17683   6.868   2.069   5.735
 5595SOL    HW117684   6.943   2.099   5.795
 5595SOL    HW217685   6.881   1.974   5.709
 5596SOL     OW17686   5.120   1.168   3.255
 5596SOL    HW117687   5.191   1.223   3.299
 5596SOL    HW217688   5.071   1.225   3.189
 5597SOL     OW17689   0.229   1.150   6.013
 5597SOL    HW117690   0.182   1.173   6.098
 5597SOL    HW217691   0.161   1.137   5.941
 5598SOL     OW17692   6.767   2.227   4.063
 5598SOL    HW117693   6.692   2.220   4.129
 5598SOL    HW217694   6.802   2.135   4.043
 5599SOL     OW17695   4.999   2.688   3.431
 5599SOL    HW117696   5.007   2.667   3.528
 5599SOL    HW217697   4.955   2.777   3.419
 5600SOL     OW17698   2.903   1.476   2.276
 5600SOL    HW117699   2.861   1.528   2.201
 5600SOL    HW217700   2.831   1.428   2.327
 5601SOL     OW17701   5.820   3.125   5.291
 5601SOL    HW117702   5.907   3.135   5.339
 5601SOL    HW217703   5.763   3.058   5.339
 5602SOL     OW17704   6.508   2.375   2.628
 5602SOL    HW117705   6.542   2.456   2.579
 5602SOL    HW217706   6.538   2.292   2.580
 5603SOL     OW17707   4.262   1.450   5.320
 5603SOL    HW117708   4.248   1.379   5.251
 5603SOL    HW217709   4.358   1.476   5.323
 5604SOL     OW17710   1.051   0.700   4.380
 5604SOL    HW117711   0.998   0.657   4.307
 5604SOL    HW217712   0.991   0.757   4.436
 5605SOL     OW17713   3.565   6.128   4.494
 5605SOL    HW117714   3.600   6.035   4.486
 5605SOL    HW217715   3.535   6.160   4.404
 5606SOL     OW17716   4.408   2.836   0.539
 5606SOL    HW117717   4.398   2.774   0.461
 5606SOL    HW217718   4.319   2.845   0.585
 5607SOL     OW17719   6.289   2.484   2.404
 5607SOL    HW117720   6.371   2.536   2.427
 5607SOL    HW217721   6.308   2.386   2.411
 5608SOL     OW17722   4.936   0.578   3.356
 5608SOL    HW117723   4.836   0.575   3.362
 5608SOL    HW217724   4.970   0.652   3.414
 5609SOL     OW17725   0.337   0.167   0.538
 5609SOL    HW117726   0.414   0.231   0.541
 5609SOL    HW217727   0.365   0.080   0.579
 5610SOL     OW17728   5.366   4.569   0.591
 5610SOL    HW117729   5.402   4.484   0.628
 5610SOL    HW217730   5.306   4.550   0.514
 5611SOL     OW17731   6.257   4.680   1.568
 5611SOL    HW117732   6.185   4.750   1.565
 5611SOL    HW217733   6.217   4.593   1.597
 5612SOL     OW17734   3.096   1.642   0.350
 5612SOL    HW117735   3.152   1.697   0.412
 5612SOL    HW217736   3.072   1.556   0.395
 5613SOL     OW17737   6.125   5.028   5.786
 5613SOL    HW117738   6.161   5.079   5.708
 5613SOL    HW217739   6.096   5.093   5.857
 5614SOL     OW17740   5.590   2.842   3.997
 5614SOL    HW117741   5.594   2.742   3.991
 5614SOL    HW217742   5.528   2.877   3.927
 5615SOL     OW17743   0.254   2.495   2.862
 5615SOL    HW117744   0.209   2.412   2.894
 5615SOL    HW217745   0.213   2.575   2.906
 5616SOL     OW17746   1.467   3.221   2.511
 5616SOL    HW117747   1.470   3.223   2.411
 5616SOL    HW217748   1.494   3.130   2.543
 5617SOL     OW17749   2.073   5.166   6.105
 5617SOL    HW117750   2.158   5.153   6.156
 5617SOL    HW217751   2.067   5.098   6.032
 5618SOL     OW17752   6.181   5.790   3.003
 5618SOL    HW117753   6.093   5.751   2.975
 5618SOL    HW217754   6.192   5.880   2.960
 5619SOL     OW17755   3.824   2.940   3.864
 5619SOL    HW117756   3.904   2.889   3.896
 5619SOL    HW217757   3.747   2.923   3.926
 5620SOL     OW17758   5.060   4.175   5.049
 5620SOL    HW117759   4.981   4.114   5.036
 5620SOL    HW217760   5.144   4.124   5.031
 5621SOL     OW17761   1.493   2.083   5.515
 5621SOL    HW117762   1.552   2.126   5.584
 5621SOL    HW217763   1.547   2.058   5.435
 5622SOL     OW17764   4.686   5.704   4.386
 5622SOL    HW117765   4.685   5.669   4.293
 5622SOL    HW217766   4.769   5.759   4.399
 5623SOL     OW17767   4.854   5.583   3.387
 5623SOL    HW117768   4.931   5.634   3.424
 5623SOL    HW217769   4.781   5.647   3.360
 5624SOL     OW17770   6.131   5.123   3.520
 5624SOL    HW117771   6.032   5.110   3.525
 5624SOL    HW217772   6.160   5.191   3.587
 5625SOL     OW17773   1.236   6.341   5.085
 5625SOL    HW117774   1.227   6.326   4.987
 5625SOL    HW217775   1.146   6.348   5.127
 5626SOL     OW17776   0.810   4.363   6.277
 5626SOL    HW117777   0.781   4.448   6.232
 5626SOL    HW217778   0.900   4.336   6.243
 5627SOL     OW17779   0.577   6.211   7.007
 5627SOL    HW117780   0.663   6.205   0.038
 5627SOL    HW217781   0.510   6.263   0.041
 5628SOL     OW17782   2.362   2.497   1.462
 5628SOL    HW117783   2.341   2.430   1.392
 5628SOL    HW217784   2.460   2.494   1.483
 5629SOL     OW17785   5.497   3.417   2.530
 5629SOL    HW117786   5.488   3.513   2.555
 5629SOL    HW217787   5.591   3.386   2.545
 5630SOL     OW17788   1.437   4.094   6.901
 5630SOL    HW117789   1.455   4.084   6.803
 5630SOL    HW217790   1.480   4.019   6.951
 5631SOL     OW17791   4.024   1.607   1.868
 5631SOL    HW117792   4.018   1.676   1.941
 5631SOL    HW217793   4.056   1.650   1.784
 5632SOL     OW17794   5.484   6.924   5.771
 5632SOL    HW117795   5.447   6.834   5.793
 5632SOL    HW217796   5.533   6.919   5.684
 5633SOL     OW17797   0.847   5.090   5.688
 5633SOL    HW117798   0.901   5.069   5.770
 5633SOL    HW217799   0.838   5.189   5.677
 5634SOL     OW17800   2.449   6.875   1.373
 5634SOL    HW117801   2.390   6.868   1.292
 5634SOL    HW217802   2.506   6.957   1.366
 5635SOL     OW17803   2.652   0.761   0.194
 5635SOL    HW117804   2.581   0.792   0.131
 5635SOL    HW217805   2.741   0.798   0.164
 5636SOL     OW17806   6.010   1.656   5.609
 5636SOL    HW117807   6.102   1.665   5.648
 5636SOL    HW217808   6.017   1.642   5.511
 5637SOL     OW17809   4.834   6.724   4.526
 5637SOL    HW117810   4.770   6.675   4.468
 5637SOL    HW217811   4.890   6.786   4.471
 5638SOL     OW17812   6.148   5.571   1.233
 5638SOL    HW117813   6.083   5.500   1.258
 5638SOL    HW217814   6.131   5.601   1.139
 5639SOL     OW17815   1.621   0.283   1.217
 5639SOL    HW117816   1.584   0.340   1.143
 5639SOL    HW217817   1.564   0.202   1.228
 5640SOL     OW17818   3.018   6.224   2.868
 5640SOL    HW117819   2.967   6.156   2.816
 5640SOL    HW217820   3.114   6.223   2.839
 5641SOL     OW17821   1.336   4.205   4.318
 5641SOL    HW117822   1.325   4.133   4.387
 5641SOL    HW217823   1.395   4.276   4.355
 5642SOL     OW17824   1.710   4.812   6.936
 5642SOL    HW117825   1.720   4.848   0.009
 5642SOL    HW217826   1.758   4.872   6.872
 5643SOL     OW17827   4.431   2.321   5.155
 5643SOL    HW117828   4.333   2.316   5.139
 5643SOL    HW217829   4.471   2.391   5.095
 5644SOL     OW17830   4.377   1.131   4.933
 5644SOL    HW117831   4.359   1.219   4.889
 5644SOL    HW217832   4.472   1.105   4.917
 5645SOL     OW17833   5.751   5.503   4.328
 5645SOL    HW117834   5.773   5.425   4.269
 5645SOL    HW217835   5.772   5.479   4.423
 5646SOL     OW17836   0.360   5.915   4.495
 5646SOL    HW117837   0.429   5.986   4.509
 5646SOL    HW217838   0.277   5.940   4.545
 5647SOL     OW17839   5.406   5.430   6.027
 5647SOL    HW117840   5.351   5.392   6.101
 5647SOL    HW217841   5.503   5.416   6.048
 5648SOL     OW17842   1.901   1.877   5.139
 5648SOL    HW117843   1.965   1.805   5.169
 5648SOL    HW217844   1.905   1.953   5.203
 5649SOL     OW17845   0.538   0.812   5.226
 5649SOL    HW117846   0.440   0.826   5.236
 5649SOL    HW217847   0.585   0.900   5.219
 5650SOL     OW17848   6.058   4.890   6.838
 5650SOL    HW117849   6.146   4.935   6.823
 5650SOL    HW217850   6.074   4.795   6.865
 5651SOL     OW17851   6.923   0.512   2.984
 5651SOL    HW117852   6.897   0.540   2.891
 5651SOL    HW217853   7.018   0.480   2.983
 5652SOL     OW17854   4.675   4.731   0.738
 5652SOL    HW117855   4.596   4.670   0.731
 5652SOL    HW217856   4.647   4.825   0.723
 5653SOL     OW17857   1.392   5.913   6.110
 5653SOL    HW117858   1.436   6.003   6.108
 5653SOL    HW217859   1.366   5.891   6.204
 5654SOL     OW17860   7.008   6.269   6.004
 5654SOL    HW117861   0.082   6.248   5.976
 5654SOL    HW217862   6.981   6.358   5.966
 5655SOL     OW17863   6.870   3.326   3.764
 5655SOL    HW117864   6.925   3.397   3.809
 5655SOL    HW217865   6.822   3.366   3.686
 5656SOL     OW17866   3.606   4.686   0.150
 5656SOL    HW117867   3.557   4.642   0.074
 5656SOL    HW217868   3.679   4.626   0.182
 5657SOL     OW17869   4.077   6.846   2.005
 5657SOL    HW117870   4.059   6.797   2.091
 5657SOL    HW217871   3.992   6.886   1.971
 5658SOL     OW17872   4.243   0.259   5.599
 5658SOL    HW117873   4.188   0.175   5.597
 5658SOL    HW217874   4.340   0.236   5.607
 5659SOL     OW17875   3.201   4.101   2.972
 5659SOL    HW117876   3.136   4.138   2.906
 5659SOL    HW217877   3.268   4.044   2.926
 5660SOL     OW17878   6.116   6.504   6.863
 5660SOL    HW117879   6.106   6.405   6.863
 5660SOL    HW217880   6.028   6.547   6.884
 5661SOL     OW17881   5.994   5.372   4.433
 5661SOL    HW117882   5.934   5.340   4.507
 5661SOL    HW217883   6.089   5.362   4.462
 5662SOL     OW17884   2.640   4.629   4.421
 5662SOL    HW117885   2.618   4.539   4.384
 5662SOL    HW217886   2.568   4.694   4.396
 5663SOL     OW17887   1.576   4.505   0.386
 5663SOL    HW117888   1.528   4.498   0.298
 5663SOL    HW217889   1.576   4.415   0.430
 5664SOL     OW17890   0.166   4.551   2.718
 5664SOL    HW117891   0.134   4.599   2.636
 5664SOL    HW217892   0.230   4.479   2.692
 5665SOL     OW17893   2.242   2.703   6.164
 5665SOL    HW117894   2.338   2.694   6.139
 5665SOL    HW217895   2.228   2.788   6.214
 5666SOL     OW17896   5.686   4.811   0.833
 5666SOL    HW117897   5.690   4.728   0.778
 5666SOL    HW217898   5.682   4.891   0.773
 5667SOL     OW17899   0.060   5.226   3.483
 5667SOL    HW117900   0.133   5.252   3.545
 5667SOL    HW217901   6.992   5.230   3.531
 5668SOL     OW17902   5.763   2.379   5.889
 5668SOL    HW117903   5.787   2.285   5.914
 5668SOL    HW217904   5.664   2.387   5.877
 5669SOL     OW17905   0.459   4.267   6.346
 5669SOL    HW117906   0.546   4.219   6.340
 5669SOL    HW217907   0.384   4.200   6.343
 5670SOL     OW17908   0.679   3.986   3.491
 5670SOL    HW117909   0.641   3.907   3.538
 5670SOL    HW217910   0.777   3.994   3.514
 5671SOL     OW17911   2.124   0.829   5.989
 5671SOL    HW117912   2.190   0.868   6.053
 5671SOL    HW217913   2.170   0.766   5.926
 5672SOL     OW17914   4.505   5.127   5.797
 5672SOL    HW117915   4.586   5.074   5.824
 5672SOL    HW217916   4.437   5.123   5.871
 5673SOL     OW17917   0.532   0.609   2.434
 5673SOL    HW117918   0.534   0.516   2.398
 5673SOL    HW217919   0.516   0.674   2.360
 5674SOL     OW17920   6.853   3.450   2.148
 5674SOL    HW117921   6.785   3.510   2.106
 5674SOL    HW217922   6.905   3.403   2.077
 5675SOL     OW17923   4.412   2.681   5.592
 5675SOL    HW117924   4.428   2.623   5.672
 5675SOL    HW217925   4.386   2.624   5.514
 5676SOL     OW17926   2.296   0.446   1.883
 5676SOL    HW117927   2.386   0.458   1.925
 5676SOL    HW217928   2.305   0.455   1.784
 5677SOL     OW17929   6.536   0.594   3.668
 5677SOL    HW117930   6.540   0.690   3.638
 5677SOL    HW217931   6.591   0.538   3.607
 5678SOL     OW17932   2.728   6.451   2.931
 5678SOL    HW117933   2.724   6.380   3.002
 5678SOL    HW217934   2.771   6.414   2.849
 5679SOL     OW17935   2.193   6.529   4.868
 5679SOL    HW117936   2.219   6.493   4.958
 5679SOL    HW217937   2.243   6.480   4.797
 5680SOL     OW17938   2.126   6.112   6.640
 5680SOL    HW117939   2.160   6.100   6.733
 5680SOL    HW217940   2.204   6.117   6.577
 5681SOL     OW17941   1.314   2.732   6.867
 5681SOL    HW117942   1.309   2.690   6.958
 5681SOL    HW217943   1.251   2.810   6.863
 5682SOL     OW17944   1.180   3.611   5.058
 5682SOL    HW117945   1.256   3.561   5.099
 5682SOL    HW217946   1.211   3.659   4.976
 5683SOL     OW17947   3.298   2.237   5.979
 5683SOL    HW117948   3.369   2.174   5.947
 5683SOL    HW217949   3.339   2.327   5.997
 5684SOL     OW17950   3.352   4.171   3.998
 5684SOL    HW117951   3.369   4.073   3.985
 5684SOL    HW217952   3.281   4.202   3.935
 5685SOL     OW17953   6.915   4.930   1.848
 5685SOL    HW117954   6.845   4.942   1.919
 5685SOL    HW217955   6.883   4.973   1.763
 5686SOL     OW17956   3.215   6.920   0.228
 5686SOL    HW117957   3.278   6.877   0.163
 5686SOL    HW217958   3.211   7.018   0.211
 5687SOL     OW17959   5.276   4.924   5.090
 5687SOL    HW117960   5.349   4.896   5.152
 5687SOL    HW217961   5.259   4.851   5.024
 5688SOL     OW17962   5.362   1.681   1.399
 5688SOL    HW117963   5.411   1.700   1.484
 5688SOL    HW217964   5.412   1.721   1.322
 5689SOL     OW17965   3.510   2.316   0.305
 5689SOL    HW117966   3.430   2.283   0.355
 5689SOL    HW217967   3.573   2.240   0.289
 5690SOL     OW17968   4.877   6.550   1.045
 5690SOL    HW117969   4.977   6.543   1.050
 5690SOL    HW217970   4.846   6.514   0.957
 5691SOL     OW17971   1.638   0.251   1.917
 5691SOL    HW117972   1.599   0.341   1.897
 5691SOL    HW217973   1.566   0.191   1.954
 5692SOL     OW17974   6.792   2.563   0.046
 5692SOL    HW117975   6.854   2.507   0.101
 5692SOL    HW217976   6.702   2.566   0.091
 5693SOL     OW17977   4.939   2.545   2.699
 5693SOL    HW117978   5.013   2.597   2.742
 5693SOL    HW217979   4.873   2.517   2.768
 5694SOL     OW17980   0.148   1.852   3.624
 5694SOL    HW117981   0.086   1.931   3.632
 5694SOL    HW217982   0.114   1.777   3.681
 5695SOL     OW17983   1.730   3.284   3.380
 5695SOL    HW117984   1.687   3.371   3.354
 5695SOL    HW217985   1.809   3.267   3.322
 5696SOL     OW17986   2.930   0.562   4.853
 5696SOL    HW117987   3.012   0.612   4.824
 5696SOL    HW217988   2.925   0.475   4.804
 5697SOL     OW17989   6.566   2.602   0.495
 5697SOL    HW117990   6.616   2.521   0.526
 5697SOL    HW217991   6.572   2.674   0.565
 5698SOL     OW17992   0.748   3.729   1.739
 5698SOL    HW117993   0.733   3.759   1.645
 5698SOL    HW217994   0.682   3.658   1.762
 5699SOL     OW17995   6.066   0.812   5.166
 5699SOL    HW117996   6.091   0.819   5.069
 5699SOL    HW217997   5.999   0.739   5.178
 5700SOL     OW17998   1.636   5.635   4.314
 5700SOL    HW117999   1.597   5.725   4.299
 5700SOL    HW218000   1.724   5.629   4.268
 5701SOL     OW18001   6.317   5.557   1.742
 5701SOL    HW118002   6.317   5.546   1.642
 5701SOL    HW218003   6.223   5.573   1.773
 5702SOL     OW18004   2.499   0.579   6.152
 5702SOL    HW118005   2.436   0.631   6.210
 5702SOL    HW218006   2.543   0.642   6.088
 5703SOL     OW18007   4.344   4.876   0.623
 5703SOL    HW118008   4.443   4.884   0.614
 5703SOL    HW218009   4.299   4.955   0.583
 5704SOL     OW18010   4.455   5.383   3.529
 5704SOL    HW118011   4.369   5.344   3.495
 5704SOL    HW218012   4.504   5.427   3.453
 5705SOL     OW18013   6.117   0.669   1.416
 5705SOL    HW118014   6.053   0.731   1.371
 5705SOL    HW218015   6.196   0.655   1.357
 5706SOL     OW18016   1.216   1.212   6.685
 5706SOL    HW118017   1.180   1.279   6.619
 5706SOL    HW218018   1.234   1.258   6.772
 5707SOL     OW18019   2.168   1.686   6.932
 5707SOL    HW118020   2.145   1.782   6.947
 5707SOL    HW218021   2.084   1.634   6.914
 5708SOL     OW18022   4.944   6.882   2.323
 5708SOL    HW118023   4.881   6.959   2.329
 5708SOL    HW218024   4.900   6.800   2.361
 5709SOL     OW18025   0.767   0.080   2.711
 5709SOL    HW118026   0.802   0.005   2.768
 5709SOL    HW218027   0.725   0.042   2.629
 5710SOL     OW18028   3.313   3.370   6.075
 5710SOL    HW118029   3.309   3.270   6.082
 5710SOL    HW218030   3.391   3.404   6.128
 5711SOL     OW18031   4.414   0.880   4.181
 5711SOL    HW118032   4.431   0.853   4.276
 5711SOL    HW218033   4.429   0.978   4.171
 5712SOL     OW18034   6.983   5.809   6.256
 5712SOL    HW118035   7.004   5.842   6.348
 5712SOL    HW218036   0.004   5.870   6.189
 5713SOL     OW18037   0.094   3.046   2.478
 5713SOL    HW118038   0.073   3.130   2.527
 5713SOL    HW218039   0.062   3.053   2.383
 5714SOL     OW18040   1.622   0.796   6.206
 5714SOL    HW118041   1.546   0.767   6.148
 5714SOL    HW218042   1.708   0.783   6.157
 5715SOL     OW18043   1.285   6.689   2.542
 5715SOL    HW118044   1.323   6.645   2.624
 5715SOL    HW218045   1.221   6.760   2.568
 5716SOL     OW18046   2.316   3.663   5.933
 5716SOL    HW118047   2.300   3.721   5.853
 5716SOL    HW218048   2.242   3.676   5.999
 5717SOL     OW18049   1.126   4.121   0.229
 5717SOL    HW118050   1.057   4.184   0.264
 5717SOL    HW218051   1.203   4.116   0.293
 5718SOL     OW18052   3.067   4.671   6.367
 5718SOL    HW118053   3.095   4.676   6.463
 5718SOL    HW218054   3.061   4.763   6.329
 5719SOL     OW18055   3.490   0.742   6.408
 5719SOL    HW118056   3.501   0.647   6.437
 5719SOL    HW218057   3.548   0.800   6.465
 5720SOL     OW18058   1.411   4.939   5.094
 5720SOL    HW118059   1.440   5.034   5.102
 5720SOL    HW218060   1.410   4.896   5.184
 5721SOL     OW18061   0.730   3.786   1.481
 5721SOL    HW118062   0.682   3.708   1.441
 5721SOL    HW218063   0.780   3.835   1.410
 5722SOL     OW18064   5.558   6.845   4.296
 5722SOL    HW118065   5.491   6.775   4.321
 5722SOL    HW218066   5.523   6.935   4.321
 5723SOL     OW18067   3.546   5.223   0.516
 5723SOL    HW118068   3.481   5.246   0.588
 5723SOL    HW218069   3.535   5.286   0.439
 5724SOL     OW18070   5.344   1.732   6.358
 5724SOL    HW118071   5.274   1.726   6.429
 5724SOL    HW218072   5.369   1.640   6.328
 5725SOL     OW18073   5.373   5.359   5.024
 5725SOL    HW118074   5.315   5.326   4.949
 5725SOL    HW218075   5.394   5.284   5.086
 5726SOL     OW18076   5.629   3.490   5.861
 5726SOL    HW118077   5.582   3.511   5.775
 5726SOL    HW218078   5.619   3.393   5.882
 5727SOL     OW18079   5.733   1.971   3.449
 5727SOL    HW118080   5.776   1.960   3.539
 5727SOL    HW218081   5.635   1.956   3.456
 5728SOL     OW18082   6.174   0.391   5.030
 5728SOL    HW118083   6.081   0.423   5.047
 5728SOL    HW218084   6.237   0.469   5.031
 5729SOL     OW18085   0.511   1.766   6.393
 5729SOL    HW118086   0.510   1.866   6.387
 5729SOL    HW218087   0.428   1.729   6.351
 5730SOL     OW18088   4.231   4.770   5.887
 5730SOL    HW118089   4.146   4.729   5.921
 5730SOL    HW218090   4.295   4.698   5.862
 5731SOL     OW18091   2.885   0.990   4.043
 5731SOL    HW118092   2.813   0.958   4.104
 5731SOL    HW218093   2.950   0.915   4.025
 5732SOL     OW18094   5.875   5.273   5.148
 5732SOL    HW118095   5.810   5.197   5.151
 5732SOL    HW218096   5.963   5.243   5.183
 5733SOL     OW18097   3.230   1.255   0.024
 5733SOL    HW118098   3.239   1.332   0.088
 5733SOL    HW218099   3.246   1.169   0.072
 5734SOL     OW18100   1.749   6.234   5.907
 5734SOL    HW118101   1.703   6.145   5.902
 5734SOL    HW218102   1.820   6.239   5.838
 5735SOL     OW18103   4.151   0.582   2.155
 5735SOL    HW118104   4.166   0.549   2.248
 5735SOL    HW218105   4.174   0.510   2.090
 5736SOL     OW18106   4.611   4.128   6.680
 5736SOL    HW118107   4.662   4.054   6.724
 5736SOL    HW218108   4.675   4.188   6.631
 5737SOL     OW18109   4.478   5.404   1.332
 5737SOL    HW118110   4.508   5.391   1.426
 5737SOL    HW218111   4.503   5.496   1.302
 5738SOL     OW18112   3.244   0.968   6.307
 5738SOL    HW118113   3.333   1.013   6.301
 5738SOL    HW218114   3.173   1.032   6.279
 5739SOL     OW18115   2.750   0.434   5.533
 5739SOL    HW118116   2.799   0.350   5.559
 5739SOL    HW218117   2.762   0.502   5.606
 5740SOL     OW18118   5.304   3.806   2.150
 5740SOL    HW118119   5.241   3.731   2.130
 5740SOL    HW218120   5.252   3.890   2.164
 5741SOL     OW18121   0.495   3.673   4.069
 5741SOL    HW118122   0.557   3.602   4.036
 5741SOL    HW218123   0.479   3.662   4.167
 5742SOL     OW18124   4.467   0.585   3.525
 5742SOL    HW118125   4.531   0.659   3.505
 5742SOL    HW218126   4.377   0.624   3.547
 5743SOL     OW18127   3.741   4.011   5.282
 5743SOL    HW118128   3.807   4.059   5.224
 5743SOL    HW218129   3.756   3.912   5.275
 5744SOL     OW18130   5.789   6.675   2.765
 5744SOL    HW118131   5.750   6.702   2.854
 5744SOL    HW218132   5.736   6.718   2.692
 5745SOL     OW18133   2.229   2.549   3.449
 5745SOL    HW118134   2.160   2.478   3.438
 5745SOL    HW218135   2.257   2.556   3.545
 5746SOL     OW18136   4.068   0.583   3.771
 5746SOL    HW118137   4.156   0.537   3.779
 5746SOL    HW218138   4.012   0.535   3.703
 5747SOL     OW18139   0.878   5.794   1.698
 5747SOL    HW118140   0.801   5.755   1.647
 5747SOL    HW218141   0.964   5.758   1.661
 5748SOL     OW18142   0.674   5.894   0.334
 5748SOL    HW118143   0.715   5.822   0.391
 5748SOL    HW218144   0.678   5.867   0.238
 5749SOL     OW18145   1.903   6.189   4.981
 5749SOL    HW118146   1.843   6.119   4.941
 5749SOL    HW218147   1.997   6.156   4.980
 5750SOL     OW18148   6.813   4.590   4.141
 5750SOL    HW118149   6.819   4.493   4.117
 5750SOL    HW218150   6.904   4.625   4.164
 5751SOL     OW18151   2.139   3.792   4.288
 5751SOL    HW118152   2.185   3.813   4.375
 5751SOL    HW218153   2.079   3.868   4.264
 5752SOL     OW18154   5.251   0.356   0.794
 5752SOL    HW118155   5.332   0.365   0.736
 5752SOL    HW218156   5.280   0.352   0.890
 5753SOL     OW18157   3.072   4.014   4.564
 5753SOL    HW118158   3.056   4.021   4.663
 5753SOL    HW218159   3.130   4.090   4.535
 5754SOL     OW18160   0.875   6.053   1.670
 5754SOL    HW118161   0.920   6.098   1.592
 5754SOL    HW218162   0.872   5.954   1.654
 5755SOL     OW18163   1.794   2.318   0.389
 5755SOL    HW118164   1.815   2.388   0.458
 5755SOL    HW218165   1.698   2.291   0.398
 5756SOL     OW18166   5.759   6.179   1.712
 5756SOL    HW118167   5.668   6.184   1.753
 5756SOL    HW218168   5.808   6.099   1.747
 5757SOL     OW18169   6.849   0.207   3.592
 5757SOL    HW118170   6.944   0.234   3.608
 5757SOL    HW218171   6.802   0.279   3.540
 5758SOL     OW18172   1.023   6.857   3.216
 5758SOL    HW118173   0.963   6.828   3.141
 5758SOL    HW218174   1.082   6.781   3.243
 5759SOL     OW18175   3.802   6.770   1.626
 5759SOL    HW118176   3.892   6.812   1.645
 5759SOL    HW218177   3.765   6.731   1.711
 5760SOL     OW18178   6.933   3.324   1.909
 5760SOL    HW118179   6.977   3.235   1.919
 5760SOL    HW218180   6.999   3.391   1.876
 5761SOL     OW18181   5.684   5.459   4.786
 5761SOL    HW118182   5.764   5.473   4.844
 5761SOL    HW218183   5.612   5.524   4.813
 5762SOL     OW18184   5.154   4.524   6.822
 5762SOL    HW118185   5.147   4.599   6.756
 5762SOL    HW218186   5.125   4.556   6.912
 5763SOL     OW18187   5.256   0.335   0.194
 5763SOL    HW118188   5.234   0.341   0.292
 5763SOL    HW218189   5.308   0.415   0.167
 5764SOL     OW18190   4.245   5.483   3.156
 5764SOL    HW118191   4.229   5.416   3.084
 5764SOL    HW218192   4.198   5.568   3.134
 5765SOL     OW18193   6.074   4.871   1.198
 5765SOL    HW118194   6.132   4.922   1.134
 5765SOL    HW218195   5.978   4.892   1.179
 5766SOL     OW18196   0.556   1.810   4.475
 5766SOL    HW118197   0.606   1.827   4.390
 5766SOL    HW218198   0.524   1.897   4.512
 5767SOL     OW18199   1.982   6.999   1.356
 5767SOL    HW118200   2.023   0.015   1.272
 5767SOL    HW218201   1.927   0.051   1.399
 5768SOL     OW18202   0.008   6.112   4.243
 5768SOL    HW118203   6.964   6.085   4.315
 5768SOL    HW218204   6.991   6.085   4.154
 5769SOL     OW18205   1.409   4.878   6.001
 5769SOL    HW118206   1.487   4.818   5.982
 5769SOL    HW218207   1.390   4.935   5.921
 5770SOL     OW18208   1.001   6.182   1.150
 5770SOL    HW118209   1.009   6.127   1.068
 5770SOL    HW218210   0.904   6.192   1.175
 5771SOL     OW18211   2.358   5.403   4.046
 5771SOL    HW118212   2.398   5.382   3.957
 5771SOL    HW218213   2.403   5.348   4.117
 5772SOL     OW18214   4.729   0.278   2.292
 5772SOL    HW118215   4.699   0.330   2.372
 5772SOL    HW218216   4.679   0.191   2.288
 5773SOL     OW18217   4.436   2.229   2.096
 5773SOL    HW118218   4.421   2.324   2.071
 5773SOL    HW218219   4.490   2.183   2.025
 5774SOL     OW18220   0.652   6.384   3.469
 5774SOL    HW118221   0.737   6.423   3.505
 5774SOL    HW218222   0.673   6.307   3.410
 5775SOL     OW18223   0.523   5.396   2.602
 5775SOL    HW118224   0.473   5.312   2.580
 5775SOL    HW218225   0.583   5.420   2.526
 5776SOL     OW18226   1.880   0.072   2.981
 5776SOL    HW118227   1.897   7.014   2.921
 5776SOL    HW218228   1.794   0.117   2.954
 5777SOL     OW18229   1.672   0.287   3.264
 5777SOL    HW118230   1.575   0.308   3.271
 5777SOL    HW218231   1.705   0.255   3.353
 5778SOL     OW18232   1.130   1.447   6.537
 5778SOL    HW118233   1.184   1.455   6.453
 5778SOL    HW218234   1.129   1.536   6.584
 5779SOL     OW18235   5.112   2.302   6.382
 5779SOL    HW118236   5.182   2.257   6.438
 5779SOL    HW218237   5.156   2.367   6.319
 5780SOL     OW18238   5.404   4.579   3.829
 5780SOL    HW118239   5.322   4.523   3.842
 5780SOL    HW218240   5.399   4.660   3.888
 5781SOL     OW18241   0.752   3.934   5.021
 5781SOL    HW118242   0.672   3.984   5.053
 5781SOL    HW218243   0.828   3.948   5.085
 5782SOL     OW18244   0.784   1.182   0.440
 5782SOL    HW118245   0.839   1.098   0.441
 5782SOL    HW218246   0.707   1.172   0.503
 5783SOL     OW18247   1.804   1.551   2.112
 5783SOL    HW118248   1.715   1.545   2.156
 5783SOL    HW218249   1.810   1.637   2.061
 5784SOL     OW18250   0.452   6.684   6.979
 5784SOL    HW118251   0.359   6.709   7.006
 5784SOL    HW218252   0.503   6.655   0.041
 5785SOL     OW18253   2.255   1.257   1.143
 5785SOL    HW118254   2.160   1.287   1.157
 5785SOL    HW218255   2.306   1.265   1.228
 5786SOL     OW18256   0.219   3.850   0.382
 5786SOL    HW118257   0.205   3.755   0.412
 5786SOL    HW218258   0.313   3.877   0.402
 5787SOL     OW18259   2.694   1.889   5.679
 5787SOL    HW118260   2.610   1.841   5.653
 5787SOL    HW218261   2.678   1.937   5.765
 5788SOL     OW18262   2.750   0.432   3.090
 5788SOL    HW118263   2.823   0.497   3.070
 5788SOL    HW218264   2.661   0.476   3.080
 5789SOL     OW18265   3.984   5.166   6.339
 5789SOL    HW118266   3.925   5.085   6.329
 5789SOL    HW218267   4.078   5.137   6.356
 5790SOL     OW18268   0.594   3.338   4.360
 5790SOL    HW118269   0.511   3.345   4.415
 5790SOL    HW218270   0.670   3.307   4.418
 5791SOL     OW18271   2.654   0.141   3.079
 5791SOL    HW118272   2.655   0.240   3.090
 5791SOL    HW218273   2.747   0.108   3.065
 5792SOL     OW18274   6.854   1.921   3.173
 5792SOL    HW118275   6.839   1.845   3.236
 5792SOL    HW218276   6.921   1.894   3.103
 5793SOL     OW18277   6.410   1.460   3.656
 5793SOL    HW118278   6.314   1.432   3.652
 5793SOL    HW218279   6.438   1.497   3.567
 5794SOL     OW18280   3.672   3.118   0.574
 5794SOL    HW118281   3.729   3.190   0.535
 5794SOL    HW218282   3.715   3.029   0.558
 5795SOL     OW18283   5.376   5.158   5.919
 5795SOL    HW118284   5.411   5.137   5.828
 5795SOL    HW218285   5.406   5.250   5.945
 5796SOL     OW18286   3.056   1.401   0.424
 5796SOL    HW118287   3.125   1.382   0.493
 5796SOL    HW218288   3.029   1.315   0.379
 5797SOL     OW18289   3.385   2.010   4.545
 5797SOL    HW118290   3.326   1.998   4.625
 5797SOL    HW218291   3.480   1.987   4.569
 5798SOL     OW18292   0.269   4.557   5.081
 5798SOL    HW118293   0.248   4.470   5.038
 5798SOL    HW218294   0.261   4.631   5.014
 5799SOL     OW18295   5.011   6.961   3.550
 5799SOL    HW118296   5.104   6.998   3.552
 5799SOL    HW218297   4.988   6.932   3.457
 5800SOL     OW18298   5.539   4.490   1.160
 5800SOL    HW118299   5.535   4.486   1.260
 5800SOL    HW218300   5.617   4.545   1.131
 5801SOL     OW18301   0.377   1.747   3.519
 5801SOL    HW118302   0.395   1.650   3.506
 5801SOL    HW218303   0.288   1.759   3.563
 5802SOL     OW18304   0.491   3.999   6.568
 5802SOL    HW118305   0.408   4.054   6.563
 5802SOL    HW218306   0.543   4.025   6.650
 5803SOL     OW18307   1.056   4.760   0.979
 5803SOL    HW118308   1.075   4.851   1.018
 5803SOL    HW218309   1.124   4.738   0.910
 5804SOL     OW18310   6.475   3.919   4.586
 5804SOL    HW118311   6.403   3.982   4.560
 5804SOL    HW218312   6.442   3.856   4.657
 5805SOL     OW18313   4.129   4.270   6.191
 5805SOL    HW118314   4.188   4.218   6.129
 5805SOL    HW218315   4.034   4.240   6.179
 5806SOL     OW18316   0.879   6.768   0.367
 5806SOL    HW118317   0.924   6.762   0.278
 5806SOL    HW218318   0.873   6.863   0.395
 5807SOL     OW18319   1.560   3.961   0.907
 5807SOL    HW118320   1.653   3.956   0.871
 5807SOL    HW218321   1.549   3.893   0.980
 5808SOL     OW18322   5.460   4.173   2.493
 5808SOL    HW118323   5.363   4.151   2.497
 5808SOL    HW218324   5.497   4.180   2.586
 5809SOL     OW18325   6.921   3.279   4.578
 5809SOL    HW118326   6.893   3.205   4.517
 5809SOL    HW218327   6.840   3.334   4.601
 5810SOL     OW18328   3.158   1.394   3.890
 5810SOL    HW118329   3.113   1.483   3.891
 5810SOL    HW218330   3.096   1.325   3.929
 5811SOL     OW18331   2.937   0.402   5.108
 5811SOL    HW118332   2.920   0.448   5.196
 5811SOL    HW218333   2.932   0.469   5.034
 5812SOL     OW18334   4.985   0.272   3.590
 5812SOL    HW118335   4.978   0.198   3.657
 5812SOL    HW218336   4.906   0.269   3.529
 5813SOL     OW18337   1.054   1.125   5.773
 5813SOL    HW118338   0.962   1.165   5.781
 5813SOL    HW218339   1.105   1.142   5.858
 5814SOL     OW18340   6.729   4.251   0.560
 5814SOL    HW118341   6.641   4.213   0.588
 5814SOL    HW218342   6.796   4.177   0.552
 5815SOL     OW18343   4.113   2.131   3.006
 5815SOL    HW118344   4.036   2.179   3.048
 5815SOL    HW218345   4.081   2.085   2.922
 5816SOL     OW18346   5.635   0.190   0.083
 5816SOL    HW118347   5.691   0.125   0.032
 5816SOL    HW218348   5.538   0.166   0.072
 5817SOL     OW18349   6.126   2.811   6.092
 5817SOL    HW118350   6.176   2.895   6.071
 5817SOL    HW218351   6.152   2.778   6.183
 5818SOL     OW18352   6.011   6.199   5.413
 5818SOL    HW118353   6.030   6.292   5.383
 5818SOL    HW218354   6.010   6.195   5.513
 5819SOL     OW18355   4.937   0.622   1.062
 5819SOL    HW118356   5.031   0.639   1.091
 5819SOL    HW218357   4.927   0.526   1.035
 5820SOL     OW18358   4.893   6.868   3.294
 5820SOL    HW118359   4.833   6.934   3.249
 5820SOL    HW218360   4.849   6.778   3.295
 5821SOL     OW18361   2.974   0.381   1.966
 5821SOL    HW118362   3.028   0.435   2.031
 5821SOL    HW218363   2.918   0.442   1.910
 5822SOL     OW18364   0.304   2.632   1.780
 5822SOL    HW118365   0.367   2.698   1.822
 5822SOL    HW218366   0.304   2.644   1.681
 5823SOL     OW18367   1.066   0.909   5.272
 5823SOL    HW118368   1.081   1.002   5.305
 5823SOL    HW218369   0.997   0.909   5.200
 5824SOL     OW18370   6.458   6.532   3.204
 5824SOL    HW118371   6.421   6.523   3.297
 5824SOL    HW218372   6.465   6.442   3.162
 5825SOL     OW18373   2.613   1.456   6.380
 5825SOL    HW118374   2.531   1.498   6.420
 5825SOL    HW218375   2.658   1.399   6.449
 5826SOL     OW18376   6.291   6.142   5.148
 5826SOL    HW118377   6.345   6.117   5.228
 5826SOL    HW218378   6.281   6.241   5.144
 5827SOL     OW18379   0.746   5.137   4.977
 5827SOL    HW118380   0.762   5.193   4.896
 5827SOL    HW218381   0.666   5.172   5.026
 5828SOL     OW18382   0.476   3.827   1.995
 5828SOL    HW118383   0.473   3.727   1.991
 5828SOL    HW218384   0.384   3.863   1.981
 5829SOL     OW18385   2.677   0.895   2.461
 5829SOL    HW118386   2.619   0.907   2.381
 5829SOL    HW218387   2.623   0.855   2.536
 5830SOL     OW18388   4.014   0.921   6.032
 5830SOL    HW118389   3.919   0.921   6.063
 5830SOL    HW218390   4.058   0.835   6.060
 5831SOL     OW18391   6.086   6.205   2.937
 5831SOL    HW118392   6.096   6.111   2.903
 5831SOL    HW218393   5.991   6.220   2.966
 5832SOL     OW18394   4.378   4.106   5.442
 5832SOL    HW118395   4.399   4.009   5.448
 5832SOL    HW218396   4.462   4.158   5.427
 5833SOL     OW18397   3.047   3.475   4.224
 5833SOL    HW118398   3.142   3.490   4.249
 5833SOL    HW218399   3.042   3.437   4.132
 5834SOL     OW18400   6.370   1.592   0.306
 5834SOL    HW118401   6.392   1.678   0.352
 5834SOL    HW218402   6.327   1.530   0.372
 5835SOL     OW18403   4.895   1.896   3.562
 5835SOL    HW118404   4.938   1.806   3.571
 5835SOL    HW218405   4.894   1.942   3.651
 5836SOL     OW18406   3.134   5.930   2.882
 5836SOL    HW118407   3.185   5.966   2.959
 5836SOL    HW218408   3.040   5.913   2.908
 5837SOL     OW18409   4.638   4.606   0.077
 5837SOL    HW118410   4.634   4.556   0.163
 5837SOL    HW218411   4.602   4.549   0.003
 5838SOL     OW18412   1.669   1.368   6.292
 5838SOL    HW118413   1.758   1.325   6.308
 5838SOL    HW218414   1.643   1.421   6.372
 5839SOL     OW18415   6.802   3.046   2.581
 5839SOL    HW118416   6.864   3.118   2.612
 5839SOL    HW218417   6.714   3.086   2.555
 5840SOL     OW18418   1.317   5.898   6.692
 5840SOL    HW118419   1.409   5.934   6.675
 5840SOL    HW218420   1.287   5.925   6.784
 5841SOL     OW18421   5.757   3.405   2.847
 5841SOL    HW118422   5.852   3.418   2.875
 5841SOL    HW218423   5.723   3.319   2.885
 5842SOL     OW18424   3.539   3.130   0.796
 5842SOL    HW118425   3.515   3.224   0.818
 5842SOL    HW218426   3.598   3.128   0.716
 5843SOL     OW18427   2.065   3.693   2.376
 5843SOL    HW118428   2.087   3.789   2.361
 5843SOL    HW218429   2.065   3.644   2.289
 5844SOL     OW18430   0.271   5.744   6.365
 5844SOL    HW118431   0.281   5.785   6.455
 5844SOL    HW218432   0.185   5.693   6.361
 5845SOL     OW18433   1.258   2.582   3.372
 5845SOL    HW118434   1.333   2.645   3.390
 5845SOL    HW218435   1.218   2.551   3.458
 5846SOL     OW18436   6.851   3.037   5.332
 5846SOL    HW118437   6.889   3.024   5.424
 5846SOL    HW218438   6.824   2.949   5.294
 5847SOL     OW18439   2.004   2.328   2.179
 5847SOL    HW118440   1.939   2.267   2.224
 5847SOL    HW218441   1.992   2.421   2.214
 5848SOL     OW18442   2.056   5.020   3.162
 5848SOL    HW118443   2.039   4.929   3.200
 5848SOL    HW218444   2.046   5.089   3.234
 5849SOL     OW18445   1.157   0.151   5.651
 5849SOL    HW118446   1.221   0.169   5.726
 5849SOL    HW218447   1.118   0.237   5.619
 5850SOL     OW18448   1.284   3.814   2.165
 5850SOL    HW118449   1.334   3.802   2.251
 5850SOL    HW218450   1.348   3.806   2.088
 5851SOL     OW18451   6.156   3.880   2.333
 5851SOL    HW118452   6.111   3.798   2.369
 5851SOL    HW218453   6.087   3.950   2.315
 5852SOL     OW18454   4.052   6.530   2.972
 5852SOL    HW118455   4.085   6.437   2.954
 5852SOL    HW218456   3.956   6.537   2.943
 5853SOL     OW18457   3.147   5.747   6.248
 5853SOL    HW118458   3.189   5.814   6.310
 5853SOL    HW218459   3.072   5.700   6.294
 5854SOL     OW18460   6.768   3.123   5.895
 5854SOL    HW118461   6.683   3.070   5.894
 5854SOL    HW218462   6.811   3.114   5.985
 5855SOL     OW18463   1.273   1.255   4.557
 5855SOL    HW118464   1.186   1.208   4.541
 5855SOL    HW218465   1.261   1.326   4.626
 5856SOL     OW18466   2.128   5.436   3.434
 5856SOL    HW118467   2.072   5.356   3.458
 5856SOL    HW218468   2.217   5.429   3.479
 5857SOL     OW18469   6.447   2.804   5.195
 5857SOL    HW118470   6.543   2.831   5.199
 5857SOL    HW218471   6.409   2.802   5.288
 5858SOL     OW18472   3.050   1.162   2.236
 5858SOL    HW118473   3.039   1.262   2.236
 5858SOL    HW218474   3.069   1.130   2.329
 5859SOL     OW18475   6.376   6.150   0.613
 5859SOL    HW118476   6.277   6.155   0.611
 5859SOL    HW218477   6.405   6.054   0.612
 5860SOL     OW18478   1.926   4.732   2.001
 5860SOL    HW118479   1.910   4.698   1.908
 5860SOL    HW218480   1.965   4.658   2.057
 5861SOL     OW18481   5.383   2.312   3.823
 5861SOL    HW118482   5.423   2.315   3.731
 5861SOL    HW218483   5.334   2.397   3.840
 5862SOL     OW18484   3.808   5.149   3.142
 5862SOL    HW118485   3.745   5.072   3.143
 5862SOL    HW218486   3.883   5.132   3.207
 5863SOL     OW18487   2.373   0.764   6.311
 5863SOL    HW118488   2.399   0.806   6.398
 5863SOL    HW218489   2.341   0.835   6.248
 5864SOL     OW18490   4.268   4.046   1.690
 5864SOL    HW118491   4.259   3.948   1.706
 5864SOL    HW218492   4.355   4.078   1.728
 5865SOL     OW18493   5.410   0.647   3.562
 5865SOL    HW118494   5.337   0.612   3.622
 5865SOL    HW218495   5.369   0.692   3.483
 5866SOL     OW18496   4.544   6.622   5.935
 5866SOL    HW118497   4.604   6.574   5.999
 5866SOL    HW218498   4.448   6.601   5.957
 5867SOL     OW18499   0.217   2.896   1.247
 5867SOL    HW118500   0.228   2.971   1.181
 5867SOL    HW218501   0.142   2.917   1.309
 5868SOL     OW18502   0.826   0.251   4.904
 5868SOL    HW118503   0.819   0.292   4.813
 5868SOL    HW218504   0.817   0.322   4.973
 5869SOL     OW18505   2.387   4.387   3.852
 5869SOL    HW118506   2.368   4.455   3.781
 5869SOL    HW218507   2.440   4.311   3.813
 5870SOL     OW18508   5.251   5.097   4.624
 5870SOL    HW118509   5.286   5.141   4.542
 5870SOL    HW218510   5.318   5.028   4.655
 5871SOL     OW18511   3.599   3.427   0.216
 5871SOL    HW118512   3.603   3.450   0.313
 5871SOL    HW218513   3.559   3.336   0.205
 5872SOL     OW18514   4.176   5.493   6.512
 5872SOL    HW118515   4.176   5.398   6.546
 5872SOL    HW218516   4.270   5.528   6.512
 5873SOL     OW18517   2.278   3.045   0.363
 5873SOL    HW118518   2.330   2.977   0.313
 5873SOL    HW218519   2.181   3.039   0.337
 5874SOL     OW18520   2.371   3.481   1.379
 5874SOL    HW118521   2.320   3.553   1.426
 5874SOL    HW218522   2.417   3.423   1.446
 5875SOL     OW18523   3.401   1.906   0.203
 5875SOL    HW118524   3.449   1.970   0.142
 5875SOL    HW218525   3.314   1.880   0.161
 5876SOL     OW18526   3.309   2.999   6.678
 5876SOL    HW118527   3.277   3.093   6.693
 5876SOL    HW218528   3.278   2.941   6.754
 5877SOL     OW18529   6.570   0.538   1.223
 5877SOL    HW118530   6.570   0.443   1.254
 5877SOL    HW218531   6.479   0.561   1.188
 5878SOL     OW18532   4.685   5.696   2.007
 5878SOL    HW118533   4.745   5.744   2.071
 5878SOL    HW218534   4.591   5.729   2.019
 5879SOL     OW18535   3.885   3.072   6.287
 5879SOL    HW118536   3.821   3.139   6.248
 5879SOL    HW218537   3.913   3.008   6.216
 5880SOL     OW18538   5.216   3.182   5.606
 5880SOL    HW118539   5.249   3.125   5.682
 5880SOL    HW218540   5.117   3.188   5.609
 5881SOL     OW18541   1.075   6.465   2.733
 5881SOL    HW118542   1.061   6.388   2.796
 5881SOL    HW218543   1.135   6.437   2.659
 5882SOL     OW18544   1.176   6.480   5.588
 5882SOL    HW118545   1.193   6.558   5.527
 5882SOL    HW218546   1.108   6.507   5.657
 5883SOL     OW18547   0.033   3.885   0.722
 5883SOL    HW118548   0.132   3.875   0.714
 5883SOL    HW218549   7.013   3.800   0.756
 5884SOL     OW18550   5.756   1.596   4.138
 5884SOL    HW118551   5.698   1.631   4.064
 5884SOL    HW218552   5.845   1.641   4.134
 5885SOL     OW18553   0.649   5.527   0.340
 5885SOL    HW118554   0.603   5.578   0.267
 5885SOL    HW218555   0.671   5.589   0.415
 5886SOL     OW18556   1.497   3.518   3.254
 5886SOL    HW118557   1.402   3.490   3.237
 5886SOL    HW218558   1.557   3.470   3.189
 5887SOL     OW18559   2.149   1.881   1.433
 5887SOL    HW118560   2.160   1.980   1.437
 5887SOL    HW218561   2.201   1.838   1.506
 5888SOL     OW18562   2.887   6.936   1.835
 5888SOL    HW118563   2.952   6.888   1.776
 5888SOL    HW218564   2.842   7.009   1.783
 5889SOL     OW18565   0.321   0.620   1.297
 5889SOL    HW118566   0.305   0.719   1.289
 5889SOL    HW218567   0.343   0.598   1.392
 5890SOL     OW18568   2.776   6.169   2.331
 5890SOL    HW118569   2.765   6.072   2.356
 5890SOL    HW218570   2.800   6.175   2.235
 5891SOL     OW18571   2.727   3.072   0.766
 5891SOL    HW118572   2.808   3.040   0.815
 5891SOL    HW218573   2.645   3.027   0.802
 5892SOL     OW18574   0.524   3.861   0.490
 5892SOL    HW118575   0.566   3.946   0.458
 5892SOL    HW218576   0.526   3.793   0.416
 5893SOL     OW18577   0.871   5.691   2.096
 5893SOL    HW118578   0.872   5.667   2.193
 5893SOL    HW218579   0.909   5.616   2.042
 5894SOL     OW18580   0.844   5.925   5.659
 5894SOL    HW118581   0.903   5.897   5.583
 5894SOL    HW218582   0.866   5.871   5.740
 5895SOL     OW18583   5.949   3.163   4.802
 5895SOL    HW118584   5.868   3.146   4.746
 5895SOL    HW218585   5.968   3.083   4.858
 5896SOL     OW18586   5.759   1.769   1.886
 5896SOL    HW118587   5.747   1.694   1.950
 5896SOL    HW218588   5.844   1.755   1.834
 5897SOL     OW18589   4.544   1.621   1.038
 5897SOL    HW118590   4.470   1.578   0.987
 5897SOL    HW218591   4.517   1.713   1.065
 5898SOL     OW18592   1.972   1.325   5.691
 5898SOL    HW118593   2.002   1.231   5.703
 5898SOL    HW218594   2.051   1.386   5.704
 5899SOL     OW18595   0.006   5.241   6.123
 5899SOL    HW118596   0.003   5.330   6.168
 5899SOL    HW218597   0.049   5.174   6.184
 5900SOL     OW18598   6.782   6.225   3.017
 5900SOL    HW118599   6.817   6.313   2.984
 5900SOL    HW218600   6.762   6.233   3.115
 5901SOL     OW18601   1.607   0.040   6.385
 5901SOL    HW118602   1.682   0.092   6.427
 5901SOL    HW218603   1.573   6.992   6.450
 5902SOL     OW18604   5.757   4.335   4.605
 5902SOL    HW118605   5.778   4.368   4.513
 5902SOL    HW218606   5.815   4.257   4.627
 5903SOL     OW18607   6.553   2.347   6.924
 5903SOL    HW118608   6.593   2.268   6.970
 5903SOL    HW218609   6.579   2.430   6.972
 5904SOL     OW18610   1.935   4.568   3.099
 5904SOL    HW118611   2.004   4.498   3.081
 5904SOL    HW218612   1.846   4.536   3.067
 5905SOL     OW18613   5.617   0.920   4.029
 5905SOL    HW118614   5.590   1.014   4.008
 5905SOL    HW218615   5.562   0.886   4.106
 5906SOL     OW18616   5.395   1.334   5.877
 5906SOL    HW118617   5.393   1.406   5.807
 5906SOL    HW218618   5.485   1.291   5.879
 5907SOL     OW18619   1.720   1.645   6.761
 5907SOL    HW118620   1.708   1.742   6.779
 5907SOL    HW218621   1.817   1.626   6.744
 5908SOL     OW18622   4.681   3.565   6.377
 5908SOL    HW118623   4.627   3.546   6.459
 5908SOL    HW218624   4.623   3.609   6.308
 5909SOL     OW18625   6.877   4.831   5.074
 5909SOL    HW118626   6.881   4.739   5.034
 5909SOL    HW218627   6.902   4.827   5.170
 5910SOL     OW18628   2.138   3.876   1.132
 5910SOL    HW118629   2.142   3.843   1.038
 5910SOL    HW218630   2.230   3.876   1.172
 5911SOL     OW18631   6.158   5.113   6.314
 5911SOL    HW118632   6.088   5.070   6.371
 5911SOL    HW218633   6.117   5.186   6.259
 5912SOL     OW18634   6.324   3.787   6.789
 5912SOL    HW118635   6.422   3.777   6.809
 5912SOL    HW218636   6.312   3.852   6.714
 5913SOL     OW18637   2.003   1.930   6.015
 5913SOL    HW118638   1.988   1.888   6.104
 5913SOL    HW218639   1.950   1.880   5.946
 5914SOL     OW18640   2.679   5.471   0.662
 5914SOL    HW118641   2.742   5.432   0.595
 5914SOL    HW218642   2.637   5.554   0.624
 5915SOL     OW18643   4.836   3.183   2.684
 5915SOL    HW118644   4.746   3.174   2.643
 5915SOL    HW218645   4.873   3.092   2.705
 5916SOL     OW18646   4.039   0.011   5.556
 5916SOL    HW118647   3.973   0.081   5.531
 5916SOL    HW218648   4.048   6.964   5.481
 5917SOL     OW18649   3.742   3.397   3.121
 5917SOL    HW118650   3.659   3.345   3.103
 5917SOL    HW218651   3.753   3.468   3.051
 5918SOL     OW18652   1.711   3.463   3.715
 5918SOL    HW118653   1.778   3.393   3.690
 5918SOL    HW218654   1.669   3.439   3.802
 5919SOL     OW18655   2.281   2.569   0.280
 5919SOL    HW118656   2.364   2.620   0.256
 5919SOL    HW218657   2.307   2.487   0.330
 5920SOL     OW18658   3.829   0.609   6.545
 5920SOL    HW118659   3.751   0.642   6.598
 5920SOL    HW218660   3.874   0.534   6.594
 5921SOL     OW18661   3.767   5.088   5.616
 5921SOL    HW118662   3.814   5.152   5.678
 5921SOL    HW218663   3.670   5.110   5.614
 5922SOL     OW18664   6.517   4.693   3.036
 5922SOL    HW118665   6.460   4.766   3.074
 5922SOL    HW218666   6.586   4.666   3.103
 5923SOL     OW18667   6.641   0.419   3.468
 5923SOL    HW118668   6.562   0.359   3.456
 5923SOL    HW218669   6.686   0.432   3.380
 5924SOL     OW18670   5.159   2.270   4.422
 5924SOL    HW118671   5.237   2.240   4.367
 5924SOL    HW218672   5.181   2.356   4.467
 5925SOL     OW18673   5.676   5.856   1.522
 5925SOL    HW118674   5.693   5.851   1.620
 5925SOL    HW218675   5.579   5.842   1.503
 5926SOL     OW18676   3.659   5.082   1.601
 5926SOL    HW118677   3.623   4.990   1.583
 5926SOL    HW218678   3.583   5.146   1.610
 5927SOL     OW18679   2.680   6.015   1.784
 5927SOL    HW118680   2.736   6.073   1.725
 5927SOL    HW218681   2.595   6.063   1.807
 5928SOL     OW18682   1.156   0.153   2.555
 5928SOL    HW118683   1.248   0.115   2.558
 5928SOL    HW218684   1.161   0.251   2.535
 5929SOL     OW18685   1.285   6.684   5.985
 5929SOL    HW118686   1.339   6.756   6.028
 5929SOL    HW218687   1.309   6.596   6.025
 5930SOL     OW18688   6.469   1.173   5.051
 5930SOL    HW118689   6.483   1.252   4.992
 5930SOL    HW218690   6.521   1.095   5.015
 5931SOL     OW18691   5.954   5.554   1.672
 5931SOL    HW118692   5.906   5.588   1.753
 5931SOL    HW218693   5.967   5.630   1.608
 5932SOL     OW18694   2.235   6.454   1.359
 5932SOL    HW118695   2.257   6.545   1.395
 5932SOL    HW218696   2.281   6.385   1.414
 5933SOL     OW18697   6.943   4.135   2.766
 5933SOL    HW118698   0.008   4.140   2.820
 5933SOL    HW218699   6.953   4.063   2.696
 5934SOL     OW18700   3.725   3.604   2.923
 5934SOL    HW118701   3.790   3.677   2.904
 5934SOL    HW218702   3.679   3.577   2.838
 5935SOL     OW18703   3.766   3.992   4.844
 5935SOL    HW118704   3.791   3.939   4.763
 5935SOL    HW218705   3.703   4.065   4.817
 5936SOL     OW18706   4.846   4.652   6.712
 5936SOL    HW118707   4.831   4.553   6.711
 5936SOL    HW218708   4.842   4.685   6.806
 5937SOL     OW18709   1.092   4.030   0.760
 5937SOL    HW118710   1.043   4.027   0.847
 5937SOL    HW218711   1.029   4.012   0.685
 5938SOL     OW18712   2.276   4.527   3.206
 5938SOL    HW118713   2.367   4.550   3.238
 5938SOL    HW218714   2.267   4.553   3.110
 5939SOL     OW18715   2.897   0.673   3.116
 5939SOL    HW118716   2.983   0.720   3.136
 5939SOL    HW218717   2.842   0.668   3.200
 5940SOL     OW18718   3.864   0.040   3.027
 5940SOL    HW118719   3.905   0.098   2.956
 5940SOL    HW218720   3.895   6.965   3.014
 5941SOL     OW18721   6.340   5.074   2.227
 5941SOL    HW118722   6.313   4.995   2.282
 5941SOL    HW218723   6.334   5.157   2.282
 5942SOL     OW18724   4.235   3.323   6.480
 5942SOL    HW118725   4.197   3.243   6.527
 5942SOL    HW218726   4.161   3.380   6.446
 5943SOL     OW18727   1.995   5.854   0.542
 5943SOL    HW118728   2.062   5.796   0.587
 5943SOL    HW218729   1.976   5.933   0.601
 5944SOL     OW18730   4.950   1.379   2.178
 5944SOL    HW118731   4.896   1.297   2.199
 5944SOL    HW218732   5.000   1.364   2.093
 5945SOL     OW18733   6.445   5.116   5.867
 5945SOL    HW118734   6.474   5.035   5.816
 5945SOL    HW218735   6.349   5.136   5.847
 5946SOL     OW18736   4.505   3.669   6.176
 5946SOL    HW118737   4.460   3.707   6.256
 5946SOL    HW218738   4.565   3.738   6.135
 5947SOL     OW18739   4.266   3.376   1.839
 5947SOL    HW118740   4.342   3.318   1.811
 5947SOL    HW218741   4.189   3.319   1.867
 5948SOL     OW18742   3.508   4.883   2.842
 5948SOL    HW118743   3.563   4.834   2.774
 5948SOL    HW218744   3.560   4.891   2.927
 5949SOL     OW18745   4.165   4.758   0.977
 5949SOL    HW118746   4.085   4.751   0.917
 5949SOL    HW218747   4.211   4.669   0.981
 5950SOL     OW18748   5.914   1.853   4.467
 5950SOL    HW118749   5.878   1.761   4.487
 5950SOL    HW218750   6.014   1.852   4.474
 5951SOL     OW18751   2.187   6.110   4.243
 5951SOL    HW118752   2.180   6.121   4.342
 5951SOL    HW218753   2.211   6.198   4.201
 5952SOL     OW18754   6.382   6.231   3.882
 5952SOL    HW118755   6.337   6.265   3.965
 5952SOL    HW218756   6.326   6.157   3.843
 5953SOL     OW18757   6.864   3.444   5.678
 5953SOL    HW118758   6.843   3.347   5.664
 5953SOL    HW218759   6.801   3.482   5.746
 5954SOL     OW18760   0.011   4.666   6.439
 5954SOL    HW118761   0.104   4.701   6.431
 5954SOL    HW218762   6.968   4.727   6.391
 5955SOL     OW18763   5.248   4.990   1.612
 5955SOL    HW118764   5.259   5.083   1.647
 5955SOL    HW218765   5.174   4.945   1.661
 5956SOL     OW18766   4.134   2.386   6.980
 5956SOL    HW118767   4.146   2.317   0.031
 5956SOL    HW218768   4.049   2.369   6.930
 5957SOL     OW18769   5.782   6.102   5.669
 5957SOL    HW118770   5.732   6.185   5.690
 5957SOL    HW218771   5.758   6.071   5.577
 5958SOL     OW18772   6.631   5.971   1.842
 5958SOL    HW118773   6.671   5.899   1.785
 5958SOL    HW218774   6.611   5.934   1.932
 5959SOL     OW18775   3.103   1.731   5.710
 5959SOL    HW118776   3.013   1.712   5.750
 5959SOL    HW218777   3.106   1.827   5.681
 5960SOL     OW18778   2.677   0.199   3.731
 5960SOL    HW118779   2.644   0.275   3.787
 5960SOL    HW218780   2.653   0.216   3.635
 5961SOL     OW18781   3.251   0.865   5.240
 5961SOL    HW118782   3.172   0.921   5.265
 5961SOL    HW218783   3.323   0.876   5.309
 5962SOL     OW18784   4.774   5.317   2.252
 5962SOL    HW118785   4.847   5.348   2.191
 5962SOL    HW218786   4.703   5.271   2.198
 5963SOL     OW18787   3.909   3.757   2.500
 5963SOL    HW118788   3.967   3.684   2.465
 5963SOL    HW218789   3.946   3.791   2.586
 5964SOL     OW18790   0.285   4.998   6.505
 5964SOL    HW118791   0.380   5.024   6.489
 5964SOL    HW218792   0.227   5.043   6.437
 5965SOL     OW18793   2.090   2.818   6.419
 5965SOL    HW118794   2.102   2.900   6.475
 5965SOL    HW218795   2.064   2.741   6.477
 5966SOL     OW18796   2.884   5.982   4.725
 5966SOL    HW118797   2.906   5.946   4.816
 5966SOL    HW218798   2.966   5.985   4.669
 5967SOL     OW18799   4.525   6.886   2.819
 5967SOL    HW118800   4.437   6.878   2.774
 5967SOL    HW218801   4.515   6.940   2.902
 5968SOL     OW18802   6.199   2.486   3.319
 5968SOL    HW118803   6.250   2.428   3.382
 5968SOL    HW218804   6.175   2.572   3.365
 5969SOL     OW18805   5.898   3.524   3.954
 5969SOL    HW118806   5.975   3.502   4.015
 5969SOL    HW218807   5.825   3.567   4.007
 5970SOL     OW18808   1.167   3.644   2.989
 5970SOL    HW118809   1.214   3.607   2.909
 5970SOL    HW218810   1.218   3.722   3.025
 5971SOL     OW18811   1.500   6.547   3.414
 5971SOL    HW118812   1.469   6.559   3.319
 5971SOL    HW218813   1.550   6.628   3.442
 5972SOL     OW18814   5.349   0.111   6.872
 5972SOL    HW118815   5.337   0.102   6.971
 5972SOL    HW218816   5.402   0.033   6.838
 5973SOL     OW18817   1.689   4.360   2.713
 5973SOL    HW118818   1.702   4.450   2.754
 5973SOL    HW218819   1.760   4.298   2.747
 5974SOL     OW18820   6.876   3.681   0.299
 5974SOL    HW118821   6.818   3.642   0.227
 5974SOL    HW218822   6.901   3.609   0.364
 5975SOL     OW18823   3.524   2.782   1.071
 5975SOL    HW118824   3.532   2.882   1.076
 5975SOL    HW218825   3.494   2.746   1.160
 5976SOL     OW18826   3.199   3.083   5.000
 5976SOL    HW118827   3.245   3.006   5.044
 5976SOL    HW218828   3.246   3.104   4.914
 5977SOL     OW18829   1.856   4.880   2.238
 5977SOL    HW118830   1.858   4.834   2.150
 5977SOL    HW218831   1.949   4.903   2.266
 5978SOL     OW18832   5.254   4.486   2.662
 5978SOL    HW118833   5.307   4.479   2.747
 5978SOL    HW218834   5.157   4.473   2.682
 5979SOL     OW18835   6.543   0.870   3.571
 5979SOL    HW118836   6.462   0.877   3.630
 5979SOL    HW218837   6.624   0.898   3.622
 5980SOL     OW18838   4.757   4.291   0.766
 5980SOL    HW118839   4.819   4.271   0.841
 5980SOL    HW218840   4.791   4.371   0.715
 5981SOL     OW18841   6.077   1.649   2.553
 5981SOL    HW118842   6.072   1.657   2.653
 5981SOL    HW218843   6.043   1.558   2.526
 5982SOL     OW18844   6.890   1.991   6.788
 5982SOL    HW118845   6.980   2.017   6.752
 5982SOL    HW218846   6.881   1.891   6.785
 5983SOL     OW18847   2.030   2.018   4.143
 5983SOL    HW118848   2.078   1.975   4.219
 5983SOL    HW218849   2.096   2.055   4.078
 5984SOL     OW18850   6.849   5.964   4.381
 5984SOL    HW118851   6.767   6.003   4.422
 5984SOL    HW218852   6.907   5.924   4.452
 5985SOL     OW18853   5.153   2.082   3.879
 5985SOL    HW118854   5.153   2.069   3.978
 5985SOL    HW218855   5.207   2.164   3.856
 5986SOL     OW18856   3.594   3.055   3.218
 5986SOL    HW118857   3.546   2.988   3.275
 5986SOL    HW218858   3.561   3.147   3.239
 5987SOL     OW18859   4.427   6.595   4.683
 5987SOL    HW118860   4.492   6.661   4.646
 5987SOL    HW218861   4.469   6.505   4.685
 5988SOL     OW18862   4.385   6.851   4.067
 5988SOL    HW118863   4.419   6.803   4.147
 5988SOL    HW218864   4.443   6.931   4.049
 5989SOL     OW18865   2.777   0.256   6.193
 5989SOL    HW118866   2.706   0.304   6.141
 5989SOL    HW218867   2.786   0.162   6.159
 5990SOL     OW18868   3.605   4.700   0.654
 5990SOL    HW118869   3.526   4.725   0.598
 5990SOL    HW218870   3.598   4.604   0.680
 5991SOL     OW18871   3.194   5.467   4.500
 5991SOL    HW118872   3.144   5.418   4.571
 5991SOL    HW218873   3.237   5.548   4.539
 5992SOL     OW18874   3.509   0.595   3.930
 5992SOL    HW118875   3.470   0.510   3.893
 5992SOL    HW218876   3.608   0.584   3.938
 5993SOL     OW18877   2.374   6.123   5.729
 5993SOL    HW118878   2.303   6.053   5.739
 5993SOL    HW218879   2.335   6.205   5.688
 5994SOL     OW18880   6.273   2.710   2.201
 5994SOL    HW118881   6.335   2.635   2.178
 5994SOL    HW218882   6.180   2.686   2.174
 5995SOL     OW18883   6.487   5.123   1.387
 5995SOL    HW118884   6.464   5.118   1.484
 5995SOL    HW218885   6.586   5.124   1.376
 5996SOL     OW18886   0.613   5.488   6.632
 5996SOL    HW118887   0.546   5.514   6.562
 5996SOL    HW218888   0.680   5.425   6.592
 5997SOL     OW18889   0.292   6.579   1.842
 5997SOL    HW118890   0.274   6.643   1.768
 5997SOL    HW218891   0.388   6.584   1.868
 5998SOL     OW18892   5.518   1.775   2.615
 5998SOL    HW118893   5.472   1.836   2.679
 5998SOL    HW218894   5.613   1.803   2.604
 5999SOL     OW18895   1.739   1.757   3.087
 5999SOL    HW118896   1.826   1.732   3.128
 5999SOL    HW218897   1.667   1.754   3.156
 6000SOL     OW18898   4.146   4.991   2.390
 6000SOL    HW118899   4.244   5.002   2.402
 6000SOL    HW218900   4.112   5.063   2.329
 6001SOL     OW18901   6.864   2.797   6.973
 6001SOL    HW118902   6.867   2.710   0.003
 6001SOL    HW218903   6.772   2.835   6.979
 6002SOL     OW18904   1.820   0.680   1.704
 6002SOL    HW118905   1.834   0.735   1.622
 6002SOL    HW218906   1.872   0.595   1.696
 6003SOL     OW18907   5.462   4.035   4.749
 6003SOL    HW118908   5.439   4.030   4.652
 6003SOL    HW218909   5.522   3.959   4.774
 6004SOL     OW18910   0.678   3.582   2.955
 6004SOL    HW118911   0.669   3.664   2.897
 6004SOL    HW218912   0.773   3.572   2.984
 6005SOL     OW18913   3.581   5.565   4.086
 6005SOL    HW118914   3.656   5.542   4.023
 6005SOL    HW218915   3.571   5.492   4.154
 6006SOL     OW18916   2.570   6.432   6.357
 6006SOL    HW118917   2.564   6.434   6.257
 6006SOL    HW218918   2.515   6.506   6.395
 6007SOL     OW18919   5.496   2.275   4.079
 6007SOL    HW118920   5.535   2.360   4.114
 6007SOL    HW218921   5.469   2.287   3.983
 6008SOL     OW18922   3.339   4.733   5.683
 6008SOL    HW118923   3.265   4.717   5.618
 6008SOL    HW218924   3.394   4.650   5.692
 6009SOL     OW18925   2.739   1.658   4.321
 6009SOL    HW118926   2.686   1.708   4.252
 6009SOL    HW218927   2.837   1.666   4.300
 6010SOL     OW18928   1.897   4.364   2.370
 6010SOL    HW118929   1.797   4.357   2.368
 6010SOL    HW218930   1.926   4.412   2.453
 6011SOL     OW18931   5.092   2.903   2.196
 6011SOL    HW118932   5.147   2.975   2.239
 6011SOL    HW218933   5.109   2.903   2.097
 6012SOL     OW18934   0.068   2.700   0.548
 6012SOL    HW118935   6.996   2.685   0.511
 6012SOL    HW218936   0.086   2.635   0.621
 6013SOL     OW18937   6.351   0.640   2.264
 6013SOL    HW118938   6.394   0.723   2.227
 6013SOL    HW218939   6.410   0.561   2.245
 6014SOL     OW18940   5.865   0.847   0.381
 6014SOL    HW118941   5.896   0.905   0.456
 6014SOL    HW218942   5.942   0.825   0.322
 6015SOL     OW18943   6.065   2.001   4.762
 6015SOL    HW118944   5.968   1.979   4.776
 6015SOL    HW218945   6.076   2.100   4.757
 6016SOL     OW18946   1.726   0.693   5.070
 6016SOL    HW118947   1.786   0.630   5.120
 6016SOL    HW218948   1.632   0.677   5.099
 6017SOL     OW18949   6.078   5.146   3.232
 6017SOL    HW118950   6.041   5.127   3.323
 6017SOL    HW218951   6.153   5.213   3.239
 6018SOL     OW18952   2.854   3.363   0.657
 6018SOL    HW118953   2.769   3.319   0.685
 6018SOL    HW218954   2.836   3.458   0.633
 6019SOL     OW18955   3.828   1.003   4.056
 6019SOL    HW118956   3.874   0.954   3.982
 6019SOL    HW218957   3.882   1.083   4.082
 6020SOL     OW18958   3.912   0.583   2.697
 6020SOL    HW118959   3.853   0.522   2.644
 6020SOL    HW218960   3.955   0.649   2.636
 6021SOL     OW18961   4.221   1.230   2.076
 6021SOL    HW118962   4.254   1.253   2.167
 6021SOL    HW218963   4.251   1.138   2.052
 6022SOL     OW18964   4.789   1.454   3.244
 6022SOL    HW118965   4.773   1.516   3.321
 6022SOL    HW218966   4.703   1.440   3.195
 6023SOL     OW18967   0.229   1.624   3.095
 6023SOL    HW118968   0.243   1.629   2.996
 6023SOL    HW218969   0.137   1.590   3.114
 6024SOL     OW18970   0.653   5.025   1.617
 6024SOL    HW118971   0.651   4.934   1.575
 6024SOL    HW218972   0.748   5.054   1.630
 6025SOL     OW18973   4.489   1.457   1.668
 6025SOL    HW118974   4.421   1.530   1.668
 6025SOL    HW218975   4.580   1.495   1.650
 6026SOL     OW18976   6.467   5.244   5.288
 6026SOL    HW118977   6.554   5.292   5.296
 6026SOL    HW218978   6.420   5.247   5.377
 6027SOL     OW18979   2.667   2.549   6.638
 6027SOL    HW118980   2.732   2.622   6.663
 6027SOL    HW218981   2.593   2.545   6.705
 6028SOL     OW18982   1.785   4.613   6.778
 6028SOL    HW118983   1.791   4.517   6.806
 6028SOL    HW218984   1.762   4.670   6.858
 6029SOL     OW18985   1.967   6.092   0.775
 6029SOL    HW118986   1.961   6.190   0.793
 6029SOL    HW218987   2.058   6.059   0.800
 6030SOL     OW18988   2.357   0.490   1.613
 6030SOL    HW118989   2.285   0.531   1.557
 6030SOL    HW218990   2.442   0.541   1.600
 6031SOL     OW18991   5.118   6.486   5.948
 6031SOL    HW118992   5.050   6.504   5.877
 6031SOL    HW218993   5.162   6.398   5.930
 6032SOL     OW18994   1.485   3.295   2.256
 6032SOL    HW118995   1.406   3.355   2.237
 6032SOL    HW218996   1.569   3.348   2.247
 6033SOL     OW18997   1.486   2.034   2.804
 6033SOL    HW118998   1.420   2.102   2.770
 6033SOL    HW218999   1.463   2.011   2.899
 6034SOL     OW19000   2.357   4.506   5.078
 6034SOL    HW119001   2.416   4.532   5.155
 6034SOL    HW219002   2.289   4.577   5.063
 6035SOL     OW19003   5.532   0.491   4.545
 6035SOL    HW119004   5.501   0.549   4.621
 6035SOL    HW219005   5.458   0.430   4.518
 6036SOL     OW19006   0.645   0.037   4.986
 6036SOL    HW119007   0.716   0.106   4.974
 6036SOL    HW219008   0.594   0.025   4.901
 6037SOL     OW19009   5.076   5.625   5.583
 6037SOL    HW119010   5.107   5.538   5.621
 6037SOL    HW219011   5.070   5.617   5.483
 6038SOL     OW19012   6.440   4.076   5.883
 6038SOL    HW119013   6.533   4.112   5.873
 6038SOL    HW219014   6.401   4.107   5.970
 6039SOL     OW19015   3.394   3.439   2.370
 6039SOL    HW119016   3.375   3.498   2.291
 6039SOL    HW219017   3.310   3.395   2.400
 6040SOL     OW19018   0.776   2.155   6.495
 6040SOL    HW119019   0.803   2.068   6.453
 6040SOL    HW219020   0.747   2.138   6.589
 6041SOL     OW19021   0.980   1.612   0.208
 6041SOL    HW119022   0.957   1.667   0.288
 6041SOL    HW219023   0.931   1.646   0.128
 6042SOL     OW19024   5.119   4.900   2.727
 6042SOL    HW119025   5.043   4.896   2.662
 6042SOL    HW219026   5.202   4.867   2.683
 6043SOL     OW19027   1.013   4.992   4.473
 6043SOL    HW119028   0.955   4.952   4.403
 6043SOL    HW219029   1.101   5.018   4.432
 6044SOL     OW19030   0.622   0.409   1.218
 6044SOL    HW119031   0.672   0.324   1.231
 6044SOL    HW219032   0.683   0.478   1.181
 6045SOL     OW19033   5.720   5.033   0.683
 6045SOL    HW119034   5.708   5.035   0.584
 6045SOL    HW219035   5.768   5.116   0.713
 6046SOL     OW19036   2.612   2.407   0.080
 6046SOL    HW119037   2.689   2.377   0.023
 6046SOL    HW219038   2.540   2.338   0.078
 6047SOL     OW19039   6.500   0.065   3.982
 6047SOL    HW119040   6.526   0.153   3.943
 6047SOL    HW219041   6.568   7.016   3.957
 6048SOL     OW19042   3.823   0.457   3.672
 6048SOL    HW119043   3.830   0.476   3.770
 6048SOL    HW219044   3.746   0.396   3.655
 6049SOL     OW19045   4.880   3.922   6.660
 6049SOL    HW119046   4.881   3.876   6.571
 6049SOL    HW219047   4.973   3.953   6.682
 6050SOL     OW19048   4.347   4.699   5.274
 6050SOL    HW119049   4.388   4.718   5.363
 6050SOL    HW219050   4.253   4.667   5.286
 6051SOL     OW19051   2.302   2.236   2.350
 6051SOL    HW119052   2.358   2.248   2.269
 6051SOL    HW219053   2.213   2.281   2.336
 6052SOL     OW19054   6.882   1.598   0.588
 6052SOL    HW119055   6.792   1.595   0.631
 6052SOL    HW219056   6.932   1.514   0.609
 6053SOL     OW19057   2.556   7.018   6.676
 6053SOL    HW119058   2.642   0.027   6.633
 6053SOL    HW219059   2.537   0.056   6.755
 6054SOL     OW19060   1.546   5.496   0.873
 6054SOL    HW119061   1.599   5.570   0.831
 6054SOL    HW219062   1.567   5.491   0.971
 6055SOL     OW19063   5.029   1.102   5.078
 6055SOL    HW119064   5.118   1.057   5.087
 6055SOL    HW219065   5.042   1.193   5.040
 6056SOL     OW19066   3.687   1.702   6.297
 6056SOL    HW119067   3.681   1.677   6.393
 6056SOL    HW219068   3.595   1.714   6.260
 6057SOL     OW19069   4.120   1.086   5.311
 6057SOL    HW119070   4.066   1.169   5.319
 6057SOL    HW219071   4.060   1.009   5.290
 6058SOL     OW19072   5.635   2.615   4.492
 6058SOL    HW119073   5.661   2.527   4.532
 6058SOL    HW219074   5.603   2.677   4.565
 6059SOL     OW19075   5.053   4.478   6.387
 6059SOL    HW119076   5.040   4.400   6.448
 6059SOL    HW219077   4.979   4.480   6.319
 6060SOL     OW19078   4.471   5.270   5.569
 6060SOL    HW119079   4.478   5.221   5.656
 6060SOL    HW219080   4.490   5.367   5.584
 6061SOL     OW19081   2.864   1.973   6.944
 6061SOL    HW119082   2.845   2.034   6.867
 6061SOL    HW219083   2.779   1.930   6.975
 6062SOL     OW19084   1.738   1.156   4.589
 6062SOL    HW119085   1.675   1.164   4.667
 6062SOL    HW219086   1.832   1.161   4.623
 6063SOL     OW19087   4.187   1.163   6.846
 6063SOL    HW119088   4.202   1.070   6.813
 6063SOL    HW219089   4.134   1.161   6.931
 6064SOL     OW19090   1.233   5.767   2.969
 6064SOL    HW119091   1.322   5.797   3.005
 6064SOL    HW219092   1.247   5.696   2.900
 6065SOL     OW19093   6.264   6.467   0.948
 6065SOL    HW119094   6.295   6.491   1.040
 6065SOL    HW219095   6.331   6.405   0.906
 6066SOL     OW19096   4.464   2.091   1.099
 6066SOL    HW119097   4.378   2.084   1.049
 6066SOL    HW219098   4.449   2.138   1.186
 6067SOL     OW19099   6.347   1.426   6.071
 6067SOL    HW119100   6.341   1.371   6.154
 6067SOL    HW219101   6.442   1.452   6.055
 6068SOL     OW19102   4.683   2.885   4.917
 6068SOL    HW119103   4.588   2.916   4.926
 6068SOL    HW219104   4.742   2.941   4.975
 6069SOL     OW19105   6.672   4.408   5.680
 6069SOL    HW119106   6.676   4.339   5.608
 6069SOL    HW219107   6.758   4.458   5.683
 6070SOL     OW19108   4.217   2.460   6.638
 6070SOL    HW119109   4.209   2.559   6.627
 6070SOL    HW219110   4.129   2.422   6.667
 6071SOL     OW19111   4.055   6.072   5.034
 6071SOL    HW119112   4.121   6.140   5.068
 6071SOL    HW219113   3.964   6.095   5.067
 6072SOL     OW19114   1.079   1.889   2.033
 6072SOL    HW119115   1.007   1.959   2.028
 6072SOL    HW219116   1.054   1.812   1.974
 6073SOL     OW19117   6.686   2.771   1.151
 6073SOL    HW119118   6.691   2.863   1.110
 6073SOL    HW219119   6.597   2.731   1.132
 6074SOL     OW19120   0.600   0.102   4.615
 6074SOL    HW119121   0.518   0.104   4.673
 6074SOL    HW219122   0.575   0.072   4.523
 6075SOL     OW19123   6.179   3.505   0.123
 6075SOL    HW119124   6.172   3.498   0.024
 6075SOL    HW219125   6.087   3.497   0.163
 6076SOL     OW19126   1.846   6.844   3.978
 6076SOL    HW119127   1.904   6.899   3.919
 6076SOL    HW219128   1.851   6.748   3.949
 6077SOL     OW19129   5.890   6.223   2.556
 6077SOL    HW119130   5.912   6.284   2.632
 6077SOL    HW219131   5.819   6.158   2.584
 6078SOL     OW19132   2.925   4.885   3.891
 6078SOL    HW119133   2.866   4.819   3.937
 6078SOL    HW219134   2.891   4.901   3.798
 6079SOL     OW19135   2.402   2.850   0.223
 6079SOL    HW119136   2.491   2.805   0.225
 6079SOL    HW219137   2.365   2.847   0.130
 6080SOL     OW19138   5.729   2.031   1.702
 6080SOL    HW119139   5.802   1.999   1.763
 6080SOL    HW219140   5.678   1.952   1.667
 6081SOL     OW19141   6.214   3.614   3.955
 6081SOL    HW119142   6.182   3.556   3.880
 6081SOL    HW219143   6.314   3.620   3.953
 6082SOL     OW19144   4.459   0.647   2.724
 6082SOL    HW119145   4.411   0.734   2.711
 6082SOL    HW219146   4.470   0.628   2.821
 6083SOL     OW19147   1.575   5.970   6.589
 6083SOL    HW119148   1.581   5.872   6.573
 6083SOL    HW219149   1.615   6.018   6.510
 6084SOL     OW19150   6.358   5.413   5.103
 6084SOL    HW119151   6.277   5.432   5.159
 6084SOL    HW219152   6.409   5.337   5.143
 6085SOL     OW19153   6.507   3.258   7.006
 6085SOL    HW119154   6.481   3.287   6.915
 6085SOL    HW219155   6.487   3.330   0.053
 6086SOL     OW19156   4.189   1.355   4.653
 6086SOL    HW119157   4.276   1.349   4.604
 6086SOL    HW219158   4.159   1.450   4.655
 6087SOL     OW19159   5.644   6.407   6.321
 6087SOL    HW119160   5.733   6.419   6.277
 6087SOL    HW219161   5.636   6.314   6.356
 6088SOL     OW19162   0.766   0.305   4.615
 6088SOL    HW119163   0.836   0.312   4.544
 6088SOL    HW219164   0.714   0.220   4.602
 6089SOL     OW19165   0.663   3.583   0.800
 6089SOL    HW119166   0.700   3.495   0.770
 6089SOL    HW219167   0.719   3.620   0.874
 6090SOL     OW19168   0.611   6.061   5.735
 6090SOL    HW119169   0.676   5.998   5.692
 6090SOL    HW219170   0.540   6.086   5.670
 6091SOL     OW19171   6.293   1.687   2.256
 6091SOL    HW119172   6.200   1.690   2.292
 6091SOL    HW219173   6.337   1.775   2.270
 6092SOL     OW19174   2.211   1.102   2.176
 6092SOL    HW119175   2.185   1.023   2.120
 6092SOL    HW219176   2.135   1.167   2.178
 6093SOL     OW19177   1.576   2.771   1.185
 6093SOL    HW119178   1.644   2.818   1.129
 6093SOL    HW219179   1.485   2.806   1.163
 6094SOL     OW19180   1.371   1.382   1.505
 6094SOL    HW119181   1.329   1.472   1.492
 6094SOL    HW219182   1.381   1.363   1.603
 6095SOL     OW19183   5.738   3.234   6.762
 6095SOL    HW119184   5.837   3.244   6.760
 6095SOL    HW219185   5.711   3.158   6.704
 6096SOL     OW19186   4.184   1.533   4.277
 6096SOL    HW119187   4.157   1.545   4.182
 6096SOL    HW219188   4.210   1.437   4.292
 6097SOL     OW19189   2.304   0.925   2.444
 6097SOL    HW119190   2.358   0.993   2.395
 6097SOL    HW219191   2.296   0.842   2.388
 6098SOL     OW19192   2.583   2.376   5.807
 6098SOL    HW119193   2.599   2.337   5.716
 6098SOL    HW219194   2.495   2.344   5.841
 6099SOL     OW19195   5.961   6.023   5.183
 6099SOL    HW119196   5.996   5.936   5.217
 6099SOL    HW219197   5.978   6.094   5.252
 6100SOL     OW19198   6.342   2.741   0.404
 6100SOL    HW119199   6.420   2.682   0.421
 6100SOL    HW219200   6.346   2.775   0.310
 6101SOL     OW19201   6.957   1.827   5.696
 6101SOL    HW119202   6.920   1.769   5.623
 6101SOL    HW219203   0.035   1.842   5.681
 6102SOL     OW19204   3.445   1.104   5.186
 6102SOL    HW119205   3.374   1.033   5.178
 6102SOL    HW219206   3.484   1.122   5.096
 6103SOL     OW19207   6.458   0.292   4.633
 6103SOL    HW119208   6.522   0.229   4.679
 6103SOL    HW219209   6.401   0.241   4.569
 6104SOL     OW19210   6.117   1.350   0.076
 6104SOL    HW119211   6.182   1.418   0.111
 6104SOL    HW219212   6.103   1.366   6.998
 6105SOL     OW19213   3.540   5.707   6.054
 6105SOL    HW119214   3.519   5.636   5.988
 6105SOL    HW219215   3.527   5.797   6.011
 6106SOL     OW19216   3.016   4.950   6.263
 6106SOL    HW119217   3.079   5.011   6.215
 6106SOL    HW219218   2.968   5.002   6.334
 6107SOL     OW19219   2.132   4.883   4.827
 6107SOL    HW119220   2.176   4.801   4.791
 6107SOL    HW219221   2.155   4.961   4.769
 6108SOL     OW19222   0.748   2.333   4.053
 6108SOL    HW119223   0.812   2.368   3.984
 6108SOL    HW219224   0.688   2.408   4.083
 6109SOL     OW19225   5.706   3.286   0.633
 6109SOL    HW119226   5.653   3.214   0.588
 6109SOL    HW219227   5.672   3.375   0.603
 6110SOL     OW19228   3.523   1.577   5.603
 6110SOL    HW119229   3.623   1.570   5.609
 6110SOL    HW219230   3.485   1.486   5.583
 6111SOL     OW19231   1.323   4.859   2.963
 6111SOL    HW119232   1.254   4.814   3.019
 6111SOL    HW219233   1.371   4.927   3.017
 6112SOL     OW19234   1.451   1.736   2.902
 6112SOL    HW119235   1.384   1.697   2.839
 6112SOL    HW219236   1.501   1.809   2.856
 6113SOL     OW19237   1.349   0.177   5.875
 6113SOL    HW119238   1.410   0.207   5.802
 6113SOL    HW219239   1.397   0.182   5.963
 6114SOL     OW19240   5.056   5.677   0.380
 6114SOL    HW119241   5.070   5.579   0.399
 6114SOL    HW219242   5.001   5.687   0.298
 6115SOL     OW19243   4.725   5.238   2.655
 6115SOL    HW119244   4.750   5.326   2.612
 6115SOL    HW219245   4.691   5.255   2.747
 6116SOL     OW19246   3.413   1.135   2.068
 6116SOL    HW119247   3.410   1.228   2.031
 6116SOL    HW219248   3.330   1.086   2.042
 6117SOL     OW19249   5.850   6.598   4.621
 6117SOL    HW119250   5.948   6.580   4.621
 6117SOL    HW219251   5.822   6.629   4.530
 6118SOL     OW19252   6.205   1.211   3.403
 6118SOL    HW119253   6.291   1.160   3.396
 6118SOL    HW219254   6.177   1.241   3.312
 6119SOL     OW19255   0.381   5.517   4.857
 6119SOL    HW119256   0.327   5.435   4.841
 6119SOL    HW219257   0.389   5.569   4.772
 6120SOL     OW19258   3.005   6.832   2.841
 6120SOL    HW119259   3.040   6.739   2.831
 6120SOL    HW219260   3.075   6.898   2.813
 6121SOL     OW19261   0.109   2.678   3.333
 6121SOL    HW119262   0.109   2.778   3.322
 6121SOL    HW219263   0.194   2.650   3.380
 6122SOL     OW19264   3.997   6.270   3.283
 6122SOL    HW119265   4.059   6.341   3.249
 6122SOL    HW219266   4.005   6.264   3.383
 6123SOL     OW19267   6.548   1.121   1.778
 6123SOL    HW119268   6.532   1.193   1.845
 6123SOL    HW219269   6.471   1.058   1.778
 6124SOL     OW19270   3.214   0.292   5.969
 6124SOL    HW119271   3.191   0.248   6.056
 6124SOL    HW219272   3.130   0.325   5.926
 6125SOL     OW19273   1.784   5.866   1.389
 6125SOL    HW119274   1.733   5.894   1.471
 6125SOL    HW219275   1.726   5.878   1.308
 6126SOL     OW19276   5.204   4.810   3.300
 6126SOL    HW119277   5.248   4.899   3.304
 6126SOL    HW219278   5.274   4.738   3.302
 6127SOL     OW19279   2.054   5.822   1.273
 6127SOL    HW119280   1.966   5.802   1.314
 6127SOL    HW219281   2.070   5.921   1.273
 6128SOL     OW19282   6.997   2.356   0.619
 6128SOL    HW119283   6.986   2.261   0.591
 6128SOL    HW219284   0.073   2.373   0.641
 6129SOL     OW19285   5.984   4.077   2.254
 6129SOL    HW119286   5.901   4.087   2.199
 6129SOL    HW219287   6.002   4.162   2.304
 6130SOL     OW19288   4.963   2.683   3.706
 6130SOL    HW119289   4.921   2.773   3.715
 6130SOL    HW219290   4.914   2.617   3.763
 6131SOL     OW19291   6.712   1.388   5.636
 6131SOL    HW119292   6.678   1.389   5.542
 6131SOL    HW219293   6.677   1.307   5.683
 6132SOL     OW19294   4.060   2.872   1.066
 6132SOL    HW119295   4.025   2.910   0.980
 6132SOL    HW219296   3.987   2.872   1.134
 6133SOL     OW19297   0.750   3.651   1.055
 6133SOL    HW119298   0.701   3.738   1.054
 6133SOL    HW219299   0.726   3.601   1.138
 6134SOL     OW19300   3.878   3.886   6.817
 6134SOL    HW119301   3.916   3.802   6.855
 6134SOL    HW219302   3.784   3.869   6.786
 6135SOL     OW19303   6.458   6.955   0.903
 6135SOL    HW119304   6.415   0.009   0.851
 6135SOL    HW219305   6.437   6.966   1.000
 6136SOL     OW19306   0.875   2.047   1.945
 6136SOL    HW119307   0.850   2.144   1.942
 6136SOL    HW219308   0.817   1.996   1.882
 6137SOL     OW19309   2.762   6.276   5.965
 6137SOL    HW119310   2.692   6.206   5.954
 6137SOL    HW219311   2.846   6.245   5.918
 6138SOL     OW19312   3.934   6.374   2.617
 6138SOL    HW119313   4.010   6.421   2.572
 6138SOL    HW219314   3.969   6.298   2.671
 6139SOL     OW19315   1.655   3.935   4.929
 6139SOL    HW119316   1.738   3.963   4.977
 6139SOL    HW219317   1.680   3.877   4.851
 6140SOL     OW19318   1.438   6.706   1.798
 6140SOL    HW119319   1.505   6.765   1.752
 6140SOL    HW219320   1.457   6.705   1.896
 6141SOL     OW19321   6.499   5.403   5.926
 6141SOL    HW119322   6.594   5.377   5.942
 6141SOL    HW219323   6.439   5.339   5.973
 6142SOL     OW19324   6.663   3.599   1.080
 6142SOL    HW119325   6.674   3.499   1.082
 6142SOL    HW219326   6.609   3.625   1.000
 6143SOL     OW19327   5.814   4.981   6.751
 6143SOL    HW119328   5.902   4.936   6.766
 6143SOL    HW219329   5.751   4.917   6.706
 6144SOL     OW19330   0.189   3.957   3.757
 6144SOL    HW119331   0.269   3.983   3.702
 6144SOL    HW219332   0.218   3.895   3.830
 6145SOL     OW19333   4.920   5.600   2.763
 6145SOL    HW119334   4.991   5.555   2.709
 6145SOL    HW219335   4.833   5.599   2.713
 6146SOL     OW19336   5.227   1.393   3.070
 6146SOL    HW119337   5.275   1.330   3.132
 6146SOL    HW219338   5.129   1.386   3.085
 6147SOL     OW19339   2.091   3.829   2.796
 6147SOL    HW119340   2.107   3.757   2.864
 6147SOL    HW219341   2.077   3.917   2.843
 6148SOL     OW19342   6.271   6.336   4.127
 6148SOL    HW119343   6.327   6.344   4.210
 6148SOL    HW219344   6.198   6.403   4.130
 6149SOL     OW19345   3.425   5.232   3.169
 6149SOL    HW119346   3.469   5.144   3.150
 6149SOL    HW219347   3.434   5.253   3.266
 6150SOL     OW19348   4.752   5.953   5.514
 6150SOL    HW119349   4.790   5.911   5.596
 6150SOL    HW219350   4.682   6.020   5.539
 6151SOL     OW19351   5.299   2.098   5.470
 6151SOL    HW119352   5.205   2.068   5.489
 6151SOL    HW219353   5.302   2.198   5.468
 6152SOL     OW19354   5.743   4.675   6.413
 6152SOL    HW119355   5.686   4.605   6.370
 6152SOL    HW219356   5.685   4.738   6.464
 6153SOL     OW19357   4.161   3.938   1.462
 6153SOL    HW119358   4.195   4.022   1.504
 6153SOL    HW219359   4.189   3.860   1.517
 6154SOL     OW19360   5.763   2.549   2.920
 6154SOL    HW119361   5.736   2.553   2.824
 6154SOL    HW219362   5.742   2.458   2.957
 6155SOL     OW19363   0.259   3.595   5.081
 6155SOL    HW119364   0.339   3.622   5.028
 6155SOL    HW219365   0.289   3.568   5.173
 6156SOL     OW19366   6.138   6.983   2.562
 6156SOL    HW119367   6.153   6.926   2.480
 6156SOL    HW219368   6.096   6.927   2.634
 6157SOL     OW19369   1.777   1.718   4.373
 6157SOL    HW119370   1.750   1.644   4.433
 6157SOL    HW219371   1.838   1.684   4.302
 6158SOL     OW19372   4.496   0.782   6.630
 6158SOL    HW119373   4.525   0.739   6.545
 6158SOL    HW219374   4.555   0.751   6.705
 6159SOL     OW19375   5.524   3.010   0.897
 6159SOL    HW119376   5.434   3.029   0.936
 6159SOL    HW219377   5.522   3.032   0.799
 6160SOL     OW19378   5.643   6.106   1.456
 6160SOL    HW119379   5.667   6.010   1.468
 6160SOL    HW219380   5.659   6.155   1.541
 6161SOL     OW19381   5.360   0.102   6.197
 6161SOL    HW119382   5.302   0.055   6.264
 6161SOL    HW219383   5.454   0.107   6.231
 6162SOL     OW19384   0.451   5.242   4.384
 6162SOL    HW119385   0.495   5.167   4.335
 6162SOL    HW219386   0.519   5.291   4.438
 6163SOL     OW19387   6.198   3.790   0.484
 6163SOL    HW119388   6.161   3.697   0.490
 6163SOL    HW219389   6.146   3.842   0.416
 6164SOL     OW19390   2.957   1.518   0.927
 6164SOL    HW119391   2.918   1.464   0.853
 6164SOL    HW219392   2.935   1.475   1.015
 6165SOL     OW19393   4.202   6.475   0.408
 6165SOL    HW119394   4.241   6.456   0.498
 6165SOL    HW219395   4.245   6.416   0.340
 6166SOL     OW19396   2.612   1.015   6.112
 6166SOL    HW119397   2.659   1.101   6.092
 6166SOL    HW219398   2.513   1.029   6.108
 6167SOL     OW19399   0.464   4.184   2.937
 6167SOL    HW119400   0.371   4.166   2.971
 6167SOL    HW219401   0.510   4.246   3.000
 6168SOL     OW19402   0.423   4.018   2.357
 6168SOL    HW119403   0.339   4.037   2.306
 6168SOL    HW219404   0.420   3.924   2.391
 6169SOL     OW19405   2.218   4.094   2.417
 6169SOL    HW119406   2.234   4.149   2.335
 6169SOL    HW219407   2.304   4.084   2.468
 6170SOL     OW19408   6.988   3.567   5.287
 6170SOL    HW119409   0.067   3.577   5.281
 6170SOL    HW219410   6.964   3.469   5.286
 6171SOL     OW19411   0.313   0.239   6.954
 6171SOL    HW119412   0.369   0.185   7.017
 6171SOL    HW219413   0.249   0.179   6.906
 6172SOL     OW19414   0.534   3.099   2.562
 6172SOL    HW119415   0.576   3.012   2.588
 6172SOL    HW219416   0.483   3.136   2.639
 6173SOL     OW19417   6.585   6.870   2.914
 6173SOL    HW119418   6.588   6.931   2.993
 6173SOL    HW219419   6.596   6.775   2.945
 6174SOL     OW19420   5.597   4.141   2.803
 6174SOL    HW119421   5.605   4.240   2.802
 6174SOL    HW219422   5.524   4.114   2.866
 6175SOL     OW19423   2.323   1.071   4.882
 6175SOL    HW119424   2.232   1.030   4.890
 6175SOL    HW219425   2.314   1.164   4.846
 6176SOL     OW19426   4.277   4.348   5.334
 6176SOL    HW119427   4.321   4.371   5.247
 6176SOL    HW219428   4.312   4.261   5.367
 6177SOL     OW19429   6.150   1.360   2.165
 6177SOL    HW119430   6.247   1.383   2.172
 6177SOL    HW219431   6.097   1.443   2.145
 6178SOL     OW19432   5.160   4.090   2.182
 6178SOL    HW119433   5.189   4.185   2.195
 6178SOL    HW219434   5.116   4.056   2.264
 6179SOL     OW19435   6.390   4.928   3.107
 6179SOL    HW119436   6.307   4.945   3.161
 6179SOL    HW219437   6.393   4.991   3.030
 6180SOL     OW19438   2.941   4.763   0.217
 6180SOL    HW119439   3.029   4.771   0.263
 6180SOL    HW219440   2.901   4.854   0.205
 6181SOL     OW19441   4.600   4.948   6.131
 6181SOL    HW119442   4.501   4.933   6.129
 6181SOL    HW219443   4.620   5.041   6.103
 6182SOL     OW19444   3.178   3.263   0.262
 6182SOL    HW119445   3.267   3.218   0.254
 6182SOL    HW219446   3.137   3.240   0.351
 6183SOL     OW19447   0.975   2.101   1.195
 6183SOL    HW119448   0.997   2.164   1.269
 6183SOL    HW219449   0.880   2.071   1.204
 6184SOL     OW19450   2.673   0.837   5.728
 6184SOL    HW119451   2.639   0.931   5.725
 6184SOL    HW219452   2.638   0.786   5.649
 6185SOL     OW19453   3.453   2.738   5.440
 6185SOL    HW119454   3.469   2.802   5.515
 6185SOL    HW219455   3.355   2.722   5.430
 6186SOL     OW19456   6.227   2.026   2.140
 6186SOL    HW119457   6.240   2.036   2.239
 6186SOL    HW219458   6.305   1.978   2.101
 6187SOL     OW19459   5.423   1.798   5.534
 6187SOL    HW119460   5.337   1.824   5.578
 6187SOL    HW219461   5.456   1.712   5.574
 6188SOL     OW19462   1.685   1.923   5.390
 6188SOL    HW119463   1.773   1.941   5.435
 6188SOL    HW219464   1.695   1.847   5.325
 6189SOL     OW19465   5.209   6.371   2.332
 6189SOL    HW119466   5.163   6.282   2.331
 6189SOL    HW219467   5.145   6.443   2.357
 6190SOL     OW19468   0.169   2.524   5.374
 6190SOL    HW119469   0.182   2.426   5.392
 6190SOL    HW219470   0.120   2.535   5.287
 6191SOL     OW19471   3.397   3.629   6.750
 6191SOL    HW119472   3.394   3.721   6.710
 6191SOL    HW219473   3.329   3.623   6.824
 6192SOL     OW19474   2.485   1.962   0.461
 6192SOL    HW119475   2.428   2.021   0.404
 6192SOL    HW219476   2.481   1.992   0.556
 6193SOL     OW19477   5.035   5.378   6.753
 6193SOL    HW119478   5.024   5.284   6.787
 6193SOL    HW219479   5.127   5.411   6.773
 6194SOL     OW19480   6.516   0.262   6.195
 6194SOL    HW119481   6.476   0.354   6.205
 6194SOL    HW219482   6.548   0.250   6.101
 6195SOL     OW19483   5.801   6.568   5.534
 6195SOL    HW119484   5.763   6.483   5.498
 6195SOL    HW219485   5.745   6.645   5.504
 6196SOL     OW19486   5.248   3.723   3.270
 6196SOL    HW119487   5.332   3.675   3.246
 6196SOL    HW219488   5.169   3.674   3.232
 6197SOL     OW19489   3.035   5.306   2.177
 6197SOL    HW119490   3.129   5.327   2.204
 6197SOL    HW219491   2.983   5.391   2.169
 6198SOL     OW19492   6.467   6.599   6.449
 6198SOL    HW119493   6.542   6.539   6.420
 6198SOL    HW219494   6.406   6.548   6.509
 6199SOL     OW19495   1.168   0.048   1.094
 6199SOL    HW119496   1.136   7.015   1.015
 6199SOL    HW219497   1.266   0.066   1.084
 6200SOL     OW19498   1.858   2.191   2.516
 6200SOL    HW119499   1.774   2.242   2.534
 6200SOL    HW219500   1.858   2.160   2.421
 6201SOL     OW19501   6.749   3.742   3.777
 6201SOL    HW119502   6.735   3.757   3.875
 6201SOL    HW219503   6.847   3.743   3.757
 6202SOL     OW19504   5.981   1.400   2.917
 6202SOL    HW119505   6.028   1.446   2.841
 6202SOL    HW219506   5.958   1.307   2.889
 6203SOL     OW19507   6.040   6.096   1.944
 6203SOL    HW119508   5.964   6.153   1.977
 6203SOL    HW219509   6.120   6.111   2.002
 6204SOL     OW19510   1.858   0.063   5.062
 6204SOL    HW119511   1.935   0.074   4.998
 6204SOL    HW219512   1.825   6.989   5.060
 6205SOL     OW19513   4.938   4.330   3.223
 6205SOL    HW119514   5.036   4.313   3.233
 6205SOL    HW219515   4.887   4.245   3.240
 6206SOL     OW19516   4.899   2.075   3.808
 6206SOL    HW119517   4.993   2.096   3.832
 6206SOL    HW219518   4.850   2.041   3.888
 6207SOL     OW19519   2.131   5.973   3.987
 6207SOL    HW119520   2.138   6.030   4.069
 6207SOL    HW219521   2.093   5.884   4.010
 6208SOL     OW19522   4.023   2.784   5.816
 6208SOL    HW119523   3.999   2.765   5.721
 6208SOL    HW219524   4.048   2.880   5.825
 6209SOL     OW19525   3.932   3.799   0.805
 6209SOL    HW119526   3.928   3.821   0.902
 6209SOL    HW219527   3.996   3.723   0.791
 6210SOL     OW19528   4.508   2.491   3.434
 6210SOL    HW119529   4.432   2.431   3.409
 6210SOL    HW219530   4.588   2.470   3.376
 6211SOL     OW19531   4.967   5.434   4.721
 6211SOL    HW119532   5.050   5.489   4.729
 6211SOL    HW219533   4.898   5.486   4.671
 6212SOL     OW19534   4.261   4.124   6.010
 6212SOL    HW119535   4.240   4.169   5.923
 6212SOL    HW219536   4.284   4.028   5.993
 6213SOL     OW19537   4.189   5.864   0.506
 6213SOL    HW119538   4.207   5.948   0.557
 6213SOL    HW219539   4.209   5.878   0.410
 6214SOL     OW19540   6.192   5.733   5.865
 6214SOL    HW119541   6.195   5.828   5.835
 6214SOL    HW219542   6.273   5.685   5.834
 6215SOL     OW19543   5.451   2.415   5.902
 6215SOL    HW119544   5.448   2.346   5.975
 6215SOL    HW219545   5.448   2.506   5.943
 6216SOL     OW19546   4.766   2.489   3.246
 6216SOL    HW119547   4.788   2.470   3.342
 6216SOL    HW219548   4.811   2.574   3.217
 6217SOL     OW19549   0.880   4.535   2.272
 6217SOL    HW119550   0.929   4.520   2.358
 6217SOL    HW219551   0.791   4.491   2.277
 6218SOL     OW19552   4.461   6.701   6.966
 6218SOL    HW119553   4.534   6.708   6.898
 6218SOL    HW219554   4.447   6.790   7.009
 6219SOL     OW19555   1.639   0.804   5.816
 6219SOL    HW119556   1.658   0.880   5.753
 6219SOL    HW219557   1.557   0.755   5.785
 6220SOL     OW19558   4.325   0.629   0.928
 6220SOL    HW119559   4.279   0.695   0.868
 6220SOL    HW219560   4.386   0.571   0.873
 6221SOL     OW19561   6.125   5.428   6.729
 6221SOL    HW119562   6.137   5.389   6.821
 6221SOL    HW219563   6.196   5.391   6.669
 6222SOL     OW19564   6.470   1.453   2.888
 6222SOL    HW119565   6.439   1.460   2.793
 6222SOL    HW219566   6.404   1.398   2.940
 6223SOL     OW19567   0.602   4.945   3.764
 6223SOL    HW119568   0.522   4.886   3.752
 6223SOL    HW219569   0.623   4.990   3.677
 6224SOL     OW19570   4.633   2.052   6.957
 6224SOL    HW119571   4.561   2.047   6.888
 6224SOL    HW219572   4.665   2.147   6.965
 6225SOL     OW19573   4.342   0.139   6.299
 6225SOL    HW119574   4.400   0.220   6.292
 6225SOL    HW219575   4.338   0.109   6.394
 6226SOL     OW19576   0.726   1.460   4.418
 6226SOL    HW119577   0.800   1.416   4.366
 6226SOL    HW219578   0.765   1.528   4.480
 6227SOL     OW19579   3.165   3.907   5.274
 6227SOL    HW119580   3.183   4.005   5.270
 6227SOL    HW219581   3.101   3.882   5.202
 6228SOL     OW19582   2.012   2.581   3.746
 6228SOL    HW119583   1.951   2.541   3.676
 6228SOL    HW219584   2.006   2.526   3.830
 6229SOL     OW19585   0.399   3.989   4.099
 6229SOL    HW119586   0.348   3.943   4.027
 6229SOL    HW219587   0.347   3.984   4.185
 6230SOL     OW19588   0.635   1.092   2.005
 6230SOL    HW119589   0.537   1.075   2.011
 6230SOL    HW219590   0.660   1.114   1.911
 6231SOL     OW19591   0.610   5.262   0.346
 6231SOL    HW119592   0.631   5.360   0.351
 6231SOL    HW219593   0.588   5.228   0.437
 6232SOL     OW19594   4.660   1.538   6.871
 6232SOL    HW119595   4.603   1.473   6.921
 6232SOL    HW219596   4.646   1.630   6.907
 6233SOL     OW19597   0.356   3.517   1.524
 6233SOL    HW119598   0.377   3.611   1.548
 6233SOL    HW219599   0.257   3.505   1.517
 6234SOL     OW19600   5.755   0.138   4.547
 6234SOL    HW119601   5.813   0.219   4.542
 6234SOL    HW219602   5.803   0.060   4.506
 6235SOL     OW19603   6.875   0.925   2.769
 6235SOL    HW119604   6.875   0.970   2.679
 6235SOL    HW219605   6.857   0.827   2.757
 6236SOL     OW19606   0.507   4.643   1.108
 6236SOL    HW119607   0.443   4.681   1.175
 6236SOL    HW219608   0.536   4.714   1.044
 6237SOL     OW19609   3.944   1.087   1.144
 6237SOL    HW119610   3.949   0.988   1.131
 6237SOL    HW219611   4.022   1.117   1.199
 6238SOL     OW19612   2.099   6.692   4.596
 6238SOL    HW119613   2.042   6.666   4.518
 6238SOL    HW219614   2.051   6.670   4.681
 6239SOL     OW19615   4.723   1.312   2.874
 6239SOL    HW119616   4.663   1.341   2.948
 6239SOL    HW219617   4.677   1.327   2.786
 6240SOL     OW19618   4.165   3.425   4.408
 6240SOL    HW119619   4.247   3.369   4.398
 6240SOL    HW219620   4.123   3.440   4.319
 6241SOL     OW19621   3.169   6.745   3.353
 6241SOL    HW119622   3.218   6.687   3.418
 6241SOL    HW219623   3.074   6.716   3.347
 6242SOL     OW19624   2.875   1.873   3.951
 6242SOL    HW119625   2.839   1.868   3.858
 6242SOL    HW219626   2.919   1.962   3.965
 6243SOL     OW19627   5.482   1.509   6.134
 6243SOL    HW119628   5.468   1.447   6.056
 6243SOL    HW219629   5.565   1.563   6.119
 6244SOL     OW19630   4.261   4.666   3.012
 6244SOL    HW119631   4.314   4.581   3.019
 6244SOL    HW219632   4.276   4.707   2.922
 6245SOL     OW19633   0.766   4.537   2.665
 6245SOL    HW119634   0.809   4.453   2.698
 6245SOL    HW219635   0.679   4.551   2.712
 6246SOL     OW19636   6.937   6.366   4.484
 6246SOL    HW119637   6.941   6.288   4.546
 6246SOL    HW219638   6.843   6.378   4.451
 6247SOL     OW19639   6.277   6.217   2.662
 6247SOL    HW119640   6.320   6.267   2.587
 6247SOL    HW219641   6.263   6.279   2.740
 6248SOL     OW19642   3.607   2.979   6.775
 6248SOL    HW119643   3.696   2.935   6.767
 6248SOL    HW219644   3.569   2.994   6.683
 6249SOL     OW19645   5.849   2.945   1.235
 6249SOL    HW119646   5.854   2.905   1.144
 6249SOL    HW219647   5.755   2.969   1.257
 6250SOL     OW19648   6.927   0.363   0.613
 6250SOL    HW119649   0.001   0.395   0.628
 6250SOL    HW219650   6.864   0.441   0.621
 6251SOL     OW19651   2.833   6.682   4.513
 6251SOL    HW119652   2.736   6.691   4.492
 6251SOL    HW219653   2.887   6.684   4.429
 6252SOL     OW19654   2.847   5.479   0.073
 6252SOL    HW119655   2.888   5.472   7.001
 6252SOL    HW219656   2.795   5.395   0.092
 6253SOL     OW19657   3.205   5.000   4.522
 6253SOL    HW119658   3.250   5.060   4.588
 6253SOL    HW219659   3.266   4.984   4.444
 6254SOL     OW19660   6.781   6.119   0.198
 6254SOL    HW119661   6.718   6.075   0.134
 6254SOL    HW219662   6.863   6.149   0.149
 6255SOL     OW19663   0.337   1.310   1.471
 6255SOL    HW119664   0.347   1.248   1.549
 6255SOL    HW219665   0.425   1.353   1.451
 6256SOL     OW19666   4.599   5.513   2.370
 6256SOL    HW119667   4.641   5.601   2.347
 6256SOL    HW219668   4.649   5.439   2.324
 6257SOL     OW19669   4.110   4.259   1.595
 6257SOL    HW119670   4.177   4.212   1.652
 6257SOL    HW219671   4.018   4.226   1.617
 6258SOL     OW19672   4.289   6.369   5.672
 6258SOL    HW119673   4.208   6.370   5.731
 6258SOL    HW219674   4.267   6.320   5.587
 6259SOL     OW19675   2.832   0.958   4.813
 6259SOL    HW119676   2.733   0.971   4.810
 6259SOL    HW219677   2.869   0.968   4.721
 6260SOL     OW19678   2.168   1.551   0.440
 6260SOL    HW119679   2.099   1.565   0.511
 6260SOL    HW219680   2.246   1.610   0.458
 6261SOL     OW19681   3.856   6.331   1.329
 6261SOL    HW119682   3.823   6.311   1.237
 6261SOL    HW219683   3.956   6.341   1.327
 6262SOL     OW19684   6.444   0.497   1.837
 6262SOL    HW119685   6.370   0.482   1.903
 6262SOL    HW219686   6.512   0.424   1.847
 6263SOL     OW19687   6.212   6.360   5.604
 6263SOL    HW119688   6.205   6.456   5.631
 6263SOL    HW219689   6.158   6.304   5.667
 6264SOL     OW19690   1.754   6.498   1.155
 6264SOL    HW119691   1.837   6.466   1.108
 6264SOL    HW219692   1.762   6.596   1.172
 6265SOL     OW19693   4.755   1.367   0.147
 6265SOL    HW119694   4.808   1.349   0.064
 6265SOL    HW219695   4.660   1.387   0.122
 6266SOL     OW19696   2.552   5.573   3.233
 6266SOL    HW119697   2.579   5.667   3.252
 6266SOL    HW219698   2.468   5.573   3.179
 6267SOL     OW19699   1.388   6.677   4.846
 6267SOL    HW119700   1.339   6.622   4.777
 6267SOL    HW219701   1.425   6.616   4.916
 6268SOL     OW19702   3.882   0.698   1.328
 6268SOL    HW119703   3.961   0.752   1.299
 6268SOL    HW219704   3.835   0.745   1.402
 6269SOL     OW19705   5.532   5.373   0.777
 6269SOL    HW119706   5.607   5.427   0.813
 6269SOL    HW219707   5.509   5.404   0.684
 6270SOL     OW19708   1.998   6.418   0.401
 6270SOL    HW119709   1.980   6.320   0.408
 6270SOL    HW219710   2.027   6.441   0.309
 6271SOL     OW19711   6.184   3.290   6.481
 6271SOL    HW119712   6.176   3.209   6.539
 6271SOL    HW219713   6.099   3.304   6.431
 6272SOL     OW19714   6.892   6.891   0.489
 6272SOL    HW119715   6.832   6.816   0.516
 6272SOL    HW219716   6.863   6.975   0.535
 6273SOL     OW19717   6.859   0.621   1.722
 6273SOL    HW119718   6.806   0.700   1.756
 6273SOL    HW219719   6.830   0.539   1.771
 6274SOL     OW19720   3.029   5.610   4.754
 6274SOL    HW119721   3.041   5.519   4.795
 6274SOL    HW219722   2.984   5.600   4.665
 6275SOL     OW19723   2.037   5.068   6.918
 6275SOL    HW119724   2.107   5.139   6.924
 6275SOL    HW219725   1.952   5.108   6.885
 6276SOL     OW19726   1.552   5.909   2.819
 6276SOL    HW119727   1.569   5.969   2.741
 6276SOL    HW219728   1.575   5.958   2.904
 6277SOL     OW19729   5.499   3.337   1.546
 6277SOL    HW119730   5.427   3.291   1.598
 6277SOL    HW219731   5.585   3.331   1.596
 6278SOL     OW19732   2.980   0.382   6.317
 6278SOL    HW119733   2.909   0.347   6.257
 6278SOL    HW219734   2.973   0.482   6.321
 6279SOL     OW19735   2.870   0.217   1.726
 6279SOL    HW119736   2.943   0.203   1.658
 6279SOL    HW219737   2.849   0.315   1.732
 6280SOL     OW19738   6.879   1.946   0.073
 6280SOL    HW119739   6.879   1.847   0.060
 6280SOL    HW219740   6.909   1.991   7.008
 6281SOL     OW19741   5.739   4.479   5.277
 6281SOL    HW119742   5.738   4.474   5.177
 6281SOL    HW219743   5.830   4.508   5.307
 6282SOL     OW19744   0.242   3.664   5.735
 6282SOL    HW119745   0.179   3.645   5.811
 6282SOL    HW219746   0.335   3.640   5.761
 6283SOL     OW19747   1.395   5.869   5.017
 6283SOL    HW119748   1.436   5.789   4.973
 6283SOL    HW219749   1.317   5.840   5.073
 6284SOL     OW19750   2.281   4.736   6.405
 6284SOL    HW119751   2.339   4.759   6.483
 6284SOL    HW219752   2.203   4.798   6.402
 6285SOL     OW19753   0.942   4.055   3.575
 6285SOL    HW119754   0.921   4.021   3.667
 6285SOL    HW219755   1.031   4.101   3.576
 6286SOL     OW19756   1.115   2.815   5.385
 6286SOL    HW119757   1.184   2.744   5.368
 6286SOL    HW219758   1.110   2.875   5.306
 6287SOL     OW19759   4.646   4.674   4.913
 6287SOL    HW119760   4.745   4.688   4.911
 6287SOL    HW219761   4.615   4.649   4.821
 6288SOL     OW19762   3.731   3.222   0.030
 6288SOL    HW119763   3.689   3.179   0.110
 6288SOL    HW219764   3.757   3.316   0.053
 6289SOL     OW19765   2.981   4.673   5.688
 6289SOL    HW119766   2.898   4.655   5.635
 6289SOL    HW219767   2.998   4.598   5.751
 6290SOL     OW19768   5.115   5.668   4.778
 6290SOL    HW119769   5.053   5.745   4.796
 6290SOL    HW219770   5.210   5.697   4.792
 6291SOL     OW19771   3.467   3.320   3.271
 6291SOL    HW119772   3.490   3.344   3.366
 6291SOL    HW219773   3.408   3.391   3.233
 6292SOL     OW19774   1.607   2.989   4.486
 6292SOL    HW119775   1.516   2.983   4.446
 6292SOL    HW219776   1.631   3.085   4.499
 6293SOL     OW19777   4.646   1.351   6.671
 6293SOL    HW119778   4.690   1.390   6.590
 6293SOL    HW219779   4.642   1.420   6.743
 6294SOL     OW19780   1.769   1.495   2.995
 6294SOL    HW119781   1.820   1.479   2.911
 6294SOL    HW219782   1.765   1.593   3.013
 6295SOL     OW19783   5.676   3.839   5.612
 6295SOL    HW119784   5.584   3.842   5.650
 6295SOL    HW219785   5.739   3.799   5.678
 6296SOL     OW19786   0.538   2.477   6.521
 6296SOL    HW119787   0.446   2.515   6.521
 6296SOL    HW219788   0.579   2.491   6.612
 6297SOL     OW19789   5.770   0.484   4.165
 6297SOL    HW119790   5.771   0.567   4.221
 6297SOL    HW219791   5.848   0.485   4.103
 6298SOL     OW19792   6.073   5.088   0.876
 6298SOL    HW119793   6.151   5.101   0.816
 6298SOL    HW219794   6.098   5.111   0.970
 6299SOL     OW19795   4.767   1.740   2.520
 6299SOL    HW119796   4.696   1.743   2.450
 6299SOL    HW219797   4.841   1.804   2.497
 6300SOL     OW19798   3.044   0.392   6.584
 6300SOL    HW119799   3.024   0.371   6.488
 6300SOL    HW219800   3.136   0.359   6.607
 6301SOL     OW19801   3.466   6.304   0.368
 6301SOL    HW119802   3.441   6.378   0.430
 6301SOL    HW219803   3.531   6.243   0.414
 6302SOL     OW19804   2.905   1.102   5.874
 6302SOL    HW119805   2.819   1.092   5.824
 6302SOL    HW219806   2.933   1.012   5.909
 6303SOL     OW19807   0.996   5.810   5.446
 6303SOL    HW119808   1.035   5.753   5.518
 6303SOL    HW219809   0.961   5.752   5.372
 6304SOL     OW19810   4.544   1.341   3.512
 6304SOL    HW119811   4.467   1.337   3.576
 6304SOL    HW219812   4.511   1.366   3.421
 6305SOL     OW19813   1.173   6.158   5.798
 6305SOL    HW119814   1.264   6.177   5.836
 6305SOL    HW219815   1.111   6.233   5.821
 6306SOL     OW19816   0.051   4.318   3.974
 6306SOL    HW119817   0.122   4.356   3.915
 6306SOL    HW219818   6.980   4.348   3.942
 6307SOL     OW19819   3.993   3.621   3.036
 6307SOL    HW119820   3.965   3.715   3.014
 6307SOL    HW219821   3.993   3.608   3.135
 6308SOL     OW19822   0.490   2.203   0.180
 6308SOL    HW119823   0.555   2.151   0.236
 6308SOL    HW219824   0.402   2.208   0.228
 6309SOL     OW19825   1.853   6.015   4.253
 6309SOL    HW119826   1.803   6.047   4.333
 6309SOL    HW219827   1.895   6.093   4.206
 6310SOL     OW19828   1.202   6.422   3.303
 6310SOL    HW119829   1.178   6.440   3.399
 6310SOL    HW219830   1.192   6.324   3.284
 6311SOL     OW19831   4.761   0.610   5.615
 6311SOL    HW119832   4.818   0.668   5.557
 6311SOL    HW219833   4.711   0.668   5.680
 6312SOL     OW19834   4.126   6.528   6.489
 6312SOL    HW119835   4.077   6.496   6.570
 6312SOL    HW219836   4.221   6.498   6.494
 6313SOL     OW19837   5.780   6.193   3.798
 6313SOL    HW119838   5.723   6.251   3.856
 6313SOL    HW219839   5.740   6.101   3.793
 6314SOL     OW19840   1.684   6.847   2.174
 6314SOL    HW119841   1.744   6.769   2.191
 6314SOL    HW219842   1.736   6.932   2.181
 6315SOL     OW19843   2.496   2.556   4.195
 6315SOL    HW119844   2.446   2.494   4.136
 6315SOL    HW219845   2.433   2.622   4.236
 6316SOL     OW19846   5.569   1.055   4.610
 6316SOL    HW119847   5.530   1.145   4.629
 6316SOL    HW219848   5.516   0.984   4.658
 6317SOL     OW19849   5.091   4.696   1.918
 6317SOL    HW119850   5.083   4.605   1.878
 6317SOL    HW219851   5.006   4.719   1.965
 6318SOL     OW19852   6.582   7.007   6.186
 6318SOL    HW119853   6.583   6.953   6.270
 6318SOL    HW219854   6.553   0.081   6.207
 6319SOL     OW19855   5.397   1.786   4.745
 6319SOL    HW119856   5.485   1.738   4.745
 6319SOL    HW219857   5.367   1.800   4.651
 6320SOL     OW19858   6.300   0.174   4.976
 6320SOL    HW119859   6.249   0.250   5.016
 6320SOL    HW219860   6.398   0.198   4.973
 6321SOL     OW19861   5.861   2.023   0.166
 6321SOL    HW119862   5.938   1.966   0.195
 6321SOL    HW219863   5.869   2.114   0.207
 6322SOL     OW19864   1.605   0.978   1.522
 6322SOL    HW119865   1.644   1.035   1.594
 6322SOL    HW219866   1.505   0.981   1.527
 6323SOL     OW19867   2.778   3.281   1.379
 6323SOL    HW119868   2.713   3.352   1.351
 6323SOL    HW219869   2.772   3.203   1.317
 6324SOL     OW19870   4.704   1.458   0.867
 6324SOL    HW119871   4.694   1.489   0.772
 6324SOL    HW219872   4.668   1.528   0.929
 6325SOL     OW19873   1.654   2.559   3.448
 6325SOL    HW119874   1.655   2.556   3.348
 6325SOL    HW219875   1.735   2.512   3.483
 6326SOL     OW19876   5.666   4.812   5.651
 6326SOL    HW119877   5.622   4.760   5.724
 6326SOL    HW219878   5.763   4.823   5.672
 6327SOL     OW19879   0.307   0.239   3.411
 6327SOL    HW119880   0.283   0.212   3.317
 6327SOL    HW219881   0.306   0.158   3.469
 6328SOL     OW19882   4.522   3.868   5.367
 6328SOL    HW119883   4.588   3.799   5.397
 6328SOL    HW219884   4.568   3.935   5.309
 6329SOL     OW19885   1.548   2.753   5.486
 6329SOL    HW119886   1.587   2.844   5.471
 6329SOL    HW219887   1.481   2.733   5.415
 6330SOL     OW19888   5.547   1.488   3.701
 6330SOL    HW119889   5.536   1.543   3.619
 6330SOL    HW219890   5.462   1.440   3.720
 6331SOL     OW19891   0.247   3.314   3.151
 6331SOL    HW119892   0.213   3.291   3.242
 6331SOL    HW219893   0.305   3.241   3.116
 6332SOL     OW19894   2.667   1.651   0.634
 6332SOL    HW119895   2.681   1.698   0.721
 6332SOL    HW219896   2.674   1.552   0.647
 6333SOL     OW19897   4.861   1.248   0.632
 6333SOL    HW119898   4.762   1.236   0.636
 6333SOL    HW219899   4.904   1.204   0.711
 6334SOL     OW19900   1.762   1.128   1.701
 6334SOL    HW119901   1.763   1.223   1.733
 6334SOL    HW219902   1.852   1.104   1.666
 6335SOL     OW19903   6.140   1.741   0.956
 6335SOL    HW119904   6.136   1.778   1.049
 6335SOL    HW219905   6.208   1.667   0.952
 6336SOL     OW19906   0.561   3.083   5.933
 6336SOL    HW119907   0.522   3.174   5.916
 6336SOL    HW219908   0.649   3.075   5.886
 6337SOL     OW19909   4.489   5.774   4.596
 6337SOL    HW119910   4.579   5.788   4.554
 6337SOL    HW219911   4.491   5.691   4.651
 6338SOL     OW19912   2.977   1.605   3.965
 6338SOL    HW119913   2.952   1.701   3.951
 6338SOL    HW219914   2.905   1.560   4.018
 6339SOL     OW19915   0.941   4.618   3.387
 6339SOL    HW119916   1.010   4.689   3.403
 6339SOL    HW219917   0.863   4.658   3.340
 6340SOL     OW19918   1.908   4.518   1.307
 6340SOL    HW119919   1.983   4.458   1.335
 6340SOL    HW219920   1.821   4.480   1.341
 6341SOL     OW19921   0.806   4.377   3.574
 6341SOL    HW119922   0.776   4.282   3.582
 6341SOL    HW219923   0.887   4.392   3.631
 6342SOL     OW19924   1.992   1.998   1.806
 6342SOL    HW119925   1.966   1.983   1.902
 6342SOL    HW219926   1.992   2.096   1.786
 6343SOL     OW19927   2.223   5.529   0.876
 6343SOL    HW119928   2.175   5.476   0.945
 6343SOL    HW219929   2.320   5.501   0.874
 6344SOL     OW19930   6.428   1.480   3.920
 6344SOL    HW119931   6.433   1.469   3.820
 6344SOL    HW219932   6.389   1.569   3.942
 6345SOL     OW19933   5.734   3.392   1.719
 6345SOL    HW119934   5.817   3.426   1.673
 6345SOL    HW219935   5.686   3.468   1.762
 6346SOL     OW19936   6.782   4.534   5.117
 6346SOL    HW119937   6.744   4.584   5.194
 6346SOL    HW219938   6.709   4.513   5.051
 6347SOL     OW19939   1.834   2.080   2.762
 6347SOL    HW119940   1.805   2.160   2.814
 6347SOL    HW219941   1.833   2.101   2.665
 6348SOL     OW19942   6.897   2.301   6.147
 6348SOL    HW119943   6.900   2.203   6.127
 6348SOL    HW219944   6.974   2.325   6.206
 6349SOL     OW19945   6.736   1.353   6.752
 6349SOL    HW119946   6.668   1.379   6.820
 6349SOL    HW219947   6.816   1.413   6.758
 6350SOL     OW19948   1.763   5.106   1.544
 6350SOL    HW119949   1.823   5.121   1.623
 6350SOL    HW219950   1.668   5.104   1.575
 6351SOL     OW19951   5.649   2.908   2.349
 6351SOL    HW119952   5.582   2.852   2.396
 6351SOL    HW219953   5.740   2.872   2.365
 6352SOL     OW19954   2.699   0.493   4.473
 6352SOL    HW119955   2.737   0.539   4.392
 6352SOL    HW219956   2.769   0.436   4.515
 6353SOL     OW19957   3.659   6.238   6.348
 6353SOL    HW119958   3.677   6.143   6.325
 6353SOL    HW219959   3.560   6.255   6.345
 6354SOL     OW19960   4.549   5.156   2.186
 6354SOL    HW119961   4.504   5.111   2.263
 6354SOL    HW219962   4.501   5.134   2.101
 6355SOL     OW19963   2.571   5.015   0.767
 6355SOL    HW119964   2.670   5.024   0.777
 6355SOL    HW219965   2.526   5.046   0.850
 6356SOL     OW19966   6.183   4.250   6.851
 6356SOL    HW119967   6.221   4.340   6.829
 6356SOL    HW219968   6.110   4.228   6.786
 6357SOL     OW19969   5.555   1.396   1.355
 6357SOL    HW119970   5.475   1.403   1.296
 6357SOL    HW219971   5.548   1.315   1.413
 6358SOL     OW19972   1.060   2.269   6.906
 6358SOL    HW119973   0.996   2.225   6.843
 6358SOL    HW219974   1.141   2.299   6.857
 6359SOL     OW19975   5.480   6.051   0.719
 6359SOL    HW119976   5.501   6.119   0.648
 6359SOL    HW219977   5.408   6.087   0.778
 6360SOL     OW19978   0.948   2.724   1.977
 6360SOL    HW119979   1.025   2.766   1.929
 6360SOL    HW219980   0.924   2.638   1.932
 6361SOL     OW19981   0.591   0.415   6.770
 6361SOL    HW119982   0.642   0.340   6.813
 6361SOL    HW219983   0.504   0.381   6.736
 6362SOL     OW19984   1.279   5.653   6.937
 6362SOL    HW119985   1.203   5.717   6.922
 6362SOL    HW219986   1.355   5.702   6.980
 6363SOL     OW19987   2.713   4.809   3.566
 6363SOL    HW119988   2.635   4.768   3.613
 6363SOL    HW219989   2.741   4.751   3.490
 6364SOL     OW19990   2.435   2.723   4.571
 6364SOL    HW119991   2.507   2.786   4.602
 6364SOL    HW219992   2.374   2.701   4.647
 6365SOL     OW19993   5.612   5.349   3.333
 6365SOL    HW119994   5.611   5.266   3.277
 6365SOL    HW219995   5.518   5.377   3.353
 6366SOL     OW19996   6.005   6.895   4.765
 6366SOL    HW119997   5.973   6.977   4.814
 6366SOL    HW219998   6.043   6.830   4.830
 6367SOL     OW19999   1.619   2.286   2.594
 6367SOL    HW120000   1.578   2.376   2.584
 6367SOL    HW220001   1.583   2.243   2.677
 6368SOL     OW20002   4.740   2.870   4.635
 6368SOL    HW120003   4.803   2.941   4.604
 6368SOL    HW220004   4.726   2.878   4.733
 6369SOL     OW20005   3.109   5.847   6.650
 6369SOL    HW120006   3.021   5.866   6.692
 6369SOL    HW220007   3.115   5.893   6.562
 6370SOL     OW20008   5.900   3.211   4.510
 6370SOL    HW120009   5.839   3.195   4.432
 6370SOL    HW220010   5.936   3.124   4.543
 6371SOL     OW20011   5.123   4.353   1.854
 6371SOL    HW120012   5.104   4.255   1.863
 6371SOL    HW220013   5.222   4.368   1.857
 6372SOL     OW20014   6.704   1.612   2.910
 6372SOL    HW120015   6.758   1.586   2.830
 6372SOL    HW220016   6.614   1.569   2.905
 6373SOL     OW20017   4.708   4.410   1.441
 6373SOL    HW120018   4.757   4.445   1.521
 6373SOL    HW220019   4.610   4.409   1.459
 6374SOL     OW20020   4.436   3.133   0.379
 6374SOL    HW120021   4.429   3.224   0.340
 6374SOL    HW220022   4.509   3.131   0.446
 6375SOL     OW20023   6.378   2.740   1.493
 6375SOL    HW120024   6.355   2.771   1.585
 6375SOL    HW220025   6.352   2.811   1.427
 6376SOL     OW20026   3.695   1.331   6.532
 6376SOL    HW120027   3.793   1.311   6.526
 6376SOL    HW220028   3.649   1.298   6.449
 6377SOL     OW20029   6.920   0.777   0.075
 6377SOL    HW120030   6.876   0.812   7.012
 6377SOL    HW220031   6.864   0.703   0.113
 6378SOL     OW20032   5.387   5.822   3.015
 6378SOL    HW120033   5.289   5.804   3.013
 6378SOL    HW220034   5.415   5.843   3.109
 6379SOL     OW20035   2.418   5.926   0.493
 6379SOL    HW120036   2.340   5.939   0.555
 6379SOL    HW220037   2.385   5.923   0.399
 6380SOL     OW20038   1.520   3.701   5.006
 6380SOL    HW120039   1.556   3.635   5.072
 6380SOL    HW220040   1.584   3.776   4.994
 6381SOL     OW20041   4.423   2.595   0.336
 6381SOL    HW120042   4.413   2.497   0.324
 6381SOL    HW220043   4.333   2.638   0.334
 6382SOL     OW20044   2.006   1.684   1.673
 6382SOL    HW120045   2.073   1.757   1.686
 6382SOL    HW220046   2.004   1.626   1.755
 6383SOL     OW20047   1.970   2.600   2.248
 6383SOL    HW120048   1.989   2.573   2.343
 6383SOL    HW220049   1.996   2.695   2.234
 6384SOL     OW20050   6.368   2.737   2.647
 6384SOL    HW120051   6.324   2.710   2.733
 6384SOL    HW220052   6.455   2.782   2.667
 6385SOL     OW20053   6.728   3.077   1.550
 6385SOL    HW120054   6.825   3.064   1.573
 6385SOL    HW220055   6.684   2.988   1.542
 6386SOL     OW20056   2.482   3.640   0.281
 6386SOL    HW120057   2.448   3.728   0.313
 6386SOL    HW220058   2.582   3.640   0.284
 6387SOL     OW20059   0.073   0.750   6.309
 6387SOL    HW120060   0.057   0.797   6.222
 6387SOL    HW220061   0.007   0.676   6.320
 6388SOL     OW20062   6.329   5.441   2.102
 6388SOL    HW120063   6.344   5.540   2.099
 6388SOL    HW220064   6.380   5.402   2.179
 6389SOL     OW20065   1.033   0.961   6.603
 6389SOL    HW120066   1.118   0.992   6.561
 6389SOL    HW220067   0.963   0.949   6.533
 6390SOL     OW20068   6.810   1.283   6.301
 6390SOL    HW120069   6.801   1.246   6.394
 6390SOL    HW220070   6.809   1.383   6.305
 6391SOL     OW20071   0.784   1.359   5.168
 6391SOL    HW120072   0.802   1.301   5.248
 6391SOL    HW220073   0.818   1.451   5.185
 6392SOL     OW20074   4.350   6.790   3.572
 6392SOL    HW120075   4.252   6.785   3.554
 6392SOL    HW220076   4.383   6.701   3.605
 6393SOL     OW20077   6.920   5.299   0.299
 6393SOL    HW120078   6.836   5.291   0.246
 6393SOL    HW220079   6.985   5.358   0.250
 6394SOL     OW20080   1.405   5.549   1.418
 6394SOL    HW120081   1.432   5.477   1.481
 6394SOL    HW220082   1.314   5.583   1.442
 6395SOL     OW20083   2.074   4.771   3.265
 6395SOL    HW120084   2.043   4.695   3.208
 6395SOL    HW220085   2.173   4.765   3.277
 6396SOL     OW20086   0.870   3.694   0.257
 6396SOL    HW120087   0.845   3.627   0.327
 6396SOL    HW220088   0.874   3.649   0.168
 6397SOL     OW20089   5.878   3.163   3.556
 6397SOL    HW120090   5.877   3.236   3.624
 6397SOL    HW220091   5.809   3.094   3.579
 6398SOL     OW20092   1.455   0.074   0.971
 6398SOL    HW120093   1.539   0.031   0.937
 6398SOL    HW220094   1.454   0.072   1.071
 6399SOL     OW20095   3.014   0.854   6.024
 6399SOL    HW120096   2.948   0.860   6.099
 6399SOL    HW220097   3.037   0.758   6.007
 6400SOL     OW20098   1.210   6.054   2.939
 6400SOL    HW120099   1.236   5.958   2.925
 6400SOL    HW220100   1.251   6.110   2.868
 6401SOL     OW20101   3.642   6.273   3.864
 6401SOL    HW120102   3.683   6.271   3.773
 6401SOL    HW220103   3.706   6.233   3.930
 6402SOL     OW20104   1.408   5.235   5.150
 6402SOL    HW120105   1.308   5.225   5.153
 6402SOL    HW220106   1.431   5.332   5.156
 6403SOL     OW20107   4.632   6.003   4.796
 6403SOL    HW120108   4.651   6.086   4.848
 6403SOL    HW220109   4.533   5.985   4.796
 6404SOL     OW20110   4.115   0.267   2.261
 6404SOL    HW120111   4.047   0.308   2.322
 6404SOL    HW220112   4.069   0.205   2.197
 6405SOL     OW20113   5.128   1.611   2.272
 6405SOL    HW120114   5.175   1.634   2.358
 6405SOL    HW220115   5.080   1.524   2.283
 6406SOL     OW20116   0.836   2.562   2.979
 6406SOL    HW120117   0.877   2.496   3.042
 6406SOL    HW220118   0.738   2.570   2.999
 6407SOL     OW20119   1.868   6.086   2.791
 6407SOL    HW120120   1.947   6.027   2.804
 6407SOL    HW220121   1.854   6.143   2.872
 6408SOL     OW20122   6.584   0.607   0.941
 6408SOL    HW120123   6.594   0.551   1.023
 6408SOL    HW220124   6.589   0.704   0.967
 6409SOL     OW20125   5.621   5.095   3.199
 6409SOL    HW120126   5.555   5.026   3.168
 6409SOL    HW220127   5.705   5.088   3.144
 6410SOL     OW20128   2.277   1.335   5.628
 6410SOL    HW120129   2.233   1.420   5.657
 6410SOL    HW220130   2.366   1.356   5.586
 6411SOL     OW20131   0.588   2.327   2.061
 6411SOL    HW120132   0.499   2.333   2.016
 6411SOL    HW220133   0.655   2.290   1.997
 6412SOL     OW20134   3.232   0.170   0.198
 6412SOL    HW120135   3.169   0.248   0.196
 6412SOL    HW220136   3.300   0.180   0.126
 6413SOL     OW20137   4.984   5.976   3.705
 6413SOL    HW120138   5.004   6.073   3.722
 6413SOL    HW220139   4.894   5.967   3.663
 6414SOL     OW20140   1.840   0.232   0.036
 6414SOL    HW120141   1.833   0.144   0.083
 6414SOL    HW220142   1.754   0.283   0.046
 6415SOL     OW20143   0.472   2.317   3.058
 6415SOL    HW120144   0.448   2.335   2.962
 6415SOL    HW220145   0.397   2.269   3.103
 6416SOL     OW20146   2.628   0.050   0.326
 6416SOL    HW120147   2.545   0.105   0.330
 6416SOL    HW220148   2.605   6.975   0.302
 6417SOL     OW20149   3.764   1.744   0.293
 6417SOL    HW120150   3.785   1.676   0.363
 6417SOL    HW220151   3.694   1.709   0.231
 6418SOL     OW20152   4.731   5.227   0.876
 6418SOL    HW120153   4.718   5.147   0.934
 6418SOL    HW220154   4.820   5.222   0.830
 6419SOL     OW20155   0.687   0.151   6.918
 6419SOL    HW120156   0.697   0.062   6.874
 6419SOL    HW220157   0.764   0.167   6.979
 6420SOL     OW20158   1.994   4.033   4.225
 6420SOL    HW120159   1.982   4.092   4.145
 6420SOL    HW220160   2.049   4.081   4.293
 6421SOL     OW20161   5.153   0.550   1.580
 6421SOL    HW120162   5.091   0.474   1.595
 6421SOL    HW220163   5.132   0.623   1.646
 6422SOL     OW20164   6.378   2.198   4.648
 6422SOL    HW120165   6.451   2.266   4.649
 6422SOL    HW220166   6.415   2.110   4.620
 6423SOL     OW20167   2.511   4.451   4.260
 6423SOL    HW120168   2.420   4.481   4.289
 6423SOL    HW220169   2.506   4.354   4.234
 6424SOL     OW20170   6.483   4.872   4.738
 6424SOL    HW120171   6.557   4.927   4.698
 6424SOL    HW220172   6.420   4.844   4.665
 6425SOL     OW20173   6.974   6.048   3.723
 6425SOL    HW120174   6.997   6.137   3.762
 6425SOL    HW220175   0.033   5.987   3.729
 6426SOL     OW20176   4.502   4.489   4.753
 6426SOL    HW120177   4.457   4.452   4.672
 6426SOL    HW220178   4.435   4.503   4.826
 6427SOL     OW20179   3.615   2.983   3.557
 6427SOL    HW120180   3.657   3.069   3.528
 6427SOL    HW220181   3.577   2.936   3.477
 6428SOL     OW20182   4.921   2.735   0.335
 6428SOL    HW120183   4.959   2.643   0.321
 6428SOL    HW220184   4.831   2.740   0.294
 6429SOL     OW20185   2.420   0.648   5.101
 6429SOL    HW120186   2.462   0.732   5.065
 6429SOL    HW220187   2.488   0.574   5.100
 6430SOL     OW20188   6.802   0.254   5.200
 6430SOL    HW120189   6.785   0.188   5.273
 6430SOL    HW220190   6.804   0.346   5.239
 6431SOL     OW20191   3.943   5.034   1.700
 6431SOL    HW120192   3.849   5.025   1.669
 6431SOL    HW220193   3.974   4.946   1.736
 6432SOL     OW20194   4.618   4.174   5.701
 6432SOL    HW120195   4.642   4.253   5.758
 6432SOL    HW220196   4.593   4.205   5.610
 6433SOL     OW20197   2.524   5.734   6.805
 6433SOL    HW120198   2.497   5.718   6.710
 6433SOL    HW220199   2.461   5.800   6.846
 6434SOL     OW20200   3.671   5.379   5.777
 6434SOL    HW120201   3.764   5.344   5.789
 6434SOL    HW220202   3.614   5.309   5.733
 6435SOL     OW20203   4.965   1.037   0.793
 6435SOL    HW120204   4.901   0.963   0.810
 6435SOL    HW220205   5.001   1.030   0.699
 6436SOL     OW20206   0.051   4.285   4.453
 6436SOL    HW120207   0.088   4.209   4.507
 6436SOL    HW220208   0.031   4.254   4.361
 6437SOL     OW20209   0.871   2.031   5.320
 6437SOL    HW120210   0.879   2.109   5.257
 6437SOL    HW220211   0.916   2.053   5.406
 6438SOL     OW20212   0.403   5.927   0.229
 6438SOL    HW120213   0.497   5.929   0.262
 6438SOL    HW220214   0.402   5.923   0.129
 6439SOL     OW20215   5.739   0.305   2.652
 6439SOL    HW120216   5.682   0.322   2.572
 6439SOL    HW220217   5.774   0.211   2.649
 6440SOL     OW20218   2.685   1.308   6.779
 6440SOL    HW120219   2.681   1.392   6.833
 6440SOL    HW220220   2.738   1.323   6.696
 6441SOL     OW20221   0.851   1.246   2.655
 6441SOL    HW120222   0.763   1.220   2.695
 6441SOL    HW220223   0.850   1.225   2.557
 6442SOL     OW20224   3.245   2.954   5.373
 6442SOL    HW120225   3.217   2.860   5.393
 6442SOL    HW220226   3.169   3.016   5.393
 6443SOL     OW20227   4.736   2.598   0.704
 6443SOL    HW120228   4.830   2.634   0.703
 6443SOL    HW220229   4.714   2.562   0.613
 6444SOL     OW20230   6.823   3.350   5.009
 6444SOL    HW120231   6.808   3.251   5.000
 6444SOL    HW220232   6.736   3.398   4.997
 6445SOL     OW20233   2.975   3.650   3.261
 6445SOL    HW120234   3.012   3.691   3.178
 6445SOL    HW220235   2.958   3.553   3.246
 6446SOL     OW20236   2.384   0.916   6.565
 6446SOL    HW120237   2.455   0.974   6.605
 6446SOL    HW220238   2.298   0.967   6.563
 6447SOL     OW20239   6.456   3.465   1.747
 6447SOL    HW120240   6.530   3.402   1.769
 6447SOL    HW220241   6.427   3.450   1.653
 6448SOL     OW20242   3.921   5.602   1.309
 6448SOL    HW120243   3.928   5.510   1.271
 6448SOL    HW220244   3.899   5.596   1.407
 6449SOL     OW20245   2.486   5.415   0.859
 6449SOL    HW120246   2.562   5.476   0.837
 6449SOL    HW220247   2.498   5.378   0.951
 6450SOL     OW20248   7.010   4.276   1.110
 6450SOL    HW120249   0.080   4.319   1.101
 6450SOL    HW220250   6.964   4.275   1.020
 6451SOL     OW20251   3.425   2.369   1.528
 6451SOL    HW120252   3.426   2.334   1.434
 6451SOL    HW220253   3.516   2.403   1.551
 6452SOL     OW20254   4.776   2.429   3.506
 6452SOL    HW120255   4.754   2.526   3.521
 6452SOL    HW220256   4.721   2.373   3.569
 6453SOL     OW20257   3.446   0.442   1.061
 6453SOL    HW120258   3.408   0.482   1.143
 6453SOL    HW220259   3.532   0.488   1.038
 6454SOL     OW20260   5.508   2.540   3.353
 6454SOL    HW120261   5.484   2.518   3.259
 6454SOL    HW220262   5.434   2.593   3.395
 6455SOL     OW20263   6.182   3.645   3.313
 6455SOL    HW120264   6.141   3.706   3.245
 6455SOL    HW220265   6.244   3.697   3.372
 6456SOL     OW20266   6.126   1.246   3.107
 6456SOL    HW120267   6.052   1.185   3.135
 6456SOL    HW220268   6.090   1.318   3.048
 6457SOL     OW20269   4.428   0.699   2.125
 6457SOL    HW120270   4.435   0.648   2.039
 6457SOL    HW220271   4.353   0.662   2.180
 6458SOL     OW20272   0.381   4.782   3.723
 6458SOL    HW120273   0.383   4.698   3.778
 6458SOL    HW220274   0.393   4.759   3.627
 6459SOL     OW20275   6.509   3.130   2.402
 6459SOL    HW120276   6.460   3.187   2.468
 6459SOL    HW220277   6.573   3.188   2.351
 6460SOL     OW20278   1.108   5.854   6.521
 6460SOL    HW120279   1.181   5.858   6.590
 6460SOL    HW220280   1.027   5.811   6.560
 6461SOL     OW20281   3.089   5.318   0.858
 6461SOL    HW120282   2.994   5.341   0.879
 6461SOL    HW220283   3.135   5.398   0.818
 6462SOL     OW20284   1.751   3.503   5.505
 6462SOL    HW120285   1.763   3.411   5.543
 6462SOL    HW220286   1.685   3.500   5.431
 6463SOL     OW20287   4.784   1.956   1.632
 6463SOL    HW120288   4.762   1.859   1.626
 6463SOL    HW220289   4.770   1.999   1.542
 6464SOL     OW20290   0.800   5.590   4.637
 6464SOL    HW120291   0.797   5.528   4.716
 6464SOL    HW220292   0.888   5.580   4.590
 6465SOL     OW20293   3.853   0.994   2.911
 6465SOL    HW120294   3.864   1.032   2.819
 6465SOL    HW220295   3.877   0.897   2.910
 6466SOL     OW20296   0.573   2.936   0.063
 6466SOL    HW120297   0.637   2.875   0.110
 6466SOL    HW220298   0.497   2.957   0.124
 6467SOL     OW20299   3.233   1.576   0.926
 6467SOL    HW120300   3.196   1.656   0.971
 6467SOL    HW220301   3.169   1.499   0.935
 6468SOL     OW20302   2.702   0.845   1.118
 6468SOL    HW120303   2.637   0.787   1.071
 6468SOL    HW220304   2.789   0.844   1.069
 6469SOL     OW20305   3.273   1.751   3.538
 6469SOL    HW120306   3.195   1.734   3.478
 6469SOL    HW220307   3.260   1.838   3.586
 6470SOL     OW20308   6.538   1.842   0.056
 6470SOL    HW120309   6.564   1.915   7.012
 6470SOL    HW220310   6.606   1.769   0.052
 6471SOL     OW20311   6.933   6.169   5.610
 6471SOL    HW120312   6.839   6.137   5.628
 6471SOL    HW220313   6.954   6.158   5.513
 6472SOL     OW20314   7.017   6.296   2.654
 6472SOL    HW120315   6.923   6.319   2.682
 6472SOL    HW220316   0.059   6.313   2.731
 6473SOL     OW20317   2.270   1.434   3.962
 6473SOL    HW120318   2.193   1.486   3.999
 6473SOL    HW220319   2.300   1.366   4.029
 6474SOL     OW20320   3.759   5.616   5.384
 6474SOL    HW120321   3.829   5.550   5.411
 6474SOL    HW220322   3.775   5.644   5.289
 6475SOL     OW20323   5.598   4.617   2.486
 6475SOL    HW120324   5.665   4.685   2.457
 6475SOL    HW220325   5.645   4.538   2.526
 6476SOL     OW20326   3.476   1.454   6.326
 6476SOL    HW120327   3.379   1.437   6.343
 6476SOL    HW220328   3.514   1.510   6.400
 6477SOL     OW20329   6.322   6.432   1.371
 6477SOL    HW120330   6.274   6.346   1.356
 6477SOL    HW220331   6.415   6.413   1.402
 6478SOL     OW20332   3.578   5.833   1.456
 6478SOL    HW120333   3.541   5.886   1.533
 6478SOL    HW220334   3.577   5.736   1.479
 6479SOL     OW20335   3.497   6.207   4.243
 6479SOL    HW120336   3.568   6.268   4.208
 6479SOL    HW220337   3.453   6.160   4.166
 6480SOL     OW20338   2.945   1.492   7.000
 6480SOL    HW120339   2.867   1.523   0.036
 6480SOL    HW220340   3.029   1.502   0.034
 6481SOL     OW20341   3.310   2.710   1.753
 6481SOL    HW120342   3.298   2.767   1.835
 6481SOL    HW220343   3.396   2.659   1.760
 6482SOL     OW20344   6.240   4.110   5.243
 6482SOL    HW120345   6.168   4.076   5.181
 6482SOL    HW220346   6.320   4.051   5.236
 6483SOL     OW20347   1.154   5.853   5.208
 6483SOL    HW120348   1.091   5.826   5.281
 6483SOL    HW220349   1.239   5.888   5.248
 6484SOL     OW20350   2.645   0.911   4.211
 6484SOL    HW120351   2.654   0.830   4.153
 6484SOL    HW220352   2.602   0.886   4.298
 6485SOL     OW20353   2.308   0.133   4.238
 6485SOL    HW120354   2.389   0.178   4.200
 6485SOL    HW220355   2.329   0.096   4.328
 6486SOL     OW20356   1.401   4.949   3.514
 6486SOL    HW120357   1.373   5.041   3.487
 6486SOL    HW220358   1.499   4.936   3.494
 6487SOL     OW20359   6.056   4.542   3.838
 6487SOL    HW120360   6.033   4.562   3.933
 6487SOL    HW220361   5.989   4.479   3.800
 6488SOL     OW20362   4.375   5.338   4.529
 6488SOL    HW120363   4.433   5.365   4.605
 6488SOL    HW220364   4.279   5.353   4.554
 6489SOL     OW20365   4.321   3.213   5.883
 6489SOL    HW120366   4.261   3.283   5.923
 6489SOL    HW220367   4.405   3.208   5.937
 6490SOL     OW20368   2.196   1.838   0.229
 6490SOL    HW120369   2.274   1.785   0.263
 6490SOL    HW220370   2.117   1.822   0.288
 6491SOL     OW20371   2.435   0.126   1.175
 6491SOL    HW120372   2.429   0.182   1.093
 6491SOL    HW220373   2.395   0.175   1.252
 6492SOL     OW20374   3.459   3.881   4.626
 6492SOL    HW120375   3.523   3.805   4.638
 6492SOL    HW220376   3.382   3.870   4.689
 6493SOL     OW20377   1.197   3.829   5.509
 6493SOL    HW120378   1.242   3.919   5.508
 6493SOL    HW220379   1.169   3.805   5.416
 6494SOL     OW20380   5.802   0.010   1.926
 6494SOL    HW120381   5.841   0.082   1.868
 6494SOL    HW220382   5.844   6.942   1.901
 6495SOL     OW20383   6.241   0.067   4.088
 6495SOL    HW120384   6.212   0.162   4.094
 6495SOL    HW220385   6.329   0.061   4.041
 6496SOL     OW20386   4.373   0.922   1.463
 6496SOL    HW120387   4.298   0.975   1.503
 6496SOL    HW220388   4.339   0.832   1.435
 6497SOL     OW20389   0.125   1.309   1.087
 6497SOL    HW120390   0.182   1.360   1.022
 6497SOL    HW220391   0.182   1.249   1.142
 6498SOL     OW20392   1.419   4.321   4.636
 6498SOL    HW120393   1.348   4.359   4.696
 6498SOL    HW220394   1.416   4.367   4.548
 6499SOL     OW20395   5.455   3.203   3.915
 6499SOL    HW120396   5.398   3.194   3.833
 6499SOL    HW220397   5.426   3.283   3.967
 6500SOL     OW20398   1.824   4.100   3.065
 6500SOL    HW120399   1.737   4.136   3.034
 6500SOL    HW220400   1.863   4.161   3.134
 6501SOL     OW20401   6.100   2.016   1.116
 6501SOL    HW120402   6.158   1.955   1.169
 6501SOL    HW220403   6.157   2.081   1.066
 6502SOL     OW20404   6.430   3.741   1.719
 6502SOL    HW120405   6.437   3.646   1.750
 6502SOL    HW220406   6.336   3.772   1.729
 6503SOL     OW20407   6.542   3.124   5.444
 6503SOL    HW120408   6.538   3.061   5.367
 6503SOL    HW220409   6.636   3.128   5.479
 6504SOL     OW20410   4.485   6.065   6.832
 6504SOL    HW120411   4.530   5.976   6.824
 6504SOL    HW220412   4.554   6.137   6.833
 6505SOL     OW20413   6.512   5.702   0.674
 6505SOL    HW120414   6.515   5.791   0.628
 6505SOL    HW220415   6.553   5.632   0.614
 6506SOL     OW20416   0.237   3.788   2.221
 6506SOL    HW120417   0.323   3.740   2.236
 6506SOL    HW220418   0.236   3.828   2.129
 6507SOL     OW20419   4.178   4.497   6.899
 6507SOL    HW120420   4.265   4.545   6.890
 6507SOL    HW220421   4.143   4.474   6.808
 6508SOL     OW20422   0.680   6.419   2.045
 6508SOL    HW120423   0.647   6.348   1.983
 6508SOL    HW220424   0.778   6.406   2.062
 6509SOL     OW20425   2.960   1.275   6.099
 6509SOL    HW120426   2.895   1.350   6.111
 6509SOL    HW220427   2.946   1.232   6.010
 6510SOL     OW20428   4.466   5.863   5.682
 6510SOL    HW120429   4.461   5.820   5.591
 6510SOL    HW220430   4.527   5.942   5.678
 6511SOL     OW20431   3.078   0.806   0.274
 6511SOL    HW120432   3.021   0.805   0.192
 6511SOL    HW220433   3.029   0.762   0.349
 6512SOL     OW20434   4.009   1.028   0.774
 6512SOL    HW120435   4.063   1.111   0.784
 6512SOL    HW220436   4.008   0.978   0.860
 6513SOL     OW20437   2.385   5.419   3.559
 6513SOL    HW120438   2.360   5.359   3.635
 6513SOL    HW220439   2.464   5.381   3.510
 6514SOL     OW20440   6.038   6.854   5.811
 6514SOL    HW120441   6.064   6.809   5.896
 6514SOL    HW220442   5.960   6.914   5.828
 6515SOL     OW20443   2.088   4.989   2.347
 6515SOL    HW120444   2.082   5.063   2.281
 6515SOL    HW220445   2.176   4.994   2.394
 6516SOL     OW20446   6.976   3.433   1.530
 6516SOL    HW120447   7.011   3.482   1.450
 6516SOL    HW220448   0.032   3.388   1.577
 6517SOL     OW20449   6.887   2.904   0.318
 6517SOL    HW120450   6.863   2.810   0.342
 6517SOL    HW220451   6.889   2.961   0.400
 6518SOL     OW20452   1.105   1.573   3.197
 6518SOL    HW120453   1.039   1.622   3.254
 6518SOL    HW220454   1.091   1.598   3.101
 6519SOL     OW20455   0.907   1.523   2.595
 6519SOL    HW120456   0.986   1.554   2.543
 6519SOL    HW220457   0.928   1.436   2.639
 6520SOL     OW20458   0.528   5.665   0.024
 6520SOL    HW120459   0.545   5.569   7.019
 6520SOL    HW220460   0.431   5.679   0.037
 6521SOL     OW20461   1.278   3.502   4.342
 6521SOL    HW120462   1.364   3.523   4.296
 6521SOL    HW220463   1.294   3.495   4.441
 6522SOL     OW20464   2.684   3.440   5.263
 6522SOL    HW120465   2.603   3.478   5.307
 6522SOL    HW220466   2.707   3.353   5.306
 6523SOL     OW20467   5.839   0.139   6.785
 6523SOL    HW120468   5.814   0.056   6.736
 6523SOL    HW220469   5.884   0.203   6.722
 6524SOL     OW20470   2.200   2.537   1.992
 6524SOL    HW120471   2.147   2.578   2.066
 6524SOL    HW220472   2.250   2.457   2.026
 6525SOL     OW20473   0.682   4.994   3.158
 6525SOL    HW120474   0.632   5.023   3.076
 6525SOL    HW220475   0.777   4.975   3.134
 6526SOL     OW20476   0.169   6.889   0.474
 6526SOL    HW120477   0.072   6.893   0.451
 6526SOL    HW220478   0.183   6.924   0.566
 6527SOL     OW20479   0.641   2.353   0.572
 6527SOL    HW120480   0.664   2.437   0.621
 6527SOL    HW220481   0.542   2.347   0.560
 6528SOL     OW20482   5.241   0.372   6.315
 6528SOL    HW120483   5.278   0.448   6.260
 6528SOL    HW220484   5.274   0.285   6.278
 6529SOL     OW20485   0.001   1.242   2.117
 6529SOL    HW120486   0.047   1.155   2.095
 6529SOL    HW220487   0.070   1.312   2.135
 6530SOL     OW20488   1.101   2.802   2.361
 6530SOL    HW120489   1.107   2.795   2.460
 6530SOL    HW220490   1.179   2.755   2.319
 6531SOL     OW20491   4.250   3.823   5.302
 6531SOL    HW120492   4.349   3.832   5.317
 6531SOL    HW220493   4.234   3.770   5.219
 6532SOL     OW20494   1.334   0.583   0.650
 6532SOL    HW120495   1.287   0.503   0.612
 6532SOL    HW220496   1.305   0.665   0.600
 6533SOL     OW20497   4.832   3.826   0.506
 6533SOL    HW120498   4.890   3.899   0.545
 6533SOL    HW220499   4.823   3.841   0.408
 6534SOL     OW20500   6.895   4.255   3.109
 6534SOL    HW120501   6.933   4.288   3.196
 6534SOL    HW220502   6.970   4.230   3.047
 6535SOL     OW20503   6.231   3.298   5.459
 6535SOL    HW120504   6.311   3.262   5.508
 6535SOL    HW220505   6.226   3.397   5.472
 6536SOL     OW20506   1.309   3.739   4.851
 6536SOL    HW120507   1.282   3.833   4.871
 6536SOL    HW220508   1.397   3.720   4.893
 6537SOL     OW20509   5.781   5.481   3.754
 6537SOL    HW120510   5.763   5.383   3.763
 6537SOL    HW220511   5.800   5.520   3.844
 6538SOL     OW20512   2.596   3.440   5.598
 6538SOL    HW120513   2.549   3.358   5.565
 6538SOL    HW220514   2.569   3.457   5.693
 6539SOL     OW20515   6.157   1.114   5.077
 6539SOL    HW120516   6.099   1.073   5.007
 6539SOL    HW220517   6.205   1.041   5.126
 6540SOL     OW20518   5.333   2.666   5.972
 6540SOL    HW120519   5.247   2.682   5.924
 6540SOL    HW220520   5.326   2.698   6.066
 6541SOL     OW20521   5.826   0.961   4.719
 6541SOL    HW120522   5.738   0.999   4.689
 6541SOL    HW220523   5.862   0.901   4.648
 6542SOL     OW20524   1.723   4.252   4.096
 6542SOL    HW120525   1.791   4.213   4.034
 6542SOL    HW220526   1.767   4.278   4.181
 6543SOL     OW20527   4.096   2.303   5.342
 6543SOL    HW120528   4.131   2.335   5.254
 6543SOL    HW220529   4.163   2.241   5.384
 6544SOL     OW20530   1.122   6.343   1.865
 6544SOL    HW120531   1.045   6.292   1.904
 6544SOL    HW220532   1.086   6.414   1.804
 6545SOL     OW20533   4.569   6.999   0.699
 6545SOL    HW120534   4.471   7.004   0.676
 6545SOL    HW220535   4.589   6.910   0.740
 6546SOL     OW20536   5.080   3.755   6.324
 6546SOL    HW120537   5.114   3.807   6.403
 6546SOL    HW220538   5.150   3.752   6.254
 6547SOL     OW20539   6.125   5.344   0.011
 6547SOL    HW120540   6.133   5.278   0.085
 6547SOL    HW220541   6.212   5.389   7.015
 6548SOL     OW20542   0.430   2.113   5.355
 6548SOL    HW120543   0.503   2.182   5.350
 6548SOL    HW220544   0.346   2.157   5.388
 6549SOL     OW20545   4.898   0.279   1.656
 6549SOL    HW120546   4.955   0.326   1.724
 6549SOL    HW220547   4.911   0.181   1.663
 6550SOL     OW20548   6.452   7.019   3.154
 6550SOL    HW120549   6.417   0.091   3.133
 6550SOL    HW220550   6.376   6.955   3.161
 6551SOL     OW20551   2.981   3.726   0.984
 6551SOL    HW120552   3.014   3.685   0.899
 6551SOL    HW220553   2.886   3.755   0.973
 6552SOL     OW20554   2.692   6.678   0.574
 6552SOL    HW120555   2.633   6.598   0.565
 6552SOL    HW220556   2.726   6.705   0.484
 6553SOL     OW20557   0.076   1.412   3.107
 6553SOL    HW120558   0.041   1.361   3.186
 6553SOL    HW220559   0.154   1.363   3.068
 6554SOL     OW20560   3.047   1.333   4.634
 6554SOL    HW120561   2.963   1.373   4.596
 6554SOL    HW220562   3.025   1.285   4.719
 6555SOL     OW20563   6.958   2.993   4.048
 6555SOL    HW120564   6.961   3.077   3.994
 6555SOL    HW220565   6.865   2.956   4.047
 6556SOL     OW20566   4.776   2.878   3.369
 6556SOL    HW120567   4.718   2.820   3.426
 6556SOL    HW220568   4.792   2.832   3.282
 6557SOL     OW20569   2.147   0.266   2.075
 6557SOL    HW120570   2.156   0.166   2.070
 6557SOL    HW220571   2.204   0.309   2.005
 6558SOL     OW20572   5.402   4.914   0.198
 6558SOL    HW120573   5.357   4.906   0.287
 6558SOL    HW220574   5.404   5.010   0.170
 6559SOL     OW20575   0.004   2.883   6.313
 6559SOL    HW120576   0.082   2.873   6.252
 6559SOL    HW220577   0.036   2.905   6.405
 6560SOL     OW20578   5.581   4.726   0.142
 6560SOL    HW120579   5.559   4.632   0.168
 6560SOL    HW220580   5.498   4.782   0.145
 6561SOL     OW20581   3.953   4.374   1.017
 6561SOL    HW120582   4.039   4.350   1.062
 6561SOL    HW220583   3.936   4.310   0.942
 6562SOL     OW20584   5.655   3.095   1.444
 6562SOL    HW120585   5.671   2.999   1.465
 6562SOL    HW220586   5.556   3.113   1.443
 6563SOL     OW20587   5.235   6.133   5.030
 6563SOL    HW120588   5.271   6.207   5.086
 6563SOL    HW220589   5.228   6.050   5.085
 6564SOL     OW20590   6.848   3.982   3.209
 6564SOL    HW120591   6.811   4.043   3.138
 6564SOL    HW220592   6.848   3.888   3.174
 6565SOL     OW20593   5.609   0.258   3.341
 6565SOL    HW120594   5.627   0.184   3.277
 6565SOL    HW220595   5.695   0.301   3.368
 6566SOL     OW20596   4.252   6.104   2.260
 6566SOL    HW120597   4.204   6.191   2.264
 6566SOL    HW220598   4.333   6.112   2.202
 6567SOL     OW20599   4.071   0.523   0.924
 6567SOL    HW120600   4.077   0.425   0.906
 6567SOL    HW220601   4.161   0.557   0.953
 6568SOL     OW20602   3.815   1.246   1.366
 6568SOL    HW120603   3.889   1.285   1.421
 6568SOL    HW220604   3.854   1.200   1.286
 6569SOL     OW20605   0.388   4.467   5.550
 6569SOL    HW120606   0.387   4.367   5.550
 6569SOL    HW220607   0.431   4.499   5.465
 6570SOL     OW20608   4.239   6.518   1.881
 6570SOL    HW120609   4.152   6.510   1.930
 6570SOL    HW220610   4.221   6.537   1.785
 6571SOL     OW20611   2.878   5.823   3.009
 6571SOL    HW120612   2.784   5.857   3.000
 6571SOL    HW220613   2.877   5.723   3.005
 6572SOL     OW20614   0.717   5.568   3.846
 6572SOL    HW120615   0.656   5.489   3.837
 6572SOL    HW220616   0.810   5.536   3.866
 6573SOL     OW20617   1.282   1.139   3.214
 6573SOL    HW120618   1.377   1.171   3.219
 6573SOL    HW220619   1.274   1.069   3.143
 6574SOL     OW20620   1.658   5.999   2.143
 6574SOL    HW120621   1.623   6.006   2.237
 6574SOL    HW220622   1.599   6.053   2.082
 6575SOL     OW20623   6.866   0.463   2.505
 6575SOL    HW120624   6.814   0.437   2.586
 6575SOL    HW220625   6.948   0.407   2.498
 6576SOL     OW20626   4.150   5.760   0.804
 6576SOL    HW120627   4.222   5.691   0.809
 6576SOL    HW220628   4.137   5.788   0.709
 6577SOL     OW20629   1.836   2.088   3.383
 6577SOL    HW120630   1.931   2.098   3.412
 6577SOL    HW220631   1.798   2.004   3.422
 6578SOL     OW20632   1.711   4.618   1.746
 6578SOL    HW120633   1.687   4.559   1.668
 6578SOL    HW220634   1.634   4.623   1.809
 6579SOL     OW20635   6.469   1.246   4.061
 6579SOL    HW120636   6.527   1.269   3.983
 6579SOL    HW220637   6.387   1.304   4.060
 6580SOL     OW20638   0.932   0.135   0.033
 6580SOL    HW120639   1.003   0.110   6.986
 6580SOL    HW220640   0.957   0.222   0.077
 6581SOL     OW20641   1.353   1.973   0.042
 6581SOL    HW120642   1.253   1.973   0.045
 6581SOL    HW220643   1.384   1.901   6.999
 6582SOL     OW20644   6.705   1.260   3.068
 6582SOL    HW120645   6.754   1.173   3.070
 6582SOL    HW220646   6.606   1.242   3.066
 6583SOL     OW20647   4.546   6.418   6.737
 6583SOL    HW120648   4.618   6.486   6.750
 6583SOL    HW220649   4.583   6.339   6.689
 6584SOL     OW20650   3.354   2.009   1.115
 6584SOL    HW120651   3.373   2.052   1.203
 6584SOL    HW220652   3.439   1.977   1.074
 6585SOL     OW20653   6.078   7.010   1.032
 6585SOL    HW120654   6.099   7.010   0.934
 6585SOL    HW220655   6.160   6.984   1.083
 6586SOL     OW20656   6.241   2.017   6.549
 6586SOL    HW120657   6.147   1.986   6.566
 6586SOL    HW220658   6.250   2.112   6.580
 6587SOL     OW20659   1.752   4.183   5.599
 6587SOL    HW120660   1.669   4.200   5.653
 6587SOL    HW220661   1.814   4.260   5.610
 6588SOL     OW20662   0.542   3.816   0.764
 6588SOL    HW120663   0.554   3.851   0.671
 6588SOL    HW220664   0.573   3.721   0.769
 6589SOL     OW20665   0.272   0.894   1.856
 6589SOL    HW120666   0.292   0.988   1.883
 6589SOL    HW220667   0.224   0.894   1.768
 6590SOL     OW20668   1.359   6.890   4.138
 6590SOL    HW120669   1.457   6.878   4.118
 6590SOL    HW220670   1.339   6.987   4.149
 6591SOL     OW20671   5.519   4.185   4.158
 6591SOL    HW120672   5.439   4.143   4.201
 6591SOL    HW220673   5.505   4.284   4.153
 6592SOL     OW20674   5.725   5.989   2.927
 6592SOL    HW120675   5.664   6.059   2.890
 6592SOL    HW220676   5.704   5.975   3.024
 6593SOL     OW20677   2.783   1.991   2.546
 6593SOL    HW120678   2.750   1.977   2.452
 6593SOL    HW220679   2.851   2.065   2.546
 6594SOL     OW20680   4.917   1.590   6.715
 6594SOL    HW120681   4.999   1.626   6.759
 6594SOL    HW220682   4.858   1.547   6.784
 6595SOL     OW20683   1.622   2.450   5.108
 6595SOL    HW120684   1.623   2.483   5.202
 6595SOL    HW220685   1.605   2.526   5.046
 6596SOL     OW20686   5.713   6.020   2.591
 6596SOL    HW120687   5.649   5.972   2.651
 6596SOL    HW220688   5.661   6.067   2.519
 6597SOL     OW20689   1.664   5.324   2.248
 6597SOL    HW120690   1.740   5.321   2.313
 6597SOL    HW220691   1.619   5.234   2.245
 6598SOL     OW20692   1.821   4.717   4.543
 6598SOL    HW120693   1.797   4.709   4.446
 6598SOL    HW220694   1.908   4.670   4.559
 6599SOL     OW20695   5.843   5.366   6.400
 6599SOL    HW120696   5.856   5.315   6.484
 6599SOL    HW220697   5.927   5.365   6.346
 6600SOL     OW20698   4.407   6.905   4.876
 6600SOL    HW120699   4.442   6.929   4.785
 6600SOL    HW220700   4.455   6.960   4.945
 6601SOL     OW20701   1.516   2.551   1.949
 6601SOL    HW120702   1.487   2.500   1.867
 6601SOL    HW220703   1.615   2.547   1.957
 6602SOL     OW20704   2.613   6.527   1.750
 6602SOL    HW120705   2.686   6.459   1.757
 6602SOL    HW220706   2.526   6.481   1.736
 6603SOL     OW20707   0.343   3.023   3.316
 6603SOL    HW120708   0.382   3.041   3.406
 6603SOL    HW220709   0.415   3.019   3.247
 6604SOL     OW20710   1.803   6.401   2.151
 6604SOL    HW120711   1.760   6.377   2.238
 6604SOL    HW220712   1.733   6.415   2.081
 6605SOL     OW20713   6.795   5.423   1.370
 6605SOL    HW120714   6.778   5.442   1.273
 6605SOL    HW220715   6.851   5.496   1.409
 6606SOL     OW20716   1.865   3.626   3.341
 6606SOL    HW120717   1.950   3.579   3.317
 6606SOL    HW220718   1.878   3.677   3.426
 6607SOL     OW20719   5.742   3.792   3.759
 6607SOL    HW120720   5.841   3.802   3.770
 6607SOL    HW220721   5.705   3.741   3.837
 6608SOL     OW20722   0.260   6.484   5.763
 6608SOL    HW120723   0.241   6.554   5.832
 6608SOL    HW220724   0.209   6.401   5.785
 6609SOL     OW20725   4.312   1.841   5.729
 6609SOL    HW120726   4.385   1.790   5.683
 6609SOL    HW220727   4.346   1.931   5.754
 6610SOL     OW20728   3.208   5.079   0.954
 6610SOL    HW120729   3.166   5.155   0.904
 6610SOL    HW220730   3.241   5.112   1.043
 6611SOL     OW20731   4.441   1.857   4.205
 6611SOL    HW120732   4.469   1.943   4.246
 6611SOL    HW220733   4.346   1.864   4.173
 6612SOL     OW20734   6.031   1.686   5.979
 6612SOL    HW120735   6.097   1.674   5.904
 6612SOL    HW220736   5.985   1.774   5.969
 6613SOL     OW20737   5.098   0.241   6.721
 6613SOL    HW120738   5.156   0.187   6.782
 6613SOL    HW220739   5.156   0.301   6.666
 6614SOL     OW20740   4.228   6.002   1.460
 6614SOL    HW120741   4.235   6.101   1.473
 6614SOL    HW220742   4.198   5.984   1.366
 6615SOL     OW20743   3.080   5.248   0.166
 6615SOL    HW120744   3.141   5.286   0.096
 6615SOL    HW220745   3.048   5.159   0.136
 6616SOL     OW20746   5.111   1.295   5.371
 6616SOL    HW120747   5.055   1.335   5.299
 6616SOL    HW220748   5.137   1.366   5.436
 6617SOL     OW20749   4.156   0.926   4.105
 6617SOL    HW120750   4.250   0.900   4.127
 6617SOL    HW220751   4.115   0.972   4.183
 6618SOL     OW20752   6.865   2.632   2.397
 6618SOL    HW120753   6.951   2.668   2.433
 6618SOL    HW220754   6.799   2.622   2.471
 6619SOL     OW20755   5.087   6.504   3.951
 6619SOL    HW120756   5.101   6.588   3.897
 6619SOL    HW220757   5.058   6.430   3.890
 6620SOL     OW20758   0.673   3.038   3.380
 6620SOL    HW120759   0.616   3.070   3.456
 6620SOL    HW220760   0.765   3.078   3.389
 6621SOL     OW20761   3.890   2.974   4.936
 6621SOL    HW120762   3.961   2.904   4.927
 6621SOL    HW220763   3.892   3.034   4.857
 6622SOL     OW20764   0.344   5.570   0.540
 6622SOL    HW120765   0.309   5.622   0.462
 6622SOL    HW220766   0.281   5.496   0.562
 6623SOL     OW20767   3.629   4.203   5.448
 6623SOL    HW120768   3.651   4.288   5.401
 6623SOL    HW220769   3.636   4.126   5.384
 6624SOL     OW20770   1.400   2.230   4.145
 6624SOL    HW120771   1.434   2.317   4.180
 6624SOL    HW220772   1.416   2.226   4.046
 6625SOL     OW20773   5.830   2.612   5.618
 6625SOL    HW120774   5.864   2.518   5.609
 6625SOL    HW220775   5.735   2.610   5.649
 6626SOL     OW20776   2.465   6.072   5.316
 6626SOL    HW120777   2.423   6.105   5.231
 6626SOL    HW220778   2.541   6.011   5.293
 6627SOL     OW20779   1.647   5.854   4.621
 6627SOL    HW120780   1.568   5.852   4.560
 6627SOL    HW220781   1.650   5.770   4.675
 6628SOL     OW20782   4.553   5.557   3.881
 6628SOL    HW120783   4.600   5.560   3.793
 6628SOL    HW220784   4.508   5.468   3.891
 6629SOL     OW20785   5.616   6.070   0.063
 6629SOL    HW120786   5.654   6.120   7.006
 6629SOL    HW220787   5.606   6.131   0.142
 6630SOL     OW20788   2.391   1.619   1.422
 6630SOL    HW120789   2.308   1.572   1.392
 6630SOL    HW220790   2.450   1.634   1.342
 6631SOL     OW20791   2.425   4.749   6.162
 6631SOL    HW120792   2.356   4.732   6.232
 6631SOL    HW220793   2.458   4.662   6.126
 6632SOL     OW20794   1.257   0.829   0.548
 6632SOL    HW120795   1.229   0.817   0.453
 6632SOL    HW220796   1.266   0.927   0.569
 6633SOL     OW20797   3.562   5.935   6.300
 6633SOL    HW120798   3.588   5.841   6.320
 6633SOL    HW220799   3.483   5.961   6.356
 6634SOL     OW20800   4.528   2.189   4.774
 6634SOL    HW120801   4.563   2.272   4.818
 6634SOL    HW220802   4.459   2.147   4.834
 6635SOL     OW20803   5.339   4.746   2.634
 6635SOL    HW120804   5.411   4.756   2.703
 6635SOL    HW220805   5.308   4.650   2.632
 6636SOL     OW20806   3.697   6.743   1.198
 6636SOL    HW120807   3.660   6.796   1.274
 6636SOL    HW220808   3.794   6.725   1.214
 6637SOL     OW20809   1.241   1.136   0.605
 6637SOL    HW120810   1.269   1.084   0.686
 6637SOL    HW220811   1.174   1.205   0.632
 6638SOL     OW20812   2.984   3.334   3.698
 6638SOL    HW120813   2.973   3.308   3.602
 6638SOL    HW220814   2.948   3.426   3.712
 6639SOL     OW20815   5.118   3.040   1.471
 6639SOL    HW120816   5.081   3.106   1.405
 6639SOL    HW220817   5.044   3.006   1.529
 6640SOL     OW20818   0.987   2.963   5.168
 6640SOL    HW120819   0.911   3.012   5.210
 6640SOL    HW220820   1.016   3.011   5.085
 6641SOL     OW20821   4.005   2.009   1.212
 6641SOL    HW120822   4.086   1.962   1.248
 6641SOL    HW220823   4.013   2.107   1.229
 6642SOL     OW20824   1.441   5.709   0.449
 6642SOL    HW120825   1.525   5.730   0.498
 6642SOL    HW220826   1.463   5.677   0.357
 6643SOL     OW20827   4.404   6.947   0.100
 6643SOL    HW120828   4.318   6.998   0.103
 6643SOL    HW220829   4.453   6.960   0.186
 6644SOL     OW20830   1.703   6.349   3.483
 6644SOL    HW120831   1.626   6.407   3.459
 6644SOL    HW220832   1.733   6.370   3.576
 6645SOL     OW20833   6.293   2.605   0.742
 6645SOL    HW120834   6.304   2.702   0.719
 6645SOL    HW220835   6.296   2.550   0.658
 6646SOL     OW20836   4.586   0.283   6.509
 6646SOL    HW120837   4.556   0.316   6.420
 6646SOL    HW220838   4.679   0.316   6.527
 6647SOL     OW20839   4.714   4.961   0.966
 6647SOL    HW120840   4.772   4.945   0.886
 6647SOL    HW220841   4.656   4.881   0.981
 6648SOL     OW20842   2.146   6.134   5.449
 6648SOL    HW120843   2.172   6.216   5.499
 6648SOL    HW220844   2.207   6.059   5.472
 6649SOL     OW20845   6.241   2.323   6.987
 6649SOL    HW120846   6.224   2.226   6.972
 6649SOL    HW220847   6.311   2.355   6.923
 6650SOL     OW20848   2.780   1.353   5.211
 6650SOL    HW120849   2.851   1.354   5.282
 6650SOL    HW220850   2.755   1.259   5.190
 6651SOL     OW20851   0.276   1.820   6.678
 6651SOL    HW120852   0.298   1.871   6.762
 6651SOL    HW220853   0.305   1.725   6.689
 6652SOL     OW20854   0.825   4.597   0.178
 6652SOL    HW120855   0.875   4.678   0.210
 6652SOL    HW220856   0.752   4.575   0.242
 6653SOL     OW20857   5.294   3.549   0.896
 6653SOL    HW120858   5.322   3.632   0.849
 6653SOL    HW220859   5.372   3.507   0.941
 6654SOL     OW20860   0.612   4.310   3.148
 6654SOL    HW120861   0.629   4.369   3.227
 6654SOL    HW220862   0.582   4.220   3.179
 6655SOL     OW20863   6.720   5.333   1.611
 6655SOL    HW120864   6.631   5.344   1.655
 6655SOL    HW220865   6.724   5.391   1.530
 6656SOL     OW20866   4.084   1.337   2.914
 6656SOL    HW120867   4.018   1.275   2.872
 6656SOL    HW220868   4.037   1.399   2.977
 6657SOL     OW20869   5.718   2.103   4.094
 6657SOL    HW120870   5.620   2.107   4.073
 6657SOL    HW220871   5.750   2.194   4.121
 6658SOL     OW20872   6.239   5.898   4.502
 6658SOL    HW120873   6.286   5.812   4.483
 6658SOL    HW220874   6.141   5.882   4.510
 6659SOL     OW20875   1.171   5.215   2.012
 6659SOL    HW120876   1.153   5.313   2.023
 6659SOL    HW220877   1.096   5.162   2.052
 6660SOL     OW20878   0.116   6.591   3.527
 6660SOL    HW120879   0.107   6.506   3.476
 6660SOL    HW220880   0.028   6.616   3.567
 6661SOL     OW20881   3.677   6.813   4.103
 6661SOL    HW120882   3.736   6.820   4.184
 6661SOL    HW220883   3.731   6.828   4.021
 6662SOL     OW20884   3.184   0.012   1.916
 6662SOL    HW120885   3.086   0.018   1.936
 6662SOL    HW220886   3.215   6.938   1.928
 6663SOL     OW20887   1.379   4.159   5.995
 6663SOL    HW120888   1.386   4.155   6.095
 6663SOL    HW220889   1.283   4.158   5.969
 6664SOL     OW20890   2.973   0.572   1.496
 6664SOL    HW120891   3.007   0.522   1.417
 6664SOL    HW220892   3.040   0.641   1.524
 6665SOL     OW20893   2.558   0.671   5.550
 6665SOL    HW120894   2.607   0.597   5.505
 6665SOL    HW220895   2.475   0.692   5.498
 6666SOL     OW20896   4.958   6.595   5.141
 6666SOL    HW120897   4.891   6.670   5.132
 6666SOL    HW220898   4.986   6.565   5.049
 6667SOL     OW20899   0.240   6.134   6.352
 6667SOL    HW120900   0.214   6.096   6.264
 6667SOL    HW220901   0.293   6.218   6.338
 6668SOL     OW20902   6.789   5.911   0.353
 6668SOL    HW120903   6.796   6.001   0.310
 6668SOL    HW220904   6.712   5.910   0.417
 6669SOL     OW20905   1.447   1.515   2.577
 6669SOL    HW120906   1.532   1.568   2.579
 6669SOL    HW220907   1.447   1.456   2.497
 6670SOL     OW20908   3.725   2.706   0.890
 6670SOL    HW120909   3.658   2.708   0.964
 6670SOL    HW220910   3.809   2.662   0.923
 6671SOL     OW20911   5.199   5.801   6.985
 6671SOL    HW120912   5.213   5.741   0.044
 6671SOL    HW220913   5.287   5.838   6.955
 6672SOL     OW20914   1.136   1.883   1.172
 6672SOL    HW120915   1.113   1.830   1.090
 6672SOL    HW220916   1.080   1.965   1.175
 6673SOL     OW20917   5.640   4.043   4.433
 6673SOL    HW120918   5.573   3.969   4.437
 6673SOL    HW220919   5.592   4.130   4.425
 6674SOL     OW20920   0.211   2.499   0.234
 6674SOL    HW120921   0.120   2.470   0.206
 6674SOL    HW220922   0.207   2.543   0.323
 6675SOL     OW20923   4.484   2.729   6.865
 6675SOL    HW120924   4.430   2.721   6.949
 6675SOL    HW220925   4.515   2.638   6.837
 6676SOL     OW20926   1.546   3.955   3.850
 6676SOL    HW120927   1.612   4.016   3.806
 6676SOL    HW220928   1.551   3.969   3.949
 6677SOL     OW20929   0.499   2.053   0.598
 6677SOL    HW120930   0.426   1.990   0.572
 6677SOL    HW220931   0.562   2.006   0.660
 6678SOL     OW20932   1.690   4.957   0.160
 6678SOL    HW120933   1.619   4.967   0.229
 6678SOL    HW220934   1.763   5.024   0.177
 6679SOL     OW20935   1.957   1.315   3.832
 6679SOL    HW120936   1.954   1.409   3.865
 6679SOL    HW220937   1.910   1.309   3.744
 6680SOL     OW20938   5.409   6.289   0.368
 6680SOL    HW120939   5.369   6.301   0.459
 6680SOL    HW220940   5.354   6.339   0.301
 6681SOL     OW20941   3.837   5.987   1.293
 6681SOL    HW120942   3.785   5.906   1.318
 6681SOL    HW220943   3.833   6.055   1.366
 6682SOL     OW20944   3.464   5.250   6.629
 6682SOL    HW120945   3.516   5.187   6.688
 6682SOL    HW220946   3.520   5.276   6.551
 6683SOL     OW20947   6.445   3.135   6.622
 6683SOL    HW120948   6.356   3.092   6.638
 6683SOL    HW220949   6.468   3.128   6.525
 6684SOL     OW20950   3.592   6.801   1.479
 6684SOL    HW120951   3.671   6.776   1.536
 6684SOL    HW220952   3.526   6.851   1.535
 6685SOL     OW20953   4.394   3.426   0.001
 6685SOL    HW120954   4.473   3.376   0.035
 6685SOL    HW220955   4.362   3.383   6.936
 6686SOL     OW20956   5.342   5.490   3.905
 6686SOL    HW120957   5.292   5.520   3.824
 6686SOL    HW220958   5.412   5.557   3.928
 6687SOL     OW20959   6.480   2.131   1.782
 6687SOL    HW120960   6.477   2.229   1.762
 6687SOL    HW220961   6.408   2.085   1.732
 6688SOL     OW20962   3.832   5.179   0.925
 6688SOL    HW120963   3.768   5.122   0.874
 6688SOL    HW220964   3.920   5.182   0.877
 6689SOL     OW20965   2.796   4.996   5.991
 6689SOL    HW120966   2.736   5.060   6.039
 6689SOL    HW220967   2.740   4.929   5.942
 6690SOL     OW20968   0.925   0.115   5.838
 6690SOL    HW120969   1.018   0.080   5.829
 6690SOL    HW220970   0.871   0.055   5.897
 6691SOL     OW20971   2.502   2.215   2.545
 6691SOL    HW120972   2.551   2.217   2.458
 6691SOL    HW220973   2.404   2.212   2.527
 6692SOL     OW20974   4.754   5.098   1.422
 6692SOL    HW120975   4.755   5.196   1.442
 6692SOL    HW220976   4.837   5.073   1.372
 6693SOL     OW20977   4.184   1.601   4.525
 6693SOL    HW120978   4.094   1.637   4.550
 6693SOL    HW220979   4.185   1.576   4.429
 6694SOL     OW20980   4.032   5.195   0.697
 6694SOL    HW120981   4.078   5.248   0.626
 6694SOL    HW220982   3.961   5.138   0.656
 6695SOL     OW20983   2.808   2.324   6.543
 6695SOL    HW120984   2.769   2.416   6.555
 6695SOL    HW220985   2.738   2.264   6.504
 6696SOL     OW20986   3.825   3.849   4.629
 6696SOL    HW120987   3.748   3.794   4.596
 6696SOL    HW220988   3.911   3.810   4.596
 6697SOL     OW20989   4.626   2.589   2.579
 6697SOL    HW120990   4.688   2.559   2.652
 6697SOL    HW220991   4.543   2.533   2.581
 6698SOL     OW20992   3.555   4.237   1.541
 6698SOL    HW120993   3.486   4.308   1.553
 6698SOL    HW220994   3.636   4.260   1.596
 6699SOL     OW20995   0.953   4.440   5.071
 6699SOL    HW120996   1.028   4.375   5.084
 6699SOL    HW220997   0.879   4.418   5.135
 6700SOL     OW20998   5.901   0.327   0.409
 6700SOL    HW120999   5.995   0.359   0.407
 6700SOL    HW221000   5.839   0.405   0.411
 6701SOL     OW21001   5.973   6.782   1.403
 6701SOL    HW121002   5.892   6.733   1.436
 6701SOL    HW221003   5.956   6.880   1.406
 6702SOL     OW21004   3.148   1.823   1.053
 6702SOL    HW121005   3.225   1.882   1.076
 6702SOL    HW221006   3.066   1.879   1.038
 6703SOL     OW21007   1.623   1.752   6.257
 6703SOL    HW121008   1.685   1.776   6.331
 6703SOL    HW221009   1.627   1.822   6.185
 6704SOL     OW21010   3.917   1.271   5.369
 6704SOL    HW121011   3.831   1.237   5.332
 6704SOL    HW221012   3.914   1.371   5.377
 6705SOL     OW21013   6.457   3.407   2.032
 6705SOL    HW121014   6.423   3.410   1.938
 6705SOL    HW221015   6.423   3.486   2.083
 6706SOL     OW21016   0.133   6.392   1.690
 6706SOL    HW121017   0.212   6.419   1.745
 6706SOL    HW221018   0.151   6.302   1.649
 6707SOL     OW21019   5.615   0.614   2.405
 6707SOL    HW121020   5.595   0.538   2.343
 6707SOL    HW221021   5.570   0.598   2.493
 6708SOL     OW21022   0.122   3.881   1.439
 6708SOL    HW121023   0.119   3.782   1.429
 6708SOL    HW221024   0.089   3.925   1.355
 6709SOL     OW21025   1.237   4.827   2.248
 6709SOL    HW121026   1.263   4.732   2.267
 6709SOL    HW221027   1.144   4.829   2.213
 6710SOL     OW21028   4.767   1.418   1.500
 6710SOL    HW121029   4.784   1.336   1.554
 6710SOL    HW221030   4.714   1.394   1.418
 6711SOL     OW21031   4.647   6.186   6.152
 6711SOL    HW121032   4.611   6.172   6.245
 6711SOL    HW221033   4.631   6.281   6.124
 6712SOL     OW21034   6.108   3.399   0.865
 6712SOL    HW121035   6.034   3.344   0.903
 6712SOL    HW221036   6.078   3.495   0.859
 6713SOL     OW21037   1.663   7.004   4.305
 6713SOL    HW121038   1.584   7.016   4.366
 6713SOL    HW221039   1.742   6.976   4.358
 6714SOL     OW21040   5.915   1.241   0.371
 6714SOL    HW121041   5.845   1.312   0.371
 6714SOL    HW221042   5.909   1.188   0.286
 6715SOL     OW21043   1.486   0.065   0.395
 6715SOL    HW121044   1.394   0.098   0.372
 6715SOL    HW221045   1.489   0.039   0.491
 6716SOL     OW21046   6.879   5.233   2.205
 6716SOL    HW121047   6.956   5.173   2.223
 6716SOL    HW221048   6.826   5.245   2.289
 6717SOL     OW21049   4.176   2.633   6.365
 6717SOL    HW121050   4.252   2.696   6.346
 6717SOL    HW221051   4.193   2.545   6.322
 6718SOL     OW21052   3.359   0.038   2.329
 6718SOL    HW121053   3.411   0.087   2.398
 6718SOL    HW221054   3.280   0.093   2.301
 6719SOL     OW21055   1.923   0.549   6.863
 6719SOL    HW121056   1.875   0.587   6.942
 6719SOL    HW221057   1.865   0.480   6.819
 6720SOL     OW21058   2.165   0.513   5.783
 6720SOL    HW121059   2.214   0.435   5.745
 6720SOL    HW221060   2.177   0.515   5.882
 6721SOL     OW21061   0.595   0.922   0.766
 6721SOL    HW121062   0.602   1.006   0.820
 6721SOL    HW221063   0.581   0.945   0.670
 6722SOL     OW21064   6.118   3.212   0.040
 6722SOL    HW121065   6.024   3.201   0.071
 6722SOL    HW221066   6.158   3.294   0.082
 6723SOL     OW21067   1.400   1.897   6.481
 6723SOL    HW121068   1.442   1.828   6.422
 6723SOL    HW221069   1.373   1.856   6.567
 6724SOL     OW21070   2.041   3.513   5.922
 6724SOL    HW121071   1.972   3.558   5.866
 6724SOL    HW221072   2.087   3.442   5.869
 6725SOL     OW21073   6.176   2.920   3.321
 6725SOL    HW121074   6.166   2.910   3.420
 6725SOL    HW221075   6.272   2.908   3.296
 6726SOL     OW21076   0.064   1.068   5.598
 6726SOL    HW121077   0.089   1.148   5.543
 6726SOL    HW221078   0.077   0.985   5.545
 6727SOL     OW21079   1.239   4.529   5.737
 6727SOL    HW121080   1.182   4.538   5.818
 6727SOL    HW221081   1.200   4.583   5.663
 6728SOL     OW21082   3.649   2.085   3.670
 6728SOL    HW121083   3.608   2.014   3.726
 6728SOL    HW221084   3.664   2.167   3.725
 6729SOL     OW21085   5.100   1.699   0.625
 6729SOL    HW121086   5.101   1.718   0.723
 6729SOL    HW221087   5.040   1.622   0.606
 6730SOL     OW21088   1.082   0.786   1.431
 6730SOL    HW121089   1.090   0.697   1.386
 6730SOL    HW221090   1.011   0.840   1.386
 6731SOL     OW21091   3.350   6.480   0.560
 6731SOL    HW121092   3.296   6.406   0.601
 6731SOL    HW221093   3.427   6.502   0.620
 6732SOL     OW21094   5.796   5.272   4.095
 6732SOL    HW121095   5.708   5.279   4.048
 6732SOL    HW221096   5.869   5.306   4.035
 6733SOL     OW21097   3.566   5.257   6.373
 6733SOL    HW121098   3.495   5.306   6.323
 6733SOL    HW221099   3.656   5.289   6.343
 6734SOL     OW21100   5.376   1.273   4.993
 6734SOL    HW121101   5.421   1.198   5.041
 6734SOL    HW221102   5.342   1.240   4.905
 6735SOL     OW21103   6.190   3.413   3.480
 6735SOL    HW121104   6.179   3.494   3.422
 6735SOL    HW221105   6.150   3.334   3.436
 6736SOL     OW21106   3.327   3.934   1.048
 6736SOL    HW121107   3.308   3.906   1.142
 6736SOL    HW221108   3.300   3.861   0.985
 6737SOL     OW21109   1.456   3.099   1.377
 6737SOL    HW121110   1.398   3.054   1.444
 6737SOL    HW221111   1.486   3.188   1.413
 6738SOL     OW21112   1.798   5.647   3.312
 6738SOL    HW121113   1.895   5.648   3.288
 6738SOL    HW221114   1.752   5.725   3.269
 6739SOL     OW21115   6.766   0.127   4.121
 6739SOL    HW121116   6.721   0.078   4.046
 6739SOL    HW221117   6.728   0.096   4.208
 6740SOL     OW21118   6.384   6.470   4.389
 6740SOL    HW121119   6.445   6.537   4.348
 6740SOL    HW221120   6.290   6.487   4.360
 6741SOL     OW21121   4.758   1.895   5.648
 6741SOL    HW121122   4.705   1.834   5.707
 6741SOL    HW221123   4.781   1.978   5.698
 6742SOL     OW21124   5.442   4.660   3.332
 6742SOL    HW121125   5.426   4.645   3.429
 6742SOL    HW221126   5.506   4.591   3.297
 6743SOL     OW21127   4.118   4.372   0.325
 6743SOL    HW121128   4.167   4.344   0.242
 6743SOL    HW221129   4.132   4.303   0.396
 6744SOL     OW21130   6.337   5.285   6.111
 6744SOL    HW121131   6.401   5.293   6.187
 6744SOL    HW221132   6.244   5.276   6.147
 6745SOL     OW21133   0.024   6.442   4.171
 6745SOL    HW121134   7.004   6.396   4.250
 6745SOL    HW221135   0.043   6.538   4.195
 6746SOL     OW21136   1.692   1.199   2.779
 6746SOL    HW121137   1.745   1.122   2.742
 6746SOL    HW221138   1.731   1.285   2.744
 6747SOL     OW21139   0.929   6.870   6.545
 6747SOL    HW121140   0.927   6.770   6.553
 6747SOL    HW221141   0.977   6.895   6.460
 6748SOL     OW21142   2.167   1.775   3.972
 6748SOL    HW121143   2.223   1.819   4.042
 6748SOL    HW221144   2.221   1.760   3.890
 6749SOL     OW21145   3.264   4.344   0.883
 6749SOL    HW121146   3.307   4.355   0.793
 6749SOL    HW221147   3.165   4.349   0.874
 6750SOL     OW21148   3.041   1.711   4.605
 6750SOL    HW121149   3.107   1.656   4.553
 6750SOL    HW221150   3.032   1.800   4.562
 6751SOL     OW21151   4.350   0.018   3.685
 6751SOL    HW121152   4.376   6.942   3.670
 6751SOL    HW221153   4.432   0.074   3.696
 6752SOL     OW21154   1.668   6.151   3.087
 6752SOL    HW121155   1.699   6.227   3.031
 6752SOL    HW221156   1.569   6.156   3.099
 6753SOL     OW21157   3.665   2.675   5.279
 6753SOL    HW121158   3.649   2.735   5.201
 6753SOL    HW221159   3.605   2.702   5.355
 6754SOL     OW21160   5.825   1.323   1.351
 6754SOL    HW121161   5.740   1.376   1.344
 6754SOL    HW221162   5.876   1.352   1.432
 6755SOL     OW21163   2.969   4.877   0.644
 6755SOL    HW121164   2.986   4.785   0.680
 6755SOL    HW221165   3.031   4.895   0.568
 6756SOL     OW21166   2.348   2.379   5.625
 6756SOL    HW121167   2.360   2.318   5.547
 6756SOL    HW221168   2.350   2.326   5.710
 6757SOL     OW21169   3.660   0.913   0.308
 6757SOL    HW121170   3.690   0.831   0.259
 6757SOL    HW221171   3.711   0.992   0.274
 6758SOL     OW21172   5.559   2.886   1.237
 6758SOL    HW121173   5.563   2.822   1.314
 6758SOL    HW221174   5.470   2.929   1.233
 6759SOL     OW21175   6.967   3.507   3.383
 6759SOL    HW121176   6.933   3.496   3.476
 6759SOL    HW221177   6.908   3.455   3.320
 6760SOL     OW21178   5.200   2.930   3.085
 6760SOL    HW121179   5.280   2.975   3.044
 6760SOL    HW221180   5.120   2.947   3.028
 6761SOL     OW21181   4.863   2.059   4.607
 6761SOL    HW121182   4.946   2.004   4.621
 6761SOL    HW221183   4.782   2.005   4.629
 6762SOL     OW21184   6.457   5.540   3.576
 6762SOL    HW121185   6.504   5.609   3.632
 6762SOL    HW221186   6.473   5.449   3.614
 6763SOL     OW21187   4.434   5.359   5.061
 6763SOL    HW121188   4.406   5.366   4.965
 6763SOL    HW221189   4.521   5.408   5.074
 6764SOL     OW21190   1.530   5.960   1.837
 6764SOL    HW121191   1.579   6.008   1.910
 6764SOL    HW221192   1.450   5.914   1.876
 6765SOL     OW21193   6.241   4.907   3.336
 6765SOL    HW121194   6.331   4.870   3.357
 6765SOL    HW221195   6.234   5.001   3.369
 6766SOL     OW21196   4.786   6.202   0.433
 6766SOL    HW121197   4.781   6.298   0.458
 6766SOL    HW221198   4.842   6.192   0.351
 6767SOL     OW21199   2.502   0.847   0.397
 6767SOL    HW121200   2.548   0.921   0.446
 6767SOL    HW221201   2.560   0.815   0.323
 6768SOL     OW21202   2.050   0.953   0.071
 6768SOL    HW121203   2.129   1.008   0.045
 6768SOL    HW221204   1.967   1.007   0.060
 6769SOL     OW21205   3.422   2.467   0.600
 6769SOL    HW121206   3.507   2.415   0.612
 6769SOL    HW221207   3.367   2.424   0.528
 6770SOL     OW21208   6.546   0.719   1.955
 6770SOL    HW121209   6.509   0.629   1.930
 6770SOL    HW221210   6.536   0.781   1.878
 6771SOL     OW21211   4.357   2.090   2.636
 6771SOL    HW121212   4.278   2.150   2.644
 6771SOL    HW221213   4.421   2.128   2.569
 6772SOL     OW21214   3.108   1.065   2.484
 6772SOL    HW121215   3.014   1.052   2.516
 6772SOL    HW221216   3.166   0.991   2.518
 6773SOL     OW21217   6.582   4.021   1.843
 6773SOL    HW121218   6.516   3.947   1.830
 6773SOL    HW221219   6.673   3.981   1.859
 6774SOL     OW21220   0.446   2.724   6.200
 6774SOL    HW121221   0.397   2.637   6.195
 6774SOL    HW221222   0.421   2.772   6.284
 6775SOL     OW21223   2.844   3.643   0.621
 6775SOL    HW121224   2.938   3.644   0.654
 6775SOL    HW221225   2.783   3.674   0.694
 6776SOL     OW21226   4.740   4.590   0.388
 6776SOL    HW121227   4.643   4.612   0.395
 6776SOL    HW221228   4.752   4.509   0.331
 6777SOL     OW21229   4.047   4.822   6.191
 6777SOL    HW121230   4.027   4.770   6.107
 6777SOL    HW221231   4.048   4.760   6.269
 6778SOL     OW21232   0.577   4.176   2.506
 6778SOL    HW121233   0.516   4.120   2.449
 6778SOL    HW221234   0.643   4.117   2.553
 6779SOL     OW21235   6.661   4.429   0.183
 6779SOL    HW121236   6.688   4.363   0.252
 6779SOL    HW221237   6.569   4.408   0.150
 6780SOL     OW21238   1.002   2.559   2.576
 6780SOL    HW121239   1.101   2.570   2.576
 6780SOL    HW221240   0.976   2.487   2.512
 6781SOL     OW21241   5.629   6.368   5.490
 6781SOL    HW121242   5.531   6.368   5.509
 6781SOL    HW221243   5.649   6.302   5.416
 6782SOL     OW21244   0.513   1.020   2.645
 6782SOL    HW121245   0.594   1.048   2.696
 6782SOL    HW221246   0.446   0.978   2.707
 6783SOL     OW21247   0.138   6.554   6.024
 6783SOL    HW121248   0.039   6.566   6.015
 6783SOL    HW221249   0.161   6.533   6.119
 6784SOL     OW21250   3.831   4.134   0.084
 6784SOL    HW121251   3.904   4.193   0.049
 6784SOL    HW221252   3.750   4.144   0.026
 6785SOL     OW21253   5.973   4.908   1.758
 6785SOL    HW121254   5.973   4.974   1.682
 6785SOL    HW221255   5.922   4.945   1.835
 6786SOL     OW21256   1.010   2.105   6.631
 6786SOL    HW121257   0.991   2.200   6.604
 6786SOL    HW221258   0.983   2.043   6.557
 6787SOL     OW21259   1.883   4.170   1.098
 6787SOL    HW121260   1.798   4.134   1.138
 6787SOL    HW221261   1.909   4.254   1.145
 6788SOL     OW21262   2.793   3.842   1.458
 6788SOL    HW121263   2.870   3.846   1.521
 6788SOL    HW221264   2.740   3.759   1.476
 6789SOL     OW21265   0.013   6.853   2.313
 6789SOL    HW121266   7.015   6.769   2.363
 6789SOL    HW221267   0.036   6.832   2.218
 6790SOL     OW21268   1.802   3.892   0.310
 6790SOL    HW121269   1.733   3.946   0.261
 6790SOL    HW221270   1.874   3.952   0.344
 6791SOL     OW21271   3.969   2.596   1.002
 6791SOL    HW121272   3.942   2.573   1.095
 6791SOL    HW221273   4.040   2.666   1.004
 6792SOL     OW21274   6.503   5.640   6.081
 6792SOL    HW121275   6.489   5.587   5.997
 6792SOL    HW221276   6.426   5.625   6.143
 6793SOL     OW21277   1.038   2.204   0.729
 6793SOL    HW121278   1.079   2.113   0.729
 6793SOL    HW221279   0.959   2.205   0.791
 6794SOL     OW21280   5.216   0.854   4.501
 6794SOL    HW121281   5.161   0.796   4.441
 6794SOL    HW221282   5.170   0.865   4.589
 6795SOL     OW21283   2.871   5.859   0.660
 6795SOL    HW121284   2.782   5.815   0.665
 6795SOL    HW221285   2.919   5.828   0.577
 6796SOL     OW21286   6.167   1.063   2.406
 6796SOL    HW121287   6.196   1.052   2.501
 6796SOL    HW221288   6.079   1.018   2.392
 6797SOL     OW21289   5.101   3.617   2.031
 6797SOL    HW121290   5.025   3.658   1.980
 6797SOL    HW221291   5.066   3.544   2.090
 6798SOL     OW21292   5.742   5.076   2.491
 6798SOL    HW121293   5.780   5.127   2.415
 6798SOL    HW221294   5.647   5.102   2.506
 6799SOL     OW21295   5.348   5.752   0.274
 6799SOL    HW121296   5.377   5.802   0.355
 6799SOL    HW221297   5.253   5.722   0.284
 6800SOL     OW21298   2.133   4.589   0.527
 6800SOL    HW121299   2.047   4.561   0.484
 6800SOL    HW221300   2.193   4.509   0.535
 6801SOL     OW21301   1.556   1.254   2.311
 6801SOL    HW121302   1.641   1.214   2.344
 6801SOL    HW221303   1.478   1.210   2.355
 6802SOL     OW21304   2.558   5.753   0.839
 6802SOL    HW121305   2.535   5.838   0.885
 6802SOL    HW221306   2.639   5.713   0.880
 6803SOL     OW21307   4.815   2.617   6.361
 6803SOL    HW121308   4.845   2.562   6.439
 6803SOL    HW221309   4.895   2.651   6.311
 6804SOL     OW21310   1.969   6.040   3.062
 6804SOL    HW121311   2.067   6.055   3.056
 6804SOL    HW221312   1.949   5.943   3.050
 6805SOL     OW21313   5.497   6.498   4.585
 6805SOL    HW121314   5.404   6.524   4.609
 6805SOL    HW221315   5.562   6.548   4.643
 6806SOL     OW21316   4.843   1.345   3.988
 6806SOL    HW121317   4.822   1.401   4.068
 6806SOL    HW221318   4.933   1.371   3.953
 6807SOL     OW21319   2.374   3.213   0.140
 6807SOL    HW121320   2.330   3.133   0.180
 6807SOL    HW221321   2.375   3.288   0.207
 6808SOL     OW21322   0.524   3.209   5.336
 6808SOL    HW121323   0.545   3.210   5.434
 6808SOL    HW221324   0.481   3.122   5.312
 6809SOL     OW21325   1.822   4.421   0.060
 6809SOL    HW121326   1.728   4.397   0.081
 6809SOL    HW221327   1.853   4.492   0.123
 6810SOL     OW21328   1.588   0.523   1.858
 6810SOL    HW121329   1.591   0.556   1.952
 6810SOL    HW221330   1.666   0.560   1.807
 6811SOL     OW21331   5.714   3.954   0.374
 6811SOL    HW121332   5.689   4.044   0.410
 6811SOL    HW221333   5.807   3.931   0.405
 6812SOL     OW21334   4.098   3.382   3.313
 6812SOL    HW121335   4.054   3.301   3.352
 6812SOL    HW221336   4.136   3.438   3.387
 6813SOL     OW21337   4.890   1.721   1.105
 6813SOL    HW121338   4.807   1.777   1.102
 6813SOL    HW221339   4.915   1.703   1.200
 6814SOL     OW21340   3.217   2.730   1.029
 6814SOL    HW121341   3.178   2.641   1.004
 6814SOL    HW221342   3.308   2.740   0.990
 6815SOL     OW21343   3.034   6.871   1.247
 6815SOL    HW121344   2.942   6.859   1.210
 6815SOL    HW221345   3.100   6.822   1.189
 6816SOL     OW21346   6.323   4.985   0.031
 6816SOL    HW121347   6.400   5.044   0.005
 6816SOL    HW221348   6.256   5.038   0.083
 6817SOL     OW21349   6.530   1.687   5.427
 6817SOL    HW121350   6.585   1.750   5.372
 6817SOL    HW221351   6.550   1.700   5.524
 6818SOL     OW21352   3.131   6.350   2.044
 6818SOL    HW121353   3.123   6.315   1.951
 6818SOL    HW221354   3.208   6.412   2.050
 6819SOL     OW21355   2.953   0.965   3.606
 6819SOL    HW121356   2.911   1.054   3.587
 6819SOL    HW221357   3.043   0.979   3.647
 6820SOL     OW21358   0.891   4.678   3.662
 6820SOL    HW121359   0.812   4.629   3.697
 6820SOL    HW221360   0.907   4.651   3.567
 6821SOL     OW21361   2.385   2.110   5.468
 6821SOL    HW121362   2.474   2.132   5.506
 6821SOL    HW221363   2.393   2.095   5.369
 6822SOL     OW21364   5.716   1.654   6.171
 6822SOL    HW121365   5.776   1.576   6.153
 6822SOL    HW221366   5.759   1.737   6.136
 6823SOL     OW21367   3.598   3.740   4.061
 6823SOL    HW121368   3.653   3.700   4.135
 6823SOL    HW221369   3.647   3.729   3.974
 6824SOL     OW21370   0.079   3.218   6.336
 6824SOL    HW121371   0.104   3.149   6.403
 6824SOL    HW221372   0.161   3.258   6.296
 6825SOL     OW21373   4.932   0.141   2.478
 6825SOL    HW121374   4.910   0.213   2.544
 6825SOL    HW221375   4.871   0.149   2.400
 6826SOL     OW21376   2.104   3.405   2.810
 6826SOL    HW121377   2.085   3.480   2.747
 6826SOL    HW221378   2.146   3.329   2.761
 6827SOL     OW21379   4.996   5.530   7.018
 6827SOL    HW121380   4.926   5.466   0.029
 6827SOL    HW221381   5.072   5.479   6.977
 6828SOL     OW21382   1.512   2.204   1.857
 6828SOL    HW121383   1.539   2.283   1.802
 6828SOL    HW221384   1.418   2.216   1.889
 6829SOL     OW21385   5.308   6.430   3.562
 6829SOL    HW121386   5.299   6.344   3.612
 6829SOL    HW221387   5.307   6.412   3.464
 6830SOL     OW21388   5.578   1.402   2.965
 6830SOL    HW121389   5.527   1.343   2.902
 6830SOL    HW221390   5.542   1.495   2.959
 6831SOL     OW21391   0.694   0.655   6.176
 6831SOL    HW121392   0.738   0.566   6.159
 6831SOL    HW221393   0.603   0.656   6.135
 6832SOL     OW21394   2.698   4.362   1.653
 6832SOL    HW121395   2.784   4.406   1.679
 6832SOL    HW221396   2.717   4.281   1.597
 6833SOL     OW21397   4.003   5.209   6.871
 6833SOL    HW121398   3.916   5.164   6.889
 6833SOL    HW221399   4.052   5.161   6.799
 6834SOL     OW21400   4.433   6.827   1.568
 6834SOL    HW121401   4.351   6.858   1.616
 6834SOL    HW221402   4.409   6.804   1.473
 6835SOL     OW21403   3.941   0.158   4.895
 6835SOL    HW121404   3.870   0.157   4.826
 6835SOL    HW221405   4.026   0.123   4.857
 6836SOL     OW21406   3.205   6.292   0.681
 6836SOL    HW121407   3.105   6.286   0.684
 6836SOL    HW221408   3.244   6.215   0.731
 6837SOL     OW21409   1.874   3.291   1.938
 6837SOL    HW121410   1.838   3.200   1.956
 6837SOL    HW221411   1.823   3.333   1.863
 6838SOL     OW21412   1.891   1.005   0.666
 6838SOL    HW121413   1.937   0.928   0.620
 6838SOL    HW221414   1.834   1.054   0.599
 6839SOL     OW21415   4.742   1.208   0.966
 6839SOL    HW121416   4.731   1.301   0.931
 6839SOL    HW221417   4.838   1.182   0.959
 6840SOL     OW21418   2.401   1.640   5.950
 6840SOL    HW121419   2.364   1.592   6.029
 6840SOL    HW221420   2.353   1.727   5.939
 6841SOL     OW21421   6.453   3.322   5.971
 6841SOL    HW121422   6.404   3.277   6.047
 6841SOL    HW221423   6.398   3.397   5.936
 6842SOL     OW21424   1.957   5.097   1.766
 6842SOL    HW121425   2.011   5.065   1.844
 6842SOL    HW221426   1.929   5.018   1.711
 6843SOL     OW21427   5.452   6.970   6.567
 6843SOL    HW121428   5.360   6.987   6.532
 6843SOL    HW221429   5.447   6.905   6.643
 6844SOL     OW21430   5.566   1.101   3.683
 6844SOL    HW121431   5.561   1.123   3.780
 6844SOL    HW221432   5.587   1.004   3.672
 6845SOL     OW21433   5.109   2.555   3.108
 6845SOL    HW121434   5.101   2.513   3.018
 6845SOL    HW221435   5.036   2.622   3.120
 6846SOL     OW21436   2.975   4.018   6.950
 6846SOL    HW121437   3.046   3.951   6.972
 6846SOL    HW221438   2.896   3.972   6.909
 6847SOL     OW21439   6.341   4.295   4.633
 6847SOL    HW121440   6.344   4.383   4.586
 6847SOL    HW221441   6.396   4.300   4.717
 6848SOL     OW21442   5.412   3.717   4.192
 6848SOL    HW121443   5.414   3.740   4.095
 6848SOL    HW221444   5.357   3.635   4.205
 6849SOL     OW21445   3.678   4.196   5.725
 6849SOL    HW121446   3.658   4.100   5.741
 6849SOL    HW221447   3.653   4.220   5.631
 6850SOL     OW21448   4.136   2.243   3.408
 6850SOL    HW121449   4.234   2.221   3.415
 6850SOL    HW221450   4.110   2.302   3.483
 6851SOL     OW21451   2.185   2.806   2.719
 6851SOL    HW121452   2.180   2.830   2.622
 6851SOL    HW221453   2.130   2.871   2.773
 6852SOL     OW21454   2.712   5.583   1.024
 6852SOL    HW121455   2.629   5.527   1.031
 6852SOL    HW221456   2.718   5.644   1.103
 6853SOL     OW21457   5.583   3.455   6.278
 6853SOL    HW121458   5.590   3.373   6.222
 6853SOL    HW221459   5.622   3.438   6.368
 6854SOL     OW21460   5.091   6.724   6.073
 6854SOL    HW121461   5.039   6.792   6.022
 6854SOL    HW221462   5.064   6.632   6.045
 6855SOL     OW21463   3.858   5.406   3.365
 6855SOL    HW121464   3.915   5.336   3.408
 6855SOL    HW221465   3.879   5.410   3.267
 6856SOL     OW21466   0.697   2.687   6.112
 6856SOL    HW121467   0.603   2.703   6.143
 6856SOL    HW221468   0.752   2.654   6.189
 6857SOL     OW21469   1.149   3.206   6.857
 6857SOL    HW121470   1.099   3.161   6.931
 6857SOL    HW221471   1.245   3.215   6.883
 6858SOL     OW21472   3.258   4.208   1.739
 6858SOL    HW121473   3.161   4.231   1.744
 6858SOL    HW221474   3.308   4.282   1.696
 6859SOL     OW21475   0.503   1.428   1.904
 6859SOL    HW121476   0.577   1.435   1.972
 6859SOL    HW221477   0.415   1.439   1.950
 6860SOL     OW21478   6.739   5.121   2.023
 6860SOL    HW121479   6.746   5.169   1.935
 6860SOL    HW221480   6.798   5.167   2.090
 6861SOL     OW21481   4.931   3.256   5.522
 6861SOL    HW121482   4.941   3.327   5.452
 6861SOL    HW221483   4.850   3.202   5.503
 6862SOL     OW21484   0.839   4.735   6.234
 6862SOL    HW121485   0.923   4.758   6.185
 6862SOL    HW221486   0.787   4.668   6.181
 6863SOL     OW21487   6.642   6.362   4.827
 6863SOL    HW121488   6.736   6.385   4.852
 6863SOL    HW221489   6.640   6.268   4.791
 6864SOL     OW21490   1.619   3.877   5.872
 6864SOL    HW121491   1.587   3.906   5.962
 6864SOL    HW221492   1.689   3.941   5.839
 6865SOL     OW21493   1.563   0.755   4.654
 6865SOL    HW121494   1.634   0.777   4.721
 6865SOL    HW221495   1.499   0.832   4.646
 6866SOL     OW21496   6.683   4.768   2.208
 6866SOL    HW121497   6.625   4.803   2.135
 6866SOL    HW221498   6.738   4.691   2.173
 6867SOL     OW21499   1.561   3.880   0.462
 6867SOL    HW121500   1.646   3.843   0.424
 6867SOL    HW221501   1.510   3.807   0.507
 6868SOL     OW21502   1.888   5.504   5.325
 6868SOL    HW121503   1.871   5.550   5.238
 6868SOL    HW221504   1.916   5.410   5.308
 6869SOL     OW21505   3.220   0.027   5.770
 6869SOL    HW121506   3.271   6.961   5.762
 6869SOL    HW221507   3.147   0.016   5.838
 6870SOL     OW21508   0.617   2.910   0.555
 6870SOL    HW121509   0.628   2.886   0.459
 6870SOL    HW221510   0.546   2.852   0.596
 6871SOL     OW21511   6.492   3.553   2.416
 6871SOL    HW121512   6.518   3.580   2.323
 6871SOL    HW221513   6.393   3.559   2.426
 6872SOL     OW21514   1.323   2.934   2.013
 6872SOL    HW121515   1.406   2.990   2.022
 6872SOL    HW221516   1.248   2.978   2.061
 6873SOL     OW21517   1.499   4.417   4.386
 6873SOL    HW121518   1.551   4.377   4.311
 6873SOL    HW221519   1.514   4.515   4.389
 6874SOL     OW21520   5.556   5.684   2.574
 6874SOL    HW121521   5.630   5.625   2.543
 6874SOL    HW221522   5.564   5.699   2.673
 6875SOL     OW21523   1.484   2.509   1.234
 6875SOL    HW121524   1.454   2.486   1.141
 6875SOL    HW221525   1.495   2.608   1.241
 6876SOL     OW21526   3.353   0.216   3.537
 6876SOL    HW121527   3.332   0.118   3.540
 6876SOL    HW221528   3.290   0.262   3.474
 6877SOL     OW21529   2.386   4.332   1.900
 6877SOL    HW121530   2.353   4.239   1.916
 6877SOL    HW221531   2.348   4.367   1.815
 6878SOL     OW21532   1.781   0.927   3.676
 6878SOL    HW121533   1.814   0.989   3.748
 6878SOL    HW221534   1.698   0.965   3.635
 6879SOL     OW21535   2.109   2.231   0.403
 6879SOL    HW121536   2.012   2.236   0.379
 6879SOL    HW221537   2.119   2.215   0.501
 6880SOL     OW21538   1.582   5.696   6.557
 6880SOL    HW121539   1.671   5.664   6.588
 6880SOL    HW221540   1.551   5.641   6.480
 6881SOL     OW21541   1.904   3.651   0.384
 6881SOL    HW121542   1.824   3.591   0.391
 6881SOL    HW221543   1.875   3.742   0.355
 6882SOL     OW21544   2.614   6.958   0.640
 6882SOL    HW121545   2.625   6.868   0.600
 6882SOL    HW221546   2.673   6.967   0.720
 6883SOL     OW21547   4.985   0.357   6.007
 6883SOL    HW121548   4.986   0.375   6.106
 6883SOL    HW221549   4.893   0.332   5.979
 6884SOL     OW21550   1.914   4.173   2.776
 6884SOL    HW121551   1.970   4.141   2.853
 6884SOL    HW221552   1.872   4.095   2.731
 6885SOL     OW21553   4.833   4.843   4.013
 6885SOL    HW121554   4.855   4.925   3.961
 6885SOL    HW221555   4.742   4.852   4.054
 6886SOL     OW21556   5.638   1.286   5.798
 6886SOL    HW121557   5.598   1.290   5.707
 6886SOL    HW221558   5.698   1.365   5.812
 6887SOL     OW21559   4.931   6.440   6.192
 6887SOL    HW121560   5.013   6.385   6.176
 6887SOL    HW221561   4.858   6.410   6.130
 6888SOL     OW21562   5.617   4.334   6.506
 6888SOL    HW121563   5.542   4.400   6.498
 6888SOL    HW221564   5.679   4.344   6.429
 6889SOL     OW21565   1.284   3.045   5.661
 6889SOL    HW121566   1.267   3.067   5.757
 6889SOL    HW221567   1.199   3.053   5.609
 6890SOL     OW21568   3.740   5.357   2.830
 6890SOL    HW121569   3.660   5.398   2.874
 6890SOL    HW221570   3.757   5.403   2.743
 6891SOL     OW21571   2.235   2.761   1.189
 6891SOL    HW121572   2.326   2.802   1.189
 6891SOL    HW221573   2.172   2.821   1.238
 6892SOL     OW21574   3.253   1.302   4.440
 6892SOL    HW121575   3.186   1.302   4.514
 6892SOL    HW221576   3.333   1.249   4.467
 6893SOL     OW21577   6.075   2.832   6.776
 6893SOL    HW121578   6.009   2.765   6.742
 6893SOL    HW221579   6.125   2.794   6.854
 6894SOL     OW21580   5.332   4.549   0.999
 6894SOL    HW121581   5.351   4.647   0.994
 6894SOL    HW221582   5.391   4.508   1.069
 6895SOL     OW21583   1.501   6.070   0.768
 6895SOL    HW121584   1.437   6.023   0.828
 6895SOL    HW221585   1.502   6.168   0.790
 6896SOL     OW21586   3.542   2.145   4.308
 6896SOL    HW121587   3.507   2.117   4.218
 6896SOL    HW221588   3.465   2.155   4.371
 6897SOL     OW21589   4.986   3.760   4.966
 6897SOL    HW121590   4.909   3.700   4.989
 6897SOL    HW221591   5.064   3.738   5.024
 6898SOL     OW21592   2.362   1.216   1.410
 6898SOL    HW121593   2.413   1.203   1.496
 6898SOL    HW221594   2.364   1.131   1.357
 6899SOL     OW21595   5.985   5.669   2.326
 6899SOL    HW121596   5.937   5.585   2.304
 6899SOL    HW221597   5.920   5.744   2.338
 6900SOL     OW21598   6.851   4.475   6.299
 6900SOL    HW121599   6.918   4.520   6.358
 6900SOL    HW221600   6.816   4.541   6.232
 6901SOL     OW21601   4.199   5.035   6.693
 6901SOL    HW121602   4.146   4.968   6.745
 6901SOL    HW221603   4.297   5.019   6.709
 6902SOL     OW21604   6.457   5.994   6.368
 6902SOL    HW121605   6.503   5.948   6.444
 6902SOL    HW221606   6.462   6.093   6.381
 6903SOL     OW21607   2.853   4.961   5.157
 6903SOL    HW121608   2.841   4.883   5.218
 6903SOL    HW221609   2.914   4.936   5.082
 6904SOL     OW21610   0.300   5.602   5.105
 6904SOL    HW121611   0.355   5.558   5.034
 6904SOL    HW221612   0.356   5.670   5.153
 6905SOL     OW21613   5.136   5.546   6.381
 6905SOL    HW121614   5.222   5.569   6.428
 6905SOL    HW221615   5.073   5.623   6.388
 6906SOL     OW21616   4.300   1.285   3.639
 6906SOL    HW121617   4.270   1.275   3.734
 6906SOL    HW221618   4.247   1.357   3.595
 6907SOL     OW21619   6.003   1.719   1.789
 6907SOL    HW121620   6.023   1.777   1.709
 6907SOL    HW221621   6.087   1.706   1.842
 6908SOL     OW21622   2.482   4.483   6.583
 6908SOL    HW121623   2.520   4.391   6.594
 6908SOL    HW221624   2.520   4.524   6.500
 6909SOL     OW21625   5.400   4.418   1.881
 6909SOL    HW121626   5.490   4.457   1.863
 6909SOL    HW221627   5.395   4.387   1.976
 6910SOL     OW21628   1.606   2.927   2.964
 6910SOL    HW121629   1.678   2.863   2.938
 6910SOL    HW221630   1.593   2.925   3.063
 6911SOL     OW21631   3.415   0.018   5.521
 6911SOL    HW121632   3.409   0.082   5.598
 6911SOL    HW221633   3.478   0.054   5.453
 6912SOL     OW21634   2.031   3.296   6.401
 6912SOL    HW121635   2.042   3.311   6.302
 6912SOL    HW221636   2.106   3.339   6.450
 6913SOL     OW21637   4.979   6.144   5.372
 6913SOL    HW121638   5.018   6.226   5.415
 6913SOL    HW221639   4.900   6.113   5.425
 6914SOL     OW21640   6.146   3.364   2.217
 6914SOL    HW121641   6.221   3.338   2.155
 6914SOL    HW221642   6.064   3.383   2.164
 6915SOL     OW21643   0.805   3.559   2.161
 6915SOL    HW121644   0.894   3.599   2.137
 6915SOL    HW221645   0.767   3.609   2.240
 6916SOL     OW21646   5.120   0.348   5.574
 6916SOL    HW121647   5.115   0.418   5.645
 6916SOL    HW221648   5.189   0.280   5.599
 6917SOL     OW21649   5.011   5.514   1.847
 6917SOL    HW121650   5.026   5.466   1.934
 6917SOL    HW221651   5.031   5.611   1.859
 6918SOL     OW21652   1.062   3.391   2.128
 6918SOL    HW121653   1.008   3.466   2.090
 6918SOL    HW221654   1.010   3.345   2.199
 6919SOL     OW21655   6.148   0.209   2.461
 6919SOL    HW121656   6.145   0.196   2.362
 6919SOL    HW221657   6.127   0.123   2.507
 6920SOL     OW21658   4.694   0.534   4.965
 6920SOL    HW121659   4.656   0.602   4.903
 6920SOL    HW221660   4.663   0.553   5.058
 6921SOL     OW21661   4.148   0.161   4.356
 6921SOL    HW121662   4.070   0.180   4.415
 6921SOL    HW221663   4.122   0.093   4.287
 6922SOL     OW21664   2.367   6.290   4.491
 6922SOL    HW121665   2.276   6.330   4.484
 6922SOL    HW221666   2.419   6.311   4.409
 6923SOL     OW21667   6.173   0.137   2.186
 6923SOL    HW121668   6.136   0.204   2.122
 6923SOL    HW221669   6.237   0.077   2.139
 6924SOL     OW21670   3.506   6.357   1.025
 6924SOL    HW121671   3.419   6.385   0.985
 6924SOL    HW221672   3.493   6.270   1.074
 6925SOL     OW21673   5.428   6.404   6.754
 6925SOL    HW121674   5.405   6.463   6.676
 6925SOL    HW221675   5.419   6.309   6.726
 6926SOL     OW21676   2.478   1.385   1.024
 6926SOL    HW121677   2.390   1.348   1.056
 6926SOL    HW221678   2.548   1.314   1.032
 6927SOL     OW21679   3.765   0.682   0.739
 6927SOL    HW121680   3.848   0.702   0.687
 6927SOL    HW221681   3.696   0.642   0.678
 6928SOL     OW21682   5.175   5.459   0.518
 6928SOL    HW121683   5.129   5.435   0.604
 6928SOL    HW221684   5.274   5.462   0.533
 6929SOL     OW21685   5.012   4.806   1.442
 6929SOL    HW121686   5.017   4.820   1.541
 6929SOL    HW221687   4.991   4.893   1.397
 6930SOL     OW21688   0.388   0.793   0.308
 6930SOL    HW121689   0.406   0.842   0.223
 6930SOL    HW221690   0.301   0.744   0.301
 6931SOL     OW21691   2.392   2.503   1.113
 6931SOL    HW121692   2.358   2.427   1.168
 6931SOL    HW221693   2.323   2.575   1.108
 6932SOL     OW21694   5.076   5.136   6.861
 6932SOL    HW121695   5.168   5.096   6.863
 6932SOL    HW221696   5.048   5.159   6.954
 6933SOL     OW21697   3.060   6.120   6.429
 6933SOL    HW121698   3.067   6.152   6.334
 6933SOL    HW221699   3.098   6.190   6.490
 6934SOL     OW21700   4.790   4.252   6.514
 6934SOL    HW121701   4.759   4.211   6.428
 6934SOL    HW221702   4.889   4.243   6.521
 6935SOL     OW21703   5.355   5.112   1.950
 6935SOL    HW121704   5.355   5.157   1.861
 6935SOL    HW221705   5.261   5.089   1.976
 6936SOL     OW21706   0.770   2.038   4.655
 6936SOL    HW121707   0.832   1.998   4.723
 6936SOL    HW221708   0.687   2.072   4.701
 6937SOL     OW21709   5.584   6.429   0.113
 6937SOL    HW121710   5.671   6.422   0.163
 6937SOL    HW221711   5.596   6.391   0.021
 6938SOL     OW21712   0.230   1.084   4.552
 6938SOL    HW121713   0.228   1.097   4.453
 6938SOL    HW221714   0.182   1.159   4.597
 6939SOL     OW21715   6.329   4.587   3.468
 6939SOL    HW121716   6.308   4.502   3.516
 6939SOL    HW221717   6.277   4.663   3.510
 6940SOL     OW21718   4.943   6.762   0.644
 6940SOL    HW121719   4.940   6.777   0.743
 6940SOL    HW221720   4.996   6.835   0.601
 6941SOL     OW21721   3.006   3.672   2.788
 6941SOL    HW121722   2.951   3.589   2.779
 6941SOL    HW221723   3.063   3.684   2.707
 6942SOL     OW21724   6.483   6.254   1.663
 6942SOL    HW121725   6.547   6.247   1.741
 6942SOL    HW221726   6.392   6.228   1.693
 6943SOL     OW21727   3.478   4.518   6.998
 6943SOL    HW121728   3.404   4.547   6.937
 6943SOL    HW221729   3.543   4.462   6.948
 6944SOL     OW21730   1.053   3.880   6.162
 6944SOL    HW121731   1.152   3.879   6.174
 6944SOL    HW221732   1.030   3.851   6.069
 6945SOL     OW21733   6.187   2.109   0.755
 6945SOL    HW121734   6.235   2.091   0.841
 6945SOL    HW221735   6.097   2.149   0.775
 6946SOL     OW21736   3.618   5.756   2.164
 6946SOL    HW121737   3.630   5.811   2.081
 6946SOL    HW221738   3.705   5.715   2.190
 6947SOL     OW21739   4.723   4.990   5.825
 6947SOL    HW121740   4.787   4.985   5.749
 6947SOL    HW221741   4.765   5.039   5.901
 6948SOL     OW21742   0.365   5.932   1.013
 6948SOL    HW121743   0.298   5.958   0.943
 6948SOL    HW221744   0.381   6.009   1.073
 6949SOL     OW21745   2.824   2.197   3.478
 6949SOL    HW121746   2.897   2.232   3.419
 6949SOL    HW221747   2.816   2.098   3.466
 6950SOL     OW21748   0.932   6.665   4.755
 6950SOL    HW121749   0.997   6.740   4.768
 6950SOL    HW221750   0.903   6.662   4.659
 6951SOL     OW21751   0.111   4.985   6.941
 6951SOL    HW121752   0.183   4.947   6.884
 6951SOL    HW221753   0.111   5.085   6.933
 6952SOL     OW21754   3.168   5.183   2.816
 6952SOL    HW121755   3.126   5.268   2.785
 6952SOL    HW221756   3.101   5.109   2.809
 6953SOL     OW21757   5.240   0.167   0.456
 6953SOL    HW121758   5.330   0.180   0.498
 6953SOL    HW221759   5.187   0.251   0.463
 6954SOL     OW21760   0.641   3.895   1.027
 6954SOL    HW121761   0.589   3.889   0.942
 6954SOL    HW221762   0.587   3.947   1.094
 6955SOL     OW21763   5.428   0.379   2.494
 6955SOL    HW121764   5.382   0.298   2.532
 6955SOL    HW221765   5.442   0.446   2.566
 6956SOL     OW21766   5.806   5.929   2.057
 6956SOL    HW121767   5.881   5.955   2.118
 6956SOL    HW221768   5.718   5.949   2.101
 6957SOL     OW21769   5.441   5.860   6.247
 6957SOL    HW121770   5.414   5.814   6.162
 6957SOL    HW221771   5.367   5.920   6.277
 6958SOL     OW21772   3.225   3.298   4.023
 6958SOL    HW121773   3.176   3.237   3.960
 6958SOL    HW221774   3.226   3.257   4.115
 6959SOL     OW21775   1.561   4.234   3.052
 6959SOL    HW121776   1.567   4.175   3.133
 6959SOL    HW221777   1.548   4.177   2.971
 6960SOL     OW21778   1.739   4.725   0.577
 6960SOL    HW121779   1.735   4.659   0.652
 6960SOL    HW221780   1.677   4.695   0.504
 6961SOL     OW21781   4.069   1.687   4.908
 6961SOL    HW121782   4.029   1.626   4.839
 6961SOL    HW221783   4.095   1.634   4.988
 6962SOL     OW21784   3.807   6.910   6.556
 6962SOL    HW121785   3.745   6.844   6.516
 6962SOL    HW221786   3.901   6.887   6.532
 6963SOL     OW21787   5.211   6.297   0.583
 6963SOL    HW121788   5.142   6.233   0.616
 6963SOL    HW221789   5.222   6.372   0.649
 6964SOL     OW21790   2.269   0.261   5.813
 6964SOL    HW121791   2.293   0.232   5.905
 6964SOL    HW221792   2.187   0.212   5.783
 6965SOL     OW21793   0.785   1.958   0.622
 6965SOL    HW121794   0.806   2.034   0.684
 6965SOL    HW221795   0.804   1.986   0.527
 6966SOL     OW21796   1.003   0.130   2.168
 6966SOL    HW121797   1.019   0.033   2.148
 6966SOL    HW221798   1.009   0.144   2.267
 6967SOL     OW21799   3.979   1.894   6.072
 6967SOL    HW121800   4.035   1.863   6.149
 6967SOL    HW221801   3.943   1.815   6.023
 6968SOL     OW21802   3.366   6.847   3.188
 6968SOL    HW121803   3.295   6.818   3.252
 6968SOL    HW221804   3.348   6.807   3.098
 6969SOL     OW21805   2.639   1.868   1.443
 6969SOL    HW121806   2.575   1.821   1.504
 6969SOL    HW221807   2.593   1.946   1.401
 6970SOL     OW21808   3.140   4.586   6.096
 6970SOL    HW121809   3.135   4.671   6.043
 6970SOL    HW221810   3.133   4.609   6.194
 6971SOL     OW21811   5.371   4.345   0.776
 6971SOL    HW121812   5.359   4.424   0.836
 6971SOL    HW221813   5.314   4.270   0.809
 6972SOL     OW21814   5.119   3.498   3.180
 6972SOL    HW121815   5.047   3.547   3.132
 6972SOL    HW221816   5.081   3.417   3.225
 6973SOL     OW21817   1.084   1.907   2.499
 6973SOL    HW121818   0.985   1.897   2.507
 6973SOL    HW221819   1.109   1.914   2.402
 6974SOL     OW21820   3.110   3.319   2.923
 6974SOL    HW121821   3.086   3.297   2.828
 6974SOL    HW221822   3.158   3.407   2.926
 6975SOL     OW21823   2.998   5.829   4.939
 6975SOL    HW121824   3.000   5.760   4.866
 6975SOL    HW221825   2.916   5.816   4.994
 6976SOL     OW21826   4.917   4.389   5.186
 6976SOL    HW121827   4.935   4.383   5.284
 6976SOL    HW221828   4.955   4.309   5.140
 6977SOL     OW21829   4.037   4.550   1.637
 6977SOL    HW121830   3.943   4.527   1.612
 6977SOL    HW221831   4.091   4.466   1.646
 6978SOL     OW21832   5.907   3.205   1.454
 6978SOL    HW121833   5.891   3.158   1.541
 6978SOL    HW221834   5.830   3.188   1.392
 6979SOL     OW21835   1.163   4.109   1.589
 6979SOL    HW121836   1.262   4.109   1.601
 6979SOL    HW221837   1.122   4.177   1.650
 6980SOL     OW21838   1.336   6.921   2.775
 6980SOL    HW121839   1.430   6.914   2.741
 6980SOL    HW221840   1.297   6.829   2.784
 6981SOL     OW21841   3.592   3.483   6.859
 6981SOL    HW121842   3.523   3.548   6.827
 6981SOL    HW221843   3.644   3.524   6.934
 6982SOL     OW21844   0.911   1.377   4.255
 6982SOL    HW121845   0.854   1.369   4.173
 6982SOL    HW221846   0.980   1.449   4.241
 6983SOL     OW21847   4.822   0.890   4.369
 6983SOL    HW121848   4.760   0.940   4.429
 6983SOL    HW221849   4.814   0.925   4.276
 6984SOL     OW21850   0.840   2.719   2.747
 6984SOL    HW121851   0.876   2.658   2.677
 6984SOL    HW221852   0.850   2.677   2.837
 6985SOL     OW21853   6.985   4.374   6.922
 6985SOL    HW121854   0.033   4.446   6.909
 6985SOL    HW221855   6.910   4.385   6.857
 6986SOL     OW21856   4.154   5.609   5.914
 6986SOL    HW121857   4.071   5.577   5.960
 6986SOL    HW221858   4.234   5.584   5.969
 6987SOL     OW21859   0.425   1.807   6.040
 6987SOL    HW121860   0.361   1.758   6.098
 6987SOL    HW221861   0.375   1.860   5.971
 6988SOL     OW21862   2.840   0.563   6.106
 6988SOL    HW121863   2.779   0.635   6.074
 6988SOL    HW221864   2.797   0.474   6.092
 6989SOL     OW21865   6.796   4.586   2.434
 6989SOL    HW121866   6.722   4.652   2.443
 6989SOL    HW221867   6.869   4.609   2.498
 6990SOL     OW21868   3.663   2.871   2.140
 6990SOL    HW121869   3.639   2.914   2.053
 6990SOL    HW221870   3.718   2.789   2.123
 6991SOL     OW21871   5.012   4.475   2.782
 6991SOL    HW121872   4.995   4.377   2.794
 6991SOL    HW221873   5.062   4.509   2.862
 6992SOL     OW21874   0.822   7.018   6.739
 6992SOL    HW121875   0.819   0.095   6.714
 6992SOL    HW221876   0.865   6.965   6.666
 6993SOL     OW21877   5.884   1.091   1.883
 6993SOL    HW121878   5.845   1.180   1.859
 6993SOL    HW221879   5.893   1.036   1.800
 6994SOL     OW21880   1.663   0.105   3.856
 6994SOL    HW121881   1.707   0.117   3.945
 6994SOL    HW221882   1.731   0.111   3.783
 6995SOL     OW21883   0.379   3.466   0.595
 6995SOL    HW121884   0.442   3.417   0.535
 6995SOL    HW221885   0.358   3.409   0.675
 6996SOL     OW21886   1.860   0.701   0.059
 6996SOL    HW121887   1.817   0.779   0.014
 6996SOL    HW221888   1.831   0.698   0.155
 6997SOL     OW21889   6.755   5.175   5.217
 6997SOL    HW121890   6.690   5.173   5.142
 6997SOL    HW221891   6.848   5.171   5.180
 6998SOL     OW21892   0.808   1.561   1.701
 6998SOL    HW121893   0.834   1.638   1.760
 6998SOL    HW221894   0.873   1.553   1.626
 6999SOL     OW21895   0.833   2.729   6.861
 6999SOL    HW121896   0.748   2.781   6.873
 6999SOL    HW221897   0.820   2.635   6.891
 7000SOL     OW21898   6.483   0.254   2.812
 7000SOL    HW121899   6.486   0.160   2.776
 7000SOL    HW221900   6.431   0.312   2.750
 7001SOL     OW21901   1.052   1.550   4.557
 7001SOL    HW121902   1.104   1.530   4.473
 7001SOL    HW221903   1.001   1.634   4.546
 7002SOL     OW21904   0.456   5.651   3.612
 7002SOL    HW121905   0.458   5.751   3.619
 7002SOL    HW221906   0.545   5.618   3.580
 7003SOL     OW21907   6.201   3.997   1.222
 7003SOL    HW121908   6.109   4.033   1.238
 7003SOL    HW221909   6.207   3.904   1.257
 7004SOL     OW21910   1.974   6.132   0.362
 7004SOL    HW121911   1.878   6.140   0.337
 7004SOL    HW221912   1.986   6.052   0.422
 7005SOL     OW21913   1.761   0.333   6.762
 7005SOL    HW121914   1.810   0.264   6.816
 7005SOL    HW221915   1.664   0.329   6.784
 7006SOL     OW21916   0.068   0.341   3.672
 7006SOL    HW121917   0.129   0.265   3.692
 7006SOL    HW221918   0.023   0.371   3.757
 7007SOL     OW21919   4.162   1.128   6.113
 7007SOL    HW121920   4.100   1.055   6.087
 7007SOL    HW221921   4.255   1.104   6.087
 7008SOL     OW21922   6.786   4.089   3.473
 7008SOL    HW121923   6.815   4.051   3.385
 7008SOL    HW221924   6.865   4.097   3.533
 7009SOL     OW21925   4.477   6.128   2.113
 7009SOL    HW121926   4.448   6.137   2.018
 7009SOL    HW221927   4.573   6.100   2.116
 7010SOL     OW21928   5.218   4.024   2.558
 7010SOL    HW121929   5.203   3.925   2.556
 7010SOL    HW221930   5.141   4.071   2.514
 7011SOL     OW21931   3.602   6.410   0.099
 7011SOL    HW121932   3.647   6.321   0.096
 7011SOL    HW221933   3.507   6.399   0.126
 7012SOL     OW21934   0.993   2.923   1.189
 7012SOL    HW121935   0.957   3.014   1.171
 7012SOL    HW221936   0.960   2.859   1.120
 7013SOL     OW21937   2.575   1.395   0.152
 7013SOL    HW121938   2.543   1.339   0.228
 7013SOL    HW221939   2.502   1.405   0.085
 7014SOL     OW21940   6.154   3.713   1.975
 7014SOL    HW121941   6.168   3.618   1.946
 7014SOL    HW221942   6.214   3.732   2.053
 7015SOL     OW21943   5.445   4.074   1.831
 7015SOL    HW121944   5.444   4.141   1.905
 7015SOL    HW221945   5.354   4.036   1.818
 7016SOL     OW21946   3.397   4.925   0.822
 7016SOL    HW121947   3.330   4.981   0.871
 7016SOL    HW221948   3.390   4.943   0.724
 7017SOL     OW21949   4.150   4.729   3.822
 7017SOL    HW121950   4.073   4.761   3.765
 7017SOL    HW221951   4.210   4.671   3.767
 7018SOL     OW21952   4.807   2.665   4.469
 7018SOL    HW121953   4.772   2.731   4.535
 7018SOL    HW221954   4.907   2.665   4.471
 7019SOL     OW21955   5.133   4.983   2.026
 7019SOL    HW121956   5.044   4.940   2.007
 7019SOL    HW221957   5.133   5.019   2.119
 7020SOL     OW21958   0.801   3.288   0.136
 7020SOL    HW121959   0.703   3.300   0.152
 7020SOL    HW221960   0.853   3.319   0.216
 7021SOL     OW21961   1.127   2.738   4.859
 7021SOL    HW121962   1.153   2.718   4.764
 7021SOL    HW221963   1.162   2.666   4.918
 7022SOL     OW21964   4.033   1.001   0.433
 7022SOL    HW121965   4.100   1.063   0.392
 7022SOL    HW221966   4.009   1.033   0.524
 7023SOL     OW21967   0.504   1.596   1.677
 7023SOL    HW121968   0.597   1.631   1.662
 7023SOL    HW221969   0.502   1.539   1.758
 7024SOL     OW21970   4.086   3.172   3.683
 7024SOL    HW121971   4.172   3.122   3.672
 7024SOL    HW221972   4.041   3.181   3.594
 7025SOL     OW21973   2.818   0.172   0.136
 7025SOL    HW121974   2.749   0.126   0.192
 7025SOL    HW221975   2.867   0.239   0.192
 7026SOL     OW21976   3.096   1.626   1.231
 7026SOL    HW121977   3.185   1.595   1.263
 7026SOL    HW221978   3.107   1.712   1.180
 7027SOL     OW21979   2.331   5.204   2.306
 7027SOL    HW121980   2.365   5.222   2.214
 7027SOL    HW221981   2.277   5.283   2.337
 7028SOL     OW21982   2.772   0.590   3.820
 7028SOL    HW121983   2.781   0.627   3.728
 7028SOL    HW221984   2.862   0.582   3.862
 7029SOL     OW21985   2.865   3.346   5.617
 7029SOL    HW121986   2.927   3.416   5.651
 7029SOL    HW221987   2.771   3.378   5.625
 7030SOL     OW21988   6.962   1.582   4.698
 7030SOL    HW121989   0.023   1.533   4.733
 7030SOL    HW221990   6.919   1.527   4.626
 7031SOL     OW21991   4.401   5.837   1.092
 7031SOL    HW121992   4.309   5.800   1.102
 7031SOL    HW221993   4.414   5.867   0.997
 7032SOL     OW21994   3.921   0.153   3.998
 7032SOL    HW121995   3.977   0.236   4.004
 7032SOL    HW221996   3.966   0.080   4.050
 7033SOL     OW21997   1.680   2.521   5.382
 7033SOL    HW121998   1.762   2.483   5.425
 7033SOL    HW221999   1.658   2.609   5.423
 7034SOL     OW22000   6.701   1.846   3.498
 7034SOL    HW122001   6.748   1.930   3.526
 7034SOL    HW222002   6.625   1.870   3.438
 7035SOL     OW22003   2.323   0.313   1.314
 7035SOL    HW122004   2.230   0.349   1.309
 7035SOL    HW222005   2.342   0.285   1.408
 7036SOL     OW22006   0.226   1.274   2.292
 7036SOL    HW122007   0.291   1.200   2.309
 7036SOL    HW222008   0.213   1.327   2.375
 7037SOL     OW22009   0.311   0.086   5.707
 7037SOL    HW122010   0.345   0.117   5.795
 7037SOL    HW222011   0.300   7.006   5.709
 7038SOL     OW22012   2.453   3.686   6.173
 7038SOL    HW122013   2.399   3.750   6.227
 7038SOL    HW222014   2.394   3.640   6.106
 7039SOL     OW22015   0.727   5.253   2.768
 7039SOL    HW122016   0.771   5.174   2.725
 7039SOL    HW222017   0.670   5.300   2.700
 7040SOL     OW22018   4.459   2.059   5.793
 7040SOL    HW122019   4.450   2.105   5.881
 7040SOL    HW222020   4.534   2.100   5.741
 7041SOL     OW22021   1.232   1.029   3.623
 7041SOL    HW122022   1.162   1.082   3.575
 7041SOL    HW222023   1.294   0.987   3.557
 7042SOL     OW22024   4.162   5.813   4.948
 7042SOL    HW122025   4.257   5.810   4.915
 7042SOL    HW222026   4.145   5.901   4.992
 7043SOL     OW22027   2.773   4.692   3.312
 7043SOL    HW122028   2.846   4.761   3.310
 7043SOL    HW222029   2.754   4.660   3.219
 7044SOL     OW22030   5.443   6.322   4.119
 7044SOL    HW122031   5.491   6.241   4.152
 7044SOL    HW222032   5.475   6.344   4.027
 7045SOL     OW22033   6.287   5.708   2.023
 7045SOL    HW122034   6.228   5.700   1.943
 7045SOL    HW222035   6.239   5.760   2.094
 7046SOL     OW22036   2.955   2.196   4.423
 7046SOL    HW122037   2.920   2.210   4.515
 7046SOL    HW222038   3.030   2.260   4.405
 7047SOL     OW22039   0.787   6.925   0.815
 7047SOL    HW122040   0.836   6.999   0.770
 7047SOL    HW222041   0.852   6.865   0.862
 7048SOL     OW22042   6.685   5.244   4.958
 7048SOL    HW122043   6.765   5.303   4.970
 7048SOL    HW222044   6.644   5.260   4.868
 7049SOL     OW22045   3.543   1.565   1.883
 7049SOL    HW122046   3.494   1.652   1.893
 7049SOL    HW222047   3.641   1.583   1.875
 7050SOL     OW22048   3.947   4.631   0.899
 7050SOL    HW122049   3.937   4.554   0.962
 7050SOL    HW222050   3.929   4.601   0.805
 7051SOL     OW22051   0.048   0.084   1.582
 7051SOL    HW122052   6.997   0.072   1.653
 7051SOL    HW222053   0.007   0.126   1.501
 7052SOL     OW22054   5.989   0.129   2.915
 7052SOL    HW122055   5.965   0.092   2.825
 7052SOL    HW222056   6.036   0.058   2.969
 7053SOL     OW22057   1.503   3.241   3.521
 7053SOL    HW122058   1.582   3.254   3.462
 7053SOL    HW222059   1.420   3.268   3.473
 7054SOL     OW22060   6.667   0.231   0.927
 7054SOL    HW122061   6.589   0.210   0.985
 7054SOL    HW222062   6.691   0.327   0.936
 7055SOL     OW22063   2.176   0.602   6.978
 7055SOL    HW122064   2.192   0.653   0.043
 7055SOL    HW222065   2.082   0.615   6.948
 7056SOL     OW22066   6.668   5.705   1.220
 7056SOL    HW122067   6.693   5.751   1.134
 7056SOL    HW222068   6.574   5.670   1.213
 7057SOL     OW22069   2.668   5.005   4.785
 7057SOL    HW122070   2.760   5.030   4.755
 7057SOL    HW222071   2.653   4.907   4.770
 7058SOL     OW22072   4.970   2.501   6.529
 7058SOL    HW122073   5.007   2.419   6.484
 7058SOL    HW222074   5.044   2.565   6.548
 7059SOL     OW22075   2.269   0.976   4.472
 7059SOL    HW122076   2.254   0.926   4.557
 7059SOL    HW222077   2.298   0.912   4.401
 7060SOL     OW22078   3.313   6.815   2.730
 7060SOL    HW122079   3.271   6.772   2.650
 7060SOL    HW222080   3.255   6.891   2.761
 7061SOL     OW22081   1.211   2.108   2.969
 7061SOL    HW122082   1.283   2.067   3.025
 7061SOL    HW222083   1.214   2.207   2.977
 7062SOL     OW22084   4.647   1.653   3.428
 7062SOL    HW122085   4.551   1.668   3.451
 7062SOL    HW222086   4.690   1.596   3.498
 7063SOL     OW22087   0.694   0.104   2.199
 7063SOL    HW122088   0.672   0.074   2.292
 7063SOL    HW222089   0.793   0.101   2.185
 7064SOL     OW22090   4.939   1.868   5.262
 7064SOL    HW122091   4.964   1.917   5.346
 7064SOL    HW222092   4.880   1.925   5.206
 7065SOL     OW22093   3.280   4.369   5.350
 7065SOL    HW122094   3.225   4.450   5.333
 7065SOL    HW222095   3.293   4.357   5.448
 7066SOL     OW22096   3.939   0.671   0.282
 7066SOL    HW122097   3.915   0.691   0.377
 7066SOL    HW222098   3.908   0.580   0.258
 7067SOL     OW22099   1.891   3.096   0.058
 7067SOL    HW122100   1.880   3.163   0.131
 7067SOL    HW222101   1.814   3.032   0.060
 7068SOL     OW22102   5.468   3.797   4.442
 7068SOL    HW122103   5.442   3.753   4.356
 7068SOL    HW222104   5.528   3.735   4.494
 7069SOL     OW22105   6.239   0.367   5.904
 7069SOL    HW122106   6.328   0.368   5.951
 7069SOL    HW222107   6.254   0.351   5.806
 7070SOL     OW22108   0.408   6.989   4.842
 7070SOL    HW122109   0.443   6.917   4.782
 7070SOL    HW222110   0.308   6.994   4.833
 7071SOL     OW22111   5.048   6.645   6.582
 7071SOL    HW122112   5.080   6.655   6.488
 7071SOL    HW222113   4.963   6.697   6.594
 7072SOL     OW22114   0.901   4.229   6.726
 7072SOL    HW122115   0.965   4.273   6.789
 7072SOL    HW222116   0.950   4.163   6.669
 7073SOL     OW22117   4.642   0.775   3.200
 7073SOL    HW122118   4.676   0.867   3.179
 7073SOL    HW222119   4.652   0.756   3.297
 7074SOL     OW22120   6.071   4.065   3.251
 7074SOL    HW122121   6.124   4.144   3.220
 7074SOL    HW222122   5.988   4.057   3.195
 7075SOL     OW22123   3.251   4.930   4.869
 7075SOL    HW122124   3.254   4.932   4.969
 7075SOL    HW222125   3.178   4.868   4.839
 7076SOL     OW22126   5.765   3.331   2.515
 7076SOL    HW122127   5.816   3.267   2.457
 7076SOL    HW222128   5.801   3.328   2.608
 7077SOL     OW22129   2.709   4.933   2.094
 7077SOL    HW122130   2.655   4.964   2.016
 7077SOL    HW222131   2.792   4.988   2.102
 7078SOL     OW22132   5.471   6.592   0.482
 7078SOL    HW122133   5.407   6.542   0.425
 7078SOL    HW222134   5.561   6.595   0.437
 7079SOL     OW22135   1.019   6.580   4.284
 7079SOL    HW122136   1.097   6.538   4.331
 7079SOL    HW222137   1.053   6.651   4.221
 7080SOL     OW22138   3.900   2.087   5.247
 7080SOL    HW122139   3.995   2.098   5.220
 7080SOL    HW222140   3.855   2.022   5.185
 7081SOL     OW22141   1.537   0.765   6.729
 7081SOL    HW122142   1.636   0.758   6.718
 7081SOL    HW222143   1.510   0.861   6.729
 7082SOL     OW22144   6.593   4.033   2.274
 7082SOL    HW122145   6.551   4.100   2.335
 7082SOL    HW222146   6.670   3.990   2.321
 7083SOL     OW22147   6.561   2.575   2.424
 7083SOL    HW122148   6.543   2.665   2.385
 7083SOL    HW222149   6.559   2.506   2.353
 7084SOL     OW22150   1.179   5.974   0.196
 7084SOL    HW122151   1.130   6.025   0.125
 7084SOL    HW222152   1.139   5.993   0.285
 7085SOL     OW22153   0.327   2.910   2.529
 7085SOL    HW122154   0.235   2.939   2.501
 7085SOL    HW222155   0.391   2.986   2.520
 7086SOL     OW22156   5.868   0.762   5.730
 7086SOL    HW122157   5.797   0.714   5.679
 7086SOL    HW222158   5.826   0.835   5.785
 7087SOL     OW22159   5.586   3.101   3.316
 7087SOL    HW122160   5.488   3.101   3.337
 7087SOL    HW222161   5.618   3.007   3.305
 7088SOL     OW22162   5.803   1.792   5.247
 7088SOL    HW122163   5.870   1.718   5.251
 7088SOL    HW222164   5.732   1.769   5.180
 7089SOL     OW22165   3.897   5.539   1.578
 7089SOL    HW122166   3.871   5.451   1.538
 7089SOL    HW222167   3.992   5.533   1.611
 7090SOL     OW22168   3.849   1.529   1.169
 7090SOL    HW122169   3.766   1.567   1.127
 7090SOL    HW222170   3.845   1.429   1.167
 7091SOL     OW22171   0.622   6.687   0.377
 7091SOL    HW122172   0.720   6.706   0.388
 7091SOL    HW222173   0.571   6.773   0.385
 7092SOL     OW22174   4.496   2.384   6.719
 7092SOL    HW122175   4.502   2.374   6.620
 7092SOL    HW222176   4.405   2.414   6.745
 7093SOL     OW22177   3.541   3.830   0.549
 7093SOL    HW122178   3.611   3.775   0.503
 7093SOL    HW222179   3.514   3.905   0.489
 7094SOL     OW22180   2.250   6.769   5.748
 7094SOL    HW122181   2.336   6.717   5.747
 7094SOL    HW222182   2.264   6.857   5.703
 7095SOL     OW22183   2.978   4.390   5.729
 7095SOL    HW122184   3.005   4.305   5.684
 7095SOL    HW222185   2.884   4.413   5.703
 7096SOL     OW22186   7.009   0.692   0.793
 7096SOL    HW122187   0.020   0.612   0.844
 7096SOL    HW222188   0.017   0.775   0.841
 7097SOL     OW22189   5.630   0.228   1.658
 7097SOL    HW122190   5.575   0.175   1.594
 7097SOL    HW222191   5.578   0.307   1.690
 7098SOL     OW22192   0.839   6.705   4.491
 7098SOL    HW122193   0.752   6.656   4.479
 7098SOL    HW222194   0.905   6.672   4.423
 7099SOL     OW22195   2.981   2.108   3.952
 7099SOL    HW122196   2.948   2.159   4.031
 7099SOL    HW222197   2.946   2.150   3.868
 7100SOL     OW22198   0.022   3.596   0.762
 7100SOL    HW122199   0.007   3.511   0.813
 7100SOL    HW222200   0.117   3.625   0.773
 7101SOL     OW22201   1.828   6.595   5.422
 7101SOL    HW122202   1.760   6.534   5.463
 7101SOL    HW222203   1.889   6.542   5.363
 7102SOL     OW22204   5.078   0.613   0.622
 7102SOL    HW122205   5.047   0.567   0.704
 7102SOL    HW222206   5.169   0.652   0.637
 7103SOL     OW22207   4.970   5.098   2.838
 7103SOL    HW122208   4.888   5.053   2.874
 7103SOL    HW222209   5.027   5.030   2.791
 7104SOL     OW22210   5.131   2.984   3.635
 7104SOL    HW122211   5.183   2.902   3.609
 7104SOL    HW222212   5.104   2.978   3.731
 7105SOL     OW22213   3.038   3.928   3.753
 7105SOL    HW122214   2.966   3.869   3.716
 7105SOL    HW222215   3.016   3.952   3.848
 7106SOL     OW22216   3.452   3.042   1.282
 7106SOL    HW122217   3.387   2.973   1.314
 7106SOL    HW222218   3.539   3.031   1.331
 7107SOL     OW22219   3.830   0.444   6.918
 7107SOL    HW122220   3.822   0.418   6.822
 7107SOL    HW222221   3.768   0.388   6.974
 7108SOL     OW22222   3.183   6.712   2.487
 7108SOL    HW122223   3.155   6.770   2.411
 7108SOL    HW222224   3.127   6.629   2.489
 7109SOL     OW22225   1.911   6.963   5.690
 7109SOL    HW122226   1.817   6.949   5.723
 7109SOL    HW222227   1.952   6.875   5.668
 7110SOL     OW22228   3.088   6.320   4.892
 7110SOL    HW122229   3.014   6.350   4.951
 7110SOL    HW222230   3.085   6.220   4.882
 7111SOL     OW22231   0.842   0.638   3.723
 7111SOL    HW122232   0.757   0.684   3.695
 7111SOL    HW222233   0.903   0.704   3.766
 7112SOL     OW22234   2.189   4.968   4.332
 7112SOL    HW122235   2.274   4.932   4.295
 7112SOL    HW222236   2.112   4.914   4.298
 7113SOL     OW22237   3.234   4.861   5.134
 7113SOL    HW122238   3.170   4.929   5.170
 7113SOL    HW222239   3.191   4.771   5.137
 7114SOL     OW22240   4.627   4.967   0.620
 7114SOL    HW122241   4.698   4.954   0.551
 7114SOL    HW222242   4.602   5.063   0.624
 7115SOL     OW22243   6.484   4.605   6.563
 7115SOL    HW122244   6.535   4.682   6.601
 7115SOL    HW222245   6.548   4.533   6.536
 7116SOL     OW22246   6.915   3.612   4.096
 7116SOL    HW122247   6.926   3.554   4.015
 7116SOL    HW222248   7.000   3.609   4.150
 7117SOL     OW22249   6.320   6.942   3.430
 7117SOL    HW122250   6.283   6.860   3.386
 7117SOL    HW222251   6.417   6.929   3.449
 7118SOL     OW22252   4.291   4.523   5.560
 7118SOL    HW122253   4.208   4.577   5.544
 7118SOL    HW222254   4.316   4.474   5.477
 7119SOL     OW22255   4.607   0.020   4.993
 7119SOL    HW122256   4.612   0.088   5.066
 7119SOL    HW222257   4.609   0.066   4.904
 7120SOL     OW22258   4.971   1.424   0.979
 7120SOL    HW122259   4.897   1.429   0.911
 7120SOL    HW222260   4.998   1.517   1.004
 7121SOL     OW22261   0.860   6.761   3.598
 7121SOL    HW122262   0.870   6.718   3.508
 7121SOL    HW222263   0.863   6.860   3.587
 7122SOL     OW22264   2.634   6.753   5.969
 7122SOL    HW122265   2.604   6.848   5.961
 7122SOL    HW222266   2.730   6.746   5.940
 7123SOL     OW22267   5.616   5.313   5.507
 7123SOL    HW122268   5.569   5.329   5.594
 7123SOL    HW222269   5.646   5.217   5.503
 7124SOL     OW22270   0.738   2.131   1.442
 7124SOL    HW122271   0.731   2.091   1.350
 7124SOL    HW222272   0.678   2.211   1.448
 7125SOL     OW22273   0.895   0.170   1.494
 7125SOL    HW122274   0.977   0.134   1.451
 7125SOL    HW222275   0.865   0.107   1.566
 7126SOL     OW22276   4.273   6.284   1.568
 7126SOL    HW122277   4.224   6.366   1.598
 7126SOL    HW222278   4.363   6.282   1.610
 7127SOL     OW22279   3.126   6.267   5.484
 7127SOL    HW122280   3.046   6.236   5.536
 7127SOL    HW222281   3.151   6.197   5.417
 7128SOL     OW22282   3.876   4.164   6.272
 7128SOL    HW122283   3.860   4.073   6.234
 7128SOL    HW222284   3.799   4.223   6.250
 7129SOL     OW22285   0.291   6.928   1.066
 7129SOL    HW122286   0.366   6.916   1.001
 7129SOL    HW222287   0.204   6.932   1.017
 7130SOL     OW22288   3.184   6.374   4.024
 7130SOL    HW122289   3.257   6.404   3.962
 7130SOL    HW222290   3.095   6.387   3.979
 7131SOL     OW22291   4.139   0.918   2.151
 7131SOL    HW122292   4.191   0.898   2.068
 7131SOL    HW222293   4.043   0.933   2.128
 7132SOL     OW22294   5.012   3.884   0.153
 7132SOL    HW122295   4.938   3.948   0.174
 7132SOL    HW222296   5.076   3.882   0.230
 7133SOL     OW22297   3.492   5.903   3.365
 7133SOL    HW122298   3.474   5.904   3.463
 7133SOL    HW222299   3.519   5.811   3.336
 7134SOL     OW22300   5.542   5.348   1.528
 7134SOL    HW122301   5.544   5.274   1.595
 7134SOL    HW222302   5.635   5.377   1.507
 7135SOL     OW22303   2.219   3.017   1.777
 7135SOL    HW122304   2.130   2.973   1.788
 7135SOL    HW222305   2.208   3.116   1.783
 7136SOL     OW22306   3.021   1.583   1.767
 7136SOL    HW122307   3.075   1.562   1.849
 7136SOL    HW222308   3.072   1.648   1.710
 7137SOL     OW22309   2.674   2.041   1.793
 7137SOL    HW122310   2.712   2.004   1.708
 7137SOL    HW222311   2.647   1.967   1.854
 7138SOL     OW22312   1.746   1.838   0.515
 7138SOL    HW122313   1.706   1.753   0.551
 7138SOL    HW222314   1.688   1.915   0.540
 7139SOL     OW22315   6.273   5.858   1.643
 7139SOL    HW122316   6.359   5.900   1.614
 7139SOL    HW222317   6.266   5.767   1.601
 7140SOL     OW22318   6.638   3.210   0.301
 7140SOL    HW122319   6.625   3.191   0.398
 7140SOL    HW222320   6.562   3.266   0.267
 7141SOL     OW22321   4.244   6.800   1.350
 7141SOL    HW122322   4.235   6.893   1.384
 7141SOL    HW222323   4.154   6.762   1.330
 7142SOL     OW22324   3.151   0.239   5.026
 7142SOL    HW122325   3.190   0.168   5.084
 7142SOL    HW222326   3.070   0.278   5.071
 7143SOL     OW22327   2.471   4.759   6.631
 7143SOL    HW122328   2.533   4.806   6.694
 7143SOL    HW222329   2.490   4.660   6.634
 7144SOL     OW22330   6.532   0.742   4.515
 7144SOL    HW122331   6.582   0.802   4.578
 7144SOL    HW222332   6.537   0.780   4.422
 7145SOL     OW22333   4.975   2.277   0.072
 7145SOL    HW122334   4.876   2.291   0.070
 7145SOL    HW222335   5.010   2.297   0.164
 7146SOL     OW22336   2.394   1.111   5.140
 7146SOL    HW122337   2.311   1.155   5.173
 7146SOL    HW222338   2.381   1.082   5.045
 7147SOL     OW22339   5.837   5.055   1.977
 7147SOL    HW122340   5.739   5.062   1.996
 7147SOL    HW222341   5.883   5.012   2.054
 7148SOL     OW22342   6.838   6.253   0.883
 7148SOL    HW122343   6.795   6.308   0.955
 7148SOL    HW222344   6.936   6.273   0.881
 7149SOL     OW22345   6.610   5.040   4.113
 7149SOL    HW122346   6.570   5.099   4.042
 7149SOL    HW222347   6.646   5.096   4.187
 7150SOL     OW22348   3.677   3.642   0.038
 7150SOL    HW122349   3.632   3.590   0.111
 7150SOL    HW222350   3.683   3.738   0.065
 7151SOL     OW22351   3.730   0.905   0.890
 7151SOL    HW122352   3.632   0.895   0.902
 7151SOL    HW222353   3.757   0.862   0.803
 7152SOL     OW22354   0.366   1.521   6.691
 7152SOL    HW122355   0.361   1.429   6.651
 7152SOL    HW222356   0.452   1.564   6.665
 7153SOL     OW22357   3.920   6.223   0.842
 7153SOL    HW122358   3.989   6.277   0.795
 7153SOL    HW222359   3.948   6.127   0.844
 7154SOL     OW22360   4.136   1.360   1.854
 7154SOL    HW122361   4.147   1.311   1.941
 7154SOL    HW222362   4.083   1.443   1.870
 7155SOL     OW22363   2.939   1.800   2.727
 7155SOL    HW122364   2.902   1.851   2.649
 7155SOL    HW222365   2.988   1.720   2.694
 7156SOL     OW22366   6.019   3.924   0.314
 7156SOL    HW122367   6.100   3.955   0.265
 7156SOL    HW222368   5.949   3.895   0.248
 7157SOL     OW22369   5.969   4.558   6.516
 7157SOL    HW122370   5.890   4.603   6.474
 7157SOL    HW222371   6.034   4.627   6.546
 7158SOL     OW22372   4.977   6.743   3.707
 7158SOL    HW122373   5.004   6.821   3.650
 7158SOL    HW222374   5.046   6.728   3.777
 7159SOL     OW22375   0.914   6.068   3.647
 7159SOL    HW122376   0.849   6.135   3.682
 7159SOL    HW222377   0.897   5.979   3.691
 7160SOL     OW22378   6.021   6.821   2.750
 7160SOL    HW122379   5.941   6.760   2.745
 7160SOL    HW222380   6.081   6.791   2.824
 7161SOL     OW22381   4.115   3.469   3.574
 7161SOL    HW122382   4.042   3.494   3.638
 7161SOL    HW222383   4.193   3.433   3.624
 7162SOL     OW22384   0.206   5.193   2.192
 7162SOL    HW122385   0.141   5.126   2.157
 7162SOL    HW222386   0.158   5.277   2.216
 7163SOL     OW22387   1.504   1.051   2.117
 7163SOL    HW122388   1.570   0.983   2.150
 7163SOL    HW222389   1.504   1.129   2.179
 7164SOL     OW22390   1.754   1.081   6.230
 7164SOL    HW122391   1.715   0.988   6.235
 7164SOL    HW222392   1.764   1.108   6.134
 7165SOL     OW22393   6.352   0.568   0.201
 7165SOL    HW122394   6.346   0.656   0.153
 7165SOL    HW222395   6.412   0.576   0.280
 7166SOL     OW22396   5.548   6.391   6.013
 7166SOL    HW122397   5.495   6.438   6.083
 7166SOL    HW222398   5.640   6.430   6.008
 7167SOL     OW22399   5.752   2.026   4.861
 7167SOL    HW122400   5.673   1.967   4.875
 7167SOL    HW222401   5.731   2.119   4.892
 7168SOL     OW22402   2.857   0.976   2.036
 7168SOL    HW122403   2.788   0.993   1.965
 7168SOL    HW222404   2.884   1.063   2.078
 7169SOL     OW22405   1.977   4.400   6.471
 7169SOL    HW122406   2.035   4.410   6.552
 7169SOL    HW222407   2.019   4.450   6.395
 7170SOL     OW22408   4.374   1.263   1.809
 7170SOL    HW122409   4.286   1.305   1.830
 7170SOL    HW222410   4.430   1.326   1.755
 7171SOL     OW22411   6.044   4.694   0.621
 7171SOL    HW122412   6.050   4.785   0.579
 7171SOL    HW222413   5.998   4.701   0.709
 7172SOL     OW22414   1.192   1.433   3.915
 7172SOL    HW122415   1.231   1.518   3.880
 7172SOL    HW222416   1.121   1.454   3.982
 7173SOL     OW22417   4.846   6.240   6.650
 7173SOL    HW122418   4.846   6.231   6.749
 7173SOL    HW222419   4.920   6.185   6.611
 7174SOL     OW22420   5.969   4.366   1.620
 7174SOL    HW122421   5.930   4.451   1.655
 7174SOL    HW222422   5.907   4.326   1.553
 7175SOL     OW22423   5.825   3.691   5.811
 7175SOL    HW122424   5.760   3.641   5.868
 7175SOL    HW222425   5.900   3.630   5.785
 7176SOL     OW22426   0.177   1.015   4.962
 7176SOL    HW122427   0.253   1.076   4.982
 7176SOL    HW222428   0.212   0.924   4.939
 7177SOL     OW22429   1.872   5.154   4.540
 7177SOL    HW122430   1.971   5.143   4.527
 7177SOL    HW222431   1.835   5.073   4.585
 7178SOL     OW22432   1.321   1.392   5.428
 7178SOL    HW122433   1.386   1.456   5.387
 7178SOL    HW222434   1.302   1.317   5.365
 7179SOL     OW22435   3.820   6.082   6.639
 7179SOL    HW122436   3.809   5.992   6.598
 7179SOL    HW222437   3.732   6.129   6.641
 7180SOL     OW22438   0.944   4.578   1.145
 7180SOL    HW122439   1.027   4.537   1.184
 7180SOL    HW222440   0.970   4.639   1.070
 7181SOL     OW22441   2.515   1.305   5.952
 7181SOL    HW122442   2.477   1.292   6.044
 7181SOL    HW222443   2.551   1.397   5.943
 7182SOL     OW22444   1.185   3.078   3.996
 7182SOL    HW122445   1.206   3.176   3.998
 7182SOL    HW222446   1.263   3.026   4.030
 7183SOL     OW22447   0.493   6.290   1.828
 7183SOL    HW122448   0.518   6.374   1.780
 7183SOL    HW222449   0.521   6.211   1.773
 7184SOL     OW22450   6.466   0.200   3.370
 7184SOL    HW122451   6.442   0.103   3.376
 7184SOL    HW222452   6.467   0.229   3.275
 7185SOL     OW22453   4.972   0.708   4.936
 7185SOL    HW122454   4.942   0.613   4.927
 7185SOL    HW222455   4.906   0.759   4.991
 7186SOL     OW22456   0.237   0.071   6.370
 7186SOL    HW122457   0.180   0.039   6.446
 7186SOL    HW222458   0.286   0.153   6.398
 7187SOL     OW22459   2.939   3.221   4.952
 7187SOL    HW122460   2.861   3.160   4.935
 7187SOL    HW222461   3.023   3.168   4.956
 7188SOL     OW22462   4.249   4.969   6.997
 7188SOL    HW122463   4.336   4.961   6.948
 7188SOL    HW222464   4.174   4.955   6.933
 7189SOL     OW22465   6.155   2.418   5.270
 7189SOL    HW122466   6.091   2.341   5.261
 7189SOL    HW222467   6.114   2.488   5.329
 7190SOL     OW22468   5.710   5.170   1.159
 7190SOL    HW122469   5.644   5.162   1.234
 7190SOL    HW222470   5.661   5.174   1.072
 7191SOL     OW22471   0.545   4.052   3.260
 7191SOL    HW122472   0.522   3.959   3.230
 7191SOL    HW222473   0.585   4.048   3.352
 7192SOL     OW22474   1.797   4.801   6.288
 7192SOL    HW122475   1.698   4.803   6.274
 7192SOL    HW222476   1.817   4.782   6.384
 7193SOL     OW22477   2.371   2.692   2.404
 7193SOL    HW122478   2.427   2.638   2.341
 7193SOL    HW222479   2.379   2.655   2.496
 7194SOL     OW22480   3.345   2.545   5.917
 7194SOL    HW122481   3.290   2.622   5.885
 7194SOL    HW222482   3.391   2.569   6.002
 7195SOL     OW22483   0.144   3.769   6.618
 7195SOL    HW122484   0.080   3.794   6.545
 7195SOL    HW222485   0.225   3.725   6.578
 7196SOL     OW22486   2.995   3.612   2.249
 7196SOL    HW122487   2.991   3.709   2.270
 7196SOL    HW222488   3.085   3.590   2.210
 7197SOL     OW22489   1.919   3.614   5.715
 7197SOL    HW122490   1.886   3.546   5.650
 7197SOL    HW222491   1.911   3.705   5.674
 7198SOL     OW22492   6.514   1.235   1.013
 7198SOL    HW122493   6.475   1.326   1.003
 7198SOL    HW222494   6.612   1.238   0.989
 7199SOL     OW22495   1.276   0.732   1.956
 7199SOL    HW122496   1.318   0.757   1.869
 7199SOL    HW222497   1.211   0.658   1.941
 7200SOL     OW22498   1.584   2.009   0.668
 7200SOL    HW122499   1.618   2.064   0.744
 7200SOL    HW222500   1.517   1.943   0.702
 7201SOL     OW22501   5.894   5.871   4.028
 7201SOL    HW122502   5.963   5.943   4.028
 7201SOL    HW222503   5.808   5.907   3.990
 7202SOL     OW22504   4.771   0.339   5.638
 7202SOL    HW122505   4.842   0.296   5.582
 7202SOL    HW222506   4.770   0.437   5.621
 7203SOL     OW22507   0.260   1.861   1.918
 7203SOL    HW122508   0.220   1.854   2.010
 7203SOL    HW222509   0.359   1.874   1.926
 7204SOL     OW22510   0.093   0.904   1.373
 7204SOL    HW122511   0.020   0.971   1.391
 7204SOL    HW222512   0.054   0.812   1.374
 7205SOL     OW22513   1.995   2.201   5.180
 7205SOL    HW122514   1.911   2.231   5.136
 7205SOL    HW222515   2.053   2.153   5.114
 7206SOL     OW22516   1.927   2.280   1.350
 7206SOL    HW122517   1.967   2.356   1.298
 7206SOL    HW222518   1.935   2.297   1.448
 7207SOL     OW22519   1.752   1.900   3.991
 7207SOL    HW122520   1.843   1.888   4.030
 7207SOL    HW222521   1.734   1.997   3.976
 7208SOL     OW22522   3.320   0.877   4.378
 7208SOL    HW122523   3.380   0.866   4.299
 7208SOL    HW222524   3.323   0.794   4.435
 7209SOL     OW22525   2.981   1.684   2.427
 7209SOL    HW122526   2.937   1.759   2.377
 7209SOL    HW222527   2.949   1.596   2.391
 7210SOL     OW22528   2.714   1.754   3.413
 7210SOL    HW122529   2.668   1.731   3.328
 7210SOL    HW222530   2.791   1.692   3.428
 7211SOL     OW22531   3.214   5.856   5.747
 7211SOL    HW122532   3.148   5.789   5.712
 7211SOL    HW222533   3.304   5.836   5.709
 7212SOL     OW22534   5.812   4.850   6.029
 7212SOL    HW122535   5.849   4.821   6.117
 7212SOL    HW222536   5.856   4.796   5.956
 7213SOL     OW22537   3.431   1.457   0.734
 7213SOL    HW122538   3.517   1.425   0.774
 7213SOL    HW222539   3.382   1.512   0.801
 7214SOL     OW22540   0.730   1.404   6.786
 7214SOL    HW122541   0.726   1.321   6.730
 7214SOL    HW222542   0.789   1.388   6.865
 7215SOL     OW22543   6.840   2.809   3.104
 7215SOL    HW122544   6.787   2.814   3.188
 7215SOL    HW222545   6.896   2.892   3.095
 7216SOL     OW22546   2.980   6.282   3.128
 7216SOL    HW122547   2.881   6.289   3.141
 7216SOL    HW222548   3.000   6.274   3.031
 7217SOL     OW22549   1.345   4.344   3.330
 7217SOL    HW122550   1.290   4.399   3.393
 7217SOL    HW222551   1.288   4.275   3.286
 7218SOL     OW22552   6.104   3.744   4.920
 7218SOL    HW122553   6.094   3.719   4.824
 7218SOL    HW222554   6.041   3.689   4.976
 7219SOL     OW22555   3.446   6.060   1.900
 7219SOL    HW122556   3.391   6.007   1.835
 7219SOL    HW222557   3.395   6.072   1.985
 7220SOL     OW22558   6.513   4.772   4.341
 7220SOL    HW122559   6.613   4.773   4.344
 7220SOL    HW222560   6.481   4.761   4.247
 7221SOL     OW22561   3.499   5.615   5.113
 7221SOL    HW122562   3.522   5.531   5.164
 7221SOL    HW222563   3.401   5.629   5.116
 7222SOL     OW22564   6.723   6.941   3.928
 7222SOL    HW122565   6.716   6.842   3.935
 7222SOL    HW222566   6.711   6.969   3.833
 7223SOL     OW22567   1.817   2.392   0.889
 7223SOL    HW122568   1.859   2.473   0.846
 7223SOL    HW222569   1.775   2.419   0.975
 7224SOL     OW22570   4.210   2.024   3.625
 7224SOL    HW122571   4.111   2.012   3.618
 7224SOL    HW222572   4.248   2.037   3.534
 7225SOL     OW22573   1.800   6.774   1.152
 7225SOL    HW122574   1.766   6.827   1.074
 7225SOL    HW222575   1.896   6.795   1.167
 7226SOL     OW22576   6.394   0.562   6.914
 7226SOL    HW122577   6.301   0.584   6.884
 7226SOL    HW222578   6.402   0.464   6.930
 7227SOL     OW22579   3.113   0.662   2.087
 7227SOL    HW122580   3.082   0.686   1.995
 7227SOL    HW222581   3.069   0.722   2.153
 7228SOL     OW22582   0.766   2.417   2.461
 7228SOL    HW122583   0.712   2.450   2.539
 7228SOL    HW222584   0.707   2.368   2.397
 7229SOL     OW22585   6.656   0.027   4.335
 7229SOL    HW122586   6.697   6.970   4.385
 7229SOL    HW222587   6.560   0.007   4.315
 7230SOL     OW22588   2.614   4.931   4.243
 7230SOL    HW122589   2.552   4.862   4.279
 7230SOL    HW222590   2.638   4.996   4.315
 7231SOL     OW22591   4.487   1.446   0.083
 7231SOL    HW122592   4.431   1.525   0.058
 7231SOL    HW222593   4.439   1.362   0.061
 7232SOL     OW22594   5.579   0.021   2.758
 7232SOL    HW122595   5.493   0.014   2.808
 7232SOL    HW222596   5.625   0.106   2.781
 7233SOL     OW22597   6.459   1.102   5.304
 7233SOL    HW122598   6.369   1.061   5.317
 7233SOL    HW222599   6.461   1.151   5.217
 7234SOL     OW22600   4.960   3.752   3.449
 7234SOL    HW122601   4.950   3.652   3.454
 7234SOL    HW222602   4.954   3.790   3.542
 7235SOL     OW22603   6.715   5.787   1.663
 7235SOL    HW122604   6.684   5.702   1.707
 7235SOL    HW222605   6.813   5.781   1.645
 7236SOL     OW22606   2.299   2.251   3.204
 7236SOL    HW122607   2.292   2.193   3.286
 7236SOL    HW222608   2.363   2.326   3.221
 7237SOL     OW22609   5.240   0.455   6.631
 7237SOL    HW122610   5.314   0.434   6.694
 7237SOL    HW222611   5.275   0.461   6.538
 7238SOL     OW22612   4.639   2.962   6.790
 7238SOL    HW122613   4.556   2.908   6.803
 7238SOL    HW222614   4.615   3.058   6.776
 7239SOL     OW22615   0.489   3.671   2.674
 7239SOL    HW122616   0.515   3.750   2.729
 7239SOL    HW222617   0.568   3.610   2.664
 7240SOL     OW22618   6.958   1.812   5.963
 7240SOL    HW122619   6.913   1.828   5.875
 7240SOL    HW222620   0.035   1.788   5.947
 7241SOL     OW22621   2.766   0.975   1.604
 7241SOL    HW122622   2.718   1.050   1.557
 7241SOL    HW222623   2.773   0.896   1.543
 7242SOL     OW22624   0.572   5.461   4.204
 7242SOL    HW122625   0.660   5.478   4.248
 7242SOL    HW222626   0.586   5.407   4.121
 7243SOL     OW22627   6.608   4.139   6.374
 7243SOL    HW122628   6.695   4.097   6.402
 7243SOL    HW222629   6.570   4.089   6.297
 7244SOL     OW22630   0.174   6.380   6.927
 7244SOL    HW122631   0.210   6.316   6.859
 7244SOL    HW222632   0.175   6.473   6.890
 7245SOL     OW22633   1.530   2.937   6.874
 7245SOL    HW122634   1.606   2.945   6.809
 7245SOL    HW222635   1.493   2.844   6.869
 7246SOL     OW22636   3.042   0.614   4.225
 7246SOL    HW122637   3.048   0.630   4.323
 7246SOL    HW222638   3.054   0.700   4.176
 7247SOL     OW22639   2.717   2.536   5.410
 7247SOL    HW122640   2.741   2.628   5.377
 7247SOL    HW222641   2.800   2.480   5.414
 7248SOL     OW22642   3.339   0.637   4.541
 7248SOL    HW122643   3.317   0.540   4.554
 7248SOL    HW222644   3.438   0.651   4.552
 7249SOL     OW22645   4.134   5.074   2.025
 7249SOL    HW122646   4.053   5.111   2.069
 7249SOL    HW222647   4.147   4.978   2.053
 7250SOL     OW22648   5.296   5.246   5.408
 7250SOL    HW122649   5.238   5.299   5.346
 7250SOL    HW222650   5.389   5.243   5.371
 7251SOL     OW22651   0.483   6.200   5.518
 7251SOL    HW122652   0.492   6.289   5.563
 7251SOL    HW222653   0.393   6.192   5.477
 7252SOL     OW22654   3.103   3.879   2.327
 7252SOL    HW122655   3.141   3.949   2.388
 7252SOL    HW222656   3.128   3.899   2.233
 7253SOL     OW22657   1.362   5.739   5.536
 7253SOL    HW122658   1.451   5.714   5.574
 7253SOL    HW222659   1.376   5.782   5.446
 7254SOL     OW22660   5.578   4.312   3.541
 7254SOL    HW122661   5.556   4.220   3.575
 7254SOL    HW222662   5.677   4.325   3.540
 7255SOL     OW22663   5.059   3.567   6.552
 7255SOL    HW122664   5.043   3.621   6.469
 7255SOL    HW222665   5.158   3.558   6.566
 7256SOL     OW22666   3.352   6.638   5.974
 7256SOL    HW122667   3.291   6.662   5.899
 7256SOL    HW222668   3.351   6.711   6.042
 7257SOL     OW22669   0.010   1.804   4.589
 7257SOL    HW122670   7.011   1.714   4.629
 7257SOL    HW222671   0.097   1.839   4.624
 7258SOL     OW22672   5.886   2.350   1.997
 7258SOL    HW122673   5.894   2.379   1.902
 7258SOL    HW222674   5.818   2.277   2.004
 7259SOL     OW22675   1.265   4.079   3.311
 7259SOL    HW122676   1.177   4.037   3.289
 7259SOL    HW222677   1.339   4.031   3.264
 7260SOL     OW22678   5.453   2.221   1.000
 7260SOL    HW122679   5.433   2.148   0.935
 7260SOL    HW222680   5.367   2.257   1.036
 7261SOL     OW22681   0.305   4.019   0.712
 7261SOL    HW122682   0.272   4.113   0.700
 7261SOL    HW222683   0.405   4.020   0.722
 7262SOL     OW22684   5.309   1.743   5.885
 7262SOL    HW122685   5.218   1.713   5.856
 7262SOL    HW222686   5.301   1.788   5.974
 7263SOL     OW22687   0.093   6.477   0.304
 7263SOL    HW122688   0.088   6.395   0.361
 7263SOL    HW222689   0.129   6.553   0.358
 7264SOL     OW22690   5.683   1.578   0.300
 7264SOL    HW122691   5.663   1.502   0.362
 7264SOL    HW222692   5.781   1.595   0.299
 7265SOL     OW22693   5.130   5.981   4.641
 7265SOL    HW122694   5.227   5.970   4.660
 7265SOL    HW222695   5.085   6.023   4.719
 7266SOL     OW22696   6.668   0.985   3.787
 7266SOL    HW122697   6.696   1.080   3.773
 7266SOL    HW222698   6.612   0.979   3.870
 7267SOL     OW22699   6.410   5.754   5.116
 7267SOL    HW122700   6.485   5.706   5.070
 7267SOL    HW222701   6.351   5.797   5.047
 7268SOL     OW22702   6.269   5.663   4.121
 7268SOL    HW122703   6.322   5.748   4.128
 7268SOL    HW222704   6.283   5.623   4.031
 7269SOL     OW22705   1.779   4.890   5.540
 7269SOL    HW122706   1.734   4.801   5.554
 7269SOL    HW222707   1.852   4.879   5.472
 7270SOL     OW22708   0.374   1.986   4.248
 7270SOL    HW122709   0.432   2.055   4.205
 7270SOL    HW222710   0.298   1.964   4.187
 7271SOL     OW22711   1.451   5.338   4.186
 7271SOL    HW122712   1.425   5.274   4.114
 7271SOL    HW222713   1.550   5.353   4.184
 7272SOL     OW22714   6.142   6.428   2.009
 7272SOL    HW122715   6.069   6.461   1.948
 7272SOL    HW222716   6.228   6.424   1.958
 7273SOL     OW22717   5.638   2.665   6.056
 7273SOL    HW122718   5.725   2.714   6.055
 7273SOL    HW222719   5.596   2.669   5.965
 7274SOL     OW22720   0.760   4.465   6.520
 7274SOL    HW122721   0.757   4.390   6.587
 7274SOL    HW222722   0.775   4.427   6.429
 7275SOL     OW22723   6.872   6.895   2.909
 7275SOL    HW122724   6.903   6.988   2.925
 7275SOL    HW222725   6.772   6.894   2.902
 7276SOL     OW22726   5.608   7.017   3.557
 7276SOL    HW122727   5.584   0.066   3.627
 7276SOL    HW222728   5.536   7.015   3.487
 7277SOL     OW22729   4.595   0.728   5.808
 7277SOL    HW122730   4.581   0.825   5.789
 7277SOL    HW222731   4.506   0.683   5.818
 7278SOL     OW22732   3.044   4.015   1.943
 7278SOL    HW122733   3.022   4.077   1.868
 7278SOL    HW222734   3.021   4.058   2.030
 7279SOL     OW22735   4.160   6.030   7.006
 7279SOL    HW122736   4.228   6.101   6.987
 7279SOL    HW222737   4.074   6.054   6.960
 7280SOL     OW22738   5.464   0.244   5.007
 7280SOL    HW122739   5.536   0.201   4.952
 7280SOL    HW222740   5.380   0.251   4.953
 7281SOL     OW22741   3.280   1.746   6.666
 7281SOL    HW122742   3.240   1.655   6.659
 7281SOL    HW222743   3.226   1.802   6.729
 7282SOL     OW22744   5.775   4.812   2.414
 7282SOL    HW122745   5.792   4.908   2.438
 7282SOL    HW222746   5.861   4.769   2.386
 7283SOL     OW22747   2.451   1.455   3.147
 7283SOL    HW122748   2.469   1.381   3.082
 7283SOL    HW222749   2.402   1.529   3.101
 7284SOL     OW22750   0.424   4.002   5.294
 7284SOL    HW122751   0.507   3.957   5.260
 7284SOL    HW222752   0.395   4.071   5.229
 7285SOL     OW22753   5.048   4.999   2.318
 7285SOL    HW122754   4.976   5.012   2.251
 7285SOL    HW222755   5.011   4.952   2.399
 7286SOL     OW22756   2.315   2.296   1.274
 7286SOL    HW122757   2.252   2.276   1.349
 7286SOL    HW222758   2.275   2.264   1.188
 7287SOL     OW22759   0.638   1.636   6.677
 7287SOL    HW122760   0.680   1.552   6.712
 7287SOL    HW222761   0.674   1.656   6.585
 7288SOL     OW22762   3.763   0.984   6.336
 7288SOL    HW122763   3.743   0.917   6.265
 7288SOL    HW222764   3.711   1.068   6.320
 7289SOL     OW22765   5.874   1.700   3.412
 7289SOL    HW122766   5.943   1.695   3.485
 7289SOL    HW222767   5.875   1.791   3.371
 7290SOL     OW22768   3.054   5.683   5.598
 7290SOL    HW122769   3.142   5.649   5.566
 7290SOL    HW222770   2.985   5.667   5.527
 7291SOL     OW22771   2.342   0.225   1.567
 7291SOL    HW122772   2.353   0.319   1.600
 7291SOL    HW222773   2.252   0.190   1.595
 7292SOL     OW22774   2.531   6.982   3.836
 7292SOL    HW122775   2.442   6.988   3.791
 7292SOL    HW222776   2.592   0.033   3.799
 7293SOL     OW22777   1.942   1.480   5.137
 7293SOL    HW122778   1.988   1.568   5.140
 7293SOL    HW222779   2.008   1.408   5.114
 7294SOL     OW22780   2.750   4.976   0.473
 7294SOL    HW122781   2.651   4.992   0.481
 7294SOL    HW222782   2.777   4.907   0.541
 7295SOL     OW22783   0.595   1.848   0.772
 7295SOL    HW122784   0.674   1.851   0.711
 7295SOL    HW222785   0.626   1.835   0.866
 7296SOL     OW22786   3.165   4.715   1.107
 7296SOL    HW122787   3.131   4.670   1.190
 7296SOL    HW222788   3.095   4.776   1.071
 7297SOL     OW22789   3.947   5.761   0.422
 7297SOL    HW122790   3.884   5.808   0.360
 7297SOL    HW222791   4.023   5.821   0.444
 7298SOL     OW22792   5.462   4.178   5.227
 7298SOL    HW122793   5.527   4.113   5.267
 7298SOL    HW222794   5.476   4.269   5.266
 7299SOL     OW22795   0.765   2.290   6.744
 7299SOL    HW122796   0.832   2.347   6.697
 7299SOL    HW222797   0.675   2.332   6.738
 7300SOL     OW22798   5.405   5.487   1.737
 7300SOL    HW122799   5.485   5.492   1.797
 7300SOL    HW222800   5.433   5.461   1.645
 7301SOL     OW22801   6.777   0.940   5.127
 7301SOL    HW122802   6.746   0.934   5.222
 7301SOL    HW222803   6.698   0.951   5.067
 7302SOL     OW22804   0.466   1.530   0.410
 7302SOL    HW122805   0.455   1.486   0.320
 7302SOL    HW222806   0.552   1.582   0.411
 7303SOL     OW22807   4.844   0.393   6.557
 7303SOL    HW122808   4.916   0.457   6.581
 7303SOL    HW222809   4.828   0.330   6.633
 7304SOL     OW22810   3.602   4.312   6.825
 7304SOL    HW122811   3.691   4.282   6.859
 7304SOL    HW222812   3.616   4.377   6.750
 7305SOL     OW22813   5.027   1.664   0.330
 7305SOL    HW122814   4.982   1.597   0.388
 7305SOL    HW222815   5.047   1.747   0.383
 7306SOL     OW22816   5.010   3.619   1.533
 7306SOL    HW122817   5.048   3.559   1.603
 7306SOL    HW222818   5.009   3.572   1.445
 7307SOL     OW22819   2.960   6.345   1.462
 7307SOL    HW122820   2.955   6.444   1.471
 7307SOL    HW222821   2.895   6.314   1.392
 7308SOL     OW22822   6.813   3.842   5.704
 7308SOL    HW122823   6.873   3.782   5.652
 7308SOL    HW222824   6.725   3.796   5.718
 7309SOL     OW22825   5.256   6.025   0.465
 7309SOL    HW122826   5.331   5.971   0.503
 7309SOL    HW222827   5.289   6.114   0.435
 7310SOL     OW22828   2.222   4.287   1.085
 7310SOL    HW122829   2.274   4.372   1.090
 7310SOL    HW222830   2.167   4.287   1.001
 7311SOL     OW22831   3.197   1.772   2.288
 7311SOL    HW122832   3.123   1.734   2.345
 7311SOL    HW222833   3.186   1.871   2.282
 7312SOL     OW22834   0.178   2.737   5.885
 7312SOL    HW122835   0.260   2.791   5.866
 7312SOL    HW222836   0.204   2.645   5.913
 7313SOL     OW22837   4.671   2.805   6.184
 7313SOL    HW122838   4.695   2.766   6.273
 7313SOL    HW222839   4.572   2.816   6.178
 7314SOL     OW22840   6.724   3.969   5.069
 7314SOL    HW122841   6.678   4.055   5.090
 7314SOL    HW222842   6.679   3.923   4.993
 7315SOL     OW22843   6.207   0.508   3.328
 7315SOL    HW122844   6.280   0.522   3.262
 7315SOL    HW222845   6.222   0.566   3.408
 7316SOL     OW22846   3.069   3.468   5.910
 7316SOL    HW122847   3.138   3.524   5.955
 7316SOL    HW222848   3.113   3.411   5.840
 7317SOL     OW22849   4.699   0.654   1.619
 7317SOL    HW122850   4.708   0.749   1.588
 7317SOL    HW222851   4.668   0.597   1.544
 7318SOL     OW22852   0.687   1.431   1.005
 7318SOL    HW122853   0.651   1.376   1.080
 7318SOL    HW222854   0.746   1.504   1.042
 7319SOL     OW22855   6.405   4.425   6.799
 7319SOL    HW122856   6.420   4.333   6.763
 7319SOL    HW222857   6.457   4.491   6.745
 7320SOL     OW22858   6.738   3.668   2.002
 7320SOL    HW122859   6.738   3.622   1.913
 7320SOL    HW222860   6.791   3.753   1.995
 7321SOL     OW22861   2.628   0.390   5.152
 7321SOL    HW122862   2.707   0.448   5.172
 7321SOL    HW222863   2.570   0.383   5.233
 7322SOL     OW22864   1.188   3.281   2.531
 7322SOL    HW122865   1.273   3.288   2.480
 7322SOL    HW222866   1.112   3.269   2.467
 7323SOL     OW22867   2.022   2.305   1.891
 7323SOL    HW122868   2.030   2.312   1.990
 7323SOL    HW222869   2.085   2.370   1.847
 7324SOL     OW22870   5.423   6.755   2.853
 7324SOL    HW122871   5.355   6.829   2.861
 7324SOL    HW222872   5.418   6.697   2.934
 7325SOL     OW22873   4.102   0.664   6.053
 7325SOL    HW122874   4.127   0.599   6.125
 7325SOL    HW222875   4.045   0.617   5.985
 7326SOL     OW22876   2.074   6.430   5.313
 7326SOL    HW122877   2.148   6.431   5.381
 7326SOL    HW222878   2.107   6.472   5.229
 7327SOL     OW22879   6.775   3.196   5.629
 7327SOL    HW122880   6.757   3.209   5.726
 7327SOL    HW222881   6.806   3.102   5.613
 7328SOL     OW22882   3.681   0.164   6.747
 7328SOL    HW122883   3.672   0.110   6.664
 7328SOL    HW222884   3.591   0.170   6.792
 7329SOL     OW22885   3.885   3.989   1.408
 7329SOL    HW122886   3.981   3.963   1.412
 7329SOL    HW222887   3.828   3.911   1.434
 7330SOL     OW22888   2.681   2.098   0.278
 7330SOL    HW122889   2.647   2.034   0.347
 7330SOL    HW222890   2.609   2.164   0.256
 7331SOL     OW22891   5.685   0.604   1.274
 7331SOL    HW122892   5.741   0.629   1.195
 7331SOL    HW222893   5.740   0.612   1.357
 7332SOL     OW22894   2.922   5.513   0.363
 7332SOL    HW122895   2.915   5.417   0.391
 7332SOL    HW222896   2.912   5.520   0.264
 7333SOL     OW22897   0.265   3.540   3.776
 7333SOL    HW122898   0.279   3.614   3.711
 7333SOL    HW222899   0.350   3.487   3.784
 7334SOL     OW22900   4.476   6.031   6.439
 7334SOL    HW122901   4.448   5.941   6.405
 7334SOL    HW222902   4.405   6.068   6.499
 7335SOL     OW22903   1.793   2.847   2.248
 7335SOL    HW122904   1.780   2.934   2.296
 7335SOL    HW222905   1.790   2.772   2.314
 7336SOL     OW22906   1.411   6.147   3.154
 7336SOL    HW122907   1.409   6.128   3.252
 7336SOL    HW222908   1.341   6.092   3.108
 7337SOL     OW22909   0.935   3.267   2.338
 7337SOL    HW122910   0.940   3.185   2.395
 7337SOL    HW222911   0.842   3.304   2.340
 7338SOL     OW22912   6.274   2.272   1.447
 7338SOL    HW122913   6.307   2.183   1.479
 7338SOL    HW222914   6.319   2.344   1.500
 7339SOL     OW22915   5.327   6.164   3.633
 7339SOL    HW122916   5.368   6.096   3.571
 7339SOL    HW222917   5.340   6.134   3.728
 7340SOL     OW22918   1.885   0.624   0.607
 7340SOL    HW122919   1.930   0.541   0.575
 7340SOL    HW222920   1.786   0.613   0.600
 7341SOL     OW22921   6.676   2.168   0.081
 7341SOL    HW122922   6.722   2.085   0.113
 7341SOL    HW222923   6.615   2.202   0.152
 7342SOL     OW22924   6.475   0.359   2.267
 7342SOL    HW122925   6.396   0.326   2.215
 7342SOL    HW222926   6.524   0.281   2.305
 7343SOL     OW22927   4.204   2.755   0.313
 7343SOL    HW122928   4.143   2.745   0.234
 7343SOL    HW222929   4.152   2.790   0.391
 7344SOL     OW22930   1.153   6.975   5.895
 7344SOL    HW122931   1.170   6.883   5.860
 7344SOL    HW222932   1.235   0.012   5.882
 7345SOL     OW22933   3.706   3.304   5.441
 7345SOL    HW122934   3.757   3.390   5.438
 7345SOL    HW222935   3.768   3.228   5.425
 7346SOL     OW22936   4.036   6.697   2.670
 7346SOL    HW122937   4.030   6.633   2.746
 7346SOL    HW222938   3.954   6.754   2.667
 7347SOL     OW22939   0.433   2.028   7.007
 7347SOL    HW122940   0.489   2.029   6.924
 7347SOL    HW222941   0.463   2.099   0.050
 7348SOL     OW22942   1.757   3.719   3.651
 7348SOL    HW122943   1.668   3.761   3.638
 7348SOL    HW222944   1.746   3.620   3.666
 7349SOL     OW22945   4.603   0.221   1.025
 7349SOL    HW122946   4.595   0.122   1.015
 7349SOL    HW222947   4.629   0.244   1.119
 7350SOL     OW22948   2.743   0.819   5.353
 7350SOL    HW122949   2.654   0.851   5.388
 7350SOL    HW222950   2.812   0.888   5.372
 7351SOL     OW22951   5.315   5.032   4.080
 7351SOL    HW122952   5.279   5.107   4.025
 7351SOL    HW222953   5.239   4.983   4.123
 7352SOL     OW22954   0.990   1.950   2.989
 7352SOL    HW122955   1.071   1.998   2.954
 7352SOL    HW222956   0.916   1.957   2.922
 7353SOL     OW22957   6.780   0.412   6.775
 7353SOL    HW122958   6.837   0.340   6.735
 7353SOL    HW222959   6.723   0.373   6.847
 7354SOL     OW22960   1.699   0.378   4.169
 7354SOL    HW122961   1.746   0.294   4.143
 7354SOL    HW222962   1.736   0.454   4.115
 7355SOL     OW22963   0.218   1.878   6.382
 7355SOL    HW122964   0.221   1.794   6.328
 7355SOL    HW222965   0.238   1.856   6.478
 7356SOL     OW22966   3.892   3.711   6.325
 7356SOL    HW122967   3.802   3.720   6.367
 7356SOL    HW222968   3.895   3.764   6.240
 7357SOL     OW22969   3.844   5.833   1.624
 7357SOL    HW122970   3.935   5.808   1.656
 7357SOL    HW222971   3.811   5.762   1.561
 7358SOL     OW22972   6.024   2.540   2.124
 7358SOL    HW122973   5.966   2.622   2.130
 7358SOL    HW222974   5.969   2.463   2.093
 7359SOL     OW22975   4.467   1.918   6.076
 7359SOL    HW122976   4.463   2.017   6.067
 7359SOL    HW222977   4.383   1.885   6.118
 7360SOL     OW22978   2.221   3.465   5.312
 7360SOL    HW122979   2.283   3.387   5.308
 7360SOL    HW222980   2.273   3.549   5.327
 7361SOL     OW22981   5.261   0.638   2.348
 7361SOL    HW122982   5.171   0.670   2.379
 7361SOL    HW222983   5.328   0.712   2.357
 7362SOL     OW22984   3.887   5.220   5.815
 7362SOL    HW122985   3.986   5.233   5.803
 7362SOL    HW222986   3.871   5.138   5.868
 7363SOL     OW22987   4.196   1.126   1.554
 7363SOL    HW122988   4.240   1.206   1.594
 7363SOL    HW222989   4.151   1.073   1.626
 7364SOL     OW22990   4.301   0.076   1.693
 7364SOL    HW122991   4.298   0.176   1.702
 7364SOL    HW222992   4.386   0.041   1.733
 7365SOL     OW22993   6.264   5.855   2.525
 7365SOL    HW122994   6.196   5.925   2.545
 7365SOL    HW222995   6.356   5.893   2.536
 7366SOL     OW22996   2.212   0.322   4.477
 7366SOL    HW122997   2.120   0.349   4.448
 7366SOL    HW222998   2.217   0.223   4.481
 7367SOL     OW22999   4.525   2.121   0.499
 7367SOL    HW123000   4.623   2.138   0.494
 7367SOL    HW223001   4.494   2.130   0.593
 7368SOL     OW23002   3.638   3.313   2.388
 7368SOL    HW123003   3.640   3.309   2.488
 7368SOL    HW223004   3.552   3.354   2.358
 7369SOL     OW23005   3.865   2.504   1.274
 7369SOL    HW123006   3.865   2.573   1.347
 7369SOL    HW223007   3.771   2.482   1.250
 7370SOL     OW23008   2.337   2.084   5.187
 7370SOL    HW123009   2.400   2.153   5.150
 7370SOL    HW223010   2.248   2.094   5.143
 7371SOL     OW23011   3.399   6.744   3.799
 7371SOL    HW123012   3.449   6.658   3.810
 7371SOL    HW223013   3.446   6.817   3.849
 7372SOL     OW23014   3.773   6.569   4.815
 7372SOL    HW123015   3.726   6.503   4.756
 7372SOL    HW223016   3.711   6.643   4.840
 7373SOL     OW23017   4.625   1.933   4.671
 7373SOL    HW123018   4.603   1.848   4.718
 7373SOL    HW223019   4.591   2.011   4.725
 7374SOL     OW23020   1.333   1.785   5.322
 7374SOL    HW123021   1.328   1.851   5.246
 7374SOL    HW223022   1.242   1.749   5.341
 7375SOL     OW23023   2.022   3.234   2.221
 7375SOL    HW123024   1.961   3.158   2.198
 7375SOL    HW223025   2.080   3.257   2.143
 7376SOL     OW23026   1.328   3.583   0.866
 7376SOL    HW123027   1.305   3.668   0.818
 7376SOL    HW223028   1.425   3.583   0.890
 7377SOL     OW23029   3.410   5.136   7.001
 7377SOL    HW123030   3.392   5.221   0.032
 7377SOL    HW223031   3.468   5.077   0.037
 7378SOL     OW23032   1.616   6.531   4.104
 7378SOL    HW123033   1.554   6.544   4.027
 7378SOL    HW223034   1.643   6.620   4.140
 7379SOL     OW23035   3.481   0.163   1.326
 7379SOL    HW123036   3.450   0.255   1.348
 7379SOL    HW223037   3.557   0.138   1.386
 7380SOL     OW23038   6.381   4.339   3.621
 7380SOL    HW123039   6.408   4.310   3.713
 7380SOL    HW223040   6.432   4.287   3.553
 7381SOL     OW23041   4.204   2.324   1.047
 7381SOL    HW123042   4.107   2.336   1.022
 7381SOL    HW223043   4.261   2.339   0.967
 7382SOL     OW23044   6.253   2.113   5.715
 7382SOL    HW123045   6.336   2.099   5.659
 7382SOL    HW223046   6.258   2.055   5.796
 7383SOL     OW23047   1.553   6.188   1.996
 7383SOL    HW123048   1.564   6.287   2.001
 7383SOL    HW223049   1.468   6.167   1.948
 7384SOL     OW23050   6.975   6.761   1.188
 7384SOL    HW123051   6.959   6.859   1.200
 7384SOL    HW223052   6.960   6.736   1.092
 7385SOL     OW23053   3.257   4.934   2.497
 7385SOL    HW123054   3.318   4.943   2.418
 7385SOL    HW223055   3.307   4.955   2.581
 7386SOL     OW23056   6.980   3.389   6.837
 7386SOL    HW123057   6.907   3.331   6.872
 7386SOL    HW223058   6.948   3.436   6.755
 7387SOL     OW23059   5.924   4.815   5.733
 7387SOL    HW123060   5.988   4.891   5.746
 7387SOL    HW223061   5.967   4.730   5.763
 7388SOL     OW23062   1.299   5.890   2.670
 7388SOL    HW123063   1.374   5.914   2.731
 7388SOL    HW223064   1.248   5.972   2.645
 7389SOL     OW23065   6.893   3.213   0.226
 7389SOL    HW123066   6.797   3.213   0.256
 7389SOL    HW223067   6.925   3.118   0.218
 7390SOL     OW23068   2.867   2.205   2.790
 7390SOL    HW123069   2.925   2.227   2.711
 7390SOL    HW223070   2.921   2.152   2.856
 7391SOL     OW23071   4.113   3.535   2.398
 7391SOL    HW123072   4.131   3.533   2.496
 7391SOL    HW223073   4.064   3.451   2.372
 7392SOL     OW23074   4.390   6.377   6.453
 7392SOL    HW123075   4.371   6.302   6.517
 7392SOL    HW223076   4.486   6.403   6.461
 7393SOL     OW23077   6.257   4.728   3.693
 7393SOL    HW123078   6.203   4.804   3.728
 7393SOL    HW223079   6.214   4.642   3.720
 7394SOL     OW23080   2.330   2.585   6.470
 7394SOL    HW123081   2.230   2.587   6.460
 7394SOL    HW223082   2.367   2.675   6.447
 7395SOL     OW23083   2.135   3.380   1.319
 7395SOL    HW123084   2.128   3.314   1.394
 7395SOL    HW223085   2.224   3.426   1.324
 7396SOL     OW23086   2.629   5.559   1.804
 7396SOL    HW123087   2.683   5.510   1.736
 7396SOL    HW223088   2.601   5.496   1.876
 7397SOL     OW23089   5.101   4.041   4.684
 7397SOL    HW123090   5.160   4.106   4.635
 7397SOL    HW223091   5.122   4.044   4.782
 7398SOL     OW23092   1.389   4.633   3.376
 7398SOL    HW123093   1.413   4.548   3.329
 7398SOL    HW223094   1.305   4.620   3.428
 7399SOL     OW23095   6.183   2.881   4.556
 7399SOL    HW123096   6.233   2.907   4.473
 7399SOL    HW223097   6.205   2.786   4.579
 7400SOL     OW23098   5.680   2.188   5.182
 7400SOL    HW123099   5.743   2.124   5.138
 7400SOL    HW223100   5.704   2.198   5.278
 7401SOL     OW23101   1.554   3.213   2.945
 7401SOL    HW123102   1.589   3.121   2.926
 7401SOL    HW223103   1.455   3.208   2.961
 7402SOL     OW23104   2.653   5.542   5.217
 7402SOL    HW123105   2.714   5.480   5.168
 7402SOL    HW223106   2.561   5.503   5.220
 7403SOL     OW23107   2.179   3.079   3.613
 7403SOL    HW123108   2.157   3.047   3.521
 7403SOL    HW223109   2.221   3.005   3.665
 7404SOL     OW23110   3.144   3.882   1.622
 7404SOL    HW123111   3.137   3.979   1.645
 7404SOL    HW223112   3.071   3.832   1.668
 7405SOL     OW23113   2.991   5.559   5.150
 7405SOL    HW123114   2.907   5.521   5.112
 7405SOL    HW223115   2.974   5.651   5.185
 7406SOL     OW23116   0.423   1.589   5.204
 7406SOL    HW123117   0.444   1.530   5.125
 7406SOL    HW223118   0.489   1.664   5.207
 7407SOL     OW23119   0.572   6.146   6.751
 7407SOL    HW123120   0.482   6.118   6.718
 7407SOL    HW223121   0.561   6.196   6.837
 7408SOL     OW23122   3.246   4.155   5.205
 7408SOL    HW123123   3.265   4.240   5.253
 7408SOL    HW223124   3.290   4.157   5.115
 7409SOL     OW23125   5.585   4.183   0.054
 7409SOL    HW123126   5.551   4.188   0.148
 7409SOL    HW223127   5.651   4.257   0.038
 7410SOL     OW23128   0.102   0.243   1.019
 7410SOL    HW123129   0.109   0.146   0.998
 7410SOL    HW223130   0.097   0.255   1.118
 7411SOL     OW23131   0.851   2.075   5.979
 7411SOL    HW123132   0.817   1.992   6.023
 7411SOL    HW223133   0.870   2.145   6.049
 7412SOL     OW23134   3.670   6.863   0.056
 7412SOL    HW123135   3.704   6.867   6.982
 7412SOL    HW223136   3.705   6.941   0.108
 7413SOL     OW23137   4.313   5.068   3.357
 7413SOL    HW123138   4.290   5.012   3.278
 7413SOL    HW223139   4.373   5.143   3.328
 7414SOL     OW23140   2.343   1.924   4.122
 7414SOL    HW123141   2.331   1.951   4.217
 7414SOL    HW223142   2.438   1.898   4.106
 7415SOL     OW23143   3.796   6.757   6.133
 7415SOL    HW123144   3.741   6.674   6.138
 7415SOL    HW223145   3.893   6.733   6.139
 7416SOL     OW23146   0.805   1.397   2.348
 7416SOL    HW123147   0.873   1.325   2.338
 7416SOL    HW223148   0.838   1.466   2.413
 7417SOL     OW23149   1.276   2.859   3.514
 7417SOL    HW123150   1.372   2.842   3.491
 7417SOL    HW223151   1.271   2.893   3.608
 7418SOL     OW23152   1.975   4.649   6.116
 7418SOL    HW123153   1.929   4.706   6.184
 7418SOL    HW223154   2.029   4.578   6.163
 7419SOL     OW23155   6.399   3.974   3.663
 7419SOL    HW123156   6.324   3.960   3.599
 7419SOL    HW223157   6.462   3.897   3.659
 7420SOL     OW23158   6.933   6.258   2.291
 7420SOL    HW123159   6.846   6.264   2.242
 7420SOL    HW223160   6.942   6.337   2.352
 7421SOL     OW23161   4.616   3.498   1.675
 7421SOL    HW123162   4.551   3.423   1.689
 7421SOL    HW223163   4.575   3.566   1.614
 7422SOL     OW23164   5.888   2.782   2.134
 7422SOL    HW123165   5.892   2.876   2.101
 7422SOL    HW223166   5.824   2.730   2.078
 7423SOL     OW23167   5.943   1.930   5.860
 7423SOL    HW123168   5.845   1.910   5.860
 7423SOL    HW223169   5.974   1.948   5.766
 7424SOL     OW23170   0.039   1.266   5.374
 7424SOL    HW123171   0.011   1.186   5.322
 7424SOL    HW223172   0.056   1.342   5.311
 7425SOL     OW23173   5.330   0.086   0.131
 7425SOL    HW123174   5.294   0.168   0.174
 7425SOL    HW223175   5.356   0.020   0.202
 7426SOL     OW23176   3.900   2.613   6.390
 7426SOL    HW123177   3.856   2.703   6.392
 7426SOL    HW223178   3.999   2.625   6.387
 7427SOL     OW23179   3.565   1.016   3.954
 7427SOL    HW123180   3.581   1.082   3.880
 7427SOL    HW223181   3.645   1.014   4.014
 7428SOL     OW23182   3.853   6.456   5.961
 7428SOL    HW123183   3.793   6.532   5.939
 7428SOL    HW223184   3.847   6.436   6.059
 7429SOL     OW23185   0.854   6.844   2.779
 7429SOL    HW123186   0.765   6.807   2.756
 7429SOL    HW223187   0.918   6.827   2.704
 7430SOL     OW23188   6.882   4.728   2.980
 7430SOL    HW123189   6.819   4.702   3.053
 7430SOL    HW223190   6.883   4.657   2.910
 7431SOL     OW23191   2.217   2.591   4.705
 7431SOL    HW123192   2.170   2.661   4.651
 7431SOL    HW223193   2.206   2.502   4.661
 7432SOL     OW23194   1.886   0.544   3.339
 7432SOL    HW123195   1.871   0.449   3.311
 7432SOL    HW223196   1.971   0.578   3.297
 7433SOL     OW23197   3.351   6.802   6.724
 7433SOL    HW123198   3.417   6.740   6.767
 7433SOL    HW223199   3.263   6.794   6.770
 7434SOL     OW23200   4.771   6.208   5.877
 7434SOL    HW123201   4.672   6.203   5.865
 7434SOL    HW223202   4.800   6.139   5.944
 7435SOL     OW23203   4.664   6.663   2.098
 7435SOL    HW123204   4.639   6.758   2.082
 7435SOL    HW223205   4.762   6.651   2.082
 7436SOL     OW23206   5.309   4.070   6.579
 7436SOL    HW123207   5.403   4.040   6.596
 7436SOL    HW223208   5.247   3.993   6.595
 7437SOL     OW23209   3.153   5.679   1.301
 7437SOL    HW123210   3.146   5.731   1.216
 7437SOL    HW223211   3.187   5.587   1.281
 7438SOL     OW23212   2.198   1.003   0.456
 7438SOL    HW123213   2.291   0.970   0.439
 7438SOL    HW223214   2.197   1.103   0.448
 7439SOL     OW23215   1.684   5.254   6.259
 7439SOL    HW123216   1.691   5.304   6.173
 7439SOL    HW223217   1.765   5.195   6.270
 7440SOL     OW23218   4.835   3.052   4.286
 7440SOL    HW123219   4.787   3.064   4.373
 7440SOL    HW223220   4.856   3.141   4.247
 7441SOL     OW23221   5.901   6.213   2.236
 7441SOL    HW123222   5.831   6.187   2.302
 7441SOL    HW223223   5.990   6.216   2.281
 7442SOL     OW23224   5.529   0.599   5.991
 7442SOL    HW123225   5.618   0.594   5.945
 7442SOL    HW223226   5.457   0.611   5.923
 7443SOL     OW23227   0.274   5.965   1.937
 7443SOL    HW123228   0.243   5.873   1.962
 7443SOL    HW223229   0.362   5.959   1.889
 7444SOL     OW23230   0.413   0.608   5.706
 7444SOL    HW123231   0.323   0.592   5.745
 7444SOL    HW223232   0.442   0.528   5.653
 7445SOL     OW23233   3.994   6.744   2.257
 7445SOL    HW123234   4.031   6.691   2.333
 7445SOL    HW223235   3.976   6.837   2.286
 7446SOL     OW23236   4.830   3.118   0.271
 7446SOL    HW123237   4.853   3.157   0.359
 7446SOL    HW223238   4.913   3.088   0.224
 7447SOL     OW23239   0.905   4.293   0.249
 7447SOL    HW123240   0.836   4.317   0.181
 7447SOL    HW223241   0.878   4.330   0.338
 7448SOL     OW23242   5.038   6.104   6.516
 7448SOL    HW123243   5.038   6.104   6.416
 7448SOL    HW223244   5.079   6.020   6.549
 7449SOL     OW23245   0.613   4.580   0.350
 7449SOL    HW123246   0.573   4.657   0.400
 7449SOL    HW223247   0.552   4.553   0.275
 7450SOL     OW23248   5.311   2.017   5.827
 7450SOL    HW123249   5.384   2.055   5.770
 7450SOL    HW223250   5.314   1.917   5.822
 7451SOL     OW23251   5.778   5.266   2.261
 7451SOL    HW123252   5.872   5.239   2.242
 7451SOL    HW223253   5.717   5.231   2.189
 7452SOL     OW23254   5.360   6.262   4.805
 7452SOL    HW123255   5.361   6.361   4.819
 7452SOL    HW223256   5.295   6.221   4.868
 7453SOL     OW23257   4.680   5.563   6.281
 7453SOL    HW123258   4.659   5.628   6.355
 7453SOL    HW223259   4.779   5.563   6.265
 7454SOL     OW23260   3.464   1.887   0.724
 7454SOL    HW123261   3.546   1.872   0.668
 7454SOL    HW223262   3.490   1.937   0.807
 7455SOL     OW23263   6.621   2.833   2.706
 7455SOL    HW123264   6.686   2.882   2.646
 7455SOL    HW223265   6.672   2.776   2.770
 7456SOL     OW23266   2.335   2.359   5.048
 7456SOL    HW123267   2.268   2.430   5.026
 7456SOL    HW223268   2.380   2.382   5.134
 7457SOL     OW23269   2.337   6.870   3.615
 7457SOL    HW123270   2.375   6.795   3.669
 7457SOL    HW223271   2.302   6.835   3.528
 7458SOL     OW23272   0.610   6.439   4.580
 7458SOL    HW123273   0.620   6.461   4.677
 7458SOL    HW223274   0.577   6.519   4.531
 7459SOL     OW23275   6.618   1.276   2.754
 7459SOL    HW123276   6.716   1.278   2.771
 7459SOL    HW223277   6.572   1.340   2.814
 7460SOL     OW23278   1.521   6.643   0.214
 7460SOL    HW123279   1.574   6.620   0.296
 7460SOL    HW223280   1.428   6.608   0.224
 7461SOL     OW23281   0.467   5.519   5.909
 7461SOL    HW123282   0.423   5.512   5.820
 7461SOL    HW223283   0.564   5.538   5.897
 7462SOL     OW23284   1.182   5.661   1.044
 7462SOL    HW123285   1.129   5.600   0.986
 7462SOL    HW223286   1.271   5.619   1.063
 7463SOL     OW23287   3.943   4.436   0.049
 7463SOL    HW123288   3.929   4.446   6.970
 7463SOL    HW223289   4.034   4.396   0.066
 7464SOL     OW23290   0.213   5.258   4.542
 7464SOL    HW123291   0.291   5.252   4.480
 7464SOL    HW223292   0.239   5.221   4.631
 7465SOL     OW23293   2.440   5.061   0.131
 7465SOL    HW123294   2.427   5.021   0.040
 7465SOL    HW223295   2.492   5.145   0.124
 7466SOL     OW23296   0.849   0.431   5.101
 7466SOL    HW123297   0.885   0.409   5.192
 7466SOL    HW223298   0.873   0.525   5.078
 7467SOL     OW23299   0.136   3.591   5.986
 7467SOL    HW123300   0.103   3.609   6.079
 7467SOL    HW223301   0.091   3.510   5.949
 7468SOL     OW23302   5.447   2.601   5.483
 7468SOL    HW123303   5.515   2.630   5.416
 7468SOL    HW223304   5.392   2.679   5.512
 7469SOL     OW23305   6.731   2.395   0.598
 7469SOL    HW123306   6.831   2.388   0.599
 7469SOL    HW223307   6.696   2.381   0.690
 7470SOL     OW23308   5.996   3.799   3.800
 7470SOL    HW123309   6.051   3.882   3.810
 7470SOL    HW223310   6.032   3.728   3.861
 7471SOL     OW23311   5.625   5.773   6.435
 7471SOL    HW123312   5.644   5.700   6.370
 7471SOL    HW223313   5.568   5.843   6.392
 7472SOL     OW23314   6.548   6.665   5.014
 7472SOL    HW123315   6.631   6.660   5.068
 7472SOL    HW223316   6.571   6.655   4.917
 7473SOL     OW23317   4.077   7.002   3.810
 7473SOL    HW123318   4.161   0.017   3.767
 7473SOL    HW223319   4.015   0.058   3.829
 7474SOL     OW23320   5.730   2.617   6.338
 7474SOL    HW123321   5.813   2.568   6.311
 7474SOL    HW223322   5.670   2.627   6.259
 7475SOL     OW23323   4.450   2.080   1.688
 7475SOL    HW123324   4.441   1.994   1.737
 7475SOL    HW223325   4.521   2.136   1.732
 7476SOL     OW23326   2.073   1.737   2.794
 7476SOL    HW123327   2.119   1.806   2.851
 7476SOL    HW223328   1.974   1.751   2.799
 7477SOL     OW23329   0.495   3.737   5.010
 7477SOL    HW123330   0.582   3.691   4.991
 7477SOL    HW223331   0.481   3.742   5.109
 7478SOL     OW23332   6.580   2.337   5.160
 7478SOL    HW123333   6.540   2.295   5.078
 7478SOL    HW223334   6.514   2.334   5.235
 7479SOL     OW23335   5.629   3.402   6.559
 7479SOL    HW123336   5.533   3.403   6.585
 7479SOL    HW223337   5.683   3.355   6.629
 7480SOL     OW23338   3.346   5.111   1.851
 7480SOL    HW123339   3.388   5.051   1.918
 7480SOL    HW223340   3.376   5.205   1.866
 7481SOL     OW23341   6.353   4.277   6.408
 7481SOL    HW123342   6.424   4.215   6.441
 7481SOL    HW223343   6.390   4.369   6.400
 7482SOL     OW23344   3.908   2.123   2.617
 7482SOL    HW123345   3.818   2.112   2.574
 7482SOL    HW223346   3.973   2.156   2.549
 7483SOL     OW23347   4.690   2.307   5.342
 7483SOL    HW123348   4.751   2.299   5.263
 7483SOL    HW223349   4.595   2.315   5.310
 7484SOL     OW23350   2.828   6.445   4.673
 7484SOL    HW123351   2.883   6.364   4.692
 7484SOL    HW223352   2.868   6.495   4.596
 7485SOL     OW23353   3.022   6.913   4.056
 7485SOL    HW123354   2.932   6.917   4.013
 7485SOL    HW223355   3.031   6.989   4.121
 7486SOL     OW23356   0.811   6.120   0.101
 7486SOL    HW123357   0.900   6.121   0.055
 7486SOL    HW223358   0.790   6.027   0.131
 7487SOL     OW23359   4.742   0.250   3.436
 7487SOL    HW123360   4.784   0.258   3.346
 7487SOL    HW223361   4.643   0.261   3.428
 7488SOL     OW23362   0.691   5.732   4.104
 7488SOL    HW123363   0.693   5.673   4.023
 7488SOL    HW223364   0.752   5.695   4.174
 7489SOL     OW23365   6.162   4.257   0.111
 7489SOL    HW123366   6.252   4.295   0.133
 7489SOL    HW223367   6.158   4.233   0.014
 7490SOL     OW23368   1.126   2.359   2.848
 7490SOL    HW123369   1.058   2.408   2.793
 7490SOL    HW223370   1.128   2.398   2.940
 7491SOL     OW23371   4.395   2.945   0.810
 7491SOL    HW123372   4.334   2.868   0.788
 7491SOL    HW223373   4.480   2.910   0.849
 7492SOL     OW23374   1.355   0.779   4.126
 7492SOL    HW123375   1.292   0.832   4.070
 7492SOL    HW223376   1.375   0.829   4.210
 7493SOL     OW23377   6.265   3.973   5.704
 7493SOL    HW123378   6.327   4.019   5.768
 7493SOL    HW223379   6.294   3.993   5.611
 7494SOL     OW23380   6.436   1.237   3.122
 7494SOL    HW123381   6.434   1.152   3.175
 7494SOL    HW223382   6.344   1.276   3.118
 7495SOL     OW23383   2.230   2.885   4.822
 7495SOL    HW123384   2.307   2.907   4.882
 7495SOL    HW223385   2.150   2.864   4.878
 7496SOL     OW23386   6.183   3.948   3.488
 7496SOL    HW123387   6.160   4.000   3.405
 7496SOL    HW223388   6.102   3.942   3.547
 7497SOL     OW23389   0.523   6.354   0.519
 7497SOL    HW123390   0.574   6.269   0.505
 7497SOL    HW223391   0.552   6.421   0.451
 7498SOL     OW23392   3.154   0.412   3.383
 7498SOL    HW123393   3.182   0.507   3.375
 7498SOL    HW223394   3.057   0.408   3.408
 7499SOL     OW23395   3.749   2.164   3.992
 7499SOL    HW123396   3.651   2.181   3.988
 7499SOL    HW223397   3.780   2.161   4.087
 7500SOL     OW23398   4.279   0.235   3.551
 7500SOL    HW123399   4.219   0.217   3.474
 7500SOL    HW223400   4.302   0.149   3.597
 7501SOL     OW23401   6.206   2.788   4.269
 7501SOL    HW123402   6.117   2.823   4.300
 7501SOL    HW223403   6.243   2.727   4.338
 7502SOL     OW23404   3.014   0.201   4.790
 7502SOL    HW123405   3.078   0.216   4.865
 7502SOL    HW223406   3.040   0.117   4.741
 7503SOL     OW23407   2.229   5.989   0.865
 7503SOL    HW123408   2.252   5.923   0.936
 7503SOL    HW223409   2.275   6.076   0.885
 7504SOL     OW23410   0.179   6.355   2.881
 7504SOL    HW123411   0.221   6.420   2.945
 7504SOL    HW223412   0.222   6.266   2.891
 7505SOL     OW23413   6.943   0.710   5.097
 7505SOL    HW123414   6.975   0.687   5.005
 7505SOL    HW223415   6.864   0.771   5.091
 7506SOL     OW23416   3.414   1.629   3.172
 7506SOL    HW123417   3.364   1.634   3.258
 7506SOL    HW223418   3.510   1.610   3.191
 7507SOL     OW23419   6.370   3.375   4.395
 7507SOL    HW123420   6.401   3.377   4.490
 7507SOL    HW223421   6.422   3.305   4.346
 7508SOL     OW23422   1.732   6.086   0.245
 7508SOL    HW123423   1.764   6.005   0.196
 7508SOL    HW223424   1.728   6.163   0.181
 7509SOL     OW23425   4.793   4.016   0.282
 7509SOL    HW123426   4.786   4.095   0.343
 7509SOL    HW223427   4.750   4.038   0.194
 7510SOL     OW23428   3.998   3.648   4.102
 7510SOL    HW123429   3.932   3.676   4.032
 7510SOL    HW223430   4.072   3.596   4.059
 7511SOL     OW23431   3.378   5.781   2.797
 7511SOL    HW123432   3.404   5.696   2.752
 7511SOL    HW223433   3.288   5.810   2.764
 7512SOL     OW23434   3.194   6.977   6.924
 7512SOL    HW123435   3.145   6.902   6.878
 7512SOL    HW223436   3.272   6.940   6.974
 7513SOL     OW23437   1.860   2.415   3.553
 7513SOL    HW123438   1.866   2.343   3.621
 7513SOL    HW223439   1.937   2.407   3.489
 7514SOL     OW23440   2.362   4.789   3.351
 7514SOL    HW123441   2.429   4.726   3.391
 7514SOL    HW223442   2.406   4.844   3.280
 7515SOL     OW23443   6.940   4.325   5.150
 7515SOL    HW123444   6.953   4.316   5.249
 7515SOL    HW223445   6.897   4.414   5.131
 7516SOL     OW23446   1.302   5.343   5.467
 7516SOL    HW123447   1.245   5.275   5.511
 7516SOL    HW223448   1.249   5.426   5.451
 7517SOL     OW23449   1.045   2.134   0.151
 7517SOL    HW123450   1.086   2.188   0.078
 7517SOL    HW223451   0.963   2.180   0.185
 7518SOL     OW23452   4.776   2.783   4.212
 7518SOL    HW123453   4.783   2.729   4.296
 7518SOL    HW223454   4.763   2.880   4.236
 7519SOL     OW23455   4.135   6.844   4.701
 7519SOL    HW123456   4.119   6.942   4.711
 7519SOL    HW223457   4.151   6.804   4.791
 7520SOL     OW23458   1.580   1.526   2.266
 7520SOL    HW123459   1.555   1.430   2.257
 7520SOL    HW223460   1.497   1.582   2.267
 7521SOL     OW23461   5.221   1.131   4.429
 7521SOL    HW123462   5.203   1.035   4.447
 7521SOL    HW223463   5.283   1.140   4.352
 7522SOL     OW23464   1.361   6.086   3.397
 7522SOL    HW123465   1.343   6.132   3.485
 7522SOL    HW223466   1.387   5.991   3.414
 7523SOL     OW23467   5.818   1.314   6.523
 7523SOL    HW123468   5.873   1.311   6.440
 7523SOL    HW223469   5.760   1.396   6.521
 7524SOL     OW23470   0.183   2.694   4.347
 7524SOL    HW123471   0.274   2.668   4.314
 7524SOL    HW223472   0.136   2.747   4.277
 7525SOL     OW23473   4.631   6.482   6.153
 7525SOL    HW123474   4.668   6.550   6.216
 7525SOL    HW223475   4.531   6.491   6.149
 7526SOL     OW23476   2.167   3.749   1.837
 7526SOL    HW123477   2.071   3.748   1.811
 7526SOL    HW223478   2.190   3.662   1.882
 7527SOL     OW23479   4.168   5.787   3.678
 7527SOL    HW123480   4.137   5.877   3.650
 7527SOL    HW223481   4.196   5.734   3.598
 7528SOL     OW23482   5.856   2.648   6.735
 7528SOL    HW123483   5.821   2.588   6.663
 7528SOL    HW223484   5.780   2.674   6.796
 7529SOL     OW23485   5.763   1.861   3.796
 7529SOL    HW123486   5.834   1.901   3.739
 7529SOL    HW223487   5.756   1.911   3.882
 7530SOL     OW23488   6.753   1.575   2.179
 7530SOL    HW123489   6.837   1.623   2.204
 7530SOL    HW223490   6.776   1.485   2.140
 7531SOL     OW23491   4.231   2.261   3.775
 7531SOL    HW123492   4.212   2.178   3.724
 7531SOL    HW223493   4.197   2.252   3.869
 7532SOL     OW23494   4.672   5.694   6.542
 7532SOL    HW123495   4.722   5.781   6.538
 7532SOL    HW223496   4.714   5.635   6.610
 7533SOL     OW23497   4.475   3.243   1.717
 7533SOL    HW123498   4.528   3.185   1.779
 7533SOL    HW223499   4.448   3.189   1.637
 7534SOL     OW23500   4.981   6.829   4.335
 7534SOL    HW123501   5.081   6.839   4.330
 7534SOL    HW223502   4.951   6.768   4.262
 7535SOL     OW23503   1.237   6.214   4.417
 7535SOL    HW123504   1.258   6.312   4.428
 7535SOL    HW223505   1.171   6.186   4.486
 7536SOL     OW23506   4.722   5.996   4.544
 7536SOL    HW123507   4.645   6.035   4.494
 7536SOL    HW223508   4.691   5.970   4.636
 7537SOL     OW23509   2.335   5.622   2.153
 7537SOL    HW123510   2.265   5.678   2.197
 7537SOL    HW223511   2.372   5.671   2.074
 7538SOL     OW23512   0.778   3.255   1.837
 7538SOL    HW123513   0.823   3.180   1.788
 7538SOL    HW223514   0.836   3.336   1.834
 7539SOL     OW23515   1.030   5.555   4.079
 7539SOL    HW123516   1.034   5.493   4.000
 7539SOL    HW223517   1.122   5.582   4.105
 7540SOL     OW23518   5.316   5.633   4.271
 7540SOL    HW123519   5.249   5.628   4.345
 7540SOL    HW223520   5.294   5.712   4.213
 7541SOL     OW23521   0.972   3.624   6.583
 7541SOL    HW123522   1.028   3.572   6.648
 7541SOL    HW223523   0.917   3.690   6.632
 7542SOL     OW23524   6.203   6.378   6.357
 7542SOL    HW123525   6.290   6.393   6.404
 7542SOL    HW223526   6.128   6.384   6.423
 7543SOL     OW23527   2.845   0.568   5.308
 7543SOL    HW123528   2.822   0.520   5.393
 7543SOL    HW223529   2.787   0.648   5.298
 7544SOL     OW23530   6.841   3.040   3.781
 7544SOL    HW123531   6.780   3.013   3.855
 7544SOL    HW223532   6.830   3.137   3.762
 7545SOL     OW23533   0.840   5.729   6.636
 7545SOL    HW123534   0.812   5.803   6.696
 7545SOL    HW223535   0.829   5.641   6.683
 7546SOL     OW23536   3.304   2.807   2.028
 7546SOL    HW123537   3.339   2.846   2.113
 7546SOL    HW223538   3.240   2.733   2.049
 7547SOL     OW23539   4.528   0.279   1.829
 7547SOL    HW123540   4.569   0.321   1.910
 7547SOL    HW223541   4.584   0.201   1.800
 7548SOL     OW23542   4.758   2.415   6.088
 7548SOL    HW123543   4.705   2.357   6.149
 7548SOL    HW223544   4.716   2.506   6.085
 7549SOL     OW23545   4.544   2.478   5.786
 7549SOL    HW123546   4.574   2.393   5.742
 7549SOL    HW223547   4.624   2.530   5.816
 7550SOL     OW23548   1.749   4.107   3.619
 7550SOL    HW123549   1.709   4.154   3.541
 7550SOL    HW223550   1.836   4.150   3.643
 7551SOL     OW23551   5.376   2.007   5.209
 7551SOL    HW123552   5.427   1.925   5.234
 7551SOL    HW223553   5.340   2.050   5.292
 7552SOL     OW23554   2.116   6.335   4.479
 7552SOL    HW123555   2.053   6.411   4.464
 7552SOL    HW223556   2.076   6.272   4.547
 7553SOL     OW23557   5.795   6.122   6.274
 7553SOL    HW123558   5.712   6.125   6.330
 7553SOL    HW223559   5.771   6.126   6.177
 7554SOL     OW23560   5.405   1.401   0.066
 7554SOL    HW123561   5.352   1.467   0.119
 7554SOL    HW223562   5.438   1.329   0.127
 7555SOL     OW23563   2.934   6.520   6.648
 7555SOL    HW123564   2.902   6.585   6.578
 7555SOL    HW223565   2.863   6.452   6.666
 7556SOL     OW23566   1.161   0.740   0.313
 7556SOL    HW123567   1.184   0.742   0.216
 7556SOL    HW223568   1.065   0.714   0.324
 7557SOL     OW23569   5.234   0.548   6.949
 7557SOL    HW123570   5.135   0.560   6.954
 7557SOL    HW223571   5.255   0.463   6.900
 7558SOL     OW23572   1.494   2.780   4.169
 7558SOL    HW123573   1.416   2.746   4.117
 7558SOL    HW223574   1.462   2.820   4.255
 7559SOL     OW23575   3.752   2.033   4.815
 7559SOL    HW123576   3.721   2.053   4.908
 7559SOL    HW223577   3.744   1.935   4.797
 7560SOL     OW23578   6.847   0.594   6.307
 7560SOL    HW123579   6.774   0.604   6.239
 7560SOL    HW223580   6.852   0.500   6.338
 7561SOL     OW23581   5.110   1.748   5.570
 7561SOL    HW123582   5.063   1.817   5.515
 7561SOL    HW223583   5.070   1.746   5.662
 7562SOL     OW23584   0.871   5.360   4.807
 7562SOL    HW123585   0.902   5.292   4.742
 7562SOL    HW223586   0.949   5.410   4.844
 7563SOL     OW23587   2.927   6.690   2.096
 7563SOL    HW123588   2.919   6.713   2.193
 7563SOL    HW223589   2.870   6.751   2.042
 7564SOL     OW23590   4.651   0.961   4.621
 7564SOL    HW123591   4.567   0.931   4.576
 7564SOL    HW223592   4.629   1.001   4.710
 7565SOL     OW23593   5.540   3.651   6.074
 7565SOL    HW123594   5.503   3.585   6.009
 7565SOL    HW223595   5.587   3.603   6.148
 7566SOL     OW23596   4.711   4.704   1.788
 7566SOL    HW123597   4.757   4.699   1.877
 7566SOL    HW223598   4.734   4.623   1.734
 7567SOL     OW23599   0.269   0.812   4.573
 7567SOL    HW123600   0.260   0.911   4.566
 7567SOL    HW223601   0.204   0.768   4.511
 7568SOL     OW23602   6.282   5.618   1.479
 7568SOL    HW123603   6.362   5.620   1.419
 7568SOL    HW223604   6.206   5.575   1.431
 7569SOL     OW23605   4.076   4.084   6.469
 7569SOL    HW123606   4.078   3.985   6.464
 7569SOL    HW223607   4.016   4.120   6.398
 7570SOL     OW23608   6.668   3.221   3.473
 7570SOL    HW123609   6.573   3.204   3.450
 7570SOL    HW223610   6.712   3.135   3.500
 7571SOL     OW23611   5.383   3.748   2.950
 7571SOL    HW123612   5.448   3.794   3.010
 7571SOL    HW223613   5.334   3.816   2.895
 7572SOL     OW23614   5.242   6.629   2.659
 7572SOL    HW123615   5.315   6.660   2.721
 7572SOL    HW223616   5.167   6.695   2.661
 7573SOL     OW23617   5.760   6.525   5.924
 7573SOL    HW123618   5.818   6.528   5.843
 7573SOL    HW223619   5.790   6.594   5.989
 7574SOL     OW23620   6.330   0.641   4.155
 7574SOL    HW123621   6.411   0.589   4.129
 7574SOL    HW223622   6.298   0.611   4.245
 7575SOL     OW23623   6.701   6.560   0.835
 7575SOL    HW123624   6.712   6.465   0.808
 7575SOL    HW223625   6.678   6.565   0.932
 7576SOL     OW23626   5.606   2.750   0.851
 7576SOL    HW123627   5.562   2.839   0.862
 7576SOL    HW223628   5.652   2.724   0.936
 7577SOL     OW23629   0.407   0.129   0.166
 7577SOL    HW123630   0.350   0.195   0.214
 7577SOL    HW223631   0.503   0.156   0.172
 7578SOL     OW23632   0.179   5.867   3.412
 7578SOL    HW123633   0.243   5.900   3.482
 7578SOL    HW223634   0.129   5.944   3.374
 7579SOL     OW23635   6.486   1.742   1.122
 7579SOL    HW123636   6.566   1.741   1.182
 7579SOL    HW223637   6.513   1.778   1.032
 7580SOL     OW23638   2.084   4.442   3.483
 7580SOL    HW123639   2.130   4.405   3.402
 7580SOL    HW223640   1.993   4.473   3.459
 7581SOL     OW23641   0.517   0.899   1.411
 7581SOL    HW123642   0.473   0.869   1.496
 7581SOL    HW223643   0.614   0.915   1.427
 7582SOL     OW23644   3.802   1.616   4.500
 7582SOL    HW123645   3.855   1.639   4.419
 7582SOL    HW223646   3.734   1.547   4.477
 7583SOL     OW23647   4.864   3.265   3.733
 7583SOL    HW123648   4.960   3.291   3.732
 7583SOL    HW223649   4.844   3.207   3.653
 7584SOL     OW23650   1.111   1.181   2.658
 7584SOL    HW123651   1.014   1.187   2.683
 7584SOL    HW223652   1.164   1.245   2.713
 7585SOL     OW23653   1.147   2.307   6.312
 7585SOL    HW123654   1.189   2.397   6.321
 7585SOL    HW223655   1.204   2.239   6.357
 7586SOL     OW23656   1.260   0.930   2.139
 7586SOL    HW123657   1.258   0.863   2.065
 7586SOL    HW223658   1.354   0.963   2.151
 7587SOL     OW23659   3.577   0.932   0.588
 7587SOL    HW123660   3.595   0.909   0.493
 7587SOL    HW223661   3.571   0.848   0.642
 7588SOL     OW23662   1.204   2.635   4.610
 7588SOL    HW123663   1.215   2.553   4.552
 7588SOL    HW223664   1.294   2.668   4.637
 7589SOL     OW23665   0.682   0.900   2.944
 7589SOL    HW123666   0.771   0.859   2.922
 7589SOL    HW223667   0.689   1.000   2.935
 7590SOL     OW23668   0.230   1.822   0.255
 7590SOL    HW123669   0.180   1.908   0.245
 7590SOL    HW223670   0.243   1.802   0.352
 7591SOL     OW23671   4.609   3.223   6.736
 7591SOL    HW123672   4.548   3.297   6.764
 7591SOL    HW223673   4.676   3.258   6.671
 7592SOL     OW23674   6.254   5.851   4.882
 7592SOL    HW123675   6.155   5.848   4.872
 7592SOL    HW223676   6.288   5.940   4.850
 7593SOL     OW23677   0.192   1.857   5.589
 7593SOL    HW123678   0.290   1.875   5.592
 7593SOL    HW223679   0.170   1.805   5.507
 7594SOL     OW23680   0.471   4.238   1.536
 7594SOL    HW123681   0.554   4.293   1.544
 7594SOL    HW223682   0.493   4.142   1.556
 7595SOL     OW23683   6.244   2.706   6.309
 7595SOL    HW123684   6.273   2.611   6.319
 7595SOL    HW223685   6.161   2.722   6.363
 7596SOL     OW23686   3.173   0.661   5.083
 7596SOL    HW123687   3.207   0.740   5.134
 7596SOL    HW223688   3.226   0.650   4.999
 7597SOL     OW23689   2.115   5.292   2.571
 7597SOL    HW123690   2.121   5.237   2.654
 7597SOL    HW223691   2.030   5.271   2.522
 7598SOL     OW23692   5.780   0.926   2.902
 7598SOL    HW123693   5.755   0.865   2.827
 7598SOL    HW223694   5.818   0.872   2.978
 7599SOL     OW23695   4.148   3.370   0.631
 7599SOL    HW123696   4.093   3.287   0.632
 7599SOL    HW223697   4.245   3.346   0.629
 7600SOL     OW23698   1.540   1.281   3.739
 7600SOL    HW123699   1.523   1.374   3.774
 7600SOL    HW223700   1.506   1.214   3.805
 7601SOL     OW23701   4.112   5.591   1.937
 7601SOL    HW123702   4.140   5.603   2.032
 7601SOL    HW223703   4.053   5.511   1.929
 7602SOL     OW23704   0.191   2.001   0.525
 7602SOL    HW123705   0.197   1.902   0.536
 7602SOL    HW223706   0.220   2.046   0.609
 7603SOL     OW23707   2.348   0.177   6.056
 7603SOL    HW123708   2.277   0.112   6.082
 7603SOL    HW223709   2.386   0.220   6.138
 7604SOL     OW23710   1.160   2.454   4.938
 7604SOL    HW123711   1.075   2.412   4.907
 7604SOL    HW223712   1.233   2.434   4.873
 7605SOL     OW23713   2.440   0.219   0.044
 7605SOL    HW123714   2.351   0.257   0.019
 7605SOL    HW223715   2.512   0.277   0.009
 7606SOL     OW23716   6.152   1.369   4.254
 7606SOL    HW123717   6.101   1.333   4.332
 7606SOL    HW223718   6.207   1.448   4.283
 7607SOL     OW23719   3.404   6.719   6.469
 7607SOL    HW123720   3.379   6.751   6.561
 7607SOL    HW223721   3.504   6.712   6.463
 7608SOL     OW23722   5.462   2.482   6.190
 7608SOL    HW123723   5.510   2.404   6.230
 7608SOL    HW223724   5.525   2.534   6.132
 7609SOL     OW23725   0.497   2.647   3.899
 7609SOL    HW123726   0.571   2.679   3.839
 7609SOL    HW223727   0.469   2.555   3.872
 7610SOL     OW23728   3.412   4.831   6.471
 7610SOL    HW123729   3.444   4.798   6.382
 7610SOL    HW223730   3.466   4.911   6.498
 7611SOL     OW23731   4.888   3.109   1.137
 7611SOL    HW123732   4.954   3.166   1.186
 7611SOL    HW223733   4.852   3.039   1.199
 7612SOL     OW23734   2.896   1.584   3.553
 7612SOL    HW123735   2.851   1.520   3.491
 7612SOL    HW223736   2.884   1.554   3.648
 7613SOL     OW23737   1.026   1.613   2.339
 7613SOL    HW123738   1.122   1.644   2.339
 7613SOL    HW223739   1.014   1.543   2.269
 7614SOL     OW23740   5.240   3.206   0.949
 7614SOL    HW123741   5.274   3.300   0.936
 7614SOL    HW223742   5.141   3.204   0.931
 7615SOL     OW23743   5.222   3.001   4.930
 7615SOL    HW123744   5.230   2.951   5.016
 7615SOL    HW223745   5.308   3.048   4.910
 7616SOL     OW23746   6.135   6.679   3.550
 7616SOL    HW123747   6.067   6.674   3.478
 7616SOL    HW223748   6.156   6.775   3.571
 7617SOL     OW23749   5.020   5.209   3.119
 7617SOL    HW123750   5.106   5.159   3.106
 7617SOL    HW223751   5.011   5.233   3.216
 7618SOL     OW23752   2.465   2.182   0.038
 7618SOL    HW123753   2.399   2.240   7.008
 7618SOL    HW223754   2.432   2.167   0.131
 7619SOL     OW23755   1.010   1.972   3.913
 7619SOL    HW123756   1.086   2.035   3.897
 7619SOL    HW223757   1.023   1.926   4.001
 7620SOL     OW23758   4.059   4.216   1.309
 7620SOL    HW123759   4.000   4.137   1.327
 7620SOL    HW223760   4.094   4.252   1.395
 7621SOL     OW23761   0.525   5.705   1.040
 7621SOL    HW123762   0.464   5.783   1.036
 7621SOL    HW223763   0.481   5.631   1.091
 7622SOL     OW23764   4.142   4.740   0.541
 7622SOL    HW123765   4.081   4.819   0.545
 7622SOL    HW223766   4.219   4.755   0.603
 7623SOL     OW23767   4.560   4.896   1.472
 7623SOL    HW123768   4.630   4.958   1.438
 7623SOL    HW223769   4.594   4.802   1.468
 7624SOL     OW23770   0.317   2.362   1.907
 7624SOL    HW123771   0.309   2.462   1.906
 7624SOL    HW223772   0.228   2.321   1.884
 7625SOL     OW23773   5.181   1.989   0.308
 7625SOL    HW123774   5.175   1.968   0.210
 7625SOL    HW223775   5.258   1.940   0.348
 7626SOL     OW23776   5.423   0.446   5.463
 7626SOL    HW123777   5.376   0.531   5.440
 7626SOL    HW223778   5.424   0.434   5.563
 7627SOL     OW23779   2.928   1.958   0.210
 7627SOL    HW123780   2.872   1.970   0.128
 7627SOL    HW223781   2.923   2.041   0.266
 7628SOL     OW23782   3.282   2.244   0.441
 7628SOL    HW123783   3.286   2.218   0.537
 7628SOL    HW223784   3.187   2.247   0.411
 7629SOL     OW23785   5.913   3.204   3.947
 7629SOL    HW123786   5.897   3.299   3.973
 7629SOL    HW223787   5.826   3.155   3.947
 7630SOL     OW23788   1.494   0.526   5.105
 7630SOL    HW123789   1.412   0.470   5.117
 7630SOL    HW223790   1.489   0.574   5.017
 7631SOL     OW23791   1.787   0.230   5.284
 7631SOL    HW123792   1.790   0.200   5.189
 7631SOL    HW223793   1.697   0.209   5.323
 7632SOL     OW23794   4.871   5.713   0.741
 7632SOL    HW123795   4.936   5.782   0.711
 7632SOL    HW223796   4.794   5.709   0.676
 7633SOL     OW23797   6.042   0.673   0.979
 7633SOL    HW123798   5.943   0.669   0.988
 7633SOL    HW223799   6.070   0.767   0.958
 7634SOL     OW23800   1.258   2.134   1.009
 7634SOL    HW123801   1.251   2.080   0.925
 7634SOL    HW223802   1.166   2.160   1.039
 7635SOL     OW23803   2.740   5.222   5.153
 7635SOL    HW123804   2.677   5.229   5.230
 7635SOL    HW223805   2.780   5.131   5.151
 7636SOL     OW23806   0.678   4.619   4.628
 7636SOL    HW123807   0.732   4.622   4.712
 7636SOL    HW223808   0.636   4.528   4.619
 7637SOL     OW23809   0.549   6.678   4.486
 7637SOL    HW123810   0.584   6.767   4.456
 7637SOL    HW223811   0.449   6.680   4.488
 7638SOL     OW23812   0.900   5.250   1.822
 7638SOL    HW123813   0.820   5.279   1.769
 7638SOL    HW223814   0.871   5.225   1.914
 7639SOL     OW23815   0.948   0.996   0.122
 7639SOL    HW123816   0.875   1.019   0.185
 7639SOL    HW223817   1.020   1.065   0.127
 7640SOL     OW23818   3.132   0.713   6.413
 7640SOL    HW123819   3.034   0.709   6.394
 7640SOL    HW223820   3.151   0.786   6.479
 7641SOL     OW23821   6.713   4.009   2.895
 7641SOL    HW123822   6.797   4.053   2.863
 7641SOL    HW223823   6.715   3.912   2.869
 7642SOL     OW23824   5.615   1.599   3.450
 7642SOL    HW123825   5.550   1.675   3.456
 7642SOL    HW223826   5.707   1.635   3.436
 7643SOL     OW23827   4.877   2.750   3.098
 7643SOL    HW123828   4.802   2.736   3.034
 7643SOL    HW223829   4.924   2.836   3.075
 7644SOL     OW23830   4.625   3.122   1.381
 7644SOL    HW123831   4.676   3.196   1.426
 7644SOL    HW223832   4.536   3.111   1.427
 7645SOL     OW23833   3.521   3.617   6.323
 7645SOL    HW123834   3.502   3.636   6.227
 7645SOL    HW223835   3.457   3.669   6.380
 7646SOL     OW23836   0.961   2.965   2.746
 7646SOL    HW123837   0.949   2.869   2.720
 7646SOL    HW223838   0.929   2.979   2.839
 7647SOL     OW23839   0.113   3.355   4.963
 7647SOL    HW123840   0.156   3.439   4.996
 7647SOL    HW223841   0.022   3.347   5.003
 7648SOL     OW23842   2.092   2.330   3.034
 7648SOL    HW123843   2.186   2.305   3.058
 7648SOL    HW223844   2.029   2.265   3.076
 7649SOL     OW23845   6.663   0.859   4.724
 7649SOL    HW123846   6.757   0.842   4.694
 7649SOL    HW223847   6.636   0.789   4.790
 7650SOL     OW23848   4.272   0.573   1.655
 7650SOL    HW123849   4.276   0.623   1.569
 7650SOL    HW223850   4.192   0.602   1.707
 7651SOL     OW23851   2.459   5.101   5.052
 7651SOL    HW123852   2.415   5.055   5.129
 7651SOL    HW223853   2.546   5.056   5.032
 7652SOL     OW23854   5.962   1.593   4.704
 7652SOL    HW123855   6.016   1.526   4.654
 7652SOL    HW223856   5.976   1.582   4.802
 7653SOL     OW23857   0.610   2.073   6.806
 7653SOL    HW123858   0.677   2.148   6.803
 7653SOL    HW223859   0.533   2.096   6.746
 7654SOL     OW23860   6.168   3.419   5.212
 7654SOL    HW123861   6.101   3.486   5.246
 7654SOL    HW223862   6.202   3.364   5.288
 7655SOL     OW23863   2.803   0.733   3.601
 7655SOL    HW123864   2.818   0.708   3.505
 7655SOL    HW223865   2.840   0.824   3.618
 7656SOL     OW23866   6.644   3.792   6.697
 7656SOL    HW123867   6.741   3.767   6.693
 7656SOL    HW223868   6.625   3.862   6.628
 7657SOL     OW23869   1.421   4.064   4.767
 7657SOL    HW123870   1.503   4.008   4.775
 7657SOL    HW223871   1.445   4.153   4.728
 7658SOL     OW23872   2.206   0.582   0.692
 7658SOL    HW123873   2.283   0.535   0.735
 7658SOL    HW223874   2.121   0.551   0.734
 7659SOL     OW23875   4.637   4.041   5.200
 7659SOL    HW123876   4.630   4.140   5.192
 7659SOL    HW223877   4.674   4.003   5.116
 7660SOL     OW23878   6.907   4.992   4.351
 7660SOL    HW123879   6.868   5.078   4.320
 7660SOL    HW223880   6.945   5.003   4.443
 7661SOL     OW23881   4.665   2.265   5.641
 7661SOL    HW123882   4.683   2.265   5.542
 7661SOL    HW223883   4.728   2.201   5.686
 7662SOL     OW23884   1.181   1.957   2.263
 7662SOL    HW123885   1.272   1.921   2.283
 7662SOL    HW223886   1.150   1.920   2.175
 7663SOL     OW23887   6.001   5.000   5.464
 7663SOL    HW123888   5.923   4.989   5.402
 7663SOL    HW223889   5.984   5.078   5.524
 7664SOL     OW23890   3.948   1.488   3.078
 7664SOL    HW123891   4.032   1.536   3.105
 7664SOL    HW223892   3.879   1.554   3.049
 7665SOL     OW23893   4.132   2.059   4.190
 7665SOL    HW123894   4.087   2.097   4.271
 7665SOL    HW223895   4.230   2.050   4.208
 7666SOL     OW23896   6.445   5.257   3.573
 7666SOL    HW123897   6.447   5.177   3.633
 7666SOL    HW223898   6.351   5.277   3.548
 7667SOL     OW23899   5.053   5.733   2.236
 7667SOL    HW123900   5.102   5.656   2.277
 7667SOL    HW223901   5.048   5.808   2.302
 7668SOL     OW23902   2.044   5.344   1.050
 7668SOL    HW123903   2.095   5.269   1.092
 7668SOL    HW223904   1.976   5.379   1.114
 7669SOL     OW23905   3.054   6.436   6.011
 7669SOL    HW123906   3.020   6.350   5.972
 7669SOL    HW223907   3.061   6.505   5.940
 7670SOL     OW23908   0.191   6.625   6.770
 7670SOL    HW123909   0.228   6.653   6.681
 7670SOL    HW223910   0.155   6.705   6.818
 7671SOL     OW23911   5.461   0.424   1.720
 7671SOL    HW123912   5.450   0.493   1.648
 7671SOL    HW223913   5.475   0.470   1.808
 7672SOL     OW23914   5.490   4.830   2.852
 7672SOL    HW123915   5.474   4.802   2.947
 7672SOL    HW223916   5.587   4.854   2.841
 7673SOL     OW23917   1.022   5.407   3.760
 7673SOL    HW123918   1.111   5.419   3.805
 7673SOL    HW223919   1.013   5.313   3.728
 7674SOL     OW23920   3.919   0.147   4.509
 7674SOL    HW123921   3.885   0.090   4.584
 7674SOL    HW223922   3.880   0.239   4.518
 7675SOL     OW23923   3.749   6.694   2.865
 7675SOL    HW123924   3.727   6.729   2.774
 7675SOL    HW223925   3.708   6.753   2.935
 7676SOL     OW23926   2.953   3.124   5.729
 7676SOL    HW123927   3.045   3.159   5.747
 7676SOL    HW223928   2.897   3.195   5.688
 7677SOL     OW23929   5.776   4.280   1.463
 7677SOL    HW123930   5.718   4.268   1.544
 7677SOL    HW223931   5.719   4.283   1.381
 7678SOL     OW23932   1.460   1.659   5.794
 7678SOL    HW123933   1.445   1.680   5.891
 7678SOL    HW223934   1.453   1.560   5.781
 7679SOL     OW23935   1.839   5.281   4.920
 7679SOL    HW123936   1.865   5.334   4.840
 7679SOL    HW223937   1.785   5.202   4.892
 7680SOL     OW23938   1.838   0.716   5.388
 7680SOL    HW123939   1.839   0.633   5.333
 7680SOL    HW223940   1.927   0.761   5.382
 7681SOL     OW23941   3.353   3.000   6.241
 7681SOL    HW123942   3.285   2.942   6.196
 7681SOL    HW223943   3.445   2.969   6.214
 7682SOL     OW23944   2.591   1.892   3.600
 7682SOL    HW123945   2.547   1.971   3.558
 7682SOL    HW223946   2.639   1.839   3.531
 7683SOL     OW23947   0.098   1.315   4.658
 7683SOL    HW123948   0.110   1.309   4.758
 7683SOL    HW223949   0.000   1.318   4.637
 7684SOL     OW23950   4.098   2.437   1.684
 7684SOL    HW123951   4.003   2.409   1.669
 7684SOL    HW223952   4.101   2.534   1.705
 7685SOL     OW23953   2.946   0.710   0.495
 7685SOL    HW123954   3.017   0.679   0.557
 7685SOL    HW223955   2.888   0.633   0.468
 7686SOL     OW23956   5.033   0.267   4.290
 7686SOL    HW123957   5.047   0.344   4.352
 7686SOL    HW223958   5.061   0.293   4.198
 7687SOL     OW23959   5.790   5.068   4.310
 7687SOL    HW123960   5.775   5.161   4.275
 7687SOL    HW223961   5.840   5.072   4.396
 7688SOL     OW23962   0.775   5.084   6.216
 7688SOL    HW123963   0.795   5.074   6.314
 7688SOL    HW223964   0.718   5.008   6.186
 7689SOL     OW23965   5.020   0.350   1.908
 7689SOL    HW123966   5.020   0.297   1.992
 7689SOL    HW223967   4.968   0.435   1.922
 7690SOL     OW23968   6.300   5.138   0.719
 7690SOL    HW123969   6.335   5.231   0.735
 7690SOL    HW223970   6.377   5.077   0.701
 7691SOL     OW23971   4.307   4.616   3.610
 7691SOL    HW123972   4.383   4.610   3.674
 7691SOL    HW223973   4.340   4.602   3.517
 7692SOL     OW23974   0.940   6.305   2.171
 7692SOL    HW123975   1.027   6.257   2.175
 7692SOL    HW223976   0.866   6.243   2.197
 7693SOL     OW23977   2.486   0.991   1.210
 7693SOL    HW123978   2.576   0.949   1.200
 7693SOL    HW223979   2.419   0.940   1.156
 7694SOL     OW23980   6.314   2.604   4.475
 7694SOL    HW123981   6.259   2.558   4.545
 7694SOL    HW223982   6.363   2.535   4.421
 7695SOL     OW23983   6.418   0.559   3.128
 7695SOL    HW123984   6.477   0.556   3.047
 7695SOL    HW223985   6.332   0.606   3.106
 7696SOL     OW23986   0.529   2.414   6.808
 7696SOL    HW123987   0.585   2.476   6.863
 7696SOL    HW223988   0.432   2.431   6.826
 7697SOL     OW23989   3.977   0.178   2.810
 7697SOL    HW123990   3.995   0.266   2.854
 7697SOL    HW223991   4.064   0.130   2.795
 7698SOL     OW23992   6.594   1.964   6.800
 7698SOL    HW123993   6.648   2.013   6.732
 7698SOL    HW223994   6.644   1.883   6.830
 7699SOL     OW23995   3.588   5.653   6.309
 7699SOL    HW123996   3.579   5.690   6.216
 7699SOL    HW223997   3.536   5.568   6.316
 7700SOL     OW23998   4.656   5.565   2.649
 7700SOL    HW123999   4.577   5.594   2.702
 7700SOL    HW224000   4.626   5.537   2.557
 7701SOL     OW24001   0.200   2.873   6.143
 7701SOL    HW124002   0.184   2.838   6.051
 7701SOL    HW224003   0.267   2.947   6.139
 7702SOL     OW24004   4.402   0.043   4.527
 7702SOL    HW124005   4.454   0.015   4.447
 7702SOL    HW224006   4.307   0.063   4.500
 7703SOL     OW24007   6.692   6.347   4.362
 7703SOL    HW124008   6.610   6.300   4.396
 7703SOL    HW224009   6.686   6.358   4.263
 7704SOL     OW24010   6.083   1.382   3.979
 7704SOL    HW124011   6.138   1.455   3.939
 7704SOL    HW224012   6.102   1.376   4.077
 7705SOL     OW24013   2.121   4.844   0.399
 7705SOL    HW124014   2.145   4.748   0.412
 7705SOL    HW224015   2.051   4.870   0.466
 7706SOL     OW24016   3.535   2.924   2.528
 7706SOL    HW124017   3.586   2.872   2.596
 7706SOL    HW224018   3.598   2.975   2.471
 7707SOL     OW24019   6.612   5.485   6.672
 7707SOL    HW124020   6.518   5.499   6.701
 7707SOL    HW224021   6.672   5.479   6.752
 7708SOL     OW24022   2.368   6.770   4.640
 7708SOL    HW124023   2.281   6.726   4.615
 7708SOL    HW224024   2.444   6.711   4.614
 7709SOL     OW24025   6.896   4.670   0.997
 7709SOL    HW124026   6.870   4.617   1.077
 7709SOL    HW224027   6.967   4.621   0.946
 7710SOL     OW24028   1.628   3.612   0.768
 7710SOL    HW124029   1.659   3.518   0.781
 7710SOL    HW224030   1.558   3.615   0.697
 7711SOL     OW24031   6.219   4.622   5.312
 7711SOL    HW124032   6.290   4.638   5.243
 7711SOL    HW224033   6.226   4.692   5.383
 7712SOL     OW24034   6.555   4.814   6.228
 7712SOL    HW124035   6.593   4.859   6.148
 7712SOL    HW224036   6.457   4.833   6.234
 7713SOL     OW24037   1.911   4.926   0.622
 7713SOL    HW124038   1.835   4.862   0.607
 7713SOL    HW224039   1.977   4.884   0.684
 7714SOL     OW24040   6.799   0.687   4.346
 7714SOL    HW124041   6.751   0.682   4.433
 7714SOL    HW224042   6.734   0.704   4.272
 7715SOL     OW24043   1.980   2.870   6.172
 7715SOL    HW124044   1.893   2.830   6.143
 7715SOL    HW224045   1.997   2.847   6.268
 7716SOL     OW24046   0.796   5.680   6.377
 7716SOL    HW124047   0.841   5.684   6.467
 7716SOL    HW224048   0.848   5.619   6.317
 7717SOL     OW24049   1.446   1.744   6.946
 7717SOL    HW124050   1.515   1.687   6.990
 7717SOL    HW224051   1.444   1.724   6.848
 7718SOL     OW24052   1.449   4.408   2.608
 7718SOL    HW124053   1.534   4.391   2.658
 7718SOL    HW224054   1.394   4.325   2.606
 7719SOL     OW24055   2.040   3.873   4.601
 7719SOL    HW124056   2.031   3.779   4.633
 7719SOL    HW224057   2.082   3.929   4.672
 7720SOL     OW24058   6.603   1.715   6.501
 7720SOL    HW124059   6.549   1.797   6.480
 7720SOL    HW224060   6.649   1.727   6.588
 7721SOL     OW24061   0.975   0.214   2.852
 7721SOL    HW124062   0.913   0.194   2.777
 7721SOL    HW224063   1.051   0.149   2.851
 7722SOL     OW24064   2.418   5.705   3.888
 7722SOL    HW124065   2.408   5.692   3.789
 7722SOL    HW224066   2.407   5.802   3.909
 7723SOL     OW24067   4.764   3.395   0.240
 7723SOL    HW124068   4.849   3.446   0.229
 7723SOL    HW224069   4.783   3.297   0.237
 7724SOL     OW24070   2.751   4.125   1.550
 7724SOL    HW124071   2.776   4.145   1.456
 7724SOL    HW224072   2.686   4.049   1.552
 7725SOL     OW24073   5.683   2.846   2.765
 7725SOL    HW124074   5.767   2.850   2.711
 7725SOL    HW224075   5.704   2.859   2.862
 7726SOL     OW24076   0.292   3.387   6.294
 7726SOL    HW124077   0.384   3.413   6.267
 7726SOL    HW224078   0.288   3.373   6.393
 7727SOL     OW24079   4.688   2.590   2.310
 7727SOL    HW124080   4.708   2.688   2.313
 7727SOL    HW224081   4.643   2.563   2.395
 7728SOL     OW24082   2.112   3.090   5.004
 7728SOL    HW124083   2.206   3.057   4.996
 7728SOL    HW224084   2.050   3.012   5.007
 7729SOL     OW24085   5.731   2.222   3.335
 7729SOL    HW124086   5.746   2.276   3.417
 7729SOL    HW224087   5.732   2.125   3.358
 7730SOL     OW24088   5.861   4.814   5.123
 7730SOL    HW124089   5.959   4.790   5.121
 7730SOL    HW224090   5.826   4.802   5.215
 7731SOL     OW24091   5.423   6.917   0.293
 7731SOL    HW124092   5.472   6.871   0.219
 7731SOL    HW224093   5.488   6.948   0.362
 7732SOL     OW24094   4.473   0.395   6.268
 7732SOL    HW124095   4.557   0.437   6.233
 7732SOL    HW224096   4.396   0.454   6.247
 7733SOL     OW24097   6.475   6.126   2.226
 7733SOL    HW124098   6.476   6.136   2.325
 7733SOL    HW224099   6.562   6.160   2.188
 7734SOL     OW24100   2.727   4.379   5.464
 7734SOL    HW124101   2.738   4.303   5.527
 7734SOL    HW224102   2.784   4.365   5.384
 7735SOL     OW24103   6.452   6.144   0.194
 7735SOL    HW124104   6.353   6.130   0.206
 7735SOL    HW224105   6.484   6.087   0.118
 7736SOL     OW24106   3.173   2.897   0.462
 7736SOL    HW124107   3.185   2.802   0.490
 7736SOL    HW224108   3.125   2.900   0.374
 7737SOL     OW24109   4.084   5.002   1.398
 7737SOL    HW124110   4.138   4.935   1.348
 7737SOL    HW224111   3.988   4.972   1.401
 7738SOL     OW24112   2.720   6.355   6.617
 7738SOL    HW124113   2.750   6.357   6.521
 7738SOL    HW224114   2.621   6.367   6.621
 7739SOL     OW24115   1.379   2.625   1.514
 7739SOL    HW124116   1.427   2.583   1.437
 7739SOL    HW224117   1.403   2.721   1.521
 7740SOL     OW24118   1.076   1.200   3.842
 7740SOL    HW124119   1.128   1.265   3.897
 7740SOL    HW224120   1.139   1.140   3.793
 7741SOL     OW24121   1.824   4.830   5.918
 7741SOL    HW124122   1.800   4.920   5.881
 7741SOL    HW224123   1.919   4.831   5.948
 7742SOL     OW24124   3.815   1.441   3.749
 7742SOL    HW124125   3.814   1.499   3.831
 7742SOL    HW224126   3.901   1.390   3.746
 7743SOL     OW24127   5.140   1.130   6.487
 7743SOL    HW124128   5.088   1.119   6.402
 7743SOL    HW224129   5.141   1.227   6.513
 7744SOL     OW24130   0.641   5.798   4.614
 7744SOL    HW124131   0.688   5.710   4.604
 7744SOL    HW224132   0.672   5.860   4.542
 7745SOL     OW24133   1.694   6.588   6.999
 7745SOL    HW124134   1.645   6.616   0.062
 7745SOL    HW224135   1.641   6.613   6.919
 7746SOL     OW24136   1.109   6.446   0.832
 7746SOL    HW124137   1.113   6.535   0.785
 7746SOL    HW224138   1.039   6.450   0.903
 7747SOL     OW24139   0.239   6.060   0.774
 7747SOL    HW124140   0.251   6.152   0.735
 7747SOL    HW224141   0.143   6.045   0.795
 7748SOL     OW24142   4.146   2.546   5.814
 7748SOL    HW124143   4.094   2.631   5.800
 7748SOL    HW224144   4.140   2.490   5.731
 7749SOL     OW24145   3.268   3.589   3.974
 7749SOL    HW124146   3.362   3.625   3.968
 7749SOL    HW224147   3.271   3.490   3.983
 7750SOL     OW24148   6.015   4.596   5.866
 7750SOL    HW124149   6.061   4.560   5.947
 7750SOL    HW224150   6.001   4.522   5.800
 7751SOL     OW24151   0.073   1.674   4.972
 7751SOL    HW124152   0.134   1.668   4.893
 7751SOL    HW224153   0.060   1.583   5.011
 7752SOL     OW24154   5.892   5.680   5.129
 7752SOL    HW124155   5.968   5.743   5.114
 7752SOL    HW224156   5.852   5.654   5.041
 7753SOL     OW24157   2.229   0.579   4.097
 7753SOL    HW124158   2.143   0.529   4.107
 7753SOL    HW224159   2.210   0.676   4.084
 7754SOL     OW24160   5.902   0.350   0.987
 7754SOL    HW124161   5.845   0.428   1.012
 7754SOL    HW224162   5.980   0.382   0.934
 7755SOL     OW24163   6.954   5.908   5.399
 7755SOL    HW124164   6.896   5.846   5.346
 7755SOL    HW224165   6.936   6.003   5.371
 7756SOL     OW24166   2.751   4.723   2.453
 7756SOL    HW124167   2.725   4.679   2.366
 7756SOL    HW224168   2.834   4.778   2.438
 7757SOL     OW24169   4.535   6.489   5.331
 7757SOL    HW124170   4.491   6.484   5.242
 7757SOL    HW224171   4.476   6.539   5.395
 7758SOL     OW24172   2.593   2.293   6.208
 7758SOL    HW124173   2.609   2.388   6.236
 7758SOL    HW224174   2.647   2.273   6.125
 7759SOL     OW24175   1.986   0.333   4.324
 7759SOL    HW124176   1.918   0.388   4.372
 7759SOL    HW224177   1.990   0.361   4.228
 7760SOL     OW24178   5.650   3.199   1.880
 7760SOL    HW124179   5.710   3.225   1.956
 7760SOL    HW224180   5.674   3.253   1.800
 7761SOL     OW24181   3.014   0.003   6.523
 7761SOL    HW124182   2.957   0.006   6.605
 7761SOL    HW224183   3.106   6.993   6.548
 7762SOL     OW24184   4.144   1.687   0.632
 7762SOL    HW124185   4.080   1.690   0.555
 7762SOL    HW224186   4.161   1.592   0.657
 7763SOL     OW24187   1.486   1.474   1.012
 7763SOL    HW124188   1.508   1.548   0.948
 7763SOL    HW224189   1.530   1.491   1.100
 7764SOL     OW24190   3.945   3.009   2.499
 7764SOL    HW124191   3.872   2.941   2.493
 7764SOL    HW224192   3.986   3.022   2.408
 7765SOL     OW24193   6.251   3.435   3.138
 7765SOL    HW124194   6.221   3.503   3.205
 7765SOL    HW224195   6.350   3.426   3.143
 7766SOL     OW24196   6.363   1.570   0.037
 7766SOL    HW124197   6.399   1.591   0.128
 7766SOL    HW224198   6.280   1.622   0.021
 7767SOL     OW24199   3.957   6.104   3.785
 7767SOL    HW124200   3.926   6.123   3.879
 7767SOL    HW224201   3.878   6.081   3.728
 7768SOL     OW24202   3.383   4.927   2.047
 7768SOL    HW124203   3.433   4.861   1.991
 7768SOL    HW224204   3.289   4.896   2.059
 7769SOL     OW24205   4.736   2.153   0.820
 7769SOL    HW124206   4.766   2.176   0.728
 7769SOL    HW224207   4.767   2.060   0.842
 7770SOL     OW24208   2.936   4.907   1.688
 7770SOL    HW124209   2.890   4.991   1.717
 7770SOL    HW224210   3.029   4.927   1.658
 7771SOL     OW24211   2.733   2.018   5.026
 7771SOL    HW124212   2.753   2.075   5.106
 7771SOL    HW224213   2.817   1.978   4.992
 7772SOL     OW24214   4.671   0.813   4.008
 7772SOL    HW124215   4.586   0.851   4.044
 7772SOL    HW224216   4.650   0.745   3.937
 7773SOL     OW24217   4.197   3.697   6.150
 7773SOL    HW124218   4.188   3.610   6.101
 7773SOL    HW224219   4.242   3.681   6.238
 7774SOL     OW24220   5.653   1.560   6.426
 7774SOL    HW124221   5.563   1.519   6.443
 7774SOL    HW224222   5.660   1.584   6.329
 7775SOL     OW24223   3.636   6.802   3.102
 7775SOL    HW124224   3.557   6.845   3.144
 7775SOL    HW224225   3.680   6.740   3.167
 7776SOL     OW24226   3.717   3.251   6.163
 7776SOL    HW124227   3.670   3.211   6.085
 7776SOL    HW224228   3.650   3.287   6.228
 7777SOL     OW24229   2.045   1.202   6.772
 7777SOL    HW124230   2.005   1.115   6.744
 7777SOL    HW224231   1.972   1.267   6.791
 7778SOL     OW24232   5.441   0.364   6.824
 7778SOL    HW124233   5.538   0.383   6.807
 7778SOL    HW224234   5.429   0.265   6.834
 7779SOL     OW24235   3.470   2.219   1.294
 7779SOL    HW124236   3.566   2.234   1.274
 7779SOL    HW224237   3.414   2.274   1.232
 7780SOL     OW24238   1.022   6.230   4.010
 7780SOL    HW124239   1.110   6.200   4.047
 7780SOL    HW224240   0.960   6.151   4.002
 7781SOL     OW24241   1.577   3.611   5.860
 7781SOL    HW124242   1.575   3.708   5.883
 7781SOL    HW224243   1.568   3.600   5.761
 7782SOL     OW24244   2.506   4.146   6.547
 7782SOL    HW124245   2.542   4.154   6.454
 7782SOL    HW224246   2.407   4.153   6.546
 7783SOL     OW24247   2.409   6.513   6.929
 7783SOL    HW124248   2.382   6.609   6.933
 7783SOL    HW224249   2.431   6.488   6.835
 7784SOL     OW24250   0.665   2.539   7.010
 7784SOL    HW124251   0.635   2.571   0.080
 7784SOL    HW224252   0.757   2.499   7.018
 7785SOL     OW24253   2.159   6.603   3.644
 7785SOL    HW124254   2.134   6.539   3.571
 7785SOL    HW224255   2.258   6.598   3.660
 7786SOL     OW24256   3.150   4.614   5.289
 7786SOL    HW124257   3.126   4.678   5.361
 7786SOL    HW224258   3.066   4.585   5.242
 7787SOL     OW24259   2.394   2.686   5.185
 7787SOL    HW124260   2.385   2.782   5.160
 7787SOL    HW224261   2.338   2.630   5.124
 7788SOL     OW24262   0.979   1.831   1.636
 7788SOL    HW124263   0.944   1.911   1.685
 7788SOL    HW224264   1.030   1.861   1.556
 7789SOL     OW24265   2.521   0.497   0.949
 7789SOL    HW124266   2.553   0.407   0.920
 7789SOL    HW224267   2.529   0.561   0.873
 7790SOL     OW24268   6.486   4.124   3.176
 7790SOL    HW124269   6.486   4.136   3.275
 7790SOL    HW224270   6.533   4.039   3.152
 7791SOL     OW24271   2.673   5.899   4.471
 7791SOL    HW124272   2.583   5.927   4.441
 7791SOL    HW224273   2.685   5.923   4.568
 7792SOL     OW24274   2.321   6.134   6.455
 7792SOL    HW124275   2.331   6.150   6.357
 7792SOL    HW224276   2.404   6.090   6.490
 7793SOL     OW24277   1.697   1.007   5.635
 7793SOL    HW124278   1.659   1.031   5.545
 7793SOL    HW224279   1.764   1.077   5.662
 7794SOL     OW24280   4.985   5.397   4.269
 7794SOL    HW124281   4.998   5.496   4.272
 7794SOL    HW224282   5.068   5.353   4.234
 7795SOL     OW24283   1.905   3.948   5.677
 7795SOL    HW124284   1.973   3.923   5.608
 7795SOL    HW224285   1.839   4.012   5.638
 7796SOL     OW24286   3.880   4.045   3.750
 7796SOL    HW124287   3.937   4.017   3.827
 7796SOL    HW224288   3.786   4.058   3.781
 7797SOL     OW24289   0.341   6.195   3.342
 7797SOL    HW124290   0.278   6.143   3.285
 7797SOL    HW224291   0.434   6.163   3.328
 7798SOL     OW24292   3.499   5.707   0.003
 7798SOL    HW124293   3.567   5.718   6.950
 7798SOL    HW224294   3.432   5.781   7.016
 7799SOL     OW24295   6.824   5.498   1.113
 7799SOL    HW124296   6.901   5.531   1.058
 7799SOL    HW224297   6.768   5.576   1.143
 7800SOL     OW24298   0.156   4.953   1.804
 7800SOL    HW124299   0.065   4.937   1.842
 7800SOL    HW224300   0.225   4.915   1.866
 7801SOL     OW24301   2.244   1.282   0.431
 7801SOL    HW124302   2.234   1.379   0.407
 7801SOL    HW224303   2.320   1.243   0.380
 7802SOL     OW24304   5.736   2.650   1.930
 7802SOL    HW124305   5.688   2.737   1.933
 7802SOL    HW224306   5.670   2.576   1.917
 7803SOL     OW24307   4.401   3.853   5.686
 7803SOL    HW124308   4.473   3.918   5.665
 7803SOL    HW224309   4.380   3.857   5.784
 7804SOL     OW24310   5.492   1.337   4.633
 7804SOL    HW124311   5.419   1.392   4.593
 7804SOL    HW224312   5.483   1.338   4.733
 7805SOL     OW24313   5.361   1.924   2.182
 7805SOL    HW124314   5.450   1.923   2.138
 7805SOL    HW224315   5.351   2.008   2.236
 7806SOL     OW24316   5.511   2.950   6.077
 7806SOL    HW124317   5.602   2.909   6.073
 7806SOL    HW224318   5.453   2.895   6.138
 7807SOL     OW24319   0.460   4.562   6.384
 7807SOL    HW124320   0.557   4.581   6.402
 7807SOL    HW224321   0.446   4.464   6.373
 7808SOL     OW24322   0.619   1.425   4.753
 7808SOL    HW124323   0.586   1.336   4.721
 7808SOL    HW224324   0.715   1.418   4.778
 7809SOL     OW24325   2.118   5.442   4.389
 7809SOL    HW124326   2.154   5.515   4.332
 7809SOL    HW224327   2.189   5.409   4.451
 7810SOL     OW24328   2.888   0.641   5.710
 7810SOL    HW124329   2.964   0.699   5.680
 7810SOL    HW224330   2.808   0.698   5.728
 7811SOL     OW24331   5.556   4.861   3.637
 7811SOL    HW124332   5.601   4.877   3.725
 7811SOL    HW224333   5.549   4.763   3.620
 7812SOL     OW24334   1.477   1.811   4.632
 7812SOL    HW124335   1.424   1.807   4.717
 7812SOL    HW224336   1.569   1.845   4.652
 7813SOL     OW24337   5.355   2.897   7.003
 7813SOL    HW124338   5.362   2.985   0.032
 7813SOL    HW224339   5.322   2.913   6.910
 7814SOL     OW24340   6.978   3.006   3.544
 7814SOL    HW124341   6.928   3.045   3.621
 7814SOL    HW224342   0.053   2.989   3.571
 7815SOL     OW24343   5.542   1.669   6.779
 7815SOL    HW124344   5.533   1.748   6.840
 7815SOL    HW224345   5.589   1.698   6.695
 7816SOL     OW24346   0.483   3.595   5.847
 7816SOL    HW124347   0.469   3.671   5.911
 7816SOL    HW224348   0.577   3.596   5.814
 7817SOL     OW24349   5.495   4.287   4.452
 7817SOL    HW124350   5.512   4.326   4.362
 7817SOL    HW224351   5.510   4.356   4.522
 7818SOL     OW24352   6.352   6.670   1.130
 7818SOL    HW124353   6.353   6.714   1.040
 7818SOL    HW224354   6.273   6.701   1.181
 7819SOL     OW24355   6.935   2.675   1.062
 7819SOL    HW124356   6.846   2.716   1.080
 7819SOL    HW224357   6.933   2.627   0.975
 7820SOL     OW24358   2.223   1.834   5.855
 7820SOL    HW124359   2.210   1.856   5.759
 7820SOL    HW224360   2.161   1.891   5.911
 7821SOL     OW24361   3.894   5.444   0.711
 7821SOL    HW124362   3.965   5.495   0.759
 7821SOL    HW224363   3.901   5.347   0.732
 7822SOL     OW24364   0.590   5.950   5.402
 7822SOL    HW124365   0.673   5.960   5.347
 7822SOL    HW224366   0.577   6.032   5.458
 7823SOL     OW24367   2.271   4.292   4.865
 7823SOL    HW124368   2.309   4.204   4.896
 7823SOL    HW224369   2.320   4.366   4.910
 7824SOL     OW24370   0.054   2.666   4.994
 7824SOL    HW124371   0.031   2.756   5.030
 7824SOL    HW224372   0.065   2.601   5.069
 7825SOL     OW24373   2.047   2.606   6.613
 7825SOL    HW124374   1.977   2.650   6.669
 7825SOL    HW224375   2.005   2.532   6.560
 7826SOL     OW24376   6.578   2.180   0.511
 7826SOL    HW124377   6.648   2.241   0.547
 7826SOL    HW224378   6.613   2.086   0.511
 7827SOL     OW24379   0.328   6.132   2.876
 7827SOL    HW124380   0.358   6.095   2.788
 7827SOL    HW224381   0.316   6.058   2.941
 7828SOL     OW24382   6.893   3.650   6.653
 7828SOL    HW124383   6.904   3.585   6.578
 7828SOL    HW224384   6.982   3.670   6.694
 7829SOL     OW24385   3.230   2.854   1.313
 7829SOL    HW124386   3.163   2.928   1.307
 7829SOL    HW224387   3.230   2.803   1.227
 7830SOL     OW24388   2.915   5.335   4.654
 7830SOL    HW124389   2.892   5.258   4.714
 7830SOL    HW224390   2.906   5.306   4.559
 7831SOL     OW24391   1.911   1.627   1.426
 7831SOL    HW124392   1.845   1.697   1.398
 7831SOL    HW224393   1.949   1.651   1.515
 7832SOL     OW24394   5.766   0.769   5.129
 7832SOL    HW124395   5.674   0.747   5.097
 7832SOL    HW224396   5.822   0.686   5.129
 7833SOL     OW24397   1.369   0.130   4.100
 7833SOL    HW124398   1.305   0.190   4.051
 7833SOL    HW224399   1.424   0.184   4.163
 7834SOL     OW24400   6.473   2.491   4.270
 7834SOL    HW124401   6.478   2.407   4.216
 7834SOL    HW224402   6.452   2.568   4.211
 7835SOL     OW24403   4.207   1.755   5.352
 7835SOL    HW124404   4.301   1.788   5.364
 7835SOL    HW224405   4.208   1.658   5.328
 7836SOL     OW24406   3.887   4.124   5.038
 7836SOL    HW124407   3.969   4.078   5.072
 7836SOL    HW224408   3.860   4.084   4.950
 7837SOL     OW24409   6.214   6.365   0.400
 7837SOL    HW124410   6.128   6.377   0.450
 7837SOL    HW224411   6.282   6.429   0.435
 7838SOL     OW24412   5.389   5.515   1.363
 7838SOL    HW124413   5.304   5.567   1.373
 7838SOL    HW224414   5.422   5.488   1.454
 7839SOL     OW24415   6.493   4.467   4.492
 7839SOL    HW124416   6.518   4.526   4.415
 7839SOL    HW224417   6.533   4.503   4.576
 7840SOL     OW24418   1.632   4.702   3.501
 7840SOL    HW124419   1.635   4.631   3.572
 7840SOL    HW224420   1.540   4.706   3.461
 7841SOL     OW24421   5.030   2.014   6.371
 7841SOL    HW124422   5.049   1.984   6.464
 7841SOL    HW224423   5.019   2.113   6.369
 7842SOL     OW24424   2.065   1.250   2.746
 7842SOL    HW124425   2.067   1.231   2.844
 7842SOL    HW224426   2.023   1.339   2.730
 7843SOL     OW24427   0.133   6.715   4.242
 7843SOL    HW124428   0.089   6.802   4.220
 7843SOL    HW224429   0.202   6.694   4.173
 7844SOL     OW24430   3.385   1.164   2.501
 7844SOL    HW124431   3.417   1.190   2.592
 7844SOL    HW224432   3.285   1.162   2.500
 7845SOL     OW24433   5.830   1.488   1.987
 7845SOL    HW124434   5.923   1.524   1.984
 7845SOL    HW224435   5.803   1.473   2.082
 7846SOL     OW24436   1.183   2.437   0.402
 7846SOL    HW124437   1.244   2.405   0.330
 7846SOL    HW224438   1.103   2.481   0.361
 7847SOL     OW24439   5.900   2.273   4.238
 7847SOL    HW124440   5.993   2.309   4.241
 7847SOL    HW224441   5.885   2.212   4.316
 7848SOL     OW24442   2.841   4.603   0.905
 7848SOL    HW124443   2.837   4.657   0.989
 7848SOL    HW224444   2.774   4.638   0.840
 7849SOL     OW24445   5.346   3.481   5.727
 7849SOL    HW124446   5.265   3.537   5.741
 7849SOL    HW224447   5.346   3.445   5.634
 7850SOL     OW24448   0.003   1.446   3.529
 7850SOL    HW124449   0.024   1.506   3.606
 7850SOL    HW224450   6.953   1.380   3.557
 7851SOL     OW24451   1.159   4.044   1.315
 7851SOL    HW124452   1.148   3.945   1.310
 7851SOL    HW224453   1.182   4.070   1.408
 7852SOL     OW24454   2.390   1.707   0.554
 7852SOL    HW124455   2.403   1.793   0.504
 7852SOL    HW224456   2.473   1.684   0.605
 7853SOL     OW24457   3.632   3.238   1.591
 7853SOL    HW124458   3.586   3.327   1.596
 7853SOL    HW224459   3.615   3.187   1.675
 7854SOL     OW24460   4.616   1.807   6.273
 7854SOL    HW124461   4.566   1.854   6.200
 7854SOL    HW224462   4.562   1.730   6.306
 7855SOL     OW24463   5.197   7.014   4.493
 7855SOL    HW124464   5.198   6.920   4.527
 7855SOL    HW224465   5.189   7.013   4.394
 7856SOL     OW24466   2.139   5.088   4.570
 7856SOL    HW124467   2.210   5.158   4.577
 7856SOL    HW224468   2.146   5.042   4.482
 7857SOL     OW24469   5.217   3.874   0.342
 7857SOL    HW124470   5.229   3.941   0.415
 7857SOL    HW224471   5.306   3.838   0.315
 7858SOL     OW24472   0.129   5.531   5.780
 7858SOL    HW124473   0.170   5.462   5.840
 7858SOL    HW224474   0.061   5.488   5.721
 7859SOL     OW24475   5.199   2.948   6.370
 7859SOL    HW124476   5.120   2.925   6.426
 7859SOL    HW224477   5.258   3.012   6.420
 7860SOL     OW24478   2.997   1.175   4.867
 7860SOL    HW124479   2.917   1.114   4.875
 7860SOL    HW224480   2.980   1.259   4.918
 7861SOL     OW24481   2.460   5.870   1.091
 7861SOL    HW124482   2.376   5.818   1.077
 7861SOL    HW224483   2.531   5.810   1.126
 7862SOL     OW24484   2.971   6.073   1.283
 7862SOL    HW124485   2.922   5.987   1.297
 7862SOL    HW224486   2.967   6.098   1.186
 7863SOL     OW24487   6.836   4.518   3.560
 7863SOL    HW124488   6.837   4.613   3.589
 7863SOL    HW224489   6.747   4.495   3.521
 7864SOL     OW24490   2.493   5.685   5.980
 7864SOL    HW124491   2.585   5.678   5.941
 7864SOL    HW224492   2.427   5.704   5.908
 7865SOL     OW24493   6.658   6.194   3.913
 7865SOL    HW124494   6.733   6.226   3.856
 7865SOL    HW224495   6.571   6.213   3.868
 7866SOL     OW24496   2.218   0.521   6.053
 7866SOL    HW124497   2.161   0.464   6.113
 7866SOL    HW224498   2.314   0.502   6.070
 7867SOL     OW24499   5.605   0.486   3.909
 7867SOL    HW124500   5.635   0.565   3.855
 7867SOL    HW224501   5.664   0.475   3.988
 7868SOL     OW24502   4.375   6.219   0.828
 7868SOL    HW124503   4.367   6.151   0.900
 7868SOL    HW224504   4.285   6.234   0.786
 7869SOL     OW24505   5.878   4.052   5.463
 7869SOL    HW124506   5.814   4.091   5.529
 7869SOL    HW224507   5.828   4.022   5.381
 7870SOL     OW24508   4.254   6.271   5.096
 7870SOL    HW124509   4.296   6.248   5.008
 7870SOL    HW224510   4.236   6.369   5.099
 7871SOL     OW24511   5.240   1.477   2.035
 7871SOL    HW124512   5.166   1.427   1.991
 7871SOL    HW224513   5.201   1.543   2.100
 7872SOL     OW24514   1.838   5.280   2.488
 7872SOL    HW124515   1.812   5.195   2.533
 7872SOL    HW224516   1.829   5.356   2.553
 7873SOL     OW24517   0.076   1.020   0.711
 7873SOL    HW124518   0.085   0.959   0.789
 7873SOL    HW224519   0.163   1.023   0.661
 7874SOL     OW24520   5.717   2.495   1.222
 7874SOL    HW124521   5.768   2.526   1.302
 7874SOL    HW224522   5.687   2.401   1.236
 7875SOL     OW24523   3.837   4.143   6.829
 7875SOL    HW124524   3.842   4.046   6.804
 7875SOL    HW224525   3.928   4.183   6.823
 7876SOL     OW24526   0.396   0.087   2.666
 7876SOL    HW124527   0.325   0.157   2.663
 7876SOL    HW224528   0.362   0.007   2.717
 7877SOL     OW24529   6.572   1.814   3.224
 7877SOL    HW124530   6.567   1.715   3.216
 7877SOL    HW224531   6.615   1.852   3.143
 7878SOL     OW24532   4.807   4.676   3.771
 7878SOL    HW124533   4.809   4.756   3.831
 7878SOL    HW224534   4.830   4.594   3.823
 7879SOL     OW24535   2.869   5.010   3.624
 7879SOL    HW124536   2.802   4.939   3.600
 7879SOL    HW224537   2.932   5.022   3.548
 7880SOL     OW24538   2.217   3.684   1.453
 7880SOL    HW124539   2.283   3.725   1.515
 7880SOL    HW224540   2.228   3.723   1.362
 7881SOL     OW24541   4.954   3.429   4.430
 7881SOL    HW124542   4.932   3.470   4.519
 7881SOL    HW224543   5.043   3.384   4.435
 7882SOL     OW24544   2.471   3.242   1.176
 7882SOL    HW124545   2.446   3.331   1.215
 7882SOL    HW224546   2.556   3.251   1.124
 7883SOL     OW24547   0.603   1.101   5.205
 7883SOL    HW124548   0.578   1.142   5.293
 7883SOL    HW224549   0.676   1.154   5.163
 7884SOL     OW24550   0.685   3.081   4.937
 7884SOL    HW124551   0.600   3.133   4.942
 7884SOL    HW224552   0.757   3.139   4.898
 7885SOL     OW24553   5.878   5.254   0.755
 7885SOL    HW124554   5.902   5.347   0.783
 7885SOL    HW224555   5.947   5.190   0.789
 7886SOL     OW24556   4.786   5.371   0.124
 7886SOL    HW124557   4.792   5.410   0.216
 7886SOL    HW224558   4.697   5.393   0.084
 7887SOL     OW24559   5.095   1.999   0.043
 7887SOL    HW124560   5.053   2.088   0.062
 7887SOL    HW224561   5.027   1.927   0.057
 7888SOL     OW24562   4.893   0.479   4.647
 7888SOL    HW124563   4.962   0.497   4.577
 7888SOL    HW224564   4.851   0.566   4.675
 7889SOL     OW24565   0.323   5.625   2.418
 7889SOL    HW124566   0.256   5.567   2.371
 7889SOL    HW224567   0.327   5.714   2.372
 7890SOL     OW24568   2.010   3.959   2.324
 7890SOL    HW124569   2.091   4.005   2.359
 7890SOL    HW224570   1.934   3.971   2.388
 7891SOL     OW24571   2.629   4.629   2.178
 7891SOL    HW124572   2.550   4.618   2.118
 7891SOL    HW224573   2.713   4.612   2.126
 7892SOL     OW24574   2.118   2.621   5.508
 7892SOL    HW124575   2.194   2.623   5.572
 7892SOL    HW224576   2.129   2.544   5.445
 7893SOL     OW24577   5.790   6.381   0.687
 7893SOL    HW124578   5.706   6.353   0.734
 7893SOL    HW224579   5.806   6.479   0.701
 7894SOL     OW24580   2.502   6.224   2.268
 7894SOL    HW124581   2.601   6.225   2.286
 7894SOL    HW224582   2.484   6.267   2.180
 7895SOL     OW24583   6.322   0.959   4.543
 7895SOL    HW124584   6.270   0.874   4.537
 7895SOL    HW224585   6.298   1.018   4.466
 7896SOL     OW24586   5.175   4.139   5.611
 7896SOL    HW124587   5.147   4.120   5.517
 7896SOL    HW224588   5.097   4.173   5.663
 7897SOL     OW24589   2.372   3.772   6.804
 7897SOL    HW124590   2.405   3.827   6.727
 7897SOL    HW224591   2.412   3.681   6.800
 7898SOL     OW24592   4.045   2.170   3.976
 7898SOL    HW124593   4.061   2.106   4.051
 7898SOL    HW224594   3.946   2.181   3.963
 7899SOL     OW24595   5.861   2.587   2.415
 7899SOL    HW124596   5.814   2.574   2.502
 7899SOL    HW224597   5.905   2.678   2.414
 7900SOL     OW24598   1.610   5.906   1.177
 7900SOL    HW124599   1.626   5.832   1.111
 7900SOL    HW224600   1.570   5.984   1.130
 7901SOL     OW24601   6.693   6.460   6.354
 7901SOL    HW124602   6.765   6.392   6.347
 7901SOL    HW224603   6.662   6.487   6.263
 7902SOL     OW24604   4.499   4.538   0.748
 7902SOL    HW124605   4.487   4.477   0.669
 7902SOL    HW224606   4.421   4.528   0.810
 7903SOL     OW24607   6.759   1.670   0.081
 7903SOL    HW124608   6.834   1.657   0.147
 7903SOL    HW224609   6.745   1.585   0.030
 7904SOL     OW24610   0.167   1.515   2.469
 7904SOL    HW124611   0.147   1.603   2.514
 7904SOL    HW224612   0.081   1.475   2.436
 7905SOL     OW24613   4.276   0.982   1.017
 7905SOL    HW124614   4.324   0.929   1.088
 7905SOL    HW224615   4.267   0.927   0.935
 7906SOL     OW24616   5.843   5.736   6.591
 7906SOL    HW124617   5.795   5.772   6.511
 7906SOL    HW224618   5.936   5.710   6.565
 7907SOL     OW24619   6.785   2.682   3.605
 7907SOL    HW124620   6.776   2.687   3.705
 7907SOL    HW224621   6.784   2.774   3.567
 7908SOL     OW24622   6.880   1.386   4.166
 7908SOL    HW124623   6.974   1.421   4.157
 7908SOL    HW224624   6.815   1.460   4.150
 7909SOL     OW24625   4.702   4.358   4.892
 7909SOL    HW124626   4.760   4.429   4.931
 7909SOL    HW224627   4.631   4.400   4.836
 7910SOL     OW24628   4.576   3.487   5.618
 7910SOL    HW124629   4.498   3.550   5.615
 7910SOL    HW224630   4.572   3.434   5.703
 7911SOL     OW24631   6.516   4.675   0.693
 7911SOL    HW124632   6.586   4.619   0.649
 7911SOL    HW224633   6.427   4.632   0.681
 7912SOL     OW24634   5.901   4.529   6.170
 7912SOL    HW124635   5.843   4.602   6.208
 7912SOL    HW224636   5.997   4.555   6.178
 7913SOL     OW24637   6.731   5.421   6.924
 7913SOL    HW124638   6.826   5.445   6.943
 7913SOL    HW224639   6.727   5.331   6.882
 7914SOL     OW24640   6.240   3.724   1.190
 7914SOL    HW124641   6.324   3.706   1.242
 7914SOL    HW224642   6.264   3.750   1.097
 7915SOL     OW24643   3.924   1.757   3.601
 7915SOL    HW124644   3.846   1.723   3.653
 7915SOL    HW224645   3.907   1.852   3.574
 7916SOL     OW24646   5.579   3.165   5.720
 7916SOL    HW124647   5.671   3.131   5.698
 7916SOL    HW224648   5.549   3.229   5.650
 7917SOL     OW24649   4.070   3.298   4.899
 7917SOL    HW124650   4.163   3.330   4.916
 7917SOL    HW224651   4.030   3.267   4.985
 7918SOL     OW24652   6.540   1.088   2.567
 7918SOL    HW124653   6.463   1.036   2.605
 7918SOL    HW224654   6.572   1.154   2.636
 7919SOL     OW24655   5.577   5.130   2.095
 7919SOL    HW124656   5.558   5.054   2.157
 7919SOL    HW224657   5.507   5.133   2.023
 7920SOL     OW24658   0.164   5.089   1.556
 7920SOL    HW124659   0.259   5.081   1.525
 7920SOL    HW224660   0.154   5.040   1.643
 7921SOL     OW24661   2.452   6.991   1.684
 7921SOL    HW124662   2.410   0.053   1.644
 7921SOL    HW224663   2.545   6.982   1.648
 7922SOL     OW24664   1.146   5.580   6.613
 7922SOL    HW124665   1.139   5.657   6.677
 7922SOL    HW224666   1.059   5.530   6.612
 7923SOL     OW24667   1.111   1.326   3.336
 7923SOL    HW124668   1.168   1.260   3.286
 7923SOL    HW224669   1.067   1.388   3.272
 7924SOL     OW24670   3.035   0.219   3.897
 7924SOL    HW124671   3.093   0.289   3.938
 7924SOL    HW224672   2.949   0.213   3.949
 7925SOL     OW24673   6.399   1.644   6.298
 7925SOL    HW124674   6.491   1.628   6.334
 7925SOL    HW224675   6.350   1.557   6.290
 7926SOL     OW24676   3.039   0.460   2.537
 7926SOL    HW124677   3.015   0.557   2.529
 7926SOL    HW224678   3.067   0.425   2.448
 7927SOL     OW24679   3.949   5.032   5.116
 7927SOL    HW124680   3.950   5.129   5.139
 7927SOL    HW224681   4.032   4.988   5.152
 7928SOL     OW24682   2.376   5.324   2.774
 7928SOL    HW124683   2.309   5.399   2.776
 7928SOL    HW224684   2.363   5.269   2.692
 7929SOL     OW24685   3.804   3.545   4.738
 7929SOL    HW124686   3.898   3.534   4.706
 7929SOL    HW224687   3.792   3.492   4.823
 7930SOL     OW24688   4.212   5.390   3.399
 7930SOL    HW124689   4.155   5.309   3.409
 7930SOL    HW224690   4.234   5.404   3.303
 7931SOL     OW24691   2.197   2.219   0.653
 7931SOL    HW124692   2.168   2.263   0.738
 7931SOL    HW224693   2.271   2.271   0.611
 7932SOL     OW24694   1.983   6.926   6.980
 7932SOL    HW124695   1.926   6.960   0.035
 7932SOL    HW224696   1.968   6.827   6.969
 7933SOL     OW24697   1.069   0.187   6.743
 7933SOL    HW124698   1.105   0.165   6.653
 7933SOL    HW224699   1.014   0.270   6.739
 7934SOL     OW24700   3.147   3.842   0.357
 7934SOL    HW124701   3.194   3.776   0.415
 7934SOL    HW224702   3.056   3.808   0.335
 7935SOL     OW24703   4.759   6.150   0.883
 7935SOL    HW124704   4.759   6.068   0.940
 7935SOL    HW224705   4.680   6.206   0.906
 7936SOL     OW24706   4.202   6.480   3.195
 7936SOL    HW124707   4.144   6.499   3.116
 7936SOL    HW224708   4.295   6.511   3.176
 7937SOL     OW24709   6.040   6.206   5.736
 7937SOL    HW124710   5.952   6.168   5.708
 7937SOL    HW224711   6.053   6.192   5.834
 7938SOL     OW24712   4.369   5.445   4.809
 7938SOL    HW124713   4.446   5.509   4.816
 7938SOL    HW224714   4.286   5.490   4.843
 7939SOL     OW24715   0.274   1.099   5.329
 7939SOL    HW124716   0.346   1.132   5.390
 7939SOL    HW224717   0.211   1.175   5.309
 7940SOL     OW24718   2.092   5.260   1.593
 7940SOL    HW124719   2.038   5.206   1.657
 7940SOL    HW224720   2.189   5.246   1.611
 7941SOL     OW24721   0.388   0.771   0.827
 7941SOL    HW124722   0.456   0.845   0.821
 7941SOL    HW224723   0.390   0.731   0.918
 7942SOL     OW24724   0.178   6.895   1.880
 7942SOL    HW124725   0.246   6.934   1.942
 7942SOL    HW224726   0.223   6.858   1.799
 7943SOL     OW24727   5.385   2.260   0.684
 7943SOL    HW124728   5.307   2.304   0.639
 7943SOL    HW224729   5.435   2.328   0.739
 7944SOL     OW24730   0.323   3.830   1.118
 7944SOL    HW124731   0.348   3.862   1.027
 7944SOL    HW224732   0.269   3.899   1.165
 7945SOL     OW24733   5.378   6.525   3.003
 7945SOL    HW124734   5.322   6.486   2.929
 7945SOL    HW224735   5.324   6.529   3.087
 7946SOL     OW24736   2.068   2.499   6.242
 7946SOL    HW124737   2.129   2.575   6.220
 7946SOL    HW224738   2.001   2.488   6.169
 7947SOL     OW24739   4.098   2.778   6.628
 7947SOL    HW124740   4.197   2.770   6.635
 7947SOL    HW224741   4.068   2.746   6.538
 7948SOL     OW24742   6.585   6.958   0.521
 7948SOL    HW124743   6.587   6.861   0.498
 7948SOL    HW224744   6.612   6.970   0.616
 7949SOL     OW24745   5.166   5.225   3.396
 7949SOL    HW124746   5.135   5.305   3.447
 7949SOL    HW224747   5.237   5.177   3.449
 7950SOL     OW24748   4.364   4.717   4.250
 7950SOL    HW124749   4.289   4.726   4.184
 7950SOL    HW224750   4.449   4.749   4.209
 7951SOL     OW24751   3.306   3.348   0.573
 7951SOL    HW124752   3.330   3.255   0.545
 7951SOL    HW224753   3.262   3.346   0.663
 7952SOL     OW24754   6.062   2.770   0.455
 7952SOL    HW124755   6.152   2.730   0.439
 7952SOL    HW224756   6.065   2.868   0.438
 7953SOL     OW24757   2.587   2.474   3.442
 7953SOL    HW124758   2.508   2.521   3.402
 7953SOL    HW224759   2.664   2.480   3.379
 7954SOL     OW24760   4.203   5.147   4.727
 7954SOL    HW124761   4.166   5.219   4.668
 7954SOL    HW224762   4.127   5.095   4.766
 7955SOL     OW24763   0.220   6.223   6.697
 7955SOL    HW124764   0.126   6.196   6.677
 7955SOL    HW224765   0.283   6.169   6.642
 7956SOL     OW24766   0.056   6.283   3.806
 7956SOL    HW124767   0.109   6.321   3.883
 7956SOL    HW224768   0.109   6.292   3.722
 7957SOL     OW24769   1.079   1.344   0.695
 7957SOL    HW124770   1.096   1.383   0.605
 7957SOL    HW224771   1.119   1.403   0.765
 7958SOL     OW24772   3.145   5.345   3.789
 7958SOL    HW124773   3.207   5.270   3.815
 7958SOL    HW224774   3.157   5.421   3.853
 7959SOL     OW24775   6.314   4.931   0.431
 7959SOL    HW124776   6.329   4.934   0.530
 7959SOL    HW224777   6.344   4.842   0.396
 7960SOL     OW24778   2.649   1.121   1.407
 7960SOL    HW124779   2.669   1.210   1.366
 7960SOL    HW224780   2.571   1.079   1.361
 7961SOL     OW24781   1.579   5.998   5.863
 7961SOL    HW124782   1.523   5.916   5.875
 7961SOL    HW224783   1.521   6.078   5.863
 7962SOL     OW24784   2.105   0.962   1.985
 7962SOL    HW124785   2.006   0.964   1.971
 7962SOL    HW224786   2.152   0.978   1.899
 7963SOL     OW24787   0.675   0.866   5.517
 7963SOL    HW124788   0.745   0.812   5.469
 7963SOL    HW224789   0.585   0.827   5.498
 7964SOL     OW24790   5.659   5.289   2.708
 7964SOL    HW124791   5.633   5.355   2.778
 7964SOL    HW224792   5.589   5.286   2.637
 7965SOL     OW24793   5.004   2.740   0.735
 7965SOL    HW124794   4.992   2.820   0.676
 7965SOL    HW224795   5.063   2.673   0.689
 7966SOL     OW24796   0.430   5.269   4.036
 7966SOL    HW124797   0.373   5.209   3.980
 7966SOL    HW224798   0.384   5.288   4.123
 7967SOL     OW24799   3.287   6.288   2.766
 7967SOL    HW124800   3.345   6.363   2.733
 7967SOL    HW224801   3.230   6.255   2.691
 7968SOL     OW24802   2.308   2.470   3.965
 7968SOL    HW124803   2.325   2.501   3.871
 7968SOL    HW224804   2.233   2.523   4.004
 7969SOL     OW24805   3.942   1.087   3.409
 7969SOL    HW124806   4.035   1.082   3.446
 7969SOL    HW224807   3.946   1.106   3.311
 7970SOL     OW24808   0.118   4.185   2.960
 7970SOL    HW124809   0.154   4.138   3.041
 7970SOL    HW224810   0.150   4.280   2.960
 7971SOL     OW24811   3.777   0.018   1.475
 7971SOL    HW124812   3.719   6.957   1.474
 7971SOL    HW224813   3.784   0.052   1.569
 7972SOL     OW24814   6.834   4.375   1.586
 7972SOL    HW124815   6.746   4.424   1.583
 7972SOL    HW224816   6.839   4.313   1.508
 7973SOL     OW24817   4.845   3.114   3.950
 7973SOL    HW124818   4.839   3.191   3.886
 7973SOL    HW224819   4.838   3.148   4.043
 7974SOL     OW24820   5.102   0.488   4.430
 7974SOL    HW124821   5.194   0.453   4.444
 7974SOL    HW224822   5.106   0.572   4.375
 7975SOL     OW24823   3.234   1.006   4.768
 7975SOL    HW124824   3.153   1.062   4.778
 7975SOL    HW224825   3.290   1.040   4.692
 7976SOL     OW24826   1.140   6.277   4.836
 7976SOL    HW124827   1.195   6.194   4.843
 7976SOL    HW224828   1.049   6.254   4.802
 7977SOL     OW24829   5.019   6.194   1.986
 7977SOL    HW124830   4.939   6.188   1.927
 7977SOL    HW224831   5.040   6.103   2.023
 7978SOL     OW24832   4.704   3.569   5.950
 7978SOL    HW124833   4.699   3.663   5.983
 7978SOL    HW224834   4.636   3.513   5.996
 7979SOL     OW24835   2.668   0.182   4.450
 7979SOL    HW124836   2.618   0.252   4.399
 7979SOL    HW224837   2.670   0.098   4.397
 7980SOL     OW24838   3.958   6.183   0.477
 7980SOL    HW124839   3.904   6.108   0.515
 7980SOL    HW224840   3.898   6.259   0.452
 7981SOL     OW24841   1.268   5.447   2.167
 7981SOL    HW124842   1.353   5.461   2.116
 7981SOL    HW224843   1.265   5.354   2.202
 7982SOL     OW24844   6.436   2.641   1.005
 7982SOL    HW124845   6.432   2.559   1.064
 7982SOL    HW224846   6.397   2.619   0.916
 7983SOL     OW24847   5.339   1.467   2.509
 7983SOL    HW124848   5.312   1.460   2.605
 7983SOL    HW224849   5.286   1.401   2.456
 7984SOL     OW24850   0.504   2.617   2.221
 7984SOL    HW124851   0.450   2.603   2.304
 7984SOL    HW224852   0.595   2.578   2.234
 7985SOL     OW24853   1.260   0.627   2.216
 7985SOL    HW124854   1.334   0.573   2.256
 7985SOL    HW224855   1.297   0.695   2.154
 7986SOL     OW24856   3.986   1.361   6.436
 7986SOL    HW124857   3.971   1.394   6.343
 7986SOL    HW224858   4.062   1.412   6.478
 7987SOL     OW24859   0.578   2.741   5.202
 7987SOL    HW124860   0.675   2.719   5.199
 7987SOL    HW224861   0.529   2.671   5.254
 7988SOL     OW24862   2.784   2.000   4.309
 7988SOL    HW124863   2.859   2.065   4.314
 7988SOL    HW224864   2.746   2.000   4.217
 7989SOL     OW24865   3.213   2.496   5.633
 7989SOL    HW124866   3.270   2.483   5.714
 7989SOL    HW224867   3.247   2.440   5.558
 7990SOL     OW24868   0.840   2.757   4.183
 7990SOL    HW124869   0.836   2.851   4.150
 7990SOL    HW224870   0.913   2.708   4.137
 7991SOL     OW24871   0.391   2.897   5.826
 7991SOL    HW124872   0.437   2.963   5.885
 7991SOL    HW224873   0.455   2.862   5.758
 7992SOL     OW24874   1.703   6.940   0.914
 7992SOL    HW124875   1.774   6.982   0.857
 7992SOL    HW224876   1.671   6.856   0.871
 7993SOL     OW24877   1.998   5.358   6.868
 7993SOL    HW124878   2.077   5.362   6.808
 7993SOL    HW224879   1.927   5.301   6.826
 7994SOL     OW24880   4.822   0.980   3.438
 7994SOL    HW124881   4.782   1.072   3.439
 7994SOL    HW224882   4.920   0.986   3.454
 7995SOL     OW24883   3.483   5.347   3.699
 7995SOL    HW124884   3.511   5.274   3.761
 7995SOL    HW224885   3.437   5.419   3.751
 7996SOL     OW24886   3.465   0.213   4.739
 7996SOL    HW124887   3.501   0.164   4.660
 7996SOL    HW224888   3.434   0.147   4.808
 7997SOL     OW24889   6.362   2.423   1.201
 7997SOL    HW124890   6.332   2.396   1.293
 7997SOL    HW224891   6.306   2.500   1.170
 7998SOL     OW24892   5.707   4.520   0.267
 7998SOL    HW124893   5.754   4.578   0.201
 7998SOL    HW224894   5.676   4.575   0.344
 7999SOL     OW24895   1.509   0.175   5.340
 7999SOL    HW124896   1.429   0.123   5.310
 7999SOL    HW224897   1.482   0.269   5.360
 8000SOL     OW24898   6.514   0.192   5.662
 8000SOL    HW124899   6.582   0.258   5.630
 8000SOL    HW224900   6.549   0.100   5.652
 8001SOL     OW24901   1.691   6.413   1.391
 8001SOL    HW124902   1.718   6.429   1.296
 8001SOL    HW224903   1.768   6.432   1.452
 8002SOL     OW24904   6.435   3.918   5.213
 8002SOL    HW124905   6.431   3.893   5.117
 8002SOL    HW224906   6.475   4.009   5.223
 8003SOL     OW24907   3.651   4.913   3.121
 8003SOL    HW124908   3.731   4.870   3.163
 8003SOL    HW224909   3.570   4.897   3.178
 8004SOL     OW24910   2.519   4.539   3.317
 8004SOL    HW124911   2.513   4.497   3.408
 8004SOL    HW224912   2.613   4.568   3.300
 8005SOL     OW24913   3.493   0.186   1.688
 8005SOL    HW124914   3.457   0.215   1.776
 8005SOL    HW224915   3.588   0.216   1.679
 8006SOL     OW24916   2.736   6.199   0.428
 8006SOL    HW124917   2.650   6.201   0.480
 8006SOL    HW224918   2.725   6.140   0.348
 8007SOL     OW24919   0.374   0.420   4.270
 8007SOL    HW124920   0.473   0.411   4.278
 8007SOL    HW224921   0.350   0.453   4.179
 8008SOL     OW24922   6.342   6.564   0.006
 8008SOL    HW124923   6.421   6.505   7.013
 8008SOL    HW224924   6.268   6.534   6.966
 8009SOL     OW24925   7.018   0.627   3.206
 8009SOL    HW124926   6.997   0.554   3.141
 8009SOL    HW224927   0.062   0.592   3.276
 8010SOL     OW24928   1.993   1.842   0.417
 8010SOL    HW124929   1.899   1.846   0.449
 8010SOL    HW224930   2.053   1.890   0.481
 8011SOL     OW24931   3.047   2.336   1.167
 8011SOL    HW124932   3.021   2.363   1.260
 8011SOL    HW224933   2.999   2.393   1.101
 8012SOL     OW24934   2.083   6.531   1.666
 8012SOL    HW124935   2.142   6.611   1.681
 8012SOL    HW224936   2.139   6.449   1.661
 8013SOL     OW24937   5.941   4.981   4.053
 8013SOL    HW124938   6.013   5.030   4.103
 8013SOL    HW224939   5.873   4.946   4.118
 8014SOL     OW24940   1.979   6.315   6.542
 8014SOL    HW124941   2.032   6.237   6.575
 8014SOL    HW224942   2.030   6.362   6.470
 8015SOL     OW24943   2.555   2.642   0.848
 8015SOL    HW124944   2.562   2.630   0.948
 8015SOL    HW224945   2.564   2.553   0.803
 8016SOL     OW24946   4.319   0.031   0.614
 8016SOL    HW124947   4.237   0.014   0.559
 8016SOL    HW224948   4.305   7.015   0.706
 8017SOL     OW24949   0.028   4.761   4.700
 8017SOL    HW124950   0.020   4.857   4.672
 8017SOL    HW224951   6.982   4.706   4.648
 8018SOL     OW24952   4.628   1.777   5.849
 8018SOL    HW124953   4.668   1.700   5.898
 8018SOL    HW224954   4.589   1.842   5.916
 8019SOL     OW24955   1.857   5.820   0.312
 8019SOL    HW124956   1.763   5.850   0.326
 8019SOL    HW224957   1.910   5.837   0.396
 8020SOL     OW24958   5.287   5.500   6.795
 8020SOL    HW124959   5.379   5.466   6.777
 8020SOL    HW224960   5.285   5.547   6.883
 8021SOL     OW24961   0.880   1.578   1.141
 8021SOL    HW124962   0.927   1.491   1.154
 8021SOL    HW224963   0.941   1.643   1.097
 8022SOL     OW24964   4.550   6.601   2.829
 8022SOL    HW124965   4.556   6.701   2.830
 8022SOL    HW224966   4.529   6.568   2.921
 8023SOL     OW24967   6.237   6.059   2.098
 8023SOL    HW124968   6.333   6.081   2.119
 8023SOL    HW224969   6.211   5.975   2.146
 8024SOL     OW24970   4.638   5.398   5.830
 8024SOL    HW124971   4.593   5.315   5.862
 8024SOL    HW224972   4.644   5.465   5.904
 8025SOL     OW24973   3.428   6.387   6.603
 8025SOL    HW124974   3.339   6.378   6.648
 8025SOL    HW224975   3.416   6.374   6.505
 8026SOL     OW24976   1.370   3.618   6.544
 8026SOL    HW124977   1.402   3.704   6.502
 8026SOL    HW224978   1.406   3.541   6.492
 8027SOL     OW24979   4.527   2.055   5.150
 8027SOL    HW124980   4.616   2.054   5.103
 8027SOL    HW224981   4.504   2.149   5.175
 8028SOL     OW24982   4.906   5.459   6.073
 8028SOL    HW124983   4.938   5.370   6.107
 8028SOL    HW224984   4.954   5.532   6.121
 8029SOL     OW24985   4.097   4.644   0.299
 8029SOL    HW124986   4.125   4.659   0.394
 8029SOL    HW224987   4.082   4.547   0.283
 8030SOL     OW24988   5.712   4.170   5.671
 8030SOL    HW124989   5.616   4.141   5.678
 8030SOL    HW224990   5.720   4.265   5.700
 8031SOL     OW24991   4.172   5.490   1.604
 8031SOL    HW124992   4.267   5.522   1.617
 8031SOL    HW224993   4.172   5.391   1.595
 8032SOL     OW24994   5.527   4.195   4.965
 8032SOL    HW124995   5.509   4.143   4.882
 8032SOL    HW224996   5.473   4.156   5.040
 8033SOL     OW24997   5.687   2.588   6.972
 8033SOL    HW124998   5.730   2.525   0.016
 8033SOL    HW224999   5.734   2.677   6.976
 8034SOL     OW25000   4.987   6.949   4.839
 8034SOL    HW125001   4.945   0.008   4.794
 8034SOL    HW225002   4.945   6.865   4.805
 8035SOL     OW25003   5.705   6.227   6.873
 8035SOL    HW125004   5.697   6.152   6.807
 8035SOL    HW225005   5.723   6.312   6.824
 8036SOL     OW25006   2.365   3.941   1.779
 8036SOL    HW125007   2.377   4.008   1.852
 8036SOL    HW225008   2.281   3.889   1.795
 8037SOL     OW25009   1.650   3.173   1.000
 8037SOL    HW125010   1.594   3.229   1.062
 8037SOL    HW225011   1.595   3.098   0.964
 8038SOL     OW25012   6.839   2.065   3.423
 8038SOL    HW125013   6.874   2.012   3.346
 8038SOL    HW225014   6.911   2.072   3.493
 8039SOL     OW25015   2.195   0.353   3.301
 8039SOL    HW125016   2.108   0.306   3.317
 8039SOL    HW225017   2.182   0.451   3.307
 8040SOL     OW25018   0.372   5.483   1.221
 8040SOL    HW125019   0.324   5.544   1.285
 8040SOL    HW225020   0.330   5.392   1.224
 8041SOL     OW25021   4.056   1.394   1.001
 8041SOL    HW125022   4.001   1.411   0.919
 8041SOL    HW225023   4.048   1.472   1.063
 8042SOL     OW25024   3.305   2.914   2.693
 8042SOL    HW125025   3.387   2.954   2.653
 8042SOL    HW225026   3.303   2.816   2.674
 8043SOL     OW25027   2.849   0.498   1.749
 8043SOL    HW125028   2.908   0.527   1.673
 8043SOL    HW225029   2.815   0.578   1.797
 8044SOL     OW25030   3.081   3.084   1.314
 8044SOL    HW125031   3.055   3.165   1.366
 8044SOL    HW225032   3.121   3.113   1.226
 8045SOL     OW25033   6.326   2.401   2.835
 8045SOL    HW125034   6.381   2.378   2.755
 8045SOL    HW225035   6.241   2.349   2.834
 8046SOL     OW25036   5.450   4.500   5.172
 8046SOL    HW125037   5.440   4.468   5.266
 8046SOL    HW225038   5.514   4.440   5.123
 8047SOL     OW25039   3.763   5.800   4.854
 8047SOL    HW125040   3.845   5.833   4.808
 8047SOL    HW225041   3.714   5.877   4.895
 8048SOL     OW25042   6.743   0.535   5.527
 8048SOL    HW125043   6.741   0.530   5.427
 8048SOL    HW225044   6.651   0.518   5.563
 8049SOL     OW25045   1.225   6.357   1.504
 8049SOL    HW125046   1.310   6.395   1.541
 8049SOL    HW225047   1.224   6.367   1.405
 8050SOL     OW25048   1.860   3.703   0.854
 8050SOL    HW125049   1.768   3.679   0.823
 8050SOL    HW225050   1.858   3.723   0.952
 8051SOL     OW25051   4.474   0.992   2.966
 8051SOL    HW125052   4.388   1.043   2.977
 8051SOL    HW225053   4.536   1.013   3.041
 8052SOL     OW25054   2.810   1.455   3.339
 8052SOL    HW125055   2.781   1.469   3.244
 8052SOL    HW225056   2.840   1.360   3.351
 8053SOL     OW25057   3.732   3.993   2.814
 8053SOL    HW125058   3.648   4.024   2.858
 8053SOL    HW225059   3.744   4.041   2.727
 8054SOL     OW25060   5.214   6.732   4.566
 8054SOL    HW125061   5.159   6.664   4.616
 8054SOL    HW225062   5.271   6.685   4.499
 8055SOL     OW25063   1.115   0.193   6.087
 8055SOL    HW125064   1.156   0.165   6.000
 8055SOL    HW225065   1.152   0.136   6.160
 8056SOL     OW25066   4.624   1.745   2.993
 8056SOL    HW125067   4.535   1.726   2.951
 8056SOL    HW225068   4.611   1.769   3.089
 8057SOL     OW25069   2.753   6.901   3.270
 8057SOL    HW125070   2.778   6.967   3.342
 8057SOL    HW225071   2.796   6.929   3.184
 8058SOL     OW25072   2.750   0.567   2.354
 8058SOL    HW125073   2.678   0.621   2.397
 8058SOL    HW225074   2.839   0.597   2.389
 8059SOL     OW25075   3.302   2.101   4.823
 8059SOL    HW125076   3.395   2.075   4.847
 8059SOL    HW225077   3.271   2.174   4.885
 8060SOL     OW25078   6.739   1.153   4.760
 8060SOL    HW125079   6.704   1.069   4.719
 8060SOL    HW225080   6.839   1.152   4.755
 8061SOL     OW25081   6.512   5.868   2.634
 8061SOL    HW125082   6.478   5.775   2.647
 8061SOL    HW225083   6.577   5.870   2.558
 8062SOL     OW25084   1.552   4.037   4.084
 8062SOL    HW125085   1.483   4.018   4.155
 8062SOL    HW225086   1.606   4.116   4.110
 8063SOL     OW25087   3.270   3.287   6.727
 8063SOL    HW125088   3.332   3.298   6.804
 8063SOL    HW225089   3.245   3.376   6.691
 8064SOL     OW25090   0.632   4.112   0.444
 8064SOL    HW125091   0.554   4.148   0.393
 8064SOL    HW225092   0.696   4.069   0.380
 8065SOL     OW25093   4.854   0.072   4.330
 8065SOL    HW125094   4.900   7.002   4.327
 8065SOL    HW225095   4.918   0.143   4.299
 8066SOL     OW25096   1.610   1.141   1.217
 8066SOL    HW125097   1.544   1.131   1.143
 8066SOL    HW225098   1.588   1.076   1.290
 8067SOL     OW25099   4.379   3.123   1.492
 8067SOL    HW125100   4.360   3.028   1.469
 8067SOL    HW225101   4.302   3.180   1.463
 8068SOL     OW25102   1.044   4.663   4.656
 8068SOL    HW125103   1.010   4.664   4.750
 8068SOL    HW225104   0.996   4.732   4.602
 8069SOL     OW25105   1.452   6.327   0.830
 8069SOL    HW125106   1.472   6.351   0.925
 8069SOL    HW225107   1.355   6.340   0.812
 8070SOL     OW25108   3.823   6.299   1.818
 8070SOL    HW125109   3.897   6.279   1.754
 8070SOL    HW225110   3.735   6.275   1.777
 8071SOL     OW25111   3.641   6.754   5.651
 8071SOL    HW125112   3.684   6.843   5.669
 8071SOL    HW225113   3.545   6.768   5.629
 8072SOL     OW25114   4.638   1.218   0.465
 8072SOL    HW125115   4.682   1.155   0.400
 8072SOL    HW225116   4.572   1.274   0.416
 8073SOL     OW25117   4.467   6.294   5.858
 8073SOL    HW125118   4.419   6.336   5.781
 8073SOL    HW225119   4.431   6.330   5.944
 8074SOL     OW25120   3.515   3.501   0.474
 8074SOL    HW125121   3.547   3.546   0.557
 8074SOL    HW225122   3.432   3.450   0.494
 8075SOL     OW25123   0.086   1.141   2.793
 8075SOL    HW125124   0.015   1.165   2.858
 8075SOL    HW225125   0.045   1.103   2.710
 8076SOL     OW25126   5.635   2.446   5.291
 8076SOL    HW125127   5.688   2.397   5.361
 8076SOL    HW225128   5.609   2.381   5.219
 8077SOL     OW25129   0.823   6.933   1.217
 8077SOL    HW125130   0.772   6.897   1.296
 8077SOL    HW225131   0.853   6.856   1.161
 8078SOL     OW25132   6.603   2.739   0.735
 8078SOL    HW125133   6.547   2.820   0.721
 8078SOL    HW225134   6.570   2.688   0.814
 8079SOL     OW25135   6.654   2.162   2.874
 8079SOL    HW125136   6.644   2.175   2.973
 8079SOL    HW225137   6.647   2.250   2.828
 8080SOL     OW25138   2.612   4.153   0.592
 8080SOL    HW125139   2.639   4.172   0.498
 8080SOL    HW225140   2.533   4.091   0.591
 8081SOL     OW25141   6.370   1.011   4.824
 8081SOL    HW125142   6.327   1.000   4.734
 8081SOL    HW225143   6.340   1.098   4.864
 8082SOL     OW25144   6.542   2.371   3.648
 8082SOL    HW125145   6.559   2.364   3.746
 8082SOL    HW225146   6.626   2.402   3.602
 8083SOL     OW25147   4.534   2.472   3.107
 8083SOL    HW125148   4.616   2.454   3.161
 8083SOL    HW225149   4.472   2.393   3.113
 8084SOL     OW25150   6.702   6.299   1.125
 8084SOL    HW125151   6.648   6.383   1.120
 8084SOL    HW225152   6.776   6.311   1.191
 8085SOL     OW25153   5.485   0.376   0.688
 8085SOL    HW125154   5.540   0.449   0.649
 8085SOL    HW225155   5.502   0.291   0.639
 8086SOL     OW25156   3.861   0.436   4.838
 8086SOL    HW125157   3.942   0.453   4.894
 8086SOL    HW225158   3.781   0.427   4.898
 8087SOL     OW25159   2.631   2.353   1.069
 8087SOL    HW125160   2.543   2.399   1.079
 8087SOL    HW225161   2.675   2.346   1.159
 8088SOL     OW25162   5.651   1.030   2.054
 8088SOL    HW125163   5.744   1.064   2.040
 8088SOL    HW225164   5.589   1.107   2.069
 8089SOL     OW25165   5.262   3.013   0.620
 8089SOL    HW125166   5.182   2.958   0.599
 8089SOL    HW225167   5.336   2.992   0.555
 8090SOL     OW25168   5.202   1.850   6.169
 8090SOL    HW125169   5.145   1.909   6.227
 8090SOL    HW225170   5.263   1.796   6.226
 8091SOL     OW25171   3.189   4.741   6.607
 8091SOL    HW125172   3.273   4.754   6.553
 8091SOL    HW225173   3.212   4.695   6.692
 8092SOL     OW25174   1.510   1.240   5.204
 8092SOL    HW125175   1.563   1.316   5.166
 8092SOL    HW225176   1.469   1.187   5.130
 8093SOL     OW25177   6.039   5.927   1.324
 8093SOL    HW125178   6.138   5.913   1.332
 8093SOL    HW225179   6.015   5.938   1.227
 8094SOL     OW25180   1.455   3.867   6.452
 8094SOL    HW125181   1.437   3.912   6.364
 8094SOL    HW225182   1.542   3.900   6.489
 8095SOL     OW25183   5.790   3.282   4.988
 8095SOL    HW125184   5.843   3.232   4.920
 8095SOL    HW225185   5.812   3.248   5.079
 8096SOL     OW25186   3.334   5.937   1.682
 8096SOL    HW125187   3.287   6.007   1.630
 8096SOL    HW225188   3.295   5.847   1.662
 8097SOL     OW25189   5.102   0.987   3.487
 8097SOL    HW125190   5.108   1.037   3.400
 8097SOL    HW225191   5.167   1.026   3.552
 8098SOL     OW25192   3.175   6.095   4.323
 8098SOL    HW125193   3.114   6.060   4.394
 8098SOL    HW225194   3.168   6.195   4.318
 8099SOL     OW25195   5.172   6.438   4.612
 8099SOL    HW125196   5.209   6.350   4.581
 8099SOL    HW225197   5.166   6.439   4.712
 8100SOL     OW25198   6.730   6.689   0.523
 8100SOL    HW125199   6.691   6.708   0.614
 8100SOL    HW225200   6.735   6.591   0.509
 8101SOL     OW25201   1.261   6.078   3.846
 8101SOL    HW125202   1.190   6.025   3.892
 8101SOL    HW225203   1.308   6.135   3.914
 8102SOL     OW25204   6.960   5.429   5.629
 8102SOL    HW125205   6.898   5.356   5.600
 8102SOL    HW225206   6.915   5.486   5.698
 8103SOL     OW25207   3.686   1.526   2.232
 8103SOL    HW125208   3.603   1.487   2.273
 8103SOL    HW225209   3.763   1.464   2.247
 8104SOL     OW25210   2.558   7.018   5.627
 8104SOL    HW125211   2.496   0.039   5.560
 8104SOL    HW225212   2.542   6.920   5.631
 8105SOL     OW25213   2.411   2.263   3.742
 8105SOL    HW125214   2.344   2.329   3.777
 8105SOL    HW225215   2.377   2.170   3.756
 8106SOL     OW25216   0.918   4.229   3.325
 8106SOL    HW125217   0.907   4.143   3.375
 8106SOL    HW225218   0.905   4.306   3.387
 8107SOL     OW25219   1.921   6.246   5.678
 8107SOL    HW125220   2.013   6.285   5.682
 8107SOL    HW225221   1.923   6.161   5.625
 8108SOL     OW25222   0.674   3.825   4.486
 8108SOL    HW125223   0.726   3.849   4.568
 8108SOL    HW225224   0.656   3.907   4.433
 8109SOL     OW25225   1.645   4.381   4.839
 8109SOL    HW125226   1.555   4.392   4.882
 8109SOL    HW225227   1.669   4.465   4.791
 8110SOL     OW25228   2.293   6.290   0.651
 8110SOL    HW125229   2.207   6.340   0.662
 8110SOL    HW225230   2.330   6.267   0.741
 8111SOL     OW25231   2.875   5.619   4.515
 8111SOL    HW125232   2.866   5.533   4.466
 8111SOL    HW225233   2.891   5.693   4.449
 8112SOL     OW25234   2.508   0.393   5.387
 8112SOL    HW125235   2.440   0.425   5.453
 8112SOL    HW225236   2.591   0.367   5.436
 8113SOL     OW25237   3.650   2.550   6.641
 8113SOL    HW125238   3.597   2.605   6.577
 8113SOL    HW225239   3.701   2.480   6.592
 8114SOL     OW25240   2.150   2.936   2.484
 8114SOL    HW125241   2.061   2.973   2.510
 8114SOL    HW225242   2.165   2.951   2.387
 8115SOL     OW25243   3.097   1.154   1.236
 8115SOL    HW125244   3.050   1.110   1.313
 8115SOL    HW225245   3.179   1.200   1.270
 8116SOL     OW25246   6.168   6.726   4.963
 8116SOL    HW125247   6.083   6.726   5.015
 8116SOL    HW225248   6.242   6.763   5.020
 8117SOL     OW25249   1.408   1.794   4.891
 8117SOL    HW125250   1.346   1.751   4.957
 8117SOL    HW225251   1.462   1.864   4.937
 8118SOL     OW25252   0.937   4.004   5.225
 8118SOL    HW125253   1.008   3.941   5.255
 8118SOL    HW225254   0.977   4.078   5.171
 8119SOL     OW25255   0.945   5.981   3.027
 8119SOL    HW125256   0.887   6.055   3.062
 8119SOL    HW225257   1.029   6.019   2.989
 8120SOL     OW25258   4.210   4.327   1.129
 8120SOL    HW125259   4.155   4.253   1.168
 8120SOL    HW225260   4.307   4.309   1.146
 8121SOL     OW25261   6.838   0.667   2.686
 8121SOL    HW125262   6.741   0.681   2.665
 8121SOL    HW225263   6.879   0.611   2.614
 8122SOL     OW25264   6.687   6.283   2.116
 8122SOL    HW125265   6.630   6.361   2.141
 8122SOL    HW225266   6.682   6.268   2.018
 8123SOL     OW25267   1.364   6.415   6.076
 8123SOL    HW125268   1.392   6.409   6.172
 8123SOL    HW225269   1.264   6.406   6.069
 8124SOL     OW25270   0.991   5.532   1.895
 8124SOL    HW125271   1.003   5.442   1.853
 8124SOL    HW225272   1.009   5.603   1.827
 8125SOL     OW25273   5.855   4.351   3.196
 8125SOL    HW125274   5.858   4.375   3.099
 8125SOL    HW225275   5.930   4.397   3.244
 8126SOL     OW25276   5.780   4.114   2.623
 8126SOL    HW125277   5.713   4.101   2.696
 8126SOL    HW225278   5.774   4.037   2.559
 8127SOL     OW25279   2.108   5.025   0.169
 8127SOL    HW125280   2.023   5.059   0.209
 8127SOL    HW225281   2.104   5.034   0.069
 8128SOL     OW25282   3.516   2.733   5.781
 8128SOL    HW125283   3.465   2.649   5.794
 8128SOL    HW225284   3.568   2.728   5.696
 8129SOL     OW25285   5.607   0.861   6.255
 8129SOL    HW125286   5.610   0.761   6.252
 8129SOL    HW225287   5.520   0.890   6.296
 8130SOL     OW25288   1.299   5.382   6.737
 8130SOL    HW125289   1.234   5.441   6.689
 8130SOL    HW225290   1.340   5.318   6.673
 8131SOL     OW25291   2.733   0.818   0.703
 8131SOL    HW125292   2.797   0.782   0.635
 8131SOL    HW225293   2.756   0.913   0.723
 8132SOL     OW25294   5.840   5.619   4.000
 8132SOL    HW125295   5.881   5.710   4.001
 8132SOL    HW225296   5.877   5.565   4.076
 8133SOL     OW25297   2.647   5.262   2.829
 8133SOL    HW125298   2.690   5.276   2.918
 8133SOL    HW225299   2.549   5.277   2.836
 8134SOL     OW25300   2.224   2.179   3.982
 8134SOL    HW125301   2.249   2.274   4.003
 8134SOL    HW225302   2.290   2.117   4.024
 8135SOL     OW25303   4.007   5.456   2.283
 8135SOL    HW125304   3.953   5.456   2.368
 8135SOL    HW225305   3.947   5.478   2.206
 8136SOL     OW25306   3.895   5.810   2.511
 8136SOL    HW125307   3.912   5.714   2.534
 8136SOL    HW225308   3.852   5.856   2.588
 8137SOL     OW25309   2.126   4.003   4.841
 8137SOL    HW125310   2.106   4.099   4.820
 8137SOL    HW225311   2.204   3.998   4.904
 8138SOL     OW25312   5.232   1.102   2.165
 8138SOL    HW125313   5.149   1.068   2.121
 8138SOL    HW225314   5.208   1.169   2.235
 8139SOL     OW25315   1.791   2.686   2.899
 8139SOL    HW125316   1.844   2.718   2.977
 8139SOL    HW225317   1.842   2.615   2.851
 8140SOL     OW25318   4.710   0.582   0.699
 8140SOL    HW125319   4.771   0.534   0.636
 8140SOL    HW225320   4.764   0.627   0.770
 8141SOL     OW25321   4.830   1.588   5.992
 8141SOL    HW125322   4.795   1.568   6.083
 8141SOL    HW225323   4.892   1.515   5.963
 8142SOL     OW25324   2.118   5.989   0.142
 8142SOL    HW125325   2.048   5.919   0.130
 8142SOL    HW225326   2.107   6.034   0.231
 8143SOL     OW25327   5.614   4.643   0.538
 8143SOL    HW125328   5.626   4.742   0.533
 8143SOL    HW225329   5.519   4.621   0.558
 8144SOL     OW25330   0.080   4.927   5.805
 8144SOL    HW125331   0.035   4.841   5.781
 8144SOL    HW225332   0.179   4.912   5.809
 8145SOL     OW25333   5.609   5.682   6.748
 8145SOL    HW125334   5.590   5.587   6.723
 8145SOL    HW225335   5.661   5.726   6.674
 8146SOL     OW25336   5.980   0.278   4.558
 8146SOL    HW125337   6.057   0.224   4.591
 8146SOL    HW225338   5.967   0.358   4.617
 8147SOL     OW25339   1.027   0.968   5.570
 8147SOL    HW125340   1.090   0.994   5.643
 8147SOL    HW225341   0.941   1.018   5.581
 8148SOL     OW25342   4.031   4.868   0.126
 8148SOL    HW125343   4.049   4.774   0.157
 8148SOL    HW225344   4.117   4.911   0.100
 8149SOL     OW25345   1.577   6.131   4.134
 8149SOL    HW125346   1.586   6.111   4.036
 8149SOL    HW225347   1.658   6.179   4.165
 8150SOL     OW25348   1.267   3.201   1.170
 8150SOL    HW125349   1.363   3.231   1.167
 8150SOL    HW225350   1.228   3.223   1.259
 8151SOL     OW25351   5.784   4.289   4.093
 8151SOL    HW125352   5.706   4.324   4.041
 8151SOL    HW225353   5.763   4.197   4.127
 8152SOL     OW25354   4.604   2.108   3.190
 8152SOL    HW125355   4.694   2.135   3.155
 8152SOL    HW225356   4.589   2.011   3.171
 8153SOL     OW25357   6.944   2.171   3.837
 8153SOL    HW125358   6.920   2.262   3.870
 8153SOL    HW225359   6.887   2.103   3.883
 8154SOL     OW25360   1.792   1.584   3.379
 8154SOL    HW125361   1.726   1.588   3.454
 8154SOL    HW225362   1.771   1.505   3.321
 8155SOL     OW25363   1.559   4.896   1.908
 8155SOL    HW125364   1.525   4.903   2.002
 8155SOL    HW225365   1.541   4.803   1.873
 8156SOL     OW25366   5.946   5.064   1.521
 8156SOL    HW125367   6.038   5.044   1.486
 8156SOL    HW225368   5.924   5.160   1.504
 8157SOL     OW25369   6.774   3.107   6.396
 8157SOL    HW125370   6.822   3.105   6.309
 8157SOL    HW225371   6.832   3.069   6.468
 8158SOL     OW25372   5.545   4.736   6.055
 8158SOL    HW125373   5.459   4.775   6.087
 8158SOL    HW225374   5.619   4.803   6.067
 8159SOL     OW25375   3.563   6.193   5.848
 8159SOL    HW125376   3.614   6.156   5.927
 8159SOL    HW225377   3.620   6.261   5.801
 8160SOL     OW25378   5.300   1.303   3.402
 8160SOL    HW125379   5.294   1.304   3.501
 8160SOL    HW225380   5.380   1.356   3.372
 8161SOL     OW25381   5.663   3.162   1.074
 8161SOL    HW125382   5.615   3.121   0.996
 8161SOL    HW225383   5.660   3.100   1.152
 8162SOL     OW25384   0.545   5.003   6.439
 8162SOL    HW125385   0.597   4.919   6.449
 8162SOL    HW225386   0.602   5.081   6.463
 8163SOL     OW25387   4.447   4.897   5.033
 8163SOL    HW125388   4.403   4.984   5.057
 8163SOL    HW225389   4.521   4.914   4.969
 8164SOL     OW25390   5.895   1.215   0.095
 8164SOL    HW125391   5.835   1.262   0.031
 8164SOL    HW225392   5.986   1.255   0.090
 8165SOL     OW25393   0.414   2.041   6.311
 8165SOL    HW125394   0.431   2.101   6.389
 8165SOL    HW225395   0.340   1.978   6.332
 8166SOL     OW25396   1.686   2.223   4.713
 8166SOL    HW125397   1.603   2.230   4.768
 8166SOL    HW225398   1.698   2.308   4.660
 8167SOL     OW25399   6.740   2.750   4.152
 8167SOL    HW125400   6.655   2.803   4.146
 8167SOL    HW225401   6.777   2.755   4.244
 8168SOL     OW25402   2.589   0.366   1.883
 8168SOL    HW125403   2.632   0.306   1.951
 8168SOL    HW225404   2.655   0.434   1.852
 8169SOL     OW25405   5.273   1.873   0.994
 8169SOL    HW125406   5.321   1.924   0.924
 8169SOL    HW225407   5.336   1.811   1.040
 8170SOL     OW25408   6.255   4.586   2.437
 8170SOL    HW125409   6.293   4.534   2.361
 8170SOL    HW225410   6.286   4.547   2.523
 8171SOL     OW25411   1.890   1.318   0.282
 8171SOL    HW125412   1.879   1.238   0.341
 8171SOL    HW225413   1.876   1.401   0.335
 8172SOL     OW25414   0.916   3.103   1.660
 8172SOL    HW125415   0.887   3.143   1.572
 8172SOL    HW225416   1.015   3.091   1.659
 8173SOL     OW25417   5.465   1.556   1.911
 8173SOL    HW125418   5.382   1.541   1.964
 8173SOL    HW225419   5.441   1.566   1.814
 8174SOL     OW25420   1.996   5.630   2.735
 8174SOL    HW125421   2.010   5.692   2.658
 8174SOL    HW225422   1.941   5.552   2.706
 8175SOL     OW25423   0.448   2.290   4.319
 8175SOL    HW125424   0.428   2.388   4.313
 8175SOL    HW225425   0.485   2.258   4.232
 8176SOL     OW25426   2.169   4.563   0.874
 8176SOL    HW125427   2.268   4.552   0.860
 8176SOL    HW225428   2.121   4.487   0.829
 8177SOL     OW25429   3.538   1.401   2.737
 8177SOL    HW125430   3.482   1.477   2.703
 8177SOL    HW225431   3.614   1.385   2.674
 8178SOL     OW25432   2.194   6.325   1.126
 8178SOL    HW125433   2.155   6.236   1.147
 8178SOL    HW225434   2.207   6.377   1.210
 8179SOL     OW25435   5.389   0.952   3.416
 8179SOL    HW125436   5.388   1.010   3.498
 8179SOL    HW225437   5.469   0.892   3.419
 8180SOL     OW25438   5.035   6.043   6.973
 8180SOL    HW125439   5.097   5.973   6.937
 8180SOL    HW225440   5.026   6.117   6.907
 8181SOL     OW25441   0.968   0.966   1.264
 8181SOL    HW125442   1.016   0.983   1.178
 8181SOL    HW225443   0.953   1.053   1.312
 8182SOL     OW25444   2.925   3.531   4.656
 8182SOL    HW125445   2.941   3.433   4.641
 8182SOL    HW225446   2.930   3.578   4.568
 8183SOL     OW25447   0.015   0.101   5.009
 8183SOL    HW125448   0.090   0.062   5.063
 8183SOL    HW225449   6.966   0.140   5.070
 8184SOL     OW25450   0.564   6.536   6.772
 8184SOL    HW125451   0.629   6.611   6.762
 8184SOL    HW225452   0.489   6.565   6.831
 8185SOL     OW25453   0.918   6.871   0.098
 8185SOL    HW125454   0.905   6.963   0.061
 8185SOL    HW225455   0.881   6.803   0.034
 8186SOL     OW25456   1.200   5.084   6.474
 8186SOL    HW125457   1.296   5.085   6.446
 8186SOL    HW225458   1.189   5.023   6.553
 8187SOL     OW25459   1.446   1.403   5.701
 8187SOL    HW125460   1.377   1.376   5.634
 8187SOL    HW225461   1.536   1.405   5.656
 8188SOL     OW25462   3.207   1.747   3.951
 8188SOL    HW125463   3.230   1.809   3.876
 8188SOL    HW225464   3.131   1.688   3.923
 8189SOL     OW25465   4.872   4.673   4.224
 8189SOL    HW125466   4.915   4.584   4.208
 8189SOL    HW225467   4.854   4.717   4.136
 8190SOL     OW25468   5.622   3.561   3.082
 8190SOL    HW125469   5.690   3.487   3.084
 8190SOL    HW225470   5.669   3.649   3.080
 8191SOL     OW25471   4.150   5.227   1.582
 8191SOL    HW125472   4.208   5.179   1.517
 8191SOL    HW225473   4.054   5.210   1.560
 8192SOL     OW25474   1.789   5.122   3.907
 8192SOL    HW125475   1.805   5.028   3.879
 8192SOL    HW225476   1.874   5.174   3.901
 8193SOL     OW25477   6.890   5.032   4.883
 8193SOL    HW125478   6.891   4.939   4.920
 8193SOL    HW225479   6.910   5.098   4.956
 8194SOL     OW25480   4.602   6.920   2.056
 8194SOL    HW125481   4.517   6.963   2.083
 8194SOL    HW225482   4.637   6.962   1.972
 8195SOL     OW25483   5.582   6.648   3.372
 8195SOL    HW125484   5.566   6.552   3.351
 8195SOL    HW225485   5.677   6.661   3.398
 8196SOL     OW25486   4.464   0.330   0.005
 8196SOL    HW125487   4.528   0.318   0.081
 8196SOL    HW225488   4.508   0.384   6.952
 8197SOL     OW25489   5.306   1.999   1.420
 8197SOL    HW125490   5.263   2.032   1.336
 8197SOL    HW225491   5.255   1.920   1.455
 8198SOL     OW25492   2.257   0.141   2.376
 8198SOL    HW125493   2.240   0.203   2.452
 8198SOL    HW225494   2.224   0.182   2.291
 8199SOL     OW25495   5.606   2.712   5.790
 8199SOL    HW125496   5.521   2.760   5.768
 8199SOL    HW225497   5.684   2.768   5.761
 8200SOL     OW25498   4.925   3.432   1.315
 8200SOL    HW125499   4.883   3.499   1.254
 8200SOL    HW225500   4.856   3.394   1.376
 8201SOL     OW25501   0.240   7.011   5.148
 8201SOL    HW125502   0.292   6.926   5.138
 8201SOL    HW225503   0.293   0.067   5.112
 8202SOL     OW25504   0.352   6.340   2.596
 8202SOL    HW125505   0.269   6.389   2.620
 8202SOL    HW225506   0.329   6.247   2.567
 8203SOL     OW25507   1.877   2.815   0.937
 8203SOL    HW125508   1.973   2.802   0.912
 8203SOL    HW225509   1.819   2.793   0.859
 8204SOL     OW25510   4.527   3.528   1.224
 8204SOL    HW125511   4.561   3.441   1.188
 8204SOL    HW225512   4.435   3.544   1.190
 8205SOL     OW25513   1.144   3.574   0.593
 8205SOL    HW125514   1.086   3.651   0.621
 8205SOL    HW225515   1.128   3.497   0.653
 8206SOL     OW25516   4.058   1.398   0.064
 8206SOL    HW125517   4.030   1.302   0.069
 8206SOL    HW225518   4.065   1.425   6.987
 8207SOL     OW25519   3.890   3.143   4.235
 8207SOL    HW125520   3.838   3.058   4.222
 8207SOL    HW225521   3.827   3.216   4.264
 8208SOL     OW25522   1.152   1.066   0.352
 8208SOL    HW125523   1.087   0.994   0.378
 8208SOL    HW225524   1.193   1.104   0.435
 8209SOL     OW25525   6.610   1.315   5.401
 8209SOL    HW125526   6.539   1.245   5.396
 8209SOL    HW225527   6.602   1.378   5.324
 8210SOL     OW25528   2.019   2.913   0.298
 8210SOL    HW125529   2.059   2.879   0.384
 8210SOL    HW225530   1.934   2.864   0.279
 8211SOL     OW25531   2.910   3.583   1.252
 8211SOL    HW125532   2.956   3.598   1.339
 8211SOL    HW225533   2.949   3.642   1.182
 8212SOL     OW25534   1.990   2.514   2.881
 8212SOL    HW125535   2.007   2.457   2.962
 8212SOL    HW225536   2.022   2.466   2.800
 8213SOL     OW25537   0.410   5.084   1.454
 8213SOL    HW125538   0.482   5.098   1.521
 8213SOL    HW225539   0.449   5.047   1.370
 8214SOL     OW25540   5.849   4.361   3.514
 8214SOL    HW125541   5.947   4.339   3.517
 8214SOL    HW225542   5.832   4.430   3.443
 8215SOL     OW25543   3.729   4.940   4.690
 8215SOL    HW125544   3.649   4.937   4.750
 8215SOL    HW225545   3.809   4.970   4.744
 8216SOL     OW25546   5.212   4.493   4.036
 8216SOL    HW125547   5.185   4.437   4.114
 8216SOL    HW225548   5.155   4.575   4.031
 8217SOL     OW25549   1.723   6.031   0.609
 8217SOL    HW125550   1.651   6.032   0.680
 8217SOL    HW225551   1.791   6.102   0.630
 8218SOL     OW25552   0.573   1.877   0.233
 8218SOL    HW125553   0.524   1.874   0.146
 8218SOL    HW225554   0.622   1.791   0.246
 8219SOL     OW25555   5.248   2.276   7.018
 8219SOL    HW125556   5.195   2.341   6.962
 8219SOL    HW225557   5.200   2.189   0.002
 8220SOL     OW25558   3.505   3.683   2.429
 8220SOL    HW125559   3.587   3.671   2.486
 8220SOL    HW225560   3.454   3.597   2.427
 8221SOL     OW25561   4.789   5.896   4.045
 8221SOL    HW125562   4.866   5.929   4.100
 8221SOL    HW225563   4.731   5.973   4.019
 8222SOL     OW25564   5.832   1.854   2.207
 8222SOL    HW125565   5.765   1.791   2.169
 8222SOL    HW225566   5.790   1.943   2.223
 8223SOL     OW25567   1.032   4.523   5.943
 8223SOL    HW125568   1.057   4.569   6.028
 8223SOL    HW225569   0.979   4.440   5.965
 8224SOL     OW25570   0.617   2.851   2.647
 8224SOL    HW125571   0.713   2.824   2.658
 8224SOL    HW225572   0.560   2.794   2.707
 8225SOL     OW25573   4.703   1.049   6.408
 8225SOL    HW125574   4.621   1.094   6.444
 8225SOL    HW225575   4.768   1.118   6.376
 8226SOL     OW25576   5.299   0.823   1.310
 8226SOL    HW125577   5.395   0.849   1.320
 8226SOL    HW225578   5.243   0.877   1.374
 8227SOL     OW25579   6.535   3.361   3.868
 8227SOL    HW125580   6.478   3.323   3.796
 8227SOL    HW225581   6.631   3.337   3.852
 8228SOL     OW25582   0.349   2.455   5.064
 8228SOL    HW125583   0.268   2.397   5.056
 8228SOL    HW225584   0.432   2.400   5.050
 8229SOL     OW25585   3.162   5.642   0.138
 8229SOL    HW125586   3.068   5.664   0.114
 8229SOL    HW225587   3.195   5.569   0.078
 8230SOL     OW25588   5.214   0.536   4.955
 8230SOL    HW125589   5.146   0.481   5.004
 8230SOL    HW225590   5.175   0.626   4.935
 8231SOL     OW25591   5.051   5.790   1.810
 8231SOL    HW125592   5.143   5.788   1.772
 8231SOL    HW225593   5.051   5.844   1.895
 8232SOL     OW25594   3.913   1.545   0.462
 8232SOL    HW125595   3.847   1.471   0.452
 8232SOL    HW225596   3.995   1.526   0.408
 8233SOL     OW25597   0.212   5.319   5.972
 8233SOL    HW125598   0.265   5.377   6.033
 8233SOL    HW225599   0.133   5.281   6.021
 8234SOL     OW25600   3.009   2.609   0.151
 8234SOL    HW125601   3.049   2.524   0.115
 8234SOL    HW225602   2.933   2.637   0.093
 8235SOL     OW25603   3.422   3.348   0.894
 8235SOL    HW125604   3.449   3.304   0.979
 8235SOL    HW225605   3.337   3.400   0.908
 8236SOL     OW25606   6.776   3.272   6.993
 8236SOL    HW125607   6.680   3.245   7.002
 8236SOL    HW225608   6.826   3.246   0.056
 8237SOL     OW25609   4.418   5.789   5.429
 8237SOL    HW125610   4.516   5.777   5.418
 8237SOL    HW225611   4.370   5.745   5.353
 8238SOL     OW25612   1.567   3.879   0.004
 8238SOL    HW125613   1.513   3.796   0.015
 8238SOL    HW225614   1.601   3.909   0.093
 8239SOL     OW25615   6.292   1.999   5.356
 8239SOL    HW125616   6.206   2.023   5.401
 8239SOL    HW225617   6.277   1.917   5.300
 8240SOL     OW25618   3.273   3.816   2.627
 8240SOL    HW125619   3.306   3.789   2.717
 8240SOL    HW225620   3.228   3.738   2.583
 8241SOL     OW25621   3.576   0.036   1.033
 8241SOL    HW125622   3.487   0.036   1.078
 8241SOL    HW225623   3.647   0.053   1.101
 8242SOL     OW25624   0.888   4.526   5.666
 8242SOL    HW125625   0.897   4.437   5.623
 8242SOL    HW225626   0.941   4.528   5.751
 8243SOL     OW25627   0.182   3.217   6.019
 8243SOL    HW125628   0.150   3.134   5.973
 8243SOL    HW225629   0.119   3.292   5.998
 8244SOL     OW25630   0.585   0.213   4.082
 8244SOL    HW125631   0.642   0.133   4.063
 8244SOL    HW225632   0.532   0.237   4.000
 8245SOL     OW25633   4.651   1.747   1.342
 8245SOL    HW125634   4.702   1.745   1.428
 8245SOL    HW225635   4.553   1.744   1.361
 8246SOL     OW25636   6.350   4.160   6.125
 8246SOL    HW125637   6.355   4.234   6.193
 8246SOL    HW225638   6.289   4.088   6.158
 8247SOL     OW25639   0.783   0.636   1.659
 8247SOL    HW125640   0.774   0.724   1.612
 8247SOL    HW225641   0.732   0.639   1.745
 8248SOL     OW25642   6.010   4.839   3.761
 8248SOL    HW125643   6.023   4.750   3.804
 8248SOL    HW225644   5.913   4.863   3.759
 8249SOL     OW25645   2.299   4.819   4.100
 8249SOL    HW125646   2.359   4.759   4.047
 8249SOL    HW225647   2.253   4.883   4.038
 8250SOL     OW25648   3.424   3.816   2.872
 8250SOL    HW125649   3.501   3.762   2.908
 8250SOL    HW225650   3.457   3.907   2.846
 8251SOL     OW25651   4.785   2.032   5.073
 8251SOL    HW125652   4.835   1.978   5.006
 8251SOL    HW225653   4.817   2.126   5.071
 8252SOL     OW25654   3.121   3.534   6.250
 8252SOL    HW125655   3.077   3.469   6.312
 8252SOL    HW225656   3.195   3.488   6.200
 8253SOL     OW25657   3.562   3.080   5.233
 8253SOL    HW125658   3.465   3.101   5.226
 8253SOL    HW225659   3.613   3.163   5.257
 8254SOL     OW25660   4.257   4.778   4.573
 8254SOL    HW125661   4.245   4.772   4.672
 8254SOL    HW225662   4.311   4.699   4.541
 8255SOL     OW25663   3.870   6.199   4.024
 8255SOL    HW125664   3.843   6.263   4.095
 8255SOL    HW225665   3.852   6.105   4.055
 8256SOL     OW25666   6.058   0.752   3.816
 8256SOL    HW125667   6.010   0.753   3.729
 8256SOL    HW225668   6.146   0.706   3.805
 8257SOL     OW25669   5.871   5.072   3.105
 8257SOL    HW125670   5.867   4.978   3.139
 8257SOL    HW225671   5.954   5.116   3.139
 8258SOL     OW25672   4.795   1.043   0.307
 8258SOL    HW125673   4.785   0.953   0.351
 8258SOL    HW225674   4.767   1.037   0.212
 8259SOL     OW25675   4.177   1.432   3.409
 8259SOL    HW125676   4.185   1.529   3.429
 8259SOL    HW225677   4.082   1.404   3.418
 8260SOL     OW25678   2.680   6.969   2.072
 8260SOL    HW125679   2.622   0.018   2.028
 8260SOL    HW225680   2.677   6.884   2.019
 8261SOL     OW25681   5.635   1.191   0.721
 8261SOL    HW125682   5.537   1.188   0.738
 8261SOL    HW225683   5.675   1.269   0.769
 8262SOL     OW25684   1.134   2.485   1.554
 8262SOL    HW125685   1.149   2.398   1.601
 8262SOL    HW225686   1.222   2.526   1.532
 8263SOL     OW25687   0.265   1.131   1.250
 8263SOL    HW125688   0.207   1.050   1.258
 8263SOL    HW225689   0.289   1.165   1.342
 8264SOL     OW25690   1.348   6.018   2.356
 8264SOL    HW125691   1.332   5.962   2.274
 8264SOL    HW225692   1.279   5.997   2.425
 8265SOL     OW25693   1.810   0.198   1.441
 8265SOL    HW125694   1.760   0.249   1.372
 8265SOL    HW225695   1.747   0.165   1.511
 8266SOL     OW25696   2.049   6.670   2.678
 8266SOL    HW125697   2.138   6.624   2.688
 8266SOL    HW225698   2.001   6.632   2.599
 8267SOL     OW25699   2.089   3.558   0.902
 8267SOL    HW125700   2.096   3.491   0.828
 8267SOL    HW225701   2.018   3.624   0.881
 8268SOL     OW25702   2.120   6.426   5.829
 8268SOL    HW125703   2.125   6.388   5.921
 8268SOL    HW225704   2.119   6.526   5.835
 8269SOL     OW25705   5.770   1.705   1.135
 8269SOL    HW125706   5.836   1.778   1.115
 8269SOL    HW225707   5.728   1.674   1.050
 8270SOL     OW25708   2.968   6.719   4.277
 8270SOL    HW125709   2.934   6.637   4.231
 8270SOL    HW225710   2.989   6.789   4.209
 8271SOL     OW25711   6.902   1.378   2.909
 8271SOL    HW125712   6.822   1.356   2.964
 8271SOL    HW225713   6.970   1.423   2.967
 8272SOL     OW25714   4.929   0.706   2.092
 8272SOL    HW125715   4.837   0.709   2.132
 8272SOL    HW225716   4.921   0.695   1.993
 8273SOL     OW25717   2.020   6.519   1.067
 8273SOL    HW125718   2.034   6.603   1.120
 8273SOL    HW225719   2.090   6.452   1.092
 8274SOL     OW25720   4.375   5.120   2.851
 8274SOL    HW125721   4.325   5.186   2.795
 8274SOL    HW225722   4.335   5.029   2.838
 8275SOL     OW25723   4.784   2.037   6.025
 8275SOL    HW125724   4.754   2.087   6.107
 8275SOL    HW225725   4.879   2.009   6.036
 8276SOL     OW25726   0.826   1.997   3.729
 8276SOL    HW125727   0.893   2.000   3.803
 8276SOL    HW225728   0.845   1.919   3.669
 8277SOL     OW25729   0.067   1.170   6.555
 8277SOL    HW125730   0.081   1.076   6.588
 8277SOL    HW225731   7.013   1.212   6.607
 8278SOL     OW25732   2.111   2.206   6.554
 8278SOL    HW125733   2.070   2.247   6.473
 8278SOL    HW225734   2.209   2.225   6.556
 8279SOL     OW25735   0.695   6.084   4.727
 8279SOL    HW125736   0.661   5.997   4.691
 8279SOL    HW225737   0.722   6.143   4.651
 8280SOL     OW25738   2.910   2.734   6.771
 8280SOL    HW125739   2.858   2.715   6.854
 8280SOL    HW225740   2.965   2.816   6.784
 8281SOL     OW25741   1.014   5.500   1.449
 8281SOL    HW125742   1.071   5.583   1.445
 8281SOL    HW225743   1.023   5.450   1.363
 8282SOL     OW25744   5.765   2.903   6.322
 8282SOL    HW125745   5.750   2.816   6.368
 8282SOL    HW225746   5.814   2.887   6.236
 8283SOL     OW25747   1.579   4.676   5.947
 8283SOL    HW125748   1.666   4.724   5.959
 8283SOL    HW225749   1.597   4.580   5.925
 8284SOL     OW25750   0.436   4.522   1.935
 8284SOL    HW125751   0.381   4.458   1.883
 8284SOL    HW225752   0.448   4.488   2.028
 8285SOL     OW25753   3.960   3.176   5.108
 8285SOL    HW125754   4.013   3.133   5.181
 8285SOL    HW225755   3.914   3.105   5.054
 8286SOL     OW25756   5.922   2.362   5.657
 8286SOL    HW125757   6.013   2.365   5.698
 8286SOL    HW225758   5.852   2.356   5.729
 8287SOL     OW25759   1.229   5.853   4.701
 8287SOL    HW125760   1.187   5.807   4.779
 8287SOL    HW225761   1.292   5.790   4.656
 8288SOL     OW25762   2.672   2.444   3.025
 8288SOL    HW125763   2.702   2.355   3.059
 8288SOL    HW225764   2.653   2.437   2.927
 8289SOL     OW25765   0.425   6.925   0.678
 8289SOL    HW125766   0.435   6.833   0.640
 8289SOL    HW225767   0.449   6.923   0.775
 8290SOL     OW25768   6.618   1.460   0.388
 8290SOL    HW125769   6.543   1.487   0.327
 8290SOL    HW225770   6.590   1.473   0.483
 8291SOL     OW25771   4.841   0.032   6.904
 8291SOL    HW125772   4.825   6.962   6.944
 8291SOL    HW225773   4.913   0.025   6.834
 8292SOL     OW25774   2.912   6.416   0.392
 8292SOL    HW125775   2.830   6.362   0.373
 8292SOL    HW225776   2.887   6.498   0.444
 8293SOL     OW25777   4.049   0.165   6.276
 8293SOL    HW125778   4.026   0.114   6.193
 8293SOL    HW225779   4.148   0.180   6.279
 8294SOL     OW25780   6.078   3.506   6.090
 8294SOL    HW125781   6.059   3.428   6.030
 8294SOL    HW225782   5.991   3.550   6.115
 8295SOL     OW25783   5.580   4.811   1.684
 8295SOL    HW125784   5.623   4.742   1.741
 8295SOL    HW225785   5.482   4.816   1.704
 8296SOL     OW25786   1.606   6.722   6.033
 8296SOL    HW125787   1.686   6.735   6.093
 8296SOL    HW225788   1.631   6.663   5.957
 8297SOL     OW25789   6.372   2.682   3.179
 8297SOL    HW125790   6.362   2.585   3.198
 8297SOL    HW225791   6.326   2.704   3.093
 8298SOL     OW25792   5.127   1.215   1.580
 8298SOL    HW125793   5.197   1.144   1.583
 8298SOL    HW225794   5.166   1.303   1.608
 8299SOL     OW25795   0.503   2.828   1.879
 8299SOL    HW125796   0.598   2.846   1.852
 8299SOL    HW225797   0.495   2.839   1.978
 8300SOL     OW25798   0.247   4.733   5.458
 8300SOL    HW125799   0.334   4.736   5.408
 8300SOL    HW225800   0.262   4.693   5.548
 8301SOL     OW25801   4.375   1.785   1.377
 8301SOL    HW125802   4.367   1.753   1.472
 8301SOL    HW225803   4.320   1.867   1.366
 8302SOL     OW25804   5.967   6.114   6.507
 8302SOL    HW125805   5.976   6.214   6.508
 8302SOL    HW225806   5.909   6.087   6.430
 8303SOL     OW25807   0.069   0.285   4.627
 8303SOL    HW125808   0.013   0.301   4.546
 8303SOL    HW225809   0.165   0.303   4.606
 8304SOL     OW25810   1.141   3.481   6.232
 8304SOL    HW125811   1.228   3.527   6.249
 8304SOL    HW225812   1.067   3.533   6.274
 8305SOL     OW25813   3.777   5.115   3.887
 8305SOL    HW125814   3.815   5.207   3.893
 8305SOL    HW225815   3.780   5.072   3.977
 8306SOL     OW25816   0.512   2.912   4.797
 8306SOL    HW125817   0.598   2.946   4.835
 8306SOL    HW225818   0.463   2.861   4.867
 8307SOL     OW25819   3.856   5.275   1.484
 8307SOL    HW125820   3.782   5.292   1.419
 8307SOL    HW225821   3.822   5.215   1.557
 8308SOL     OW25822   4.601   6.637   1.631
 8308SOL    HW125823   4.696   6.661   1.651
 8308SOL    HW225824   4.552   6.719   1.600
 8309SOL     OW25825   5.290   5.559   2.764
 8309SOL    HW125826   5.229   5.480   2.770
 8309SOL    HW225827   5.342   5.554   2.678
 8310SOL     OW25828   0.795   4.448   0.518
 8310SOL    HW125829   0.785   4.381   0.592
 8310SOL    HW225830   0.706   4.462   0.474
 8311SOL     OW25831   0.398   0.955   6.000
 8311SOL    HW125832   0.364   0.924   5.911
 8311SOL    HW225833   0.351   1.039   6.026
 8312SOL     OW25834   4.957   6.388   1.691
 8312SOL    HW125835   4.913   6.313   1.740
 8312SOL    HW225836   5.016   6.351   1.620
 8313SOL     OW25837   3.833   1.589   2.661
 8313SOL    HW125838   3.922   1.572   2.705
 8313SOL    HW225839   3.838   1.673   2.608
 8314SOL     OW25840   4.729   6.563   0.771
 8314SOL    HW125841   4.704   6.472   0.738
 8314SOL    HW225842   4.805   6.598   0.716
 8315SOL     OW25843   4.208   3.290   0.958
 8315SOL    HW125844   4.214   3.210   1.018
 8315SOL    HW225845   4.291   3.297   0.904
 8316SOL     OW25846   0.559   3.323   1.525
 8316SOL    HW125847   0.489   3.394   1.520
 8316SOL    HW225848   0.518   3.234   1.506
 8317SOL     OW25849   2.127   3.375   2.425
 8317SOL    HW125850   2.099   3.330   2.340
 8317SOL    HW225851   2.161   3.467   2.405
 8318SOL     OW25852   4.351   2.046   4.944
 8318SOL    HW125853   4.403   2.066   5.027
 8318SOL    HW225854   4.257   2.021   4.969
 8319SOL     OW25855   3.225   1.493   5.786
 8319SOL    HW125856   3.305   1.468   5.731
 8319SOL    HW225857   3.198   1.587   5.765
 8320SOL     OW25858   3.596   4.872   1.081
 8320SOL    HW125859   3.682   4.825   1.060
 8320SOL    HW225860   3.566   4.923   1.001
 8321SOL     OW25861   0.757   1.068   6.299
 8321SOL    HW125862   0.850   1.036   6.316
 8321SOL    HW225863   0.719   1.106   6.383
 8322SOL     OW25864   0.114   0.015   6.916
 8322SOL    HW125865   0.076   0.072   6.989
 8322SOL    HW225866   0.199   6.993   6.947
 8323SOL     OW25867   0.246   6.935   2.410
 8323SOL    HW125868   0.165   6.910   2.356
 8323SOL    HW225869   0.238   0.011   2.439
 8324SOL     OW25870   6.643   0.549   2.378
 8324SOL    HW125871   6.735   0.515   2.396
 8324SOL    HW225872   6.578   0.472   2.377
 8325SOL     OW25873   3.959   3.249   4.493
 8325SOL    HW125874   3.991   3.338   4.459
 8325SOL    HW225875   3.966   3.181   4.420
 8326SOL     OW25876   4.337   3.636   5.537
 8326SOL    HW125877   4.361   3.645   5.440
 8326SOL    HW225878   4.334   3.726   5.579
 8327SOL     OW25879   4.838   2.104   5.775
 8327SOL    HW125880   4.928   2.147   5.781
 8327SOL    HW225881   4.812   2.066   5.865
 8328SOL     OW25882   2.653   3.803   6.322
 8328SOL    HW125883   2.580   3.782   6.258
 8328SOL    HW225884   2.741   3.779   6.281
 8329SOL     OW25885   6.989   3.007   5.552
 8329SOL    HW125886   0.051   3.060   5.576
 8329SOL    HW225887   6.998   2.914   5.586
 8330SOL     OW25888   1.960   6.698   0.739
 8330SOL    HW125889   1.869   6.675   0.775
 8330SOL    HW225890   1.951   6.761   0.662
 8331SOL     OW25891   3.051   6.821   0.853
 8331SOL    HW125892   3.126   6.881   0.879
 8331SOL    HW225893   3.068   6.784   0.762
 8332SOL     OW25894   4.665   5.059   2.454
 8332SOL    HW125895   4.681   5.123   2.529
 8332SOL    HW225896   4.688   5.103   2.367
 8333SOL     OW25897   0.035   5.679   0.236
 8333SOL    HW125898   0.108   5.699   0.301
 8333SOL    HW225899   0.029   5.752   0.168
 8334SOL     OW25900   5.766   1.354   3.996
 8334SOL    HW125901   5.851   1.366   3.945
 8334SOL    HW225902   5.756   1.428   4.063
 8335SOL     OW25903   6.239   5.276   5.811
 8335SOL    HW125904   6.171   5.348   5.798
 8335SOL    HW225905   6.312   5.309   5.871
 8336SOL     OW25906   6.789   1.000   3.020
 8336SOL    HW125907   6.833   0.968   2.935
 8336SOL    HW225908   6.695   0.967   3.022
 8337SOL     OW25909   0.440   6.873   3.861
 8337SOL    HW125910   0.489   6.944   3.811
 8337SOL    HW225911   0.388   6.817   3.797
 8338SOL     OW25912   2.088   4.958   1.983
 8338SOL    HW125913   2.027   4.879   1.985
 8338SOL    HW225914   2.077   5.011   2.067
 8339SOL     OW25915   6.815   1.066   2.565
 8339SOL    HW125916   6.717   1.072   2.584
 8339SOL    HW225917   6.833   1.099   2.473
 8340SOL     OW25918   4.814   3.711   0.883
 8340SOL    HW125919   4.715   3.700   0.886
 8340SOL    HW225920   4.837   3.809   0.886
 8341SOL     OW25921   2.156   6.900   0.424
 8341SOL    HW125922   2.196   6.921   0.334
 8341SOL    HW225923   2.213   6.832   0.470
 8342SOL     OW25924   4.012   6.947   1.090
 8342SOL    HW125925   4.007   7.003   1.007
 8342SOL    HW225926   4.039   6.854   1.065
 8343SOL     OW25927   1.520   5.295   5.824
 8343SOL    HW125928   1.572   5.378   5.801
 8343SOL    HW225929   1.453   5.317   5.895
 8344SOL     OW25930   4.903   6.415   5.726
 8344SOL    HW125931   4.829   6.455   5.673
 8344SOL    HW225932   4.867   6.345   5.788
 8345SOL     OW25933   5.487   1.919   3.520
 8345SOL    HW125934   5.477   1.880   3.428
 8345SOL    HW225935   5.400   1.960   3.548
 8346SOL     OW25936   2.474   4.863   0.427
 8346SOL    HW125937   2.418   4.837   0.505
 8346SOL    HW225938   2.544   4.793   0.411
 8347SOL     OW25939   2.552   6.799   5.079
 8347SOL    HW125940   2.647   6.828   5.070
 8347SOL    HW225941   2.499   6.834   5.002
 8348SOL     OW25942   1.286   0.028   1.439
 8348SOL    HW125943   1.190   0.054   1.424
 8348SOL    HW225944   1.316   0.061   1.528
 8349SOL     OW25945   5.695   3.581   1.102
 8349SOL    HW125946   5.674   3.523   1.181
 8349SOL    HW225947   5.787   3.618   1.111
 8350SOL     OW25948   5.881   0.706   4.822
 8350SOL    HW125949   5.823   0.624   4.828
 8350SOL    HW225950   5.823   0.787   4.825
 8351SOL     OW25951   3.494   5.405   4.316
 8351SOL    HW125952   3.523   5.339   4.386
 8351SOL    HW225953   3.437   5.359   4.249
 8352SOL     OW25954   6.521   0.241   1.921
 8352SOL    HW125955   6.474   0.179   1.858
 8352SOL    HW225956   6.569   0.186   1.991
 8353SOL     OW25957   5.753   3.776   2.426
 8353SOL    HW125958   5.753   3.716   2.346
 8353SOL    HW225959   5.702   3.859   2.407
 8354SOL     OW25960   3.212   1.409   6.353
 8354SOL    HW125961   3.156   1.328   6.337
 8354SOL    HW225962   3.193   1.477   6.281
 8355SOL     OW25963   2.897   0.806   0.077
 8355SOL    HW125964   2.893   0.898   0.038
 8355SOL    HW225965   2.866   0.739   0.009
 8356SOL     OW25966   0.950   6.502   0.533
 8356SOL    HW125967   0.876   6.565   0.509
 8356SOL    HW225968   0.956   6.430   0.465
 8357SOL     OW25969   3.993   5.478   5.477
 8357SOL    HW125970   4.089   5.493   5.501
 8357SOL    HW225971   3.981   5.383   5.447
 8358SOL     OW25972   2.062   2.645   5.944
 8358SOL    HW125973   2.102   2.686   6.027
 8358SOL    HW225974   2.133   2.637   5.874
 8359SOL     OW25975   3.864   5.884   4.512
 8359SOL    HW125976   3.890   5.920   4.602
 8359SOL    HW225977   3.766   5.865   4.510
 8360SOL     OW25978   3.700   0.246   2.769
 8360SOL    HW125979   3.778   0.204   2.815
 8360SOL    HW225980   3.623   0.182   2.768
 8361SOL     OW25981   1.859   0.942   2.202
 8361SOL    HW125982   1.866   0.961   2.104
 8361SOL    HW225983   1.844   1.028   2.252
 8362SOL     OW25984   2.997   1.921   0.544
 8362SOL    HW125985   3.031   1.913   0.451
 8362SOL    HW225986   2.983   1.830   0.583
 8363SOL     OW25987   0.962   2.966   0.724
 8363SOL    HW125988   0.879   3.004   0.765
 8363SOL    HW225989   0.988   2.883   0.773
 8364SOL     OW25990   0.316   3.459   2.917
 8364SOL    HW125991   0.228   3.432   2.955
 8364SOL    HW225992   0.303   3.527   2.845
 8365SOL     OW25993   1.837   4.057   0.846
 8365SOL    HW125994   1.820   4.115   0.925
 8365SOL    HW225995   1.927   4.014   0.855
 8366SOL     OW25996   4.755   6.052   2.115
 8366SOL    HW125997   4.744   5.959   2.151
 8366SOL    HW225998   4.819   6.103   2.172
 8367SOL     OW25999   4.913   6.202   4.005
 8367SOL    HW126000   4.823   6.163   3.982
 8367SOL    HW226001   4.954   6.241   3.922
 8368SOL     OW26002   2.704   5.838   6.351
 8368SOL    HW126003   2.719   5.923   6.401
 8368SOL    HW226004   2.649   5.857   6.269
 8369SOL     OW26005   1.725   0.935   6.999
 8369SOL    HW126006   1.780   1.019   6.997
 8369SOL    HW226007   1.648   0.944   6.936
 8370SOL     OW26008   2.905   2.325   5.581
 8370SOL    HW126009   2.954   2.382   5.515
 8370SOL    HW226010   2.934   2.349   5.673
 8371SOL     OW26011   1.647   3.566   0.343
 8371SOL    HW126012   1.582   3.641   0.326
 8371SOL    HW226013   1.650   3.506   0.264
 8372SOL     OW26014   0.616   6.765   2.580
 8372SOL    HW126015   0.523   6.737   2.603
 8372SOL    HW226016   0.663   6.690   2.534
 8373SOL     OW26017   0.604   6.278   5.290
 8373SOL    HW126018   0.575   6.237   5.376
 8373SOL    HW226019   0.528   6.275   5.225
 8374SOL     OW26020   0.182   1.030   7.010
 8374SOL    HW126021   0.254   0.963   0.009
 8374SOL    HW226022   0.109   1.021   0.059
 8375SOL     OW26023   3.321   5.959   6.070
 8375SOL    HW126024   3.240   5.941   6.014
 8375SOL    HW226025   3.392   6.000   6.014
 8376SOL     OW26026   2.409   0.524   4.536
 8376SOL    HW126027   2.504   0.501   4.518
 8376SOL    HW226028   2.349   0.460   4.487
 8377SOL     OW26029   5.918   5.729   1.451
 8377SOL    HW126030   5.825   5.763   1.463
 8377SOL    HW226031   5.974   5.799   1.406
 8378SOL     OW26032   4.729   4.087   3.270
 8378SOL    HW126033   4.768   3.995   3.262
 8378SOL    HW226034   4.757   4.128   3.356
 8379SOL     OW26035   6.759   3.586   1.746
 8379SOL    HW126036   6.679   3.532   1.721
 8379SOL    HW226037   6.840   3.549   1.700
 8380SOL     OW26038   6.338   1.048   2.201
 8380SOL    HW126039   6.417   0.988   2.209
 8380SOL    HW226040   6.272   1.026   2.273
 8381SOL     OW26041   0.718   5.126   4.586
 8381SOL    HW126042   0.816   5.115   4.604
 8381SOL    HW226043   0.671   5.041   4.610
 8382SOL     OW26044   1.050   1.461   2.136
 8382SOL    HW126045   1.122   1.519   2.098
 8382SOL    HW226046   1.077   1.365   2.126
 8383SOL     OW26047   2.648   1.924   6.646
 8383SOL    HW126048   2.567   1.940   6.702
 8383SOL    HW226049   2.622   1.920   6.550
 8384SOL     OW26050   0.051   6.690   0.915
 8384SOL    HW126051   0.036   6.785   0.941
 8384SOL    HW226052   7.008   6.665   0.841
 8385SOL     OW26053   5.516   2.454   1.954
 8385SOL    HW126054   5.432   2.463   2.006
 8385SOL    HW226055   5.543   2.357   1.950
 8386SOL     OW26056   0.974   4.218   2.560
 8386SOL    HW126057   0.912   4.146   2.592
 8386SOL    HW226058   1.034   4.182   2.489
 8387SOL     OW26059   1.306   1.035   0.861
 8387SOL    HW126060   1.344   0.943   0.870
 8387SOL    HW226061   1.345   1.095   0.930
 8388SOL     OW26062   2.834   5.727   1.715
 8388SOL    HW126063   2.815   5.819   1.748
 8388SOL    HW226064   2.764   5.664   1.751
 8389SOL     OW26065   5.373   3.421   2.077
 8389SOL    HW126066   5.393   3.324   2.063
 8389SOL    HW226067   5.283   3.442   2.037
 8390SOL     OW26068   4.120   2.138   6.770
 8390SOL    HW126069   4.073   2.222   6.747
 8390SOL    HW226070   4.206   2.159   6.817
 8391SOL     OW26071   5.898   6.618   0.762
 8391SOL    HW126072   5.985   6.594   0.719
 8391SOL    HW226073   5.905   6.602   0.860
 8392SOL     OW26074   6.596   3.798   4.292
 8392SOL    HW126075   6.540   3.878   4.271
 8392SOL    HW226076   6.599   3.784   4.391
 8393SOL     OW26077   5.207   0.370   2.299
 8393SOL    HW126078   5.264   0.302   2.253
 8393SOL    HW226079   5.260   0.415   2.371
 8394SOL     OW26080   6.002   3.669   2.524
 8394SOL    HW126081   5.991   3.653   2.622
 8394SOL    HW226082   5.924   3.722   2.490
 8395SOL     OW26083   2.250   0.238   5.245
 8395SOL    HW126084   2.176   0.230   5.311
 8395SOL    HW226085   2.313   0.311   5.274
 8396SOL     OW26086   3.930   4.928   4.242
 8396SOL    HW126087   3.994   4.979   4.186
 8396SOL    HW226088   3.965   4.921   4.335
 8397SOL     OW26089   6.635   1.526   4.101
 8397SOL    HW126090   6.608   1.544   4.195
 8397SOL    HW226091   6.556   1.495   4.048
 8398SOL     OW26092   4.872   1.780   6.354
 8398SOL    HW126093   4.928   1.862   6.347
 8398SOL    HW226094   4.792   1.789   6.295
 8399SOL     OW26095   6.980   5.721   6.746
 8399SOL    HW126096   0.020   5.758   6.675
 8399SOL    HW226097   0.016   5.672   6.813
 8400SOL     OW26098   1.533   2.465   4.215
 8400SOL    HW126099   1.611   2.499   4.267
 8400SOL    HW226100   1.555   2.466   4.118
 8401SOL     OW26101   2.248   0.264   4.972
 8401SOL    HW126102   2.340   0.294   4.945
 8401SOL    HW226103   2.250   0.230   5.066
 8402SOL     OW26104   4.820   0.914   6.183
 8402SOL    HW126105   4.782   0.945   6.270
 8402SOL    HW226106   4.778   0.827   6.158
 8403SOL     OW26107   6.610   4.763   4.043
 8403SOL    HW126108   6.623   4.857   4.012
 8403SOL    HW226109   6.700   4.721   4.062
 8404SOL     OW26110   2.651   1.883   6.123
 8404SOL    HW126111   2.674   1.788   6.099
 8404SOL    HW226112   2.671   1.943   6.045
 8405SOL     OW26113   3.879   1.699   5.900
 8405SOL    HW126114   3.837   1.609   5.899
 8405SOL    HW226115   3.944   1.707   5.824
 8406SOL     OW26116   4.746   0.730   6.783
 8406SOL    HW126117   4.827   0.692   6.736
 8406SOL    HW226118   4.775   0.802   6.845
 8407SOL     OW26119   4.138   6.321   3.533
 8407SOL    HW126120   4.124   6.349   3.628
 8407SOL    HW226121   4.226   6.354   3.501
 8408SOL     OW26122   5.612   6.749   0.808
 8408SOL    HW126123   5.609   6.780   0.903
 8408SOL    HW226124   5.705   6.720   0.785
 8409SOL     OW26125   4.186   2.296   1.919
 8409SOL    HW126126   4.267   2.347   1.949
 8409SOL    HW226127   4.138   2.349   1.849
 8410SOL     OW26128   6.853   2.151   1.519
 8410SOL    HW126129   6.830   2.126   1.613
 8410SOL    HW226130   6.941   2.200   1.518
 8411SOL     OW26131   0.424   6.104   1.435
 8411SOL    HW126132   0.458   6.178   1.378
 8411SOL    HW226133   0.336   6.129   1.474
 8412SOL     OW26134   3.326   2.954   0.833
 8412SOL    HW126135   3.347   2.866   0.790
 8412SOL    HW226136   3.403   3.016   0.820
 8413SOL     OW26137   3.928   5.501   6.022
 8413SOL    HW126138   3.966   5.476   6.111
 8413SOL    HW226139   3.854   5.439   5.999
 8414SOL     OW26140   1.830   0.992   2.724
 8414SOL    HW126141   1.904   1.003   2.658
 8414SOL    HW226142   1.790   0.901   2.714
 8415SOL     OW26143   2.991   0.082   4.242
 8415SOL    HW126144   2.995   0.182   4.243
 8415SOL    HW226145   3.061   0.045   4.303
 8416SOL     OW26146   5.881   1.726   4.969
 8416SOL    HW126147   5.861   1.809   4.917
 8416SOL    HW226148   5.797   1.674   4.982
 8417SOL     OW26149   1.540   3.308   5.398
 8417SOL    HW126150   1.556   3.274   5.490
 8417SOL    HW226151   1.604   3.265   5.335
 8418SOL     OW26152   0.920   5.538   2.382
 8418SOL    HW126153   0.995   5.576   2.327
 8418SOL    HW226154   0.945   5.542   2.478
 8419SOL     OW26155   5.521   0.998   3.008
 8419SOL    HW126156   5.560   0.999   3.101
 8419SOL    HW226157   5.593   0.974   2.943
 8420SOL     OW26158   3.680   6.936   2.248
 8420SOL    HW126159   3.621   6.855   2.242
 8420SOL    HW226160   3.624   7.019   2.244
 8421SOL     OW26161   3.720   6.501   6.234
 8421SOL    HW126162   3.808   6.484   6.279
 8421SOL    HW226163   3.655   6.430   6.259
 8422SOL     OW26164   4.742   2.839   2.575
 8422SOL    HW126165   4.693   2.753   2.588
 8422SOL    HW226166   4.739   2.865   2.478
 8423SOL     OW26167   5.309   4.530   5.659
 8423SOL    HW126168   5.271   4.530   5.567
 8423SOL    HW226169   5.237   4.508   5.725
 8424SOL     OW26170   1.997   0.388   3.586
 8424SOL    HW126171   2.093   0.416   3.593
 8424SOL    HW226172   1.949   0.449   3.523
 8425SOL     OW26173   3.333   3.870   3.719
 8425SOL    HW126174   3.248   3.895   3.672
 8425SOL    HW226175   3.313   3.857   3.817
 8426SOL     OW26176   3.909   3.366   2.425
 8426SOL    HW126177   3.816   3.356   2.388
 8426SOL    HW226178   3.914   3.316   2.512
 8427SOL     OW26179   3.035   3.241   3.445
 8427SOL    HW126180   2.996   3.285   3.364
 8427SOL    HW226181   3.111   3.295   3.479
 8428SOL     OW26182   0.118   0.081   0.713
 8428SOL    HW126183   0.198   0.120   0.667
 8428SOL    HW226184   0.035   0.122   0.676
 8429SOL     OW26185   2.084   5.632   6.182
 8429SOL    HW126186   2.032   5.550   6.206
 8429SOL    HW226187   2.037   5.681   6.108
 8430SOL     OW26188   4.050   5.416   4.331
 8430SOL    HW126189   4.048   5.365   4.245
 8430SOL    HW226190   4.045   5.514   4.312
 8431SOL     OW26191   2.876   2.871   6.509
 8431SOL    HW126192   2.902   2.825   6.593
 8431SOL    HW226193   2.788   2.917   6.522
 8432SOL     OW26194   6.715   5.126   6.302
 8432SOL    HW126195   6.786   5.193   6.278
 8432SOL    HW226196   6.687   5.077   6.219
 8433SOL     OW26197   4.423   2.578   1.452
 8433SOL    HW126198   4.482   2.537   1.383
 8433SOL    HW226199   4.328   2.568   1.425
 8434SOL     OW26200   1.904   5.396   4.684
 8434SOL    HW126201   1.998   5.432   4.685
 8434SOL    HW226202   1.891   5.339   4.603
 8435SOL     OW26203   5.223   0.991   2.554
 8435SOL    HW126204   5.144   0.987   2.493
 8435SOL    HW226205   5.306   0.970   2.503
 8436SOL     OW26206   2.812   6.294   3.449
 8436SOL    HW126207   2.893   6.262   3.499
 8436SOL    HW226208   2.744   6.221   3.446
 8437SOL     OW26209   2.151   3.213   2.629
 8437SOL    HW126210   2.159   3.257   2.539
 8437SOL    HW226211   2.169   3.115   2.619
 8438SOL     OW26212   1.745   3.772   3.108
 8438SOL    HW126213   1.763   3.726   3.195
 8438SOL    HW226214   1.743   3.871   3.123
 8439SOL     OW26215   5.785   5.215   3.787
 8439SOL    HW126216   5.734   5.142   3.832
 8439SOL    HW226217   5.879   5.216   3.823
 8440SOL     OW26218   1.971   1.716   3.209
 8440SOL    HW126219   1.928   1.671   3.287
 8440SOL    HW226220   2.062   1.678   3.195
 8441SOL     OW26221   5.615   5.980   5.461
 8441SOL    HW126222   5.540   5.963   5.526
 8441SOL    HW226223   5.634   5.896   5.410
 8442SOL     OW26224   3.796   0.899   5.611
 8442SOL    HW126225   3.793   0.903   5.511
 8442SOL    HW226226   3.879   0.945   5.644
 8443SOL     OW26227   1.846   4.872   3.438
 8443SOL    HW126228   1.927   4.826   3.403
 8443SOL    HW226229   1.798   4.812   3.502
 8444SOL     OW26230   4.413   6.590   2.531
 8444SOL    HW126231   4.433   6.609   2.627
 8444SOL    HW226232   4.498   6.574   2.482
 8445SOL     OW26233   2.760   6.942   6.963
 8445SOL    HW126234   2.667   6.959   6.997
 8445SOL    HW226235   2.824   6.939   0.021
 8446SOL     OW26236   0.053   6.436   5.225
 8446SOL    HW126237   0.087   6.486   5.146
 8446SOL    HW226238   0.060   6.493   5.307
 8447SOL     OW26239   4.435   1.576   2.753
 8447SOL    HW126240   4.393   1.525   2.828
 8447SOL    HW226241   4.525   1.537   2.733
 8448SOL     OW26242   5.048   6.497   3.560
 8448SOL    HW126243   5.007   6.572   3.612
 8448SOL    HW226244   5.148   6.506   3.562
 8449SOL     OW26245   1.821   2.999   3.257
 8449SOL    HW126246   1.872   3.081   3.231
 8449SOL    HW226247   1.723   3.018   3.253
 8450SOL     OW26248   6.741   0.828   6.840
 8450SOL    HW126249   6.793   0.883   6.775
 8450SOL    HW226250   6.682   0.764   6.790
 8451SOL     OW26251   3.726   1.185   1.018
 8451SOL    HW126252   3.808   1.155   1.067
 8451SOL    HW226253   3.701   1.117   0.950
 8452SOL     OW26254   5.177   1.476   4.544
 8452SOL    HW126255   5.178   1.566   4.502
 8452SOL    HW226256   5.115   1.416   4.493
 8453SOL     OW26257   1.120   5.883   6.884
 8453SOL    HW126258   1.025   5.891   6.855
 8453SOL    HW226259   1.146   5.964   6.936
 8454SOL     OW26260   0.989   4.322   6.967
 8454SOL    HW126261   0.956   4.335   0.041
 8454SOL    HW226262   1.044   4.238   6.962
 8455SOL     OW26263   0.930   0.419   2.421
 8455SOL    HW126264   0.856   0.485   2.433
 8455SOL    HW226265   0.975   0.435   2.332
 8456SOL     OW26266   4.838   0.349   3.169
 8456SOL    HW126267   4.803   0.414   3.101
 8456SOL    HW226268   4.932   0.374   3.194
 8457SOL     OW26269   6.131   6.526   4.611
 8457SOL    HW126270   6.205   6.592   4.616
 8457SOL    HW226271   6.140   6.460   4.687
 8458SOL     OW26272   0.460   6.934   0.346
 8458SOL    HW126273   0.460   0.001   0.296
 8458SOL    HW226274   0.367   6.900   0.356
 8459SOL     OW26275   1.207   5.513   3.341
 8459SOL    HW126276   1.130   5.455   3.369
 8459SOL    HW226277   1.176   5.581   3.275
 8460SOL     OW26278   4.063   4.034   5.245
 8460SOL    HW126279   4.126   3.956   5.239
 8460SOL    HW226280   4.079   4.083   5.331
 8461SOL     OW26281   0.010   3.104   4.752
 8461SOL    HW126282   0.092   3.118   4.807
 8461SOL    HW226283   7.005   3.189   4.705
 8462SOL     OW26284   2.820   1.769   1.169
 8462SOL    HW126285   2.840   1.854   1.218
 8462SOL    HW226286   2.902   1.713   1.166
 8463SOL     OW26287   6.075   0.533   2.200
 8463SOL    HW126288   6.159   0.555   2.250
 8463SOL    HW226289   6.012   0.486   2.261
 8464SOL     OW26290   6.227   3.110   4.702
 8464SOL    HW126291   6.194   3.026   4.659
 8464SOL    HW226292   6.151   3.175   4.710
 8465SOL     OW26293   1.394   1.820   0.767
 8465SOL    HW126294   1.369   1.788   0.676
 8465SOL    HW226295   1.457   1.756   0.810
 8466SOL     OW26296   1.131   5.924   3.487
 8466SOL    HW126297   1.085   6.007   3.518
 8466SOL    HW226298   1.069   5.870   3.430
 8467SOL     OW26299   2.833   5.412   0.881
 8467SOL    HW126300   2.777   5.423   0.799
 8467SOL    HW226301   2.800   5.473   0.952
 8468SOL     OW26302   4.065   2.096   0.146
 8468SOL    HW126303   4.012   2.166   0.195
 8468SOL    HW226304   4.042   2.006   0.183
 8469SOL     OW26305   3.221   2.740   6.528
 8469SOL    HW126306   3.256   2.833   6.542
 8469SOL    HW226307   3.142   2.742   6.466
 8470SOL     OW26308   2.171   2.784   0.889
 8470SOL    HW126309   2.204   2.795   0.983
 8470SOL    HW226310   2.218   2.850   0.830
 8471SOL     OW26311   3.304   0.393   4.344
 8471SOL    HW126312   3.356   0.388   4.429
 8471SOL    HW226313   3.210   0.365   4.361
 8472SOL     OW26314   0.508   6.986   4.372
 8472SOL    HW126315   0.521   7.000   4.274
 8472SOL    HW226316   0.411   6.976   4.392
 8473SOL     OW26317   6.516   5.167   0.103
 8473SOL    HW126318   6.599   5.126   0.066
 8473SOL    HW226319   6.519   5.165   0.203
 8474SOL     OW26320   3.323   2.917   1.575
 8474SOL    HW126321   3.275   2.896   1.490
 8474SOL    HW226322   3.322   2.836   1.634
 8475SOL     OW26323   6.081   1.677   2.815
 8475SOL    HW126324   6.170   1.708   2.848
 8475SOL    HW226325   6.010   1.699   2.881
 8476SOL     OW26326   5.386   0.329   2.069
 8476SOL    HW126327   5.457   0.294   2.007
 8476SOL    HW226328   5.335   0.401   2.023
 8477SOL     OW26329   2.771   6.761   1.154
 8477SOL    HW126330   2.823   6.696   1.098
 8477SOL    HW226331   2.746   6.717   1.241
 8478SOL     OW26332   1.770   0.602   5.632
 8478SOL    HW126333   1.726   0.658   5.703
 8478SOL    HW226334   1.769   0.652   5.546
 8479SOL     OW26335   6.024   1.050   0.527
 8479SOL    HW126336   6.093   1.022   0.461
 8479SOL    HW226337   5.981   1.135   0.497
 8480SOL     OW26338   3.393   0.434   1.353
 8480SOL    HW126339   3.424   0.528   1.367
 8480SOL    HW226340   3.339   0.404   1.432
 8481SOL     OW26341   3.478   1.622   4.630
 8481SOL    HW126342   3.388   1.605   4.668
 8481SOL    HW226343   3.475   1.609   4.530
 8482SOL     OW26344   1.431   0.492   2.369
 8482SOL    HW126345   1.361   0.465   2.436
 8482SOL    HW226346   1.522   0.470   2.405
 8483SOL     OW26347   3.542   5.753   1.831
 8483SOL    HW126348   3.624   5.807   1.852
 8483SOL    HW226349   3.463   5.794   1.877
 8484SOL     OW26350   0.800   4.725   4.382
 8484SOL    HW126351   0.766   4.744   4.290
 8484SOL    HW226352   0.736   4.666   4.430
 8485SOL     OW26353   2.470   4.035   0.215
 8485SOL    HW126354   2.486   3.993   0.125
 8485SOL    HW226355   2.557   4.066   0.253
 8486SOL     OW26356   5.937   0.929   2.310
 8486SOL    HW126357   5.940   0.834   2.342
 8486SOL    HW226358   5.954   0.932   2.212
 8487SOL     OW26359   5.670   0.322   1.294
 8487SOL    HW126360   5.655   0.421   1.301
 8487SOL    HW226361   5.763   0.301   1.323
 8488SOL     OW26362   5.144   4.348   4.280
 8488SOL    HW126363   5.123   4.429   4.334
 8488SOL    HW226364   5.060   4.310   4.242
 8489SOL     OW26365   5.091   4.356   1.280
 8489SOL    HW126366   5.090   4.303   1.365
 8489SOL    HW226367   4.998   4.378   1.253
 8490SOL     OW26368   4.305   5.897   3.004
 8490SOL    HW126369   4.256   5.945   3.078
 8490SOL    HW226370   4.244   5.887   2.925
 8491SOL     OW26371   2.591   0.557   2.127
 8491SOL    HW126372   2.527   0.483   2.145
 8491SOL    HW226373   2.661   0.558   2.199
 8492SOL     OW26374   6.270   2.758   5.439
 8492SOL    HW126375   6.173   2.735   5.427
 8492SOL    HW226376   6.317   2.682   5.484
 8493SOL     OW26377   4.232   1.778   0.252
 8493SOL    HW126378   4.312   1.805   0.306
 8493SOL    HW226379   4.263   1.730   0.169
 8494SOL     OW26380   2.697   5.813   7.016
 8494SOL    HW126381   2.669   5.792   6.922
 8494SOL    HW226382   2.675   5.736   0.056
 8495SOL     OW26383   6.658   2.362   0.872
 8495SOL    HW126384   6.635   2.302   0.948
 8495SOL    HW226385   6.722   2.433   0.903
 8496SOL     OW26386   0.694   2.154   3.018
 8496SOL    HW126387   0.604   2.198   3.006
 8496SOL    HW226388   0.682   2.066   3.062
 8497SOL     OW26389   6.030   5.287   3.901
 8497SOL    HW126390   6.066   5.352   3.967
 8497SOL    HW226391   6.086   5.289   3.818
 8498SOL     OW26392   0.349   0.276   1.141
 8498SOL    HW126393   0.349   0.253   1.044
 8498SOL    HW226394   0.433   0.325   1.164
 8499SOL     OW26395   3.295   5.057   6.323
 8499SOL    HW126396   3.356   5.104   6.388
 8499SOL    HW226397   3.306   4.959   6.334
 8500SOL     OW26398   2.096   6.723   5.983
 8500SOL    HW126399   2.122   6.756   5.892
 8500SOL    HW226400   2.176   6.681   6.027
 8501SOL     OW26401   2.151   3.603   6.343
 8501SOL    HW126402   2.205   3.535   6.392
 8501SOL    HW226403   2.068   3.624   6.396
 8502SOL     OW26404   0.065   6.351   1.342
 8502SOL    HW126405   6.989   6.381   1.352
 8502SOL    HW226406   0.072   6.291   1.262
 8503SOL     OW26407   2.496   5.135   3.492
 8503SOL    HW126408   2.403   5.139   3.527
 8503SOL    HW226409   2.558   5.178   3.558
 8504SOL     OW26410   1.724   5.962   3.465
 8504SOL    HW126411   1.706   6.012   3.551
 8504SOL    HW226412   1.759   6.026   3.397
 8505SOL     OW26413   5.367   4.085   3.861
 8505SOL    HW126414   5.397   4.163   3.916
 8505SOL    HW226415   5.268   4.074   3.870
 8506SOL     OW26416   1.153   6.274   0.404
 8506SOL    HW126417   1.065   6.317   0.388
 8506SOL    HW226418   1.200   6.259   0.317
 8507SOL     OW26419   2.297   0.988   6.140
 8507SOL    HW126420   2.295   1.045   6.058
 8507SOL    HW226421   2.307   1.047   6.221
 8508SOL     OW26422   0.157   2.701   5.608
 8508SOL    HW126423   0.125   2.705   5.703
 8508SOL    HW226424   0.108   2.629   5.560
 8509SOL     OW26425   6.002   1.348   4.512
 8509SOL    HW126426   5.906   1.362   4.488
 8509SOL    HW226427   6.009   1.315   4.606
 8510SOL     OW26428   5.530   5.464   2.865
 8510SOL    HW126429   5.432   5.484   2.854
 8510SOL    HW226430   5.579   5.549   2.883
 8511SOL     OW26431   6.566   4.461   0.858
 8511SOL    HW126432   6.512   4.468   0.941
 8511SOL    HW226433   6.556   4.545   0.804
 8512SOL     OW26434   4.278   2.617   0.005
 8512SOL    HW126435   4.231   2.536   6.991
 8512SOL    HW226436   4.349   2.591   0.070
 8513SOL     OW26437   5.636   3.596   0.837
 8513SOL    HW126438   5.574   3.658   0.789
 8513SOL    HW226439   5.644   3.624   0.933
 8514SOL     OW26440   2.478   1.668   4.744
 8514SOL    HW126441   2.466   1.654   4.645
 8514SOL    HW226442   2.530   1.751   4.760
 8515SOL     OW26443   0.492   1.413   6.934
 8515SOL    HW126444   0.431   1.474   6.884
 8515SOL    HW226445   0.577   1.402   6.883
 8516SOL     OW26446   6.198   2.802   2.438
 8516SOL    HW126447   6.241   2.756   2.360
 8516SOL    HW226448   6.256   2.792   2.518
 8517SOL     OW26449   2.294   2.617   5.769
 8517SOL    HW126450   2.385   2.635   5.807
 8517SOL    HW226451   2.300   2.540   5.706
 8518SOL     OW26452   4.895   4.924   6.210
 8518SOL    HW126453   4.977   4.866   6.215
 8518SOL    HW226454   4.823   4.875   6.161
 8519SOL     OW26455   1.441   4.607   0.692
 8519SOL    HW126456   1.489   4.525   0.723
 8519SOL    HW226457   1.392   4.587   0.608
 8520SOL     OW26458   4.201   3.652   5.066
 8520SOL    HW126459   4.151   3.690   4.988
 8520SOL    HW226460   4.152   3.573   5.101
 8521SOL     OW26461   1.030   6.680   5.378
 8521SOL    HW126462   1.124   6.646   5.374
 8521SOL    HW226463   0.969   6.614   5.336
 8522SOL     OW26464   1.182   6.793   0.064
 8522SOL    HW126465   1.101   6.837   0.026
 8522SOL    HW226466   1.180   6.801   0.164
 8523SOL     OW26467   2.874   6.721   6.478
 8523SOL    HW126468   2.791   6.734   6.423
 8523SOL    HW226469   2.952   6.763   6.431
 8524SOL     OW26470   1.148   5.253   5.015
 8524SOL    HW126471   1.208   5.234   4.937
 8524SOL    HW226472   1.104   5.342   5.002
 8525SOL     OW26473   6.454   4.776   0.944
 8525SOL    HW126474   6.356   4.758   0.946
 8525SOL    HW226475   6.493   4.743   0.858
 8526SOL     OW26476   2.509   6.486   0.529
 8526SOL    HW126477   2.463   6.458   0.613
 8526SOL    HW226478   2.463   6.445   0.450
 8527SOL     OW26479   3.324   0.431   6.654
 8527SOL    HW126480   3.414   0.455   6.690
 8527SOL    HW226481   3.256   0.494   6.691
 8528SOL     OW26482   4.686   1.904   1.094
 8528SOL    HW126483   4.670   1.864   1.184
 8528SOL    HW226484   4.616   1.973   1.075
 8529SOL     OW26485   0.908   6.606   6.567
 8529SOL    HW126486   1.006   6.619   6.548
 8529SOL    HW226487   0.868   6.550   6.494
 8530SOL     OW26488   2.988   3.142   4.069
 8530SOL    HW126489   2.959   3.238   4.073
 8530SOL    HW226490   3.031   3.124   3.981
 8531SOL     OW26491   6.838   5.904   3.356
 8531SOL    HW126492   6.829   5.808   3.329
 8531SOL    HW226493   6.749   5.949   3.350
 8532SOL     OW26494   3.520   6.579   4.071
 8532SOL    HW126495   3.487   6.541   3.985
 8532SOL    HW226496   3.566   6.667   4.054
 8533SOL     OW26497   0.828   6.129   6.662
 8533SOL    HW126498   0.730   6.150   6.667
 8533SOL    HW226499   0.880   6.207   6.697
 8534SOL     OW26500   4.501   2.114   4.054
 8534SOL    HW126501   4.482   2.121   4.152
 8534SOL    HW226502   4.470   2.197   4.008
 8535SOL     OW26503   5.613   0.839   3.671
 8535SOL    HW126504   5.691   0.812   3.728
 8535SOL    HW226505   5.554   0.760   3.655
 8536SOL     OW26506   0.454   1.568   4.543
 8536SOL    HW126507   0.476   1.656   4.501
 8536SOL    HW226508   0.539   1.520   4.567
 8537SOL     OW26509   5.896   1.409   3.336
 8537SOL    HW126510   5.921   1.504   3.356
 8537SOL    HW226511   5.843   1.372   3.413
 8538SOL     OW26512   1.326   1.476   0.245
 8538SOL    HW126513   1.265   1.508   0.173
 8538SOL    HW226514   1.421   1.488   0.216
 8539SOL     OW26515   6.266   2.667   2.897
 8539SOL    HW126516   6.166   2.674   2.897
 8539SOL    HW226517   6.293   2.574   2.873
 8540SOL     OW26518   4.401   0.231   6.772
 8540SOL    HW126519   4.456   0.255   6.692
 8540SOL    HW226520   4.403   0.306   6.838
 8541SOL     OW26521   2.501   2.188   4.325
 8541SOL    HW126522   2.518   2.101   4.372
 8541SOL    HW226523   2.579   2.249   4.339
 8542SOL     OW26524   3.652   4.474   6.628
 8542SOL    HW126525   3.606   4.559   6.652
 8542SOL    HW226526   3.699   4.485   6.541
 8543SOL     OW26527   1.879   2.313   0.134
 8543SOL    HW126528   1.835   2.309   0.224
 8543SOL    HW226529   1.946   2.388   0.134
 8544SOL     OW26530   5.253   2.499   4.616
 8544SOL    HW126531   5.337   2.551   4.634
 8544SOL    HW226532   5.238   2.434   4.691
 8545SOL     OW26533   5.087   6.372   5.504
 8545SOL    HW126534   5.090   6.468   5.475
 8545SOL    HW226535   5.029   6.364   5.585
 8546SOL     OW26536   5.607   1.666   3.936
 8546SOL    HW126537   5.607   1.569   3.912
 8546SOL    HW226538   5.630   1.720   3.856
 8547SOL     OW26539   1.533   5.362   4.910
 8547SOL    HW126540   1.512   5.296   4.983
 8547SOL    HW226541   1.537   5.315   4.822
 8548SOL     OW26542   5.820   1.499   5.784
 8548SOL    HW126543   5.876   1.546   5.716
 8548SOL    HW226544   5.776   1.566   5.844
 8549SOL     OW26545   6.553   4.200   3.864
 8549SOL    HW126546   6.618   4.129   3.835
 8549SOL    HW226547   6.502   4.167   3.944
 8550SOL     OW26548   1.536   5.490   6.398
 8550SOL    HW126549   1.599   5.413   6.388
 8550SOL    HW226550   1.442   5.458   6.384
 8551SOL     OW26551   3.306   4.428   6.538
 8551SOL    HW126552   3.359   4.483   6.602
 8551SOL    HW226553   3.234   4.378   6.588
 8552SOL     OW26554   3.288   5.588   3.126
 8552SOL    HW126555   3.218   5.657   3.145
 8552SOL    HW226556   3.349   5.579   3.205
 8553SOL     OW26557   5.191   6.698   0.088
 8553SOL    HW126558   5.165   6.791   0.112
 8553SOL    HW226559   5.109   6.643   0.073
 8554SOL     OW26560   0.462   4.494   0.135
 8554SOL    HW126561   0.375   4.447   0.145
 8554SOL    HW226562   0.459   4.554   0.055
 8555SOL     OW26563   0.863   1.000   3.571
 8555SOL    HW126564   0.819   0.995   3.660
 8555SOL    HW226565   0.912   1.087   3.563
 8556SOL     OW26566   6.888   0.809   3.820
 8556SOL    HW126567   6.808   0.862   3.793
 8556SOL    HW226568   6.907   0.825   3.917
 8557SOL     OW26569   6.950   6.572   1.617
 8557SOL    HW126570   6.972   6.632   1.541
 8557SOL    HW226571   0.012   6.522   1.646
 8558SOL     OW26572   2.252   5.533   2.582
 8558SOL    HW126573   2.196   5.592   2.523
 8558SOL    HW226574   2.212   5.441   2.584
 8559SOL     OW26575   0.746   0.910   1.577
 8559SOL    HW126576   0.828   0.959   1.607
 8559SOL    HW226577   0.672   0.927   1.643
 8560SOL     OW26578   7.015   1.299   0.675
 8560SOL    HW126579   6.998   1.203   0.697
 8560SOL    HW226580   0.060   1.305   0.599
 8561SOL     OW26581   4.478   6.168   2.517
 8561SOL    HW126582   4.549   6.188   2.585
 8561SOL    HW226583   4.482   6.235   2.443
 8562SOL     OW26584   3.776   6.491   4.428
 8562SOL    HW126585   3.866   6.494   4.472
 8562SOL    HW226586   3.706   6.472   4.497
 8563SOL     OW26587   2.573   3.145   6.977
 8563SOL    HW126588   2.515   3.170   0.035
 8563SOL    HW226589   2.545   3.197   6.896
 8564SOL     OW26590   0.863   0.381   3.734
 8564SOL    HW126591   0.858   0.480   3.732
 8564SOL    HW226592   0.931   0.350   3.668
 8565SOL     OW26593   4.032   0.041   0.554
 8565SOL    HW126594   4.060   0.129   0.516
 8565SOL    HW226595   3.985   7.007   0.483
 8566SOL     OW26596   1.111   2.559   3.069
 8566SOL    HW126597   1.129   2.553   3.167
 8566SOL    HW226598   1.041   2.629   3.053
 8567SOL     OW26599   5.672   1.622   0.893
 8567SOL    HW126600   5.740   1.549   0.903
 8567SOL    HW226601   5.604   1.595   0.825
 8568SOL     OW26602   4.826   1.940   0.410
 8568SOL    HW126603   4.895   1.958   0.480
 8568SOL    HW226604   4.798   2.026   0.367
 8569SOL     OW26605   4.952   1.148   4.675
 8569SOL    HW126606   4.857   1.117   4.679
 8569SOL    HW226607   4.965   1.208   4.596
 8570SOL     OW26608   1.065   4.034   6.577
 8570SOL    HW126609   1.145   3.978   6.597
 8570SOL    HW226610   1.002   3.983   6.519
 8571SOL     OW26611   6.818   4.265   4.624
 8571SOL    HW126612   6.910   4.229   4.638
 8571SOL    HW226613   6.814   4.360   4.654
 8572SOL     OW26614   1.952   4.839   5.323
 8572SOL    HW126615   2.012   4.897   5.267
 8572SOL    HW226616   1.863   4.830   5.279
 8573SOL     OW26617   4.682   6.375   6.458
 8573SOL    HW126618   4.724   6.462   6.431
 8573SOL    HW226619   4.751   6.314   6.496
 8574SOL     OW26620   0.467   3.966   6.108
 8574SOL    HW126621   0.390   3.987   6.048
 8574SOL    HW226622   0.474   3.867   6.122
 8575SOL     OW26623   2.685   2.769   0.457
 8575SOL    HW126624   2.782   2.746   0.450
 8575SOL    HW226625   2.675   2.868   0.463
 8576SOL     OW26626   1.216   6.824   1.681
 8576SOL    HW126627   1.204   6.775   1.595
 8576SOL    HW226628   1.295   6.787   1.730
 8577SOL     OW26629   6.455   5.720   3.045
 8577SOL    HW126630   6.488   5.715   3.139
 8577SOL    HW226631   6.361   5.756   3.045
 8578SOL     OW26632   4.718   0.342   3.849
 8578SOL    HW126633   4.677   0.373   3.934
 8578SOL    HW226634   4.768   0.257   3.864
 8579SOL     OW26635   1.134   4.822   3.403
 8579SOL    HW126636   1.073   4.902   3.409
 8579SOL    HW226637   1.211   4.835   3.464
 8580SOL     OW26638   1.224   5.944   1.764
 8580SOL    HW126639   1.166   5.941   1.845
 8580SOL    HW226640   1.280   6.026   1.765
 8581SOL     OW26641   3.530   1.659   1.392
 8581SOL    HW126642   3.446   1.612   1.363
 8581SOL    HW226643   3.594   1.663   1.315
 8582SOL     OW26644   4.396   4.675   2.252
 8582SOL    HW126645   4.434   4.656   2.162
 8582SOL    HW226646   4.331   4.751   2.245
 8583SOL     OW26647   6.536   0.264   5.926
 8583SOL    HW126648   6.513   0.198   5.855
 8583SOL    HW226649   6.630   0.294   5.914
 8584SOL     OW26650   6.897   4.649   0.259
 8584SOL    HW126651   6.957   4.570   0.256
 8584SOL    HW226652   6.807   4.622   0.293
 8585SOL     OW26653   0.128   0.538   0.413
 8585SOL    HW126654   0.177   0.589   0.484
 8585SOL    HW226655   0.129   0.591   0.328
 8586SOL     OW26656   3.827   6.155   3.093
 8586SOL    HW126657   3.798   6.060   3.105
 8586SOL    HW226658   3.873   6.187   3.176
 8587SOL     OW26659   6.945   1.916   2.340
 8587SOL    HW126660   6.849   1.896   2.319
 8587SOL    HW226661   6.960   2.014   2.333
 8588SOL     OW26662   3.874   2.439   0.654
 8588SOL    HW126663   3.845   2.502   0.582
 8588SOL    HW226664   3.960   2.471   0.694
 8589SOL     OW26665   3.463   0.983   4.925
 8589SOL    HW126666   3.383   0.998   4.868
 8589SOL    HW226667   3.545   1.011   4.876
 8590SOL     OW26668   6.340   5.238   4.211
 8590SOL    HW126669   6.246   5.209   4.192
 8590SOL    HW226670   6.380   5.178   4.281
 8591SOL     OW26671   1.420   3.558   6.203
 8591SOL    HW126672   1.423   3.496   6.125
 8591SOL    HW226673   1.469   3.517   6.280
 8592SOL     OW26674   6.906   4.213   1.376
 8592SOL    HW126675   6.932   4.256   1.289
 8592SOL    HW226676   6.854   4.130   1.357
 8593SOL     OW26677   1.574   6.463   1.990
 8593SOL    HW126678   1.533   6.550   2.019
 8593SOL    HW226679   1.573   6.459   1.890
 8594SOL     OW26680   3.037   3.708   3.942
 8594SOL    HW126681   3.128   3.672   3.962
 8594SOL    HW226682   3.025   3.796   3.987
 8595SOL     OW26683   1.681   1.833   2.436
 8595SOL    HW126684   1.673   1.824   2.337
 8595SOL    HW226685   1.630   1.914   2.466
 8596SOL     OW26686   5.379   4.905   1.381
 8596SOL    HW126687   5.338   4.947   1.462
 8596SOL    HW226688   5.330   4.821   1.359
 8597SOL     OW26689   2.811   1.407   0.733
 8597SOL    HW126690   2.732   1.351   0.757
 8597SOL    HW226691   2.859   1.368   0.655
 8598SOL     OW26692   6.375   3.414   0.888
 8598SOL    HW126693   6.403   3.496   0.938
 8598SOL    HW226694   6.275   3.407   0.889
 8599SOL     OW26695   0.776   2.780   3.478
 8599SOL    HW126696   0.773   2.740   3.570
 8599SOL    HW226697   0.709   2.854   3.472
 8600SOL     OW26698   6.776   4.788   6.387
 8600SOL    HW126699   6.701   4.791   6.321
 8600SOL    HW226700   6.738   4.780   6.480
 8601SOL     OW26701   6.930   0.864   4.104
 8601SOL    HW126702   6.923   0.962   4.125
 8601SOL    HW226703   6.856   0.815   4.151
 8602SOL     OW26704   2.844   5.808   2.588
 8602SOL    HW126705   2.759   5.792   2.637
 8602SOL    HW226706   2.825   5.823   2.491
 8603SOL     OW26707   3.833   3.340   0.446
 8603SOL    HW126708   3.836   3.373   0.351
 8603SOL    HW226709   3.847   3.416   0.509
 8604SOL     OW26710   5.459   2.924   3.777
 8604SOL    HW126711   5.400   2.867   3.719
 8604SOL    HW226712   5.435   3.020   3.763
 8605SOL     OW26713   2.984   5.596   4.000
 8605SOL    HW126714   3.061   5.648   4.036
 8605SOL    HW226715   2.936   5.650   3.932
 8606SOL     OW26716   3.073   4.797   5.939
 8606SOL    HW126717   3.001   4.848   5.987
 8606SOL    HW226718   3.039   4.771   5.849
 8607SOL     OW26719   4.001   5.937   1.942
 8607SOL    HW126720   4.075   5.946   1.876
 8607SOL    HW226721   3.913   5.948   1.895
 8608SOL     OW26722   3.835   5.054   2.816
 8608SOL    HW126723   3.808   5.150   2.827
 8608SOL    HW226724   3.898   5.028   2.889
 8609SOL     OW26725   3.675   0.468   5.045
 8609SOL    HW126726   3.645   0.407   5.119
 8609SOL    HW226727   3.598   0.525   5.017
 8610SOL     OW26728   0.892   6.610   3.351
 8610SOL    HW126729   0.913   6.515   3.371
 8610SOL    HW226730   0.881   6.622   3.253
 8611SOL     OW26731   1.738   1.933   4.663
 8611SOL    HW126732   1.787   1.947   4.576
 8611SOL    HW226733   1.715   2.022   4.703
 8612SOL     OW26734   3.297   2.774   6.881
 8612SOL    HW126735   3.294   2.674   6.878
 8612SOL    HW226736   3.386   2.805   6.848
 8613SOL     OW26737   1.811   1.545   1.067
 8613SOL    HW126738   1.727   1.527   1.119
 8613SOL    HW226739   1.847   1.635   1.091
 8614SOL     OW26740   1.099   4.014   3.093
 8614SOL    HW126741   1.051   3.931   3.120
 8614SOL    HW226742   1.185   3.990   3.048
 8615SOL     OW26743   4.111   2.144   5.990
 8615SOL    HW126744   4.091   2.189   6.077
 8615SOL    HW226745   4.056   2.062   5.981
 8616SOL     OW26746   1.411   4.866   6.881
 8616SOL    HW126747   1.357   4.783   6.866
 8616SOL    HW226748   1.505   4.841   6.902
 8617SOL     OW26749   6.355   2.151   1.052
 8617SOL    HW126750   6.455   2.149   1.059
 8617SOL    HW226751   6.321   2.238   1.087
 8618SOL     OW26752   4.634   0.383   2.942
 8618SOL    HW126753   4.570   0.365   3.017
 8618SOL    HW226754   4.692   0.461   2.965
 8619SOL     OW26755   4.435   4.965   6.787
 8619SOL    HW126756   4.454   4.870   6.763
 8619SOL    HW226757   4.491   5.026   6.731
 8620SOL     OW26758   5.531   6.839   2.615
 8620SOL    HW126759   5.483   6.773   2.671
 8620SOL    HW226760   5.553   6.920   2.669
 8621SOL     OW26761   5.956   1.192   3.820
 8621SOL    HW126762   6.025   1.175   3.750
 8621SOL    HW226763   5.997   1.243   3.896
 8622SOL     OW26764   5.029   5.202   0.110
 8622SOL    HW126765   4.940   5.246   0.121
 8622SOL    HW226766   5.039   5.129   0.178
 8623SOL     OW26767   0.996   4.218   2.897
 8623SOL    HW126768   1.044   4.149   2.952
 8623SOL    HW226769   0.902   4.190   2.883
 8624SOL     OW26770   1.092   4.424   3.184
 8624SOL    HW126771   1.055   4.332   3.190
 8624SOL    HW226772   1.017   4.490   3.178
 8625SOL     OW26773   4.773   0.709   4.571
 8625SOL    HW126774   4.776   0.789   4.511
 8625SOL    HW226775   4.713   0.640   4.532
 8626SOL     OW26776   3.324   3.238   4.318
 8626SOL    HW126777   3.392   3.176   4.279
 8626SOL    HW226778   3.273   3.190   4.390
 8627SOL     OW26779   1.062   0.532   1.282
 8627SOL    HW126780   1.090   0.458   1.221
 8627SOL    HW226781   0.995   0.497   1.348
 8628SOL     OW26782   6.432   1.126   6.941
 8628SOL    HW126783   6.442   1.129   6.842
 8628SOL    HW226784   6.503   1.067   6.980
 8629SOL     OW26785   0.789   5.013   3.963
 8629SOL    HW126786   0.866   4.966   3.919
 8629SOL    HW226787   0.703   4.982   3.922
 8630SOL     OW26788   5.690   3.656   4.117
 8630SOL    HW126789   5.598   3.689   4.139
 8630SOL    HW226790   5.758   3.716   4.159
 8631SOL     OW26791   3.961   5.433   5.091
 8631SOL    HW126792   3.920   5.525   5.092
 8631SOL    HW226793   3.981   5.405   5.185
 8632SOL     OW26794   3.603   0.259   3.621
 8632SOL    HW126795   3.514   0.235   3.583
 8632SOL    HW226796   3.634   0.186   3.682
 8633SOL     OW26797   5.556   1.184   3.942
 8633SOL    HW126798   5.628   1.251   3.955
 8633SOL    HW226799   5.467   1.228   3.952
 8634SOL     OW26800   6.215   4.192   1.855
 8634SOL    HW126801   6.225   4.166   1.759
 8634SOL    HW226802   6.175   4.116   1.906
 8635SOL     OW26803   6.158   3.816   6.009
 8635SOL    HW126804   6.110   3.729   6.020
 8635SOL    HW226805   6.183   3.829   5.913
 8636SOL     OW26806   6.189   5.685   0.669
 8636SOL    HW126807   6.186   5.750   0.593
 8636SOL    HW226808   6.247   5.722   0.742
 8637SOL     OW26809   1.537   0.794   0.385
 8637SOL    HW126810   1.471   0.835   0.447
 8637SOL    HW226811   1.587   0.866   0.336
 8638SOL     OW26812   2.555   4.595   0.074
 8638SOL    HW126813   2.584   4.618   7.000
 8638SOL    HW226814   2.485   4.524   0.071
 8639SOL     OW26815   5.271   3.114   2.302
 8639SOL    HW126816   5.287   3.188   2.368
 8639SOL    HW226817   5.324   3.132   2.219
 8640SOL     OW26818   4.655   4.031   0.818
 8640SOL    HW126819   4.664   4.128   0.794
 8640SOL    HW226820   4.631   4.023   0.915
 8641SOL     OW26821   0.382   4.297   3.461
 8641SOL    HW126822   0.421   4.353   3.535
 8641SOL    HW226823   0.352   4.357   3.387
 8642SOL     OW26824   4.933   0.857   1.690
 8642SOL    HW126825   4.985   0.805   1.758
 8642SOL    HW226826   4.981   0.853   1.602
 8643SOL     OW26827   4.234   0.401   6.601
 8643SOL    HW126828   4.277   0.443   6.682
 8643SOL    HW226829   4.302   0.392   6.528
 8644SOL     OW26830   5.582   2.527   4.995
 8644SOL    HW126831   5.483   2.522   4.978
 8644SOL    HW226832   5.605   2.618   5.031
 8645SOL     OW26833   6.466   3.693   1.305
 8645SOL    HW126834   6.479   3.760   1.377
 8645SOL    HW226835   6.555   3.665   1.268
 8646SOL     OW26836   4.960   1.259   0.306
 8646SOL    HW126837   4.921   1.167   0.312
 8646SOL    HW226838   4.901   1.317   0.250
 8647SOL     OW26839   3.774   5.112   6.942
 8647SOL    HW126840   3.763   5.057   0.005
 8647SOL    HW226841   3.702   5.089   6.876
 8648SOL     OW26842   5.718   0.459   4.801
 8648SOL    HW126843   5.653   0.518   4.753
 8648SOL    HW226844   5.681   0.367   4.807
 8649SOL     OW26845   6.105   4.183   5.489
 8649SOL    HW126846   6.173   4.150   5.423
 8649SOL    HW226847   6.014   4.151   5.461
 8650SOL     OW26848   2.137   5.260   4.094
 8650SOL    HW126849   2.066   5.274   4.163
 8650SOL    HW226850   2.200   5.338   4.096
 8651SOL     OW26851   3.588   1.928   0.417
 8651SOL    HW126852   3.631   1.838   0.409
 8651SOL    HW226853   3.501   1.928   0.369
 8652SOL     OW26854   2.286   4.055   3.316
 8652SOL    HW126855   2.302   4.128   3.250
 8652SOL    HW226856   2.291   3.966   3.270
 8653SOL     OW26857   0.410   2.419   6.281
 8653SOL    HW126858   0.453   2.436   6.369
 8653SOL    HW226859   0.472   2.364   6.224
 8654SOL     OW26860   0.234   6.760   3.322
 8654SOL    HW126861   0.135   6.772   3.320
 8654SOL    HW226862   0.260   6.706   3.401
 8655SOL     OW26863   5.988   6.709   3.962
 8655SOL    HW126864   5.912   6.747   3.909
 8655SOL    HW226865   5.980   6.609   3.963
 8656SOL     OW26866   6.075   1.020   0.937
 8656SOL    HW126867   6.174   1.030   0.944
 8656SOL    HW226868   6.033   1.038   1.026
 8657SOL     OW26869   4.963   5.190   6.069
 8657SOL    HW126870   4.902   5.145   6.135
 8657SOL    HW226871   5.041   5.130   6.050
 8658SOL     OW26872   5.289   4.778   7.012
 8658SOL    HW126873   5.333   4.810   0.076
 8658SOL    HW226874   5.204   4.729   0.016
 8659SOL     OW26875   4.422   0.950   3.344
 8659SOL    HW126876   4.472   0.910   3.420
 8659SOL    HW226877   4.382   0.878   3.288
 8660SOL     OW26878   6.280   3.956   0.215
 8660SOL    HW126879   6.297   4.044   0.171
 8660SOL    HW226880   6.362   3.899   0.209
 8661SOL     OW26881   6.067   4.013   2.005
 8661SOL    HW126882   6.120   3.930   2.023
 8661SOL    HW226883   6.058   4.066   2.090
 8662SOL     OW26884   5.995   6.268   0.852
 8662SOL    HW126885   6.050   6.321   0.917
 8662SOL    HW226886   5.928   6.329   0.809
 8663SOL     OW26887   1.863   5.223   0.830
 8663SOL    HW126888   1.908   5.165   0.762
 8663SOL    HW226889   1.931   5.256   0.896
 8664SOL     OW26890   4.473   5.875   0.324
 8664SOL    HW126891   4.424   5.962   0.326
 8664SOL    HW226892   4.561   5.887   0.278
 8665SOL     OW26893   4.676   5.671   5.401
 8665SOL    HW126894   4.766   5.715   5.390
 8665SOL    HW226895   4.689   5.579   5.437
 8666SOL     OW26896   4.993   1.994   5.498
 8666SOL    HW126897   4.987   2.094   5.492
 8666SOL    HW226898   4.934   1.962   5.573
 8667SOL     OW26899   5.202   1.778   3.223
 8667SOL    HW126900   5.183   1.731   3.137
 8667SOL    HW226901   5.183   1.875   3.213
 8668SOL     OW26902   5.693   2.477   4.210
 8668SOL    HW126903   5.747   2.398   4.240
 8668SOL    HW226904   5.690   2.545   4.283
 8669SOL     OW26905   4.238   1.479   6.338
 8669SOL    HW126906   4.230   1.414   6.413
 8669SOL    HW226907   4.284   1.435   6.261
 8670SOL     OW26908   3.779   5.563   4.708
 8670SOL    HW126909   3.761   5.585   4.612
 8670SOL    HW226910   3.767   5.644   4.764
 8671SOL     OW26911   5.764   6.751   3.785
 8671SOL    HW126912   5.810   6.803   3.713
 8671SOL    HW226913   5.685   6.703   3.746
 8672SOL     OW26914   2.563   5.349   4.444
 8672SOL    HW126915   2.663   5.339   4.438
 8672SOL    HW226916   2.539   5.445   4.434
 8673SOL     OW26917   0.266   2.173   0.305
 8673SOL    HW126918   0.276   2.119   0.388
 8673SOL    HW226919   0.197   2.131   0.246
 8674SOL     OW26920   0.072   6.751   3.021
 8674SOL    HW126921   0.055   6.768   3.118
 8674SOL    HW226922   0.009   6.806   2.966
 8675SOL     OW26923   2.657   1.818   4.102
 8675SOL    HW126924   2.611   1.741   4.057
 8675SOL    HW226925   2.736   1.846   4.047
 8676SOL     OW26926   3.485   0.479   2.494
 8676SOL    HW126927   3.415   0.531   2.544
 8676SOL    HW226928   3.447   0.449   2.406
 8677SOL     OW26929   2.900   5.336   6.461
 8677SOL    HW126930   2.820   5.369   6.412
 8677SOL    HW226931   2.972   5.310   6.396
 8678SOL     OW26932   1.520   0.208   6.800
 8678SOL    HW126933   1.466   0.203   6.884
 8678SOL    HW226934   1.464   0.244   6.726
 8679SOL     OW26935   6.189   1.771   5.177
 8679SOL    HW126936   6.125   1.823   5.121
 8679SOL    HW226937   6.146   1.686   5.208
 8680SOL     OW26938   2.011   3.809   0.648
 8680SOL    HW126939   1.994   3.742   0.576
 8680SOL    HW226940   1.946   3.795   0.722
 8681SOL     OW26941   4.474   4.776   0.381
 8681SOL    HW126942   4.461   4.838   0.303
 8681SOL    HW226943   4.386   4.741   0.412
 8682SOL     OW26944   2.747   6.721   2.866
 8682SOL    HW126945   2.740   6.633   2.913
 8682SOL    HW226946   2.840   6.756   2.875
 8683SOL     OW26947   1.110   3.257   1.386
 8683SOL    HW126948   1.144   3.276   1.478
 8683SOL    HW226949   1.013   3.233   1.391
 8684SOL     OW26950   6.172   2.863   5.065
 8684SOL    HW126951   6.220   2.919   4.997
 8684SOL    HW226952   6.216   2.873   5.154
 8685SOL     OW26953   1.209   1.942   6.312
 8685SOL    HW126954   1.245   1.933   6.219
 8685SOL    HW226955   1.283   1.926   6.378
 8686SOL     OW26956   0.002   2.189   2.330
 8686SOL    HW126957   0.089   2.200   2.282
 8686SOL    HW226958   6.951   2.243   2.285
 8687SOL     OW26959   3.587   6.792   2.652
 8687SOL    HW126960   3.587   6.725   2.577
 8687SOL    HW226961   3.493   6.803   2.685
 8688SOL     OW26962   2.782   6.891   0.870
 8688SOL    HW126963   2.791   6.919   0.965
 8688SOL    HW226964   2.864   6.842   0.841
 8689SOL     OW26965   4.157   6.028   0.263
 8689SOL    HW126966   4.149   6.044   0.165
 8689SOL    HW226967   4.117   6.105   0.313
 8690SOL     OW26968   1.448   2.054   3.726
 8690SOL    HW126969   1.350   2.075   3.728
 8690SOL    HW226970   1.472   2.014   3.638
 8691SOL     OW26971   4.728   2.944   6.493
 8691SOL    HW126972   4.670   2.924   6.572
 8691SOL    HW226973   4.687   3.018   6.439
 8692SOL     OW26974   3.258   1.963   3.758
 8692SOL    HW126975   3.236   2.018   3.678
 8692SOL    HW226976   3.358   1.961   3.770
 8693SOL     OW26977   5.550   2.448   0.826
 8693SOL    HW126978   5.558   2.385   0.904
 8693SOL    HW226979   5.597   2.533   0.848
 8694SOL     OW26980   5.194   6.990   6.454
 8694SOL    HW126981   5.097   7.010   6.463
 8694SOL    HW226982   5.206   6.905   6.403
 8695SOL     OW26983   4.940   3.049   5.715
 8695SOL    HW126984   4.897   3.073   5.628
 8695SOL    HW226985   4.945   3.131   5.773
 8696SOL     OW26986   3.383   5.327   0.734
 8696SOL    HW126987   3.333   5.412   0.718
 8696SOL    HW226988   3.400   5.317   0.832
 8697SOL     OW26989   6.457   3.189   0.751
 8697SOL    HW126990   6.401   3.145   0.681
 8697SOL    HW226991   6.404   3.261   0.797
 8698SOL     OW26992   5.454   5.928   4.351
 8698SOL    HW126993   5.428   5.832   4.348
 8698SOL    HW226994   5.553   5.936   4.361
 8699SOL     OW26995   1.317   2.622   5.369
 8699SOL    HW126996   1.313   2.569   5.285
 8699SOL    HW226997   1.343   2.563   5.445
 8700SOL     OW26998   2.067   1.109   4.337
 8700SOL    HW126999   2.025   1.044   4.274
 8700SOL    HW227000   2.139   1.064   4.390
 8701SOL     OW27001   0.788   1.180   5.798
 8701SOL    HW127002   0.761   1.267   5.757
 8701SOL    HW227003   0.766   1.180   5.896
 8702SOL     OW27004   5.361   4.441   0.089
 8702SOL    HW127005   5.428   4.459   0.017
 8702SOL    HW227006   5.270   4.428   0.049
 8703SOL     OW27007   3.140   5.878   1.106
 8703SOL    HW127008   3.194   5.961   1.116
 8703SOL    HW227009   3.058   5.898   1.052
 8704SOL     OW27010   6.300   4.488   2.689
 8704SOL    HW127011   6.239   4.424   2.735
 8704SOL    HW227012   6.285   4.581   2.724
 8705SOL     OW27013   5.115   0.848   6.598
 8705SOL    HW127014   5.206   0.808   6.606
 8705SOL    HW227015   5.123   0.948   6.595
 8706SOL     OW27016   4.705   2.349   7.016
 8706SOL    HW127017   4.737   2.369   6.922
 8706SOL    HW227018   4.664   2.432   0.035
 8707SOL     OW27019   3.795   3.031   0.200
 8707SOL    HW127020   3.851   2.953   0.229
 8707SOL    HW227021   3.849   3.114   0.202
 8708SOL     OW27022   3.763   0.458   1.951
 8708SOL    HW127023   3.674   0.412   1.953
 8708SOL    HW227024   3.773   0.516   2.032
 8709SOL     OW27025   0.224   4.449   0.359
 8709SOL    HW127026   0.239   4.373   0.422
 8709SOL    HW227027   0.146   4.429   0.300
 8710SOL     OW27028   1.255   3.398   3.149
 8710SOL    HW127029   1.275   3.315   3.096
 8710SOL    HW227030   1.158   3.422   3.138
 8711SOL     OW27031   0.216   0.315   2.690
 8711SOL    HW127032   0.158   0.343   2.767
 8711SOL    HW227033   0.278   0.390   2.666
 8712SOL     OW27034   3.717   1.606   3.946
 8712SOL    HW127035   3.624   1.604   3.985
 8712SOL    HW227036   3.748   1.701   3.939
 8713SOL     OW27037   6.863   4.489   3.846
 8713SOL    HW127038   6.867   4.469   3.748
 8713SOL    HW227039   6.779   4.540   3.866
 8714SOL     OW27040   1.845   0.783   6.050
 8714SOL    HW127041   1.943   0.801   6.047
 8714SOL    HW227042   1.810   0.771   5.957
 8715SOL     OW27043   5.767   0.621   1.009
 8715SOL    HW127044   5.756   0.701   0.949
 8715SOL    HW227045   5.710   0.546   0.975
 8716SOL     OW27046   0.612   1.389   1.473
 8716SOL    HW127047   0.603   1.477   1.520
 8716SOL    HW227048   0.662   1.325   1.532
 8717SOL     OW27049   4.104   3.704   2.164
 8717SOL    HW127050   4.115   3.652   2.249
 8717SOL    HW227051   4.100   3.801   2.186
 8718SOL     OW27052   6.903   2.826   4.675
 8718SOL    HW127053   6.969   2.753   4.690
 8718SOL    HW227054   6.950   2.914   4.670
 8719SOL     OW27055   1.452   0.663   5.711
 8719SOL    HW127056   1.397   0.601   5.766
 8719SOL    HW227057   1.430   0.649   5.614
 8720SOL     OW27058   6.338   5.266   4.869
 8720SOL    HW127059   6.413   5.267   4.804
 8720SOL    HW227060   6.358   5.330   4.944
 8721SOL     OW27061   6.094   2.239   4.636
 8721SOL    HW127062   6.102   2.339   4.631
 8721SOL    HW227063   6.185   2.198   4.625
 8722SOL     OW27064   3.442   1.644   0.260
 8722SOL    HW127065   3.420   1.740   0.240
 8722SOL    HW227066   3.477   1.637   0.353
 8723SOL     OW27067   6.150   5.500   0.945
 8723SOL    HW127068   6.100   5.532   0.865
 8723SOL    HW227069   6.245   5.530   0.941
 8724SOL     OW27070   5.836   0.259   5.778
 8724SOL    HW127071   5.808   0.173   5.821
 8724SOL    HW227072   5.791   0.267   5.689
 8725SOL     OW27073   2.008   0.244   0.454
 8725SOL    HW127074   2.101   0.270   0.479
 8725SOL    HW227075   1.987   0.279   0.362
 8726SOL     OW27076   5.992   0.078   1.428
 8726SOL    HW127077   5.945   0.125   1.503
 8726SOL    HW227078   6.001   0.140   1.350
 8727SOL     OW27079   6.328   6.451   1.827
 8727SOL    HW127080   6.396   6.391   1.785
 8727SOL    HW227081   6.277   6.498   1.755
 8728SOL     OW27082   3.263   6.874   5.362
 8728SOL    HW127083   3.288   6.921   5.277
 8728SOL    HW227084   3.294   6.927   5.441
 8729SOL     OW27085   4.550   5.518   3.006
 8729SOL    HW127086   4.519   5.498   3.099
 8729SOL    HW227087   4.644   5.553   3.009
 8730SOL     OW27088   0.314   5.831   2.933
 8730SOL    HW127089   0.256   5.808   3.011
 8730SOL    HW227090   0.291   5.772   2.856
 8731SOL     OW27091   1.568   2.226   3.327
 8731SOL    HW127092   1.549   2.139   3.372
 8731SOL    HW227093   1.667   2.241   3.325
 8732SOL     OW27094   4.908   4.440   2.040
 8732SOL    HW127095   5.004   4.422   2.017
 8732SOL    HW227096   4.896   4.431   2.139
 8733SOL     OW27097   0.909   6.204   2.684
 8733SOL    HW127098   0.857   6.236   2.764
 8733SOL    HW227099   0.856   6.220   2.601
 8734SOL     OW27100   0.494   5.009   1.196
 8734SOL    HW127101   0.467   4.920   1.231
 8734SOL    HW227102   0.429   5.038   1.125
 8735SOL     OW27103   0.670   2.098   0.366
 8735SOL    HW127104   0.628   2.090   0.457
 8735SOL    HW227105   0.648   2.017   0.312
 8736SOL     OW27106   1.068   6.139   6.986
 8736SOL    HW127107   1.040   6.232   7.007
 8736SOL    HW227108   1.102   6.135   6.892
 8737SOL     OW27109   3.802   6.164   6.012
 8737SOL    HW127110   3.883   6.118   5.976
 8737SOL    HW227111   3.793   6.254   5.970
 8738SOL     OW27112   1.404   3.914   4.274
 8738SOL    HW127113   1.310   3.926   4.304
 8738SOL    HW227114   1.466   3.928   4.352
 8739SOL     OW27115   6.892   4.091   5.833
 8739SOL    HW127116   6.849   4.010   5.794
 8739SOL    HW227117   6.900   4.081   5.932
 8740SOL     OW27118   3.272   0.566   5.766
 8740SOL    HW127119   3.288   0.592   5.671
 8740SOL    HW227120   3.353   0.586   5.821
 8741SOL     OW27121   1.505   2.256   2.345
 8741SOL    HW127122   1.560   2.237   2.427
 8741SOL    HW227123   1.408   2.253   2.369
 8742SOL     OW27124   4.762   6.317   1.185
 8742SOL    HW127125   4.680   6.305   1.129
 8742SOL    HW227126   4.813   6.397   1.152
 8743SOL     OW27127   2.036   5.396   1.981
 8743SOL    HW127128   2.099   5.381   1.904
 8743SOL    HW227129   2.057   5.483   2.024
 8744SOL     OW27130   4.530   2.677   6.413
 8744SOL    HW127131   4.628   2.657   6.411
 8744SOL    HW227132   4.490   2.660   6.323
 8745SOL     OW27133   6.280   2.176   5.113
 8745SOL    HW127134   6.193   2.198   5.158
 8745SOL    HW227135   6.310   2.085   5.140
 8746SOL     OW27136   4.650   4.423   5.818
 8746SOL    HW127137   4.663   4.516   5.853
 8746SOL    HW227138   4.552   4.401   5.818
 8747SOL     OW27139   0.897   2.584   3.313
 8747SOL    HW127140   0.822   2.625   3.366
 8747SOL    HW227141   0.867   2.498   3.273
 8748SOL     OW27142   0.998   0.459   6.760
 8748SOL    HW127143   1.093   0.462   6.728
 8748SOL    HW227144   0.964   0.553   6.772
 8749SOL     OW27145   3.066   0.803   3.988
 8749SOL    HW127146   3.126   0.858   3.930
 8749SOL    HW227147   3.054   0.713   3.947
 8750SOL     OW27148   2.142   2.388   5.346
 8750SOL    HW127149   2.103   2.311   5.295
 8750SOL    HW227150   2.238   2.371   5.364
 8751SOL     OW27151   6.915   0.220   2.362
 8751SOL    HW127152   6.844   0.234   2.431
 8751SOL    HW227153   7.003   0.205   2.407
 8752SOL     OW27154   2.562   3.860   6.600
 8752SOL    HW127155   2.558   3.959   6.612
 8752SOL    HW227156   2.603   3.840   6.511
 8753SOL     OW27157   4.933   1.735   4.717
 8753SOL    HW127158   5.018   1.684   4.702
 8753SOL    HW227159   4.940   1.787   4.801
 8754SOL     OW27160   0.559   2.144   5.723
 8754SOL    HW127161   0.536   2.174   5.816
 8754SOL    HW227162   0.651   2.175   5.699
 8755SOL     OW27163   2.002   0.845   0.335
 8755SOL    HW127164   2.001   0.894   0.248
 8755SOL    HW227165   2.070   0.886   0.396
 8756SOL     OW27166   2.288   2.854   3.747
 8756SOL    HW127167   2.193   2.824   3.753
 8756SOL    HW227168   2.326   2.865   3.839
 8757SOL     OW27169   4.486   6.516   5.063
 8757SOL    HW127170   4.542   6.579   5.009
 8757SOL    HW227171   4.496   6.424   5.027
 8758SOL     OW27172   5.336   6.643   2.216
 8758SOL    HW127173   5.409   6.666   2.279
 8758SOL    HW227174   5.299   6.553   2.239
 8759SOL     OW27175   5.158   0.987   5.800
 8759SOL    HW127176   5.078   0.936   5.831
 8759SOL    HW227177   5.135   1.038   5.717
 8760SOL     OW27178   2.033   1.518   4.722
 8760SOL    HW127179   2.062   1.601   4.771
 8760SOL    HW227180   1.954   1.540   4.664
 8761SOL     OW27181   5.081   0.694   0.362
 8761SOL    HW127182   5.050   0.684   0.457
 8761SOL    HW227183   5.109   0.789   0.346
 8762SOL     OW27184   1.342   3.286   1.953
 8762SOL    HW127185   1.247   3.263   1.971
 8762SOL    HW227186   1.401   3.214   1.989
 8763SOL     OW27187   6.406   5.943   5.318
 8763SOL    HW127188   6.405   5.878   5.242
 8763SOL    HW227189   6.382   5.896   5.403
 8764SOL     OW27190   5.061   1.474   3.889
 8764SOL    HW127191   5.028   1.548   3.831
 8764SOL    HW227192   5.161   1.480   3.897
 8765SOL     OW27193   5.629   6.628   4.789
 8765SOL    HW127194   5.635   6.679   4.874
 8765SOL    HW227195   5.720   6.619   4.749
 8766SOL     OW27196   3.166   4.980   3.435
 8766SOL    HW127197   3.130   5.070   3.460
 8766SOL    HW227198   3.240   4.955   3.497
 8767SOL     OW27199   4.549   1.394   3.105
 8767SOL    HW127200   4.490   1.324   3.146
 8767SOL    HW227201   4.494   1.451   3.044
 8768SOL     OW27202   1.572   2.946   0.460
 8768SOL    HW127203   1.493   3.007   0.452
 8768SOL    HW227204   1.651   2.999   0.492
 8769SOL     OW27205   0.693   0.393   5.519
 8769SOL    HW127206   0.743   0.333   5.580
 8769SOL    HW227207   0.594   0.384   5.535
 8770SOL     OW27208   5.137   4.039   1.889
 8770SOL    HW127209   5.101   3.973   1.823
 8770SOL    HW227210   5.127   4.002   1.981
 8771SOL     OW27211   1.980   1.677   6.666
 8771SOL    HW127212   2.031   1.755   6.629
 8771SOL    HW227213   2.022   1.592   6.636
 8772SOL     OW27214   6.454   1.088   6.677
 8772SOL    HW127215   6.392   1.010   6.678
 8772SOL    HW227216   6.519   1.079   6.602
 8773SOL     OW27217   3.454   2.125   3.403
 8773SOL    HW127218   3.420   2.209   3.445
 8773SOL    HW227219   3.488   2.063   3.473
 8774SOL     OW27220   0.779   1.249   0.747
 8774SOL    HW127221   0.762   1.329   0.805
 8774SOL    HW227222   0.875   1.246   0.722
 8775SOL     OW27223   5.875   6.835   3.226
 8775SOL    HW127224   5.826   6.792   3.151
 8775SOL    HW227225   5.880   6.772   3.304
 8776SOL     OW27226   3.240   3.365   5.029
 8776SOL    HW127227   3.193   3.425   4.964
 8776SOL    HW227228   3.217   3.270   5.009
 8777SOL     OW27229   6.443   4.855   1.517
 8777SOL    HW127230   6.524   4.822   1.468
 8777SOL    HW227231   6.390   4.777   1.550
 8778SOL     OW27232   0.289   2.061   3.099
 8778SOL    HW127233   0.385   2.035   3.090
 8778SOL    HW227234   0.244   2.004   3.167
 8779SOL     OW27235   1.676   4.498   1.465
 8779SOL    HW127236   1.638   4.590   1.463
 8779SOL    HW227237   1.618   4.439   1.522
 8780SOL     OW27238   1.130   5.857   4.236
 8780SOL    HW127239   1.069   5.848   4.157
 8780SOL    HW227240   1.191   5.936   4.222
 8781SOL     OW27241   0.495   1.526   2.842
 8781SOL    HW127242   0.570   1.500   2.903
 8781SOL    HW227243   0.531   1.546   2.751
 8782SOL     OW27244   4.558   1.243   2.617
 8782SOL    HW127245   4.574   1.338   2.589
 8782SOL    HW227246   4.460   1.223   2.612
 8783SOL     OW27247   5.872   3.984   4.562
 8783SOL    HW127248   5.863   3.886   4.581
 8783SOL    HW227249   5.795   4.014   4.505
 8784SOL     OW27250   5.494   5.400   5.724
 8784SOL    HW127251   5.530   5.396   5.817
 8784SOL    HW227252   5.517   5.488   5.683
 8785SOL     OW27253   5.602   4.070   6.608
 8785SOL    HW127254   5.609   4.166   6.583
 8785SOL    HW227255   5.650   4.014   6.540
 8786SOL     OW27256   1.405   6.236   6.310
 8786SOL    HW127257   1.485   6.179   6.325
 8786SOL    HW227258   1.352   6.243   6.395
 8787SOL     OW27259   2.150   3.253   1.945
 8787SOL    HW127260   2.176   3.350   1.941
 8787SOL    HW227261   2.053   3.244   1.921
 8788SOL     OW27262   6.716   2.128   5.349
 8788SOL    HW127263   6.752   2.035   5.343
 8788SOL    HW227264   6.723   2.172   5.259
 8789SOL     OW27265   6.675   0.614   6.045
 8789SOL    HW127266   6.726   0.554   5.983
 8789SOL    HW227267   6.681   0.708   6.012
 8790SOL     OW27268   7.010   1.736   6.903
 8790SOL    HW127269   0.062   1.800   6.932
 8790SOL    HW227270   7.002   1.662   6.969
 8791SOL     OW27271   5.403   6.901   5.430
 8791SOL    HW127272   5.432   6.991   5.399
 8791SOL    HW227273   5.306   6.888   5.409
 8792SOL     OW27274   4.475   7.007   3.080
 8792SOL    HW127275   4.435   0.077   3.060
 8792SOL    HW227276   4.433   6.971   3.164
 8793SOL     OW27277   2.787   5.999   3.881
 8793SOL    HW127278   2.820   5.909   3.851
 8793SOL    HW227279   2.725   5.987   3.959
 8794SOL     OW27280   2.202   6.963   2.865
 8794SOL    HW127281   2.286   7.010   2.894
 8794SOL    HW227282   2.152   0.001   2.801
 8795SOL     OW27283   1.531   6.638   5.531
 8795SOL    HW127284   1.601   6.572   5.556
 8795SOL    HW227285   1.509   6.696   5.611
 8796SOL     OW27286   4.439   1.888   5.403
 8796SOL    HW127287   4.463   1.946   5.325
 8796SOL    HW227288   4.522   1.847   5.440
 8797SOL     OW27289   0.782   6.908   6.013
 8797SOL    HW127290   0.863   6.855   6.036
 8797SOL    HW227291   0.703   6.847   6.006
 8798SOL     OW27292   5.923   3.554   5.008
 8798SOL    HW127293   5.912   3.462   4.970
 8798SOL    HW227294   5.835   3.601   5.005
 8799SOL     OW27295   2.781   4.703   3.031
 8799SOL    HW127296   2.866   4.754   3.019
 8799SOL    HW227297   2.748   4.672   2.941
 8800SOL     OW27298   4.427   4.508   6.062
 8800SOL    HW127299   4.381   4.455   6.133
 8800SOL    HW227300   4.387   4.485   5.973
 8801SOL     OW27301   1.961   1.378   4.327
 8801SOL    HW127302   1.980   1.280   4.323
 8801SOL    HW227303   1.873   1.394   4.373
 8802SOL     OW27304   1.683   6.353   2.395
 8802SOL    HW127305   1.681   6.386   2.490
 8802SOL    HW227306   1.593   6.316   2.371
 8803SOL     OW27307   2.031   5.462   0.113
 8803SOL    HW127308   1.995   5.553   0.090
 8803SOL    HW227309   2.038   5.407   0.030
 8804SOL     OW27310   4.220   0.449   1.206
 8804SOL    HW127311   4.228   0.374   1.140
 8804SOL    HW227312   4.125   0.455   1.239
 8805SOL     OW27313   1.212   0.131   3.366
 8805SOL    HW127314   1.207   0.031   3.355
 8805SOL    HW227315   1.193   0.174   3.278
 8806SOL     OW27316   1.353   5.396   0.324
 8806SOL    HW127317   1.322   5.311   0.367
 8806SOL    HW227318   1.306   5.474   0.365
 8807SOL     OW27319   6.420   5.925   6.090
 8807SOL    HW127320   6.447   5.829   6.085
 8807SOL    HW227321   6.421   5.955   6.186
 8808SOL     OW27322   5.431   1.209   0.268
 8808SOL    HW127323   5.503   1.175   0.329
 8808SOL    HW227324   5.355   1.243   0.323
 8809SOL     OW27325   5.297   3.689   1.676
 8809SOL    HW127326   5.364   3.685   1.750
 8809SOL    HW227327   5.234   3.612   1.682
 8810SOL     OW27328   4.921   1.678   3.778
 8810SOL    HW127329   4.982   1.749   3.814
 8810SOL    HW227330   4.840   1.672   3.836
 8811SOL     OW27331   2.335   1.611   3.512
 8811SOL    HW127332   2.326   1.535   3.576
 8811SOL    HW227333   2.268   1.601   3.438
 8812SOL     OW27334   0.855   0.993   0.868
 8812SOL    HW127335   0.811   0.903   0.866
 8812SOL    HW227336   0.791   1.061   0.832
 8813SOL     OW27337   1.014   5.895   1.922
 8813SOL    HW127338   0.991   5.813   1.975
 8813SOL    HW227339   0.954   5.901   1.842
 8814SOL     OW27340   6.590   0.615   6.684
 8814SOL    HW127341   6.518   0.610   6.753
 8814SOL    HW227342   6.665   0.553   6.709
 8815SOL     OW27343   0.166   5.606   1.714
 8815SOL    HW127344   0.264   5.617   1.725
 8815SOL    HW227345   0.144   5.511   1.694
 8816SOL     OW27346   1.034   6.031   0.922
 8816SOL    HW127347   1.017   6.064   0.829
 8816SOL    HW227348   1.127   5.996   0.928
 8817SOL     OW27349   1.648   5.742   5.216
 8817SOL    HW127350   1.647   5.686   5.299
 8817SOL    HW227351   1.679   5.686   5.139
 8818SOL     OW27352   0.001   4.086   4.172
 8818SOL    HW127353   0.026   4.163   4.113
 8818SOL    HW227354   6.921   4.076   4.172
 8819SOL     OW27355   4.704   6.598   4.305
 8819SOL    HW127356   4.707   6.498   4.309
 8819SOL    HW227357   4.778   6.632   4.247
 8820SOL     OW27358   1.870   2.909   4.295
 8820SOL    HW127359   1.807   2.969   4.344
 8820SOL    HW227360   1.826   2.875   4.212
 8821SOL     OW27361   2.397   0.559   6.530
 8821SOL    HW127362   2.343   0.626   6.479
 8821SOL    HW227363   2.364   0.554   6.624
 8822SOL     OW27364   0.860   1.629   3.321
 8822SOL    HW127365   0.835   1.665   3.411
 8822SOL    HW227366   0.787   1.570   3.288
 8823SOL     OW27367   1.905   0.098   0.761
 8823SOL    HW127368   1.993   0.067   0.724
 8823SOL    HW227369   1.919   0.177   0.820
 8824SOL     OW27370   3.098   3.650   0.727
 8824SOL    HW127371   3.177   3.601   0.763
 8824SOL    HW227372   3.127   3.741   0.697
 8825SOL     OW27373   1.977   1.264   2.117
 8825SOL    HW127374   1.880   1.258   2.092
 8825SOL    HW227375   1.990   1.340   2.180
 8826SOL     OW27376   5.825   0.700   6.989
 8826SOL    HW127377   5.735   0.730   0.001
 8826SOL    HW227378   5.881   0.779   6.967
 8827SOL     OW27379   2.505   1.665   2.740
 8827SOL    HW127380   2.572   1.591   2.727
 8827SOL    HW227381   2.554   1.752   2.752
 8828SOL     OW27382   3.228   6.195   3.496
 8828SOL    HW127383   3.240   6.229   3.403
 8828SOL    HW227384   3.313   6.153   3.527
 8829SOL     OW27385   0.324   2.847   6.598
 8829SOL    HW127386   0.396   2.851   6.528
 8829SOL    HW227387   0.360   2.881   6.685
 8830SOL     OW27388   0.421   0.894   0.066
 8830SOL    HW127389   0.482   0.972   0.057
 8830SOL    HW227390   0.467   0.812   0.032
 8831SOL     OW27391   6.019   0.551   2.968
 8831SOL    HW127392   5.964   0.492   2.909
 8831SOL    HW227393   5.976   0.559   3.058
 8832SOL     OW27394   0.354   7.002   2.052
 8832SOL    HW127395   0.336   0.077   2.078
 8832SOL    HW227396   0.453   6.990   2.037
 8833SOL     OW27397   2.572   5.631   4.412
 8833SOL    HW127398   2.585   5.598   4.318
 8833SOL    HW227399   2.656   5.673   4.445
 8834SOL     OW27400   6.331   3.034   4.938
 8834SOL    HW127401   6.418   3.075   4.963
 8834SOL    HW227402   6.311   3.054   4.842
 8835SOL     OW27403   6.577   6.905   5.155
 8835SOL    HW127404   6.551   6.921   5.250
 8835SOL    HW227405   6.656   6.843   5.152
 8836SOL     OW27406   4.128   1.425   0.691
 8836SOL    HW127407   4.187   1.365   0.637
 8836SOL    HW227408   4.051   1.371   0.727
 8837SOL     OW27409   0.520   0.878   1.781
 8837SOL    HW127410   0.425   0.871   1.811
 8837SOL    HW227411   0.578   0.822   1.840
 8838SOL     OW27412   2.633   5.007   3.311
 8838SOL    HW127413   2.709   4.964   3.360
 8838SOL    HW227414   2.575   5.056   3.377
 8839SOL     OW27415   6.453   6.286   3.108
 8839SOL    HW127416   6.482   6.195   3.080
 8839SOL    HW227417   6.397   6.279   3.190
 8840SOL     OW27418   5.156   2.231   2.489
 8840SOL    HW127419   5.191   2.147   2.531
 8840SOL    HW227420   5.194   2.311   2.536
 8841SOL     OW27421   1.015   2.096   5.543
 8841SOL    HW127422   0.968   2.166   5.597
 8841SOL    HW227423   1.108   2.126   5.523
 8842SOL     OW27424   2.572   2.798   1.496
 8842SOL    HW127425   2.539   2.863   1.565
 8842SOL    HW227426   2.573   2.843   1.407
 8843SOL     OW27427   1.357   3.058   5.131
 8843SOL    HW127428   1.439   3.011   5.163
 8843SOL    HW227429   1.324   3.120   5.202
 8844SOL     OW27430   6.179   1.116   6.097
 8844SOL    HW127431   6.126   1.032   6.092
 8844SOL    HW227432   6.158   1.173   6.017
 8845SOL     OW27433   4.660   3.734   0.164
 8845SOL    HW127434   4.677   3.716   0.067
 8845SOL    HW227435   4.711   3.814   0.193
 8846SOL     OW27436   1.935   4.806   4.163
 8846SOL    HW127437   1.975   4.852   4.084
 8846SOL    HW227438   1.835   4.804   4.152
 8847SOL     OW27439   2.832   0.112   2.620
 8847SOL    HW127440   2.798   0.188   2.564
 8847SOL    HW227441   2.761   0.043   2.628
 8848SOL     OW27442   2.033   0.436   1.867
 8848SOL    HW127443   1.981   0.498   1.925
 8848SOL    HW227444   2.130   0.452   1.880
 8849SOL     OW27445   1.891   6.183   2.405
 8849SOL    HW127446   1.814   6.239   2.375
 8849SOL    HW227447   1.880   6.090   2.370
 8850SOL     OW27448   3.123   2.343   6.621
 8850SOL    HW127449   3.025   2.347   6.599
 8850SOL    HW227450   3.145   2.414   6.687
 8851SOL     OW27451   1.642   4.648   2.260
 8851SOL    HW127452   1.697   4.722   2.297
 8851SOL    HW227453   1.698   4.590   2.202
 8852SOL     OW27454   1.502   1.182   5.868
 8852SOL    HW127455   1.477   1.237   5.788
 8852SOL    HW227456   1.510   1.086   5.842
 8853SOL     OW27457   3.219   0.641   1.092
 8853SOL    HW127458   3.277   0.686   1.160
 8853SOL    HW227459   3.161   0.573   1.137
 8854SOL     OW27460   1.437   3.027   4.799
 8854SOL    HW127461   1.474   3.118   4.778
 8854SOL    HW227462   1.377   3.034   4.878
 8855SOL     OW27463   5.487   5.165   1.343
 8855SOL    HW127464   5.492   5.251   1.393
 8855SOL    HW227465   5.472   5.090   1.408
 8856SOL     OW27466   0.386   5.450   6.511
 8856SOL    HW127467   0.310   5.404   6.557
 8856SOL    HW227468   0.408   5.401   6.427
 8857SOL     OW27469   6.525   1.521   5.217
 8857SOL    HW127470   6.505   1.577   5.298
 8857SOL    HW227471   6.446   1.464   5.195
 8858SOL     OW27472   6.102   4.664   5.034
 8858SOL    HW127473   6.160   4.743   5.016
 8858SOL    HW227474   6.104   4.603   4.955
 8859SOL     OW27475   0.411   1.069   3.593
 8859SOL    HW127476   0.397   1.018   3.508
 8859SOL    HW227477   0.384   1.012   3.670
 8860SOL     OW27478   6.416   2.471   1.586
 8860SOL    HW127479   6.416   2.553   1.529
 8860SOL    HW227480   6.504   2.464   1.633
 8861SOL     OW27481   4.366   1.706   1.630
 8861SOL    HW127482   4.394   1.757   1.712
 8861SOL    HW227483   4.266   1.707   1.624
 8862SOL     OW27484   4.687   5.420   5.162
 8862SOL    HW127485   4.703   5.322   5.157
 8862SOL    HW227486   4.699   5.452   5.256
 8863SOL     OW27487   1.986   4.245   3.718
 8863SOL    HW127488   2.068   4.188   3.729
 8863SOL    HW227489   2.010   4.327   3.666
 8864SOL     OW27490   5.608   2.280   6.286
 8864SOL    HW127491   5.576   2.214   6.354
 8864SOL    HW227492   5.625   2.233   6.199
 8865SOL     OW27493   2.356   1.534   6.470
 8865SOL    HW127494   2.337   1.493   6.559
 8865SOL    HW227495   2.326   1.629   6.469
 8866SOL     OW27496   5.747   6.410   2.003
 8866SOL    HW127497   5.793   6.380   2.086
 8866SOL    HW227498   5.815   6.437   1.935
 8867SOL     OW27499   6.299   3.696   2.744
 8867SOL    HW127500   6.350   3.748   2.812
 8867SOL    HW227501   6.311   3.738   2.654
 8868SOL     OW27502   6.804   3.730   3.142
 8868SOL    HW127503   6.765   3.652   3.191
 8868SOL    HW227504   6.848   3.697   3.058
 8869SOL     OW27505   3.430   6.168   3.692
 8869SOL    HW127506   3.460   6.181   3.786
 8869SOL    HW227507   3.504   6.193   3.629
 8870SOL     OW27508   1.671   0.123   1.678
 8870SOL    HW127509   1.576   0.127   1.647
 8870SOL    HW227510   1.683   0.180   1.758
 8871SOL     OW27511   1.105   0.915   2.693
 8871SOL    HW127512   1.112   0.859   2.611
 8871SOL    HW227513   1.116   1.011   2.669
 8872SOL     OW27514   0.370   4.376   5.274
 8872SOL    HW127515   0.358   4.441   5.199
 8872SOL    HW227516   0.368   4.283   5.237
 8873SOL     OW27517   1.654   0.656   2.090
 8873SOL    HW127518   1.613   0.718   2.156
 8873SOL    HW227519   1.684   0.572   2.136
 8874SOL     OW27520   2.560   5.371   0.406
 8874SOL    HW127521   2.654   5.339   0.389
 8874SOL    HW227522   2.518   5.315   0.477
 8875SOL     OW27523   0.242   3.144   3.595
 8875SOL    HW127524   0.321   3.148   3.534
 8875SOL    HW227525   0.272   3.122   3.687
 8876SOL     OW27526   3.635   0.634   6.177
 8876SOL    HW127527   3.724   0.653   6.218
 8876SOL    HW227528   3.580   0.578   6.239
 8877SOL     OW27529   1.889   3.734   1.113
 8877SOL    HW127530   1.960   3.805   1.117
 8877SOL    HW227531   1.810   3.763   1.167
 8878SOL     OW27532   3.906   4.525   0.634
 8878SOL    HW127533   4.000   4.501   0.613
 8878SOL    HW227534   3.884   4.614   0.593
 8879SOL     OW27535   6.323   4.483   3.150
 8879SOL    HW127536   6.345   4.546   3.076
 8879SOL    HW227537   6.404   4.428   3.172
 8880SOL     OW27538   4.727   6.436   3.781
 8880SOL    HW127539   4.703   6.519   3.731
 8880SOL    HW227540   4.697   6.444   3.876
 8881SOL     OW27541   3.726   4.884   4.016
 8881SOL    HW127542   3.629   4.904   4.007
 8881SOL    HW227543   3.742   4.828   4.097
 8882SOL     OW27544   4.000   0.805   0.967
 8882SOL    HW127545   3.996   0.705   0.961
 8882SOL    HW227546   3.910   0.843   0.944
 8883SOL     OW27547   0.182   5.909   5.250
 8883SOL    HW127548   0.257   5.842   5.246
 8883SOL    HW227549   0.109   5.873   5.309
 8884SOL     OW27550   5.667   3.646   5.003
 8884SOL    HW127551   5.621   3.564   4.968
 8884SOL    HW227552   5.624   3.674   5.089
 8885SOL     OW27553   5.933   5.634   0.375
 8885SOL    HW127554   5.945   5.651   0.277
 8885SOL    HW227555   5.911   5.538   0.391
 8886SOL     OW27556   3.055   6.222   0.266
 8886SOL    HW127557   3.004   6.201   0.183
 8886SOL    HW227558   2.999   6.279   0.326
 8887SOL     OW27559   4.786   1.902   0.834
 8887SOL    HW127560   4.717   1.848   0.883
 8887SOL    HW227561   4.875   1.857   0.840
 8888SOL     OW27562   2.318   1.922   3.356
 8888SOL    HW127563   2.331   1.838   3.409
 8888SOL    HW227564   2.372   1.916   3.272
 8889SOL     OW27565   0.293   6.425   6.498
 8889SOL    HW127566   0.281   6.384   6.588
 8889SOL    HW227567   0.389   6.453   6.487
 8890SOL     OW27568   0.334   0.068   6.696
 8890SOL    HW127569   0.339   0.020   6.784
 8890SOL    HW227570   0.424   0.073   6.655
 8891SOL     OW27571   6.139   4.639   6.948
 8891SOL    HW127572   6.190   4.659   0.012
 8891SOL    HW227573   6.094   4.550   6.957
 8892SOL     OW27574   3.401   5.287   3.447
 8892SOL    HW127575   3.419   5.319   3.540
 8892SOL    HW227576   3.304   5.300   3.425
 8893SOL     OW27577   1.289   5.121   4.787
 8893SOL    HW127578   1.278   5.030   4.747
 8893SOL    HW227579   1.369   5.166   4.748
 8894SOL     OW27580   4.337   2.350   0.279
 8894SOL    HW127581   4.339   2.264   0.227
 8894SOL    HW227582   4.259   2.348   0.341
 8895SOL     OW27583   0.926   3.965   1.006
 8895SOL    HW127584   0.837   3.921   1.015
 8895SOL    HW227585   0.914   4.059   0.973
 8896SOL     OW27586   0.215   2.360   4.053
 8896SOL    HW127587   0.221   2.263   4.030
 8896SOL    HW227588   0.120   2.389   4.049
 8897SOL     OW27589   2.110   3.931   3.714
 8897SOL    HW127590   2.116   3.838   3.751
 8897SOL    HW227591   2.040   3.935   3.644
 8898SOL     OW27592   4.926   3.681   3.004
 8898SOL    HW127593   4.898   3.599   2.955
 8898SOL    HW227594   4.931   3.758   2.940
 8899SOL     OW27595   7.018   3.838   6.401
 8899SOL    HW127596   0.076   3.881   6.354
 8899SOL    HW227597   6.955   3.908   6.433
 8900SOL     OW27598   5.638   2.579   3.965
 8900SOL    HW127599   5.691   2.544   3.888
 8900SOL    HW227600   5.684   2.556   4.050
 8901SOL     OW27601   1.200   2.187   3.879
 8901SOL    HW127602   1.182   2.181   3.781
 8901SOL    HW227603   1.244   2.275   3.899
 8902SOL     OW27604   1.006   4.560   6.831
 8902SOL    HW127605   0.994   4.475   6.883
 8902SOL    HW227606   1.022   4.538   6.735
 8903SOL     OW27607   1.404   0.994   4.647
 8903SOL    HW127608   1.332   1.064   4.644
 8903SOL    HW227609   1.481   1.027   4.701
 8904SOL     OW27610   0.878   1.122   3.168
 8904SOL    HW127611   0.792   1.110   3.218
 8904SOL    HW227612   0.954   1.120   3.232
 8905SOL     OW27613   1.630   3.675   2.134
 8905SOL    HW127614   1.685   3.640   2.209
 8905SOL    HW227615   1.610   3.601   2.070
 8906SOL     OW27616   6.760   0.157   0.676
 8906SOL    HW127617   6.807   0.243   0.655
 8906SOL    HW227618   6.713   0.165   0.764
 8907SOL     OW27619   3.638   2.851   5.084
 8907SOL    HW127620   3.622   2.918   5.157
 8907SOL    HW227621   3.677   2.897   5.004
 8908SOL     OW27622   1.447   6.173   0.440
 8908SOL    HW127623   1.362   6.120   0.443
 8908SOL    HW227624   1.512   6.129   0.377
 8909SOL     OW27625   2.961   1.064   6.718
 8909SOL    HW127626   3.046   1.116   6.726
 8909SOL    HW227627   2.928   1.039   6.809
 8910SOL     OW27628   1.426   2.458   4.522
 8910SOL    HW127629   1.516   2.486   4.556
 8910SOL    HW227630   1.415   2.491   4.428
 8911SOL     OW27631   4.745   2.030   4.024
 8911SOL    HW127632   4.649   2.058   4.032
 8911SOL    HW227633   4.788   2.031   4.115
 8912SOL     OW27634   3.561   3.884   5.005
 8912SOL    HW127635   3.508   3.969   5.013
 8912SOL    HW227636   3.648   3.903   4.960
 8913SOL     OW27637   5.059   5.803   6.751
 8913SOL    HW127638   5.096   5.785   6.843
 8913SOL    HW227639   4.986   5.738   6.731
 8914SOL     OW27640   5.366   6.390   5.510
 8914SOL    HW127641   5.357   6.482   5.547
 8914SOL    HW227642   5.276   6.359   5.477
 8915SOL     OW27643   0.423   1.490   3.510
 8915SOL    HW127644   0.391   1.449   3.424
 8915SOL    HW227645   0.480   1.424   3.558
 8916SOL     OW27646   5.308   1.505   6.762
 8916SOL    HW127647   5.395   1.554   6.768
 8916SOL    HW227648   5.252   1.527   6.842
 8917SOL     OW27649   5.949   1.604   0.270
 8917SOL    HW127650   5.996   1.692   0.278
 8917SOL    HW227651   6.009   1.531   0.302
 8918SOL     OW27652   1.396   4.946   1.503
 8918SOL    HW127653   1.334   5.012   1.460
 8918SOL    HW227654   1.342   4.876   1.549
 8919SOL     OW27655   5.836   4.377   6.693
 8919SOL    HW127656   5.763   4.339   6.636
 8919SOL    HW227657   5.916   4.395   6.637
 8920SOL     OW27658   0.141   1.275   6.870
 8920SOL    HW127659   0.130   1.194   6.928
 8920SOL    HW227660   0.234   1.279   6.836
 8921SOL     OW27661   1.115   2.745   0.945
 8921SOL    HW127662   1.133   2.795   1.030
 8921SOL    HW227663   1.127   2.647   0.961
 8922SOL     OW27664   3.483   0.299   3.887
 8922SOL    HW127665   3.404   0.240   3.870
 8922SOL    HW227666   3.557   0.275   3.824
 8923SOL     OW27667   2.052   2.150   5.681
 8923SOL    HW127668   1.979   2.085   5.660
 8923SOL    HW227669   2.011   2.240   5.701
 8924SOL     OW27670   5.054   4.841   4.538
 8924SOL    HW127671   4.978   4.822   4.600
 8924SOL    HW227672   5.089   4.933   4.557
 8925SOL     OW27673   0.900   0.796   2.864
 8925SOL    HW127674   0.992   0.823   2.835
 8925SOL    HW227675   0.885   0.700   2.840
 8926SOL     OW27676   6.600   3.635   5.585
 8926SOL    HW127677   6.587   3.643   5.486
 8926SOL    HW227678   6.607   3.539   5.610
 8927SOL     OW27679   7.018   2.044   6.097
 8927SOL    HW127680   0.098   2.050   6.084
 8927SOL    HW227681   6.982   1.970   6.040
 8928SOL     OW27682   2.169   6.751   5.332
 8928SOL    HW127683   2.239   6.820   5.352
 8928SOL    HW227684   2.083   6.796   5.307
 8929SOL     OW27685   7.000   2.477   5.166
 8929SOL    HW127686   6.918   2.467   5.222
 8929SOL    HW227687   6.987   2.428   5.080
 8930SOL     OW27688   1.552   4.132   3.388
 8930SOL    HW127689   1.474   4.193   3.381
 8930SOL    HW227690   1.520   4.039   3.407
 8931SOL     OW27691   3.446   3.118   1.758
 8931SOL    HW127692   3.364   3.175   1.756
 8931SOL    HW227693   3.446   3.055   1.680
 8932SOL     OW27694   6.959   2.259   2.844
 8932SOL    HW127695   6.932   2.191   2.776
 8932SOL    HW227696   6.914   2.239   2.931
 8933SOL     OW27697   3.367   1.995   6.331
 8933SOL    HW127698   3.387   2.069   6.267
 8933SOL    HW227699   3.400   2.019   6.422
 8934SOL     OW27700   3.193   5.786   4.018
 8934SOL    HW127701   3.263   5.782   4.090
 8934SOL    HW227702   3.238   5.791   3.929
 8935SOL     OW27703   6.930   5.075   1.110
 8935SOL    HW127704   6.852   5.093   1.170
 8935SOL    HW227705   6.905   5.004   1.044
 8936SOL     OW27706   2.115   3.355   0.719
 8936SOL    HW127707   2.087   3.336   0.625
 8936SOL    HW227708   2.069   3.290   0.781
 8937SOL     OW27709   6.931   6.172   5.349
 8937SOL    HW127710   6.839   6.211   5.337
 8937SOL    HW227711   6.998   6.233   5.306
 8938SOL     OW27712   6.179   5.242   1.426
 8938SOL    HW127713   6.207   5.154   1.390
 8938SOL    HW227714   6.254   5.308   1.416
 8939SOL     OW27715   5.151   2.018   4.600
 8939SOL    HW127716   5.163   2.101   4.655
 8939SOL    HW227717   5.168   2.040   4.503
 8940SOL     OW27718   6.257   0.660   3.542
 8940SOL    HW127719   6.329   0.687   3.477
 8940SOL    HW227720   6.261   0.720   3.622
 8941SOL     OW27721   5.545   2.038   6.104
 8941SOL    HW127722   5.462   2.080   6.066
 8941SOL    HW227723   5.531   2.019   6.201
 8942SOL     OW27724   0.427   2.566   5.374
 8942SOL    HW127725   0.463   2.566   5.468
 8942SOL    HW227726   0.328   2.570   5.377
 8943SOL     OW27727   4.800   3.627   1.174
 8943SOL    HW127728   4.702   3.612   1.162
 8943SOL    HW227729   4.833   3.689   1.102
 8944SOL     OW27730   4.953   5.773   0.127
 8944SOL    HW127731   4.951   5.686   0.078
 8944SOL    HW227732   4.972   5.847   0.063
 8945SOL     OW27733   2.619   0.569   4.817
 8945SOL    HW127734   2.584   0.644   4.762
 8945SOL    HW227735   2.710   0.592   4.852
 8946SOL     OW27736   3.583   1.816   5.250
 8946SOL    HW127737   3.604   1.772   5.162
 8946SOL    HW227738   3.493   1.860   5.245
 8947SOL     OW27739   3.545   3.630   5.727
 8947SOL    HW127740   3.485   3.579   5.665
 8947SOL    HW227741   3.618   3.673   5.675
 8948SOL     OW27742   5.474   4.864   3.142
 8948SOL    HW127743   5.483   4.795   3.214
 8948SOL    HW227744   5.394   4.921   3.161
 8949SOL     OW27745   1.944   6.659   6.950
 8949SOL    HW127746   1.995   6.578   6.922
 8949SOL    HW227747   1.849   6.633   6.970
 8950SOL     OW27748   5.167   3.029   5.319
 8950SOL    HW127749   5.099   2.955   5.315
 8950SOL    HW227750   5.258   2.989   5.327
 8951SOL     OW27751   1.998   2.843   5.629
 8951SOL    HW127752   2.022   2.748   5.607
 8951SOL    HW227753   2.076   2.902   5.610
 8952SOL     OW27754   1.479   1.400   3.018
 8952SOL    HW127755   1.562   1.456   3.017
 8952SOL    HW227756   1.444   1.394   3.111
 8953SOL     OW27757   1.646   3.392   0.135
 8953SOL    HW127758   1.699   3.367   0.054
 8953SOL    HW227759   1.570   3.328   0.147
 8954SOL     OW27760   1.097   6.003   6.293
 8954SOL    HW127761   1.075   5.947   6.214
 8954SOL    HW227762   1.089   5.948   6.377
 8955SOL     OW27763   0.170   4.603   3.549
 8955SOL    HW127764   0.191   4.553   3.465
 8955SOL    HW227765   0.195   4.699   3.538
 8956SOL     OW27766   0.686   1.119   6.034
 8956SOL    HW127767   0.720   1.113   6.127
 8956SOL    HW227768   0.710   1.035   5.984
 8957SOL     OW27769   2.761   4.705   1.655
 8957SOL    HW127770   2.794   4.642   1.725
 8957SOL    HW227771   2.815   4.790   1.659
 8958SOL     OW27772   0.966   0.226   4.000
 8958SOL    HW127773   0.902   0.197   4.071
 8958SOL    HW227774   0.916   0.278   3.931
 8959SOL     OW27775   1.108   4.703   0.463
 8959SOL    HW127776   1.154   4.614   0.463
 8959SOL    HW227777   1.162   4.768   0.515
 8960SOL     OW27778   4.245   5.573   2.219
 8960SOL    HW127779   4.242   5.673   2.217
 8960SOL    HW227780   4.156   5.538   2.249
 8961SOL     OW27781   1.336   1.433   4.153
 8961SOL    HW127782   1.436   1.439   4.151
 8961SOL    HW227783   1.302   1.409   4.063
 8962SOL     OW27784   5.644   0.278   3.002
 8962SOL    HW127785   5.740   0.253   2.998
 8962SOL    HW227786   5.597   0.222   3.070
 8963SOL     OW27787   5.238   6.991   4.232
 8963SOL    HW127788   5.239   6.924   4.158
 8963SOL    HW227789   5.306   0.042   4.215
 8964SOL     OW27790   4.836   4.700   2.025
 8964SOL    HW127791   4.783   4.750   2.093
 8964SOL    HW227792   4.825   4.601   2.041
 8965SOL     OW27793   1.431   5.259   1.308
 8965SOL    HW127794   1.407   5.356   1.316
 8965SOL    HW227795   1.354   5.202   1.336
 8966SOL     OW27796   1.721   2.500   6.100
 8966SOL    HW127797   1.729   2.552   6.186
 8966SOL    HW227798   1.738   2.561   6.023
 8967SOL     OW27799   3.789   0.058   1.203
 8967SOL    HW127800   3.780   0.058   1.302
 8967SOL    HW227801   3.887   0.054   1.179
 8968SOL     OW27802   5.171   6.062   1.627
 8968SOL    HW127803   5.158   6.077   1.725
 8968SOL    HW227804   5.082   6.050   1.583
 8969SOL     OW27805   5.956   0.547   3.255
 8969SOL    HW127806   6.051   0.536   3.285
 8969SOL    HW227807   5.910   0.458   3.256
 8970SOL     OW27808   3.470   2.399   0.923
 8970SOL    HW127809   3.422   2.464   0.864
 8970SOL    HW227810   3.550   2.362   0.874
 8971SOL     OW27811   3.461   5.983   2.271
 8971SOL    HW127812   3.489   5.890   2.246
 8971SOL    HW227813   3.542   6.040   2.282
 8972SOL     OW27814   5.244   6.248   5.937
 8972SOL    HW127815   5.259   6.157   5.899
 8972SOL    HW227816   5.324   6.276   5.990
 8973SOL     OW27817   1.311   4.760   0.901
 8973SOL    HW127818   1.359   4.789   0.983
 8973SOL    HW227819   1.375   4.716   0.839
 8974SOL     OW27820   1.169   4.314   6.434
 8974SOL    HW127821   1.134   4.227   6.466
 8974SOL    HW227822   1.125   4.389   6.485
 8975SOL     OW27823   2.654   0.216   0.850
 8975SOL    HW127824   2.565   0.205   0.895
 8975SOL    HW227825   2.644   0.200   0.752
 8976SOL     OW27826   1.548   5.198   4.678
 8976SOL    HW127827   1.588   5.241   4.598
 8976SOL    HW227828   1.591   5.109   4.694
 8977SOL     OW27829   6.155   1.423   5.851
 8977SOL    HW127830   6.200   1.394   5.935
 8977SOL    HW227831   6.059   1.393   5.853
 8978SOL     OW27832   5.473   5.855   0.513
 8978SOL    HW127833   5.460   5.839   0.611
 8978SOL    HW227834   5.569   5.842   0.490
 8979SOL     OW27835   1.779   3.704   4.799
 8979SOL    HW127836   1.764   3.665   4.890
 8979SOL    HW227837   1.876   3.700   4.776
 8980SOL     OW27838   3.364   3.494   5.575
 8980SOL    HW127839   3.341   3.567   5.511
 8980SOL    HW227840   3.329   3.407   5.540
 8981SOL     OW27841   3.787   1.553   5.604
 8981SOL    HW127842   3.804   1.482   5.673
 8981SOL    HW227843   3.873   1.579   5.561
 8982SOL     OW27844   2.048   3.529   0.184
 8982SOL    HW127845   2.087   3.608   0.136
 8982SOL    HW227846   1.982   3.561   0.252
 8983SOL     OW27847   3.917   6.004   6.886
 8983SOL    HW127848   3.857   6.042   6.815
 8983SOL    HW227849   3.942   5.910   6.862
 8984SOL     OW27850   2.388   6.267   2.875
 8984SOL    HW127851   2.476   6.287   2.832
 8984SOL    HW227852   2.379   6.321   2.959
 8985SOL     OW27853   3.231   2.505   0.315
 8985SOL    HW127854   3.271   2.415   0.302
 8985SOL    HW227855   3.263   2.567   0.243
 8986SOL     OW27856   3.288   4.970   2.993
 8986SOL    HW127857   3.248   5.044   2.938
 8986SOL    HW227858   3.365   4.930   2.943
 8987SOL     OW27859   5.008   5.944   2.706
 8987SOL    HW127860   5.038   5.885   2.782
 8987SOL    HW227861   4.914   5.975   2.723
 8988SOL     OW27862   0.446   5.962   3.559
 8988SOL    HW127863   0.500   5.919   3.487
 8988SOL    HW227864   0.506   6.022   3.614
 8989SOL     OW27865   5.036   3.091   6.182
 8989SOL    HW127866   5.115   3.030   6.191
 8989SOL    HW227867   5.051   3.173   6.239
 8990SOL     OW27868   0.914   5.141   3.682
 8990SOL    HW127869   0.948   5.065   3.738
 8990SOL    HW227870   0.841   5.109   3.622
 8991SOL     OW27871   1.434   2.788   4.671
 8991SOL    HW127872   1.513   2.786   4.610
 8991SOL    HW227873   1.426   2.880   4.711
 8992SOL     OW27874   5.272   1.588   0.224
 8992SOL    HW127875   5.173   1.594   0.232
 8992SOL    HW227876   5.315   1.653   0.287
 8993SOL     OW27877   4.280   3.347   6.779
 8993SOL    HW127878   4.292   3.249   6.792
 8993SOL    HW227879   4.210   3.363   6.709
 8994SOL     OW27880   2.012   4.558   4.667
 8994SOL    HW127881   2.112   4.554   4.673
 8994SOL    HW227882   1.974   4.468   4.689
 8995SOL     OW27883   6.513   1.427   1.574
 8995SOL    HW127884   6.502   1.464   1.481
 8995SOL    HW227885   6.475   1.335   1.577
 8996SOL     OW27886   5.382   4.027   6.319
 8996SOL    HW127887   5.478   4.010   6.342
 8996SOL    HW227888   5.336   4.069   6.398
 8997SOL     OW27889   4.914   0.976   5.325
 8997SOL    HW127890   4.864   1.059   5.348
 8997SOL    HW227891   4.977   0.995   5.249
 8998SOL     OW27892   6.218   3.808   4.186
 8998SOL    HW127893   6.209   3.745   4.108
 8998SOL    HW227894   6.288   3.876   4.166
 8999SOL     OW27895   4.658   6.891   5.972
 8999SOL    HW127896   4.657   6.791   5.973
 8999SOL    HW227897   4.571   6.926   6.005
 9000SOL     OW27898   1.274   3.652   1.173
 9000SOL    HW127899   1.299   3.748   1.179
 9000SOL    HW227900   1.293   3.618   1.081
 9001SOL     OW27901   0.128   4.800   2.131
 9001SOL    HW127902   0.076   4.875   2.173
 9001SOL    HW227903   0.064   4.735   2.090
 9002SOL     OW27904   1.282   4.511   5.337
 9002SOL    HW127905   1.247   4.556   5.419
 9002SOL    HW227906   1.205   4.490   5.276
 9003SOL     OW27907   5.256   3.174   1.672
 9003SOL    HW127908   5.209   3.110   1.733
 9003SOL    HW227909   5.237   3.149   1.577
 9004SOL     OW27910   4.532   5.115   1.146
 9004SOL    HW127911   4.607   5.049   1.157
 9004SOL    HW227912   4.505   5.119   1.050
 9005SOL     OW27913   5.835   1.350   6.099
 9005SOL    HW127914   5.750   1.339   6.151
 9005SOL    HW227915   5.913   1.339   6.161
 9006SOL     OW27916   2.927   6.628   0.986
 9006SOL    HW127917   2.974   6.696   0.929
 9006SOL    HW227918   2.845   6.597   0.939
 9007SOL     OW27919   2.198   1.349   1.940
 9007SOL    HW127920   2.151   1.264   1.964
 9007SOL    HW227921   2.258   1.333   1.862
 9008SOL     OW27922   0.240   5.036   3.069
 9008SOL    HW127923   0.194   4.956   3.108
 9008SOL    HW227924   0.171   5.102   3.037
 9009SOL     OW27925   3.698   4.929   0.798
 9009SOL    HW127926   3.653   4.844   0.773
 9009SOL    HW227927   3.771   4.909   0.864
 9010SOL     OW27928   2.193   6.582   4.233
 9010SOL    HW127929   2.143   6.653   4.185
 9010SOL    HW227930   2.129   6.531   4.292
 9011SOL     OW27931   3.735   1.109   2.003
 9011SOL    HW127932   3.652   1.153   2.037
 9011SOL    HW227933   3.785   1.172   1.944
 9012SOL     OW27934   2.364   5.571   0.401
 9012SOL    HW127935   2.448   5.517   0.409
 9012SOL    HW227936   2.349   5.621   0.486
 9013SOL     OW27937   1.037   0.417   4.712
 9013SOL    HW127938   1.063   0.321   4.702
 9013SOL    HW227939   1.008   0.453   4.624
 9014SOL     OW27940   6.034   2.829   1.398
 9014SOL    HW127941   5.973   2.895   1.353
 9014SOL    HW227942   6.099   2.878   1.457
 9015SOL     OW27943   4.947   2.492   1.177
 9015SOL    HW127944   4.941   2.538   1.089
 9015SOL    HW227945   4.875   2.423   1.185
 9016SOL     OW27946   5.551   5.032   6.364
 9016SOL    HW127947   5.543   5.122   6.406
 9016SOL    HW227948   5.560   5.042   6.265
 9017SOL     OW27949   3.947   1.142   5.028
 9017SOL    HW127950   3.850   1.157   5.048
 9017SOL    HW227951   3.975   1.052   5.059
 9018SOL     OW27952   3.789   3.635   6.613
 9018SOL    HW127953   3.714   3.590   6.661
 9018SOL    HW227954   3.754   3.713   6.562
 9019SOL     OW27955   1.202   4.274   2.713
 9019SOL    HW127956   1.165   4.297   2.803
 9019SOL    HW227957   1.127   4.261   2.648
 9020SOL     OW27958   6.601   4.498   1.330
 9020SOL    HW127959   6.542   4.527   1.255
 9020SOL    HW227960   6.577   4.550   1.413
 9021SOL     OW27961   0.195   0.770   4.031
 9021SOL    HW127962   0.097   0.752   4.024
 9021SOL    HW227963   0.211   0.868   4.019
 9022SOL     OW27964   3.488   2.068   0.019
 9022SOL    HW127965   3.434   2.152   0.013
 9022SOL    HW227966   3.545   2.059   6.958
 9023SOL     OW27967   4.137   3.259   1.434
 9023SOL    HW127968   4.173   3.302   1.350
 9023SOL    HW227969   4.100   3.330   1.494
 9024SOL     OW27970   0.826   4.626   5.347
 9024SOL    HW127971   0.831   4.674   5.435
 9024SOL    HW227972   0.897   4.557   5.342
 9025SOL     OW27973   0.209   5.524   0.919
 9025SOL    HW127974   0.138   5.478   0.972
 9025SOL    HW227975   0.217   5.480   0.830
 9026SOL     OW27976   3.258   1.713   0.549
 9026SOL    HW127977   3.184   1.706   0.616
 9026SOL    HW227978   3.341   1.746   0.595
 9027SOL     OW27979   0.897   3.983   3.826
 9027SOL    HW127980   0.985   3.972   3.872
 9027SOL    HW227981   0.828   3.926   3.871
 9028SOL     OW27982   3.776   3.012   5.394
 9028SOL    HW127983   3.685   3.010   5.354
 9028SOL    HW227984   3.839   2.960   5.336
 9029SOL     OW27985   4.323   0.586   4.884
 9029SOL    HW127986   4.306   0.681   4.855
 9029SOL    HW227987   4.363   0.585   4.975
 9030SOL     OW27988   2.048   2.708   4.011
 9030SOL    HW127989   1.955   2.740   4.030
 9030SOL    HW227990   2.072   2.635   4.074
 9031SOL     OW27991   4.215   0.380   4.544
 9031SOL    HW127992   4.278   0.368   4.621
 9031SOL    HW227993   4.233   0.311   4.475
 9032SOL     OW27994   4.480   4.071   1.053
 9032SOL    HW127995   4.450   4.020   1.134
 9032SOL    HW227996   4.500   4.166   1.078
 9033SOL     OW27997   0.430   4.797   2.772
 9033SOL    HW127998   0.452   4.704   2.742
 9033SOL    HW227999   0.515   4.847   2.790
 9034SOL     OW28000   3.541   6.018   4.873
 9034SOL    HW128001   3.513   5.960   4.950
 9034SOL    HW228002   3.476   6.007   4.798
 9035SOL     OW28003   1.745   6.295   0.072
 9035SOL    HW128004   1.780   6.263   7.004
 9035SOL    HW228005   1.734   6.394   0.070
 9036SOL     OW28006   1.611   3.772   5.574
 9036SOL    HW128007   1.520   3.739   5.598
 9036SOL    HW228008   1.667   3.776   5.657
 9037SOL     OW28009   1.069   2.830   4.466
 9037SOL    HW128010   1.091   2.762   4.535
 9037SOL    HW228011   1.004   2.896   4.503
 9038SOL     OW28012   4.745   3.327   6.503
 9038SOL    HW128013   4.720   3.399   6.437
 9038SOL    HW228014   4.721   3.238   6.465
 9039SOL     OW28015   3.225   4.592   6.845
 9039SOL    HW128016   3.198   4.611   6.939
 9039SOL    HW228017   3.189   4.503   6.817
 9040SOL     OW28018   2.629   2.297   2.240
 9040SOL    HW128019   2.713   2.302   2.186
 9040SOL    HW228020   2.593   2.389   2.254
 9041SOL     OW28021   0.829   2.550   0.954
 9041SOL    HW128022   0.908   2.581   0.901
 9041SOL    HW228023   0.860   2.489   1.027
 9042SOL     OW28024   3.812   6.114   5.138
 9042SOL    HW128025   3.799   6.120   5.237
 9042SOL    HW228026   3.727   6.135   5.092
 9043SOL     OW28027   2.135   1.422   6.643
 9043SOL    HW128028   2.212   1.464   6.691
 9043SOL    HW228029   2.106   1.339   6.691
 9044SOL     OW28030   0.639   0.706   6.934
 9044SOL    HW128031   0.667   0.720   6.839
 9044SOL    HW228032   0.603   0.614   6.946
 9045SOL     OW28033   3.904   0.615   3.457
 9045SOL    HW128034   3.875   0.550   3.527
 9045SOL    HW228035   3.855   0.702   3.471
 9046SOL     OW28036   4.090   3.520   2.660
 9046SOL    HW128037   4.104   3.483   2.752
 9046SOL    HW228038   4.013   3.473   2.617
 9047SOL     OW28039   1.425   4.014   5.229
 9047SOL    HW128040   1.502   3.954   5.207
 9047SOL    HW228041   1.419   4.026   5.328
 9048SOL     OW28042   6.218   2.422   6.318
 9048SOL    HW128043   6.287   2.380   6.259
 9048SOL    HW228044   6.228   2.386   6.411
 9049SOL     OW28045   3.624   6.422   5.677
 9049SOL    HW128046   3.636   6.467   5.766
 9049SOL    HW228047   3.664   6.480   5.605
 9050SOL     OW28048   0.843   4.165   1.693
 9050SOL    HW128049   0.782   4.116   1.754
 9050SOL    HW228050   0.930   4.182   1.738
 9051SOL     OW28051   2.786   0.776   1.387
 9051SOL    HW128052   2.874   0.730   1.397
 9051SOL    HW228053   2.764   0.785   1.290
 9052SOL     OW28054   1.758   3.153   4.002
 9052SOL    HW128055   1.790   3.166   4.096
 9052SOL    HW228056   1.834   3.125   3.944
 9053SOL     OW28057   2.204   1.090   0.928
 9053SOL    HW128058   2.144   1.117   0.852
 9053SOL    HW228059   2.209   1.165   0.994
 9054SOL     OW28060   2.231   5.596   4.200
 9054SOL    HW128061   2.179   5.642   4.128
 9054SOL    HW228062   2.282   5.519   4.161
 9055SOL     OW28063   6.580   4.600   4.715
 9055SOL    HW128064   6.554   4.697   4.717
 9055SOL    HW228065   6.582   4.564   4.808
 9056SOL     OW28066   6.627   2.157   2.521
 9056SOL    HW128067   6.610   2.077   2.578
 9056SOL    HW228068   6.588   2.142   2.430
 9057SOL     OW28069   4.787   1.758   4.473
 9057SOL    HW128070   4.839   1.776   4.557
 9057SOL    HW228071   4.691   1.741   4.497
 9058SOL     OW28072   1.556   0.500   6.529
 9058SOL    HW128073   1.488   0.507   6.602
 9058SOL    HW228074   1.648   0.495   6.569
 9059SOL     OW28075   1.339   2.727   2.319
 9059SOL    HW128076   1.384   2.810   2.286
 9059SOL    HW228077   1.379   2.647   2.274
 9060SOL     OW28078   5.467   3.107   4.872
 9060SOL    HW128079   5.439   3.201   4.855
 9060SOL    HW228080   5.542   3.083   4.812
 9061SOL     OW28081   4.278   5.359   2.465
 9061SOL    HW128082   4.241   5.310   2.386
 9061SOL    HW228083   4.299   5.453   2.439
 9062SOL     OW28084   1.109   5.341   1.654
 9062SOL    HW128085   1.033   5.293   1.698
 9062SOL    HW228086   1.073   5.408   1.589
 9063SOL     OW28087   2.738   1.500   4.046
 9063SOL    HW128088   2.735   1.420   4.106
 9063SOL    HW228089   2.649   1.545   4.045
 9064SOL     OW28090   6.570   3.603   6.927
 9064SOL    HW128091   6.635   3.649   6.867
 9064SOL    HW228092   6.520   3.534   6.875
 9065SOL     OW28093   3.372   0.640   0.424
 9065SOL    HW128094   3.394   0.610   0.331
 9065SOL    HW228095   3.286   0.599   0.453
 9066SOL     OW28096   5.769   6.927   7.007
 9066SOL    HW128097   5.866   6.901   7.007
 9066SOL    HW228098   5.719   6.869   0.051
 9067SOL     OW28099   1.799   6.908   3.279
 9067SOL    HW128100   1.894   6.892   3.251
 9067SOL    HW228101   1.753   6.963   3.209
 9068SOL     OW28102   1.407   6.163   5.266
 9068SOL    HW128103   1.364   6.199   5.184
 9068SOL    HW228104   1.349   6.179   5.346
 9069SOL     OW28105   1.727   2.665   6.365
 9069SOL    HW128106   1.683   2.627   6.447
 9069SOL    HW228107   1.724   2.765   6.369
 9070SOL     OW28108   1.838   3.853   4.391
 9070SOL    HW128109   1.887   3.845   4.478
 9070SOL    HW228110   1.879   3.925   4.335
 9071SOL     OW28111   6.444   6.491   0.559
 9071SOL    HW128112   6.479   6.418   0.500
 9071SOL    HW228113   6.488   6.485   0.649
 9072SOL     OW28114   6.760   3.554   0.668
 9072SOL    HW128115   6.711   3.637   0.642
 9072SOL    HW228116   6.856   3.575   0.683
 9073SOL     OW28117   2.243   1.048   1.748
 9073SOL    HW128118   2.279   1.138   1.723
 9073SOL    HW228119   2.313   0.996   1.796
 9074SOL     OW28120   1.644   6.714   2.498
 9074SOL    HW128121   1.683   6.622   2.510
 9074SOL    HW228122   1.646   6.739   2.402
 9075SOL     OW28123   6.518   0.849   2.183
 9075SOL    HW128124   6.608   0.857   2.226
 9075SOL    HW228125   6.528   0.823   2.087
 9076SOL     OW28126   6.800   1.270   5.983
 9076SOL    HW128127   6.778   1.286   6.079
 9076SOL    HW228128   6.872   1.201   5.976
 9077SOL     OW28129   4.835   6.632   2.463
 9077SOL    HW128130   4.822   6.607   2.559
 9077SOL    HW228131   4.752   6.612   2.411
 9078SOL     OW28132   3.844   3.545   5.152
 9078SOL    HW128133   3.917   3.477   5.147
 9078SOL    HW228134   3.776   3.525   5.082
 9079SOL     OW28135   3.375   6.578   4.491
 9079SOL    HW128136   3.351   6.508   4.424
 9079SOL    HW228137   3.292   6.621   4.525
 9080SOL     OW28138   5.444   2.667   0.104
 9080SOL    HW128139   5.403   2.751   0.069
 9080SOL    HW228140   5.520   2.641   0.046
 9081SOL     OW28141   5.492   6.375   2.404
 9081SOL    HW128142   5.516   6.471   2.415
 9081SOL    HW228143   5.393   6.364   2.412
 9082SOL     OW28144   2.411   0.606   3.831
 9082SOL    HW128145   2.349   0.602   3.909
 9082SOL    HW228146   2.474   0.683   3.842
 9083SOL     OW28147   4.680   4.614   5.216
 9083SOL    HW128148   4.690   4.685   5.286
 9083SOL    HW228149   4.740   4.537   5.239
 9084SOL     OW28150   3.319   3.547   3.225
 9084SOL    HW128151   3.363   3.631   3.256
 9084SOL    HW228152   3.290   3.559   3.129
 9085SOL     OW28153   2.445   1.875   1.137
 9085SOL    HW128154   2.481   1.953   1.188
 9085SOL    HW228155   2.479   1.790   1.176
 9086SOL     OW28156   0.553   4.078   1.242
 9086SOL    HW128157   0.644   4.066   1.282
 9086SOL    HW228158   0.516   4.167   1.270
 9087SOL     OW28159   4.958   3.479   2.244
 9087SOL    HW128160   4.991   3.431   2.325
 9087SOL    HW228161   4.914   3.413   2.182
 9088SOL     OW28162   6.771   0.748   6.538
 9088SOL    HW128163   6.809   0.678   6.478
 9088SOL    HW228164   6.700   0.708   6.596
 9089SOL     OW28165   4.657   6.951   5.713
 9089SOL    HW128166   4.750   6.962   5.679
 9089SOL    HW228167   4.658   6.944   5.813
 9090SOL     OW28168   5.652   0.132   4.829
 9090SOL    HW128169   5.734   0.112   4.883
 9090SOL    HW228170   5.675   0.123   4.731
 9091SOL     OW28171   3.406   3.921   0.103
 9091SOL    HW128172   3.437   3.839   0.151
 9091SOL    HW228173   3.307   3.916   0.089
 9092SOL     OW28174   0.043   2.047   0.236
 9092SOL    HW128175   0.006   2.092   0.317
 9092SOL    HW228176   6.995   1.984   0.198
 9093SOL     OW28177   1.362   6.927   5.320
 9093SOL    HW128178   1.449   6.879   5.305
 9093SOL    HW228179   1.300   6.907   5.244
 9094SOL     OW28180   0.384   3.508   1.935
 9094SOL    HW128181   0.462   3.501   1.997
 9094SOL    HW228182   0.299   3.509   1.987
 9095SOL     OW28183   5.275   5.818   5.501
 9095SOL    HW128184   5.198   5.763   5.532
 9095SOL    HW228185   5.287   5.896   5.562
 9096SOL     OW28186   6.493   5.622   2.790
 9096SOL    HW128187   6.492   5.667   2.879
 9096SOL    HW228188   6.412   5.565   2.781
 9097SOL     OW28189   0.542   3.232   5.616
 9097SOL    HW128190   0.634   3.214   5.652
 9097SOL    HW228191   0.475   3.218   5.689
 9098SOL     OW28192   2.054   2.796   4.640
 9098SOL    HW128193   1.966   2.831   4.670
 9098SOL    HW228194   2.126   2.829   4.702
 9099SOL     OW28195   2.316   3.367   6.759
 9099SOL    HW128196   2.402   3.416   6.774
 9099SOL    HW228197   2.261   3.370   6.842
 9100SOL     OW28198   1.247   4.566   2.317
 9100SOL    HW128199   1.174   4.540   2.380
 9100SOL    HW228200   1.325   4.600   2.369
 9101SOL     OW28201   2.148   1.421   1.589
 9101SOL    HW128202   2.077   1.479   1.628
 9101SOL    HW228203   2.131   1.407   1.492
 9102SOL     OW28204   4.140   5.983   2.510
 9102SOL    HW128205   4.140   6.061   2.448
 9102SOL    HW228206   4.077   5.913   2.476
 9103SOL     OW28207   6.674   1.830   0.332
 9103SOL    HW128208   6.687   1.782   0.246
 9103SOL    HW228209   6.576   1.834   0.354
 9104SOL     OW28210   6.641   0.989   0.027
 9104SOL    HW128211   6.696   0.938   6.981
 9104SOL    HW228212   6.681   0.980   0.119
 9105SOL     OW28213   1.923   6.981   6.215
 9105SOL    HW128214   1.873   6.978   6.302
 9105SOL    HW228215   1.886   0.034   6.157
 9106SOL     OW28216   0.926   5.160   6.454
 9106SOL    HW128217   0.874   5.153   6.539
 9106SOL    HW228218   1.021   5.134   6.471
 9107SOL     OW28219   2.437   1.136   0.323
 9107SOL    HW128220   2.439   1.062   0.256
 9107SOL    HW228221   2.496   1.113   0.401
 9108SOL     OW28222   5.354   5.699   5.996
 9108SOL    HW128223   5.401   5.610   5.997
 9108SOL    HW228224   5.271   5.692   5.941
 9109SOL     OW28225   5.208   2.525   2.563
 9109SOL    HW128226   5.111   2.504   2.581
 9109SOL    HW228227   5.217   2.562   2.471
 9110SOL     OW28228   1.461   5.630   4.856
 9110SOL    HW128229   1.523   5.553   4.872
 9110SOL    HW228230   1.450   5.645   4.758
 9111SOL     OW28231   4.499   2.903   5.271
 9111SOL    HW128232   4.587   2.864   5.299
 9111SOL    HW228233   4.474   2.976   5.335
 9112SOL     OW28234   2.078   5.173   2.138
 9112SOL    HW128235   2.171   5.177   2.101
 9112SOL    HW228236   2.037   5.264   2.134
 9113SOL     OW28237   4.695   1.845   3.260
 9113SOL    HW128238   4.667   1.785   3.335
 9113SOL    HW228239   4.788   1.878   3.276
 9114SOL     OW28240   1.491   6.273   4.784
 9114SOL    HW128241   1.437   6.193   4.812
 9114SOL    HW228242   1.554   6.298   4.858
 9115SOL     OW28243   5.581   4.347   3.838
 9115SOL    HW128244   5.497   4.399   3.855
 9115SOL    HW228245   5.578   4.308   3.746
 9116SOL     OW28246   0.548   0.008   3.609
 9116SOL    HW128247   0.533   0.101   3.643
 9116SOL    HW228248   0.642   7.000   3.628
 9117SOL     OW28249   4.056   0.850   0.111
 9117SOL    HW128250   4.031   0.827   0.205
 9117SOL    HW228251   4.039   0.772   0.052
 9118SOL     OW28252   6.019   3.653   0.865
 9118SOL    HW128253   5.944   3.688   0.810
 9118SOL    HW228254   6.084   3.726   0.884
 9119SOL     OW28255   3.701   0.058   0.797
 9119SOL    HW128256   3.705   0.157   0.782
 9119SOL    HW228257   3.654   0.039   0.883
 9120SOL     OW28258   5.682   2.845   5.416
 9120SOL    HW128259   5.592   2.859   5.373
 9120SOL    HW228260   5.730   2.772   5.368
 9121SOL     OW28261   3.288   0.292   5.382
 9121SOL    HW128262   3.282   0.280   5.481
 9121SOL    HW228263   3.227   0.365   5.353
 9122SOL     OW28264   2.299   4.293   2.246
 9122SOL    HW128265   2.215   4.340   2.219
 9122SOL    HW228266   2.354   4.354   2.303
 9123SOL     OW28267   0.790   1.201   3.808
 9123SOL    HW128268   0.771   1.273   3.875
 9123SOL    HW228269   0.888   1.180   3.809
 9124SOL     OW28270   2.916   5.780   1.403
 9124SOL    HW128271   2.902   5.785   1.502
 9124SOL    HW228272   3.014   5.775   1.384
 9125SOL     OW28273   4.724   6.677   0.437
 9125SOL    HW128274   4.636   6.690   0.483
 9125SOL    HW228275   4.798   6.692   0.502
 9126SOL     OW28276   3.796   4.529   0.287
 9126SOL    HW128277   3.864   4.591   0.326
 9126SOL    HW228278   3.839   4.473   0.216
 9127SOL     OW28279   0.148   3.996   5.407
 9127SOL    HW128280   0.155   3.965   5.502
 9127SOL    HW228281   0.211   3.943   5.350
 9128SOL     OW28282   5.784   3.619   5.480
 9128SOL    HW128283   5.745   3.705   5.514
 9128SOL    HW228284   5.883   3.630   5.468
 9129SOL     OW28285   1.340   1.760   0.520
 9129SOL    HW128286   1.320   1.840   0.464
 9129SOL    HW228287   1.372   1.685   0.462
 9130SOL     OW28288   2.626   3.892   5.297
 9130SOL    HW128289   2.540   3.925   5.259
 9130SOL    HW228290   2.695   3.965   5.293
 9131SOL     OW28291   5.746   2.724   1.105
 9131SOL    HW128292   5.753   2.637   1.153
 9131SOL    HW228293   5.703   2.792   1.165
 9132SOL     OW28294   0.558   4.227   3.756
 9132SOL    HW128295   0.508   4.235   3.842
 9132SOL    HW228296   0.529   4.144   3.709
 9133SOL     OW28297   4.817   0.834   0.921
 9133SOL    HW128298   4.875   0.773   0.975
 9133SOL    HW228299   4.776   0.903   0.981
 9134SOL     OW28300   4.480   5.400   1.023
 9134SOL    HW128301   4.495   5.385   1.120
 9134SOL    HW228302   4.394   5.448   1.009
 9135SOL     OW28303   0.559   6.905   2.910
 9135SOL    HW128304   0.575   6.839   2.983
 9135SOL    HW228305   0.469   6.889   2.870
 9136SOL     OW28306   6.230   4.773   6.484
 9136SOL    HW128307   6.307   4.738   6.538
 9136SOL    HW228308   6.264   4.813   6.399
 9137SOL     OW28309   5.323   6.411   6.397
 9137SOL    HW128310   5.364   6.480   6.337
 9137SOL    HW228311   5.272   6.457   6.470
 9138SOL     OW28312   3.213   3.085   1.057
 9138SOL    HW128313   3.236   3.039   0.971
 9138SOL    HW228314   3.295   3.127   1.095
 9139SOL     OW28315   6.485   0.316   1.381
 9139SOL    HW128316   6.402   0.346   1.427
 9139SOL    HW228317   6.564   0.331   1.441
 9140SOL     OW28318   0.987   4.492   2.842
 9140SOL    HW128319   1.079   4.510   2.806
 9140SOL    HW228320   0.986   4.403   2.889
 9141SOL     OW28321   6.600   5.705   5.641
 9141SOL    HW128322   6.577   5.707   5.544
 9141SOL    HW228323   6.639   5.793   5.668
 9142SOL     OW28324   1.200   4.146   3.558
 9142SOL    HW128325   1.234   4.131   3.465
 9142SOL    HW228326   1.205   4.060   3.609
 9143SOL     OW28327   6.322   3.271   2.591
 9143SOL    HW128328   6.292   3.330   2.516
 9143SOL    HW228329   6.319   3.322   2.677
 9144SOL     OW28330   2.458   4.458   5.374
 9144SOL    HW128331   2.402   4.383   5.338
 9144SOL    HW228332   2.549   4.425   5.395
 9145SOL     OW28333   1.427   6.214   5.875
 9145SOL    HW128334   1.437   6.288   5.942
 9145SOL    HW228335   1.429   6.252   5.782
 9146SOL     OW28336   6.309   3.119   3.028
 9146SOL    HW128337   6.343   3.100   2.936
 9146SOL    HW228338   6.210   3.132   3.025
 9147SOL     OW28339   4.562   0.014   4.298
 9147SOL    HW128340   4.633   0.077   4.331
 9147SOL    HW228341   4.520   0.051   4.215
 9148SOL     OW28342   6.206   6.594   1.636
 9148SOL    HW128343   6.253   6.659   1.576
 9148SOL    HW228344   6.173   6.517   1.582
 9149SOL     OW28345   0.353   3.789   1.574
 9149SOL    HW128346   0.268   3.829   1.538
 9149SOL    HW228347   0.429   3.852   1.559
 9150SOL     OW28348   2.837   2.589   1.190
 9150SOL    HW128349   2.866   2.642   1.269
 9150SOL    HW228350   2.896   2.611   1.112
 9151SOL     OW28351   1.859   3.235   3.610
 9151SOL    HW128352   1.948   3.260   3.571
 9151SOL    HW228353   1.791   3.228   3.537
 9152SOL     OW28354   2.279   5.016   2.982
 9152SOL    HW128355   2.326   4.928   2.971
 9152SOL    HW228356   2.228   5.017   3.067
 9153SOL     OW28357   6.458   3.441   0.226
 9153SOL    HW128358   6.512   3.515   0.266
 9153SOL    HW228359   6.371   3.477   0.193
 9154SOL     OW28360   5.515   4.429   2.797
 9154SOL    HW128361   5.572   4.501   2.836
 9154SOL    HW228362   5.524   4.429   2.698
 9155SOL     OW28363   0.884   6.750   3.033
 9155SOL    HW128364   0.911   6.795   2.948
 9155SOL    HW228365   0.788   6.722   3.027
 9156SOL     OW28366   6.980   3.938   0.347
 9156SOL    HW128367   0.056   3.909   0.350
 9156SOL    HW228368   6.924   3.863   0.312
 9157SOL     OW28369   1.950   5.401   6.204
 9157SOL    HW128370   2.008   5.346   6.144
 9157SOL    HW228371   1.867   5.428   6.155
 9158SOL     OW28372   6.730   3.462   4.607
 9158SOL    HW128373   6.725   3.561   4.596
 9158SOL    HW228374   6.686   3.436   4.693
 9159SOL     OW28375   3.681   1.460   3.493
 9159SOL    HW128376   3.582   1.464   3.480
 9159SOL    HW228377   3.702   1.471   3.590
 9160SOL     OW28378   6.876   4.343   0.817
 9160SOL    HW128379   6.882   4.244   0.825
 9160SOL    HW228380   6.783   4.373   0.837
 9161SOL     OW28381   6.589   4.217   1.360
 9161SOL    HW128382   6.568   4.198   1.456
 9161SOL    HW228383   6.603   4.315   1.348
 9162SOL     OW28384   4.043   1.981   1.658
 9162SOL    HW128385   3.989   1.963   1.740
 9162SOL    HW228386   4.127   2.030   1.682
 9163SOL     OW28387   1.652   2.532   3.174
 9163SOL    HW128388   1.652   2.552   3.077
 9163SOL    HW228389   1.580   2.466   3.195
 9164SOL     OW28390   2.528   0.440   0.326
 9164SOL    HW128391   2.429   0.435   0.333
 9164SOL    HW228392   2.553   0.502   0.252
 9165SOL     OW28393   5.200   1.532   6.185
 9165SOL    HW128394   5.181   1.621   6.146
 9165SOL    HW228395   5.285   1.496   6.146
 9166SOL     OW28396   5.339   5.780   1.734
 9166SOL    HW128397   5.366   5.805   1.641
 9166SOL    HW228398   5.375   5.689   1.756
 9167SOL     OW28399   1.661   1.484   5.081
 9167SOL    HW128400   1.757   1.459   5.092
 9167SOL    HW228401   1.640   1.495   4.984
 9168SOL     OW28402   6.653   5.932   3.991
 9168SOL    HW128403   6.664   6.024   3.952
 9168SOL    HW228404   6.558   5.921   4.022
 9169SOL     OW28405   6.377   5.653   0.905
 9169SOL    HW128406   6.458   5.660   0.846
 9169SOL    HW228407   6.378   5.728   0.971
 9170SOL     OW28408   1.756   1.146   5.973
 9170SOL    HW128409   1.674   1.160   5.918
 9170SOL    HW228410   1.827   1.103   5.917
 9171SOL     OW28411   3.229   4.624   0.130
 9171SOL    HW128412   3.237   4.722   0.150
 9171SOL    HW228413   3.318   4.588   0.104
 9172SOL     OW28414   4.719   1.478   4.222
 9172SOL    HW128415   4.630   1.445   4.191
 9172SOL    HW228416   4.721   1.480   4.322
 9173SOL     OW28417   5.514   2.801   4.658
 9173SOL    HW128418   5.506   2.890   4.612
 9173SOL    HW228419   5.432   2.785   4.713
 9174SOL     OW28420   0.286   4.680   0.512
 9174SOL    HW128421   0.373   4.718   0.482
 9174SOL    HW228422   0.268   4.594   0.463
 9175SOL     OW28423   1.821   6.639   6.534
 9175SOL    HW128424   1.789   6.570   6.599
 9175SOL    HW228425   1.891   6.696   6.577
 9176SOL     OW28426   1.952   1.421   2.402
 9176SOL    HW128427   2.034   1.456   2.447
 9176SOL    HW228428   1.899   1.497   2.364
 9177SOL     OW28429   0.769   4.181   3.974
 9177SOL    HW128430   0.699   4.229   3.921
 9177SOL    HW228431   0.824   4.123   3.914
 9178SOL     OW28432   2.226   5.788   0.692
 9178SOL    HW128433   2.228   5.852   0.769
 9178SOL    HW228434   2.232   5.694   0.726
 9179SOL     OW28435   3.130   5.342   4.884
 9179SOL    HW128436   3.060   5.271   4.883
 9179SOL    HW228437   3.138   5.379   4.977
 9180SOL     OW28438   6.990   1.056   4.761
 9180SOL    HW128439   0.058   1.070   4.806
 9180SOL    HW228440   6.982   0.960   4.734
 9181SOL     OW28441   3.478   2.104   4.050
 9181SOL    HW128442   3.392   2.146   4.078
 9181SOL    HW228443   3.460   2.033   3.981
 9182SOL     OW28444   1.453   1.197   2.648
 9182SOL    HW128445   1.540   1.184   2.696
 9182SOL    HW228446   1.392   1.253   2.704
 9183SOL     OW28447   0.236   2.471   5.967
 9183SOL    HW128448   0.255   2.452   6.064
 9183SOL    HW228449   0.322   2.470   5.916
 9184SOL     OW28450   3.028   3.253   0.490
 9184SOL    HW128451   3.087   3.199   0.550
 9184SOL    HW228452   2.957   3.297   0.544
 9185SOL     OW28453   1.463   0.859   6.441
 9185SOL    HW128454   1.486   0.859   6.344
 9185SOL    HW228455   1.498   0.776   6.484
 9186SOL     OW28456   5.632   0.918   6.616
 9186SOL    HW128457   5.589   0.827   6.613
 9186SOL    HW228458   5.647   0.950   6.522
 9187SOL     OW28459   5.069   2.148   0.512
 9187SOL    HW128460   5.129   2.160   0.592
 9187SOL    HW228461   5.122   2.107   0.437
 9188SOL     OW28462   1.380   0.134   1.680
 9188SOL    HW128463   1.349   0.073   1.753
 9188SOL    HW228464   1.359   0.229   1.703
 9189SOL     OW28465   4.148   1.019   4.427
 9189SOL    HW128466   4.066   1.063   4.463
 9189SOL    HW228467   4.151   0.924   4.459
 9190SOL     OW28468   6.359   2.531   5.582
 9190SOL    HW128469   6.300   2.509   5.660
 9190SOL    HW228470   6.363   2.454   5.519
 9191SOL     OW28471   5.638   6.196   0.536
 9191SOL    HW128472   5.574   6.244   0.476
 9191SOL    HW228473   5.691   6.263   0.588
 9192SOL     OW28474   6.058   4.906   4.692
 9192SOL    HW128475   6.024   4.916   4.785
 9192SOL    HW228476   6.148   4.862   4.693
 9193SOL     OW28477   3.926   3.284   3.893
 9193SOL    HW128478   3.983   3.235   3.828
 9193SOL    HW228479   3.831   3.253   3.884
 9194SOL     OW28480   3.212   5.931   2.356
 9194SOL    HW128481   3.309   5.942   2.339
 9194SOL    HW228482   3.198   5.890   2.446
 9195SOL     OW28483   6.371   3.839   2.955
 9195SOL    HW128484   6.449   3.817   3.014
 9195SOL    HW228485   6.289   3.852   3.010
 9196SOL     OW28486   4.566   0.163   3.679
 9196SOL    HW128487   4.624   0.231   3.724
 9196SOL    HW228488   4.618   0.120   3.605
 9197SOL     OW28489   3.524   3.335   6.309
 9197SOL    HW128490   3.455   3.298   6.372
 9197SOL    HW228491   3.524   3.435   6.315
 9198SOL     OW28492   5.243   2.789   5.123
 9198SOL    HW128493   5.180   2.766   5.198
 9198SOL    HW228494   5.266   2.707   5.073
 9199SOL     OW28495   1.251   3.839   6.692
 9199SOL    HW128496   1.266   3.746   6.660
 9199SOL    HW228497   1.193   3.838   6.773
 9200SOL     OW28498   6.210   0.215   6.896
 9200SOL    HW128499   6.278   0.247   6.962
 9200SOL    HW228500   6.123   0.261   6.913
 9201SOL     OW28501   1.824   4.235   3.371
 9201SOL    HW128502   1.734   4.192   3.372
 9201SOL    HW228503   1.815   4.333   3.352
 9202SOL     OW28504   3.123   5.286   4.322
 9202SOL    HW128505   3.078   5.307   4.235
 9202SOL    HW228506   3.142   5.371   4.372
 9203SOL     OW28507   5.136   0.879   6.270
 9203SOL    HW128508   5.091   0.904   6.355
 9203SOL    HW228509   5.069   0.843   6.205
 9204SOL     OW28510   4.571   4.394   2.304
 9204SOL    HW128511   4.529   4.472   2.350
 9204SOL    HW228512   4.557   4.402   2.205
 9205SOL     OW28513   4.964   2.989   2.983
 9205SOL    HW128514   4.948   3.086   3.003
 9205SOL    HW228515   4.973   2.977   2.884
 9206SOL     OW28516   0.590   0.320   3.689
 9206SOL    HW128517   0.587   0.373   3.605
 9206SOL    HW228518   0.678   0.332   3.734
 9207SOL     OW28519   4.097   6.985   0.042
 9207SOL    HW128520   4.130   0.053   0.076
 9207SOL    HW228521   4.000   6.993   0.018
 9208SOL     OW28522   4.912   4.624   2.406
 9208SOL    HW128523   4.895   4.607   2.503
 9208SOL    HW228524   5.004   4.663   2.395
 9209SOL     OW28525   3.932   1.089   2.652
 9209SOL    HW128526   3.986   1.106   2.569
 9209SOL    HW228527   3.868   1.015   2.636
 9210SOL     OW28528   1.052   0.021   1.322
 9210SOL    HW128529   1.112   0.015   1.242
 9210SOL    HW228530   0.963   7.002   1.299
 9211SOL     OW28531   4.824   1.034   6.743
 9211SOL    HW128532   4.855   0.968   6.811
 9211SOL    HW228533   4.728   1.057   6.760
 9212SOL     OW28534   5.698   3.898   4.830
 9212SOL    HW128535   5.753   3.980   4.844
 9212SOL    HW228536   5.711   3.835   4.906
 9213SOL     OW28537   6.420   0.042   2.656
 9213SOL    HW128538   6.323   0.044   2.631
 9213SOL    HW228539   6.444   6.970   2.689
 9214SOL     OW28540   1.969   2.408   5.810
 9214SOL    HW128541   1.993   2.501   5.838
 9214SOL    HW228542   1.996   2.343   5.881
 9215SOL     OW28543   0.885   3.289   2.937
 9215SOL    HW128544   0.903   3.195   2.968
 9215SOL    HW228545   0.840   3.286   2.848
 9216SOL     OW28546   2.667   5.833   4.806
 9216SOL    HW128547   2.646   5.825   4.904
 9216SOL    HW228548   2.756   5.791   4.788
 9217SOL     OW28549   4.383   1.145   6.415
 9217SOL    HW128550   4.400   1.191   6.328
 9217SOL    HW228551   4.375   1.047   6.400
 9218SOL     OW28552   5.842   5.387   6.796
 9218SOL    HW128553   5.800   5.411   6.884
 9218SOL    HW228554   5.932   5.432   6.789
 9219SOL     OW28555   3.485   3.006   5.611
 9219SOL    HW128556   3.461   3.090   5.660
 9219SOL    HW228557   3.582   2.988   5.620
 9220SOL     OW28558   0.757   6.531   3.703
 9220SOL    HW128559   0.811   6.612   3.677
 9220SOL    HW228560   0.814   6.468   3.754
 9221SOL     OW28561   2.511   1.033   0.834
 9221SOL    HW128562   2.603   1.023   0.870
 9221SOL    HW228563   2.455   1.087   0.898
 9222SOL     OW28564   1.217   3.634   3.633
 9222SOL    HW128565   1.168   3.550   3.658
 9222SOL    HW228566   1.314   3.612   3.620
 9223SOL     OW28567   0.890   3.660   5.009
 9223SOL    HW128568   0.929   3.597   4.942
 9223SOL    HW228569   0.949   3.740   5.017
 9224SOL     OW28570   2.173   4.656   3.652
 9224SOL    HW128571   2.184   4.751   3.624
 9224SOL    HW228572   2.174   4.597   3.571
 9225SOL     OW28573   5.135   6.402   6.598
 9225SOL    HW128574   5.087   6.336   6.539
 9225SOL    HW228575   5.086   6.488   6.599
 9226SOL     OW28576   1.028   0.556   0.874
 9226SOL    HW128577   0.981   0.487   0.819
 9226SOL    HW228578   0.994   0.647   0.850
 9227SOL     OW28579   2.141   5.132   0.747
 9227SOL    HW128580   2.181   5.071   0.678
 9227SOL    HW228581   2.211   5.155   0.815
 9228SOL     OW28582   3.236   2.923   5.650
 9228SOL    HW128583   3.334   2.939   5.657
 9228SOL    HW228584   3.203   2.956   5.561
 9229SOL     OW28585   0.430   4.676   6.969
 9229SOL    HW128586   0.454   4.761   7.016
 9229SOL    HW228587   0.460   4.681   6.874
 9230SOL     OW28588   4.532   1.728   4.795
 9230SOL    HW128589   4.441   1.720   4.753
 9230SOL    HW228590   4.522   1.756   4.890
 9231SOL     OW28591   6.834   5.765   3.597
 9231SOL    HW128592   6.760   5.807   3.649
 9231SOL    HW228593   6.848   5.816   3.513
 9232SOL     OW28594   1.468   5.193   2.055
 9232SOL    HW128595   1.545   5.170   1.997
 9232SOL    HW228596   1.384   5.194   2.000
 9233SOL     OW28597   0.588   6.535   0.149
 9233SOL    HW128598   0.501   6.492   0.172
 9233SOL    HW228599   0.628   6.576   0.232
 9234SOL     OW28600   2.293   4.369   0.506
 9234SOL    HW128601   2.309   4.271   0.500
 9234SOL    HW228602   2.379   4.418   0.487
 9235SOL     OW28603   2.142   1.999   3.704
 9235SOL    HW128604   2.155   1.900   3.709
 9235SOL    HW228605   2.165   2.040   3.793
 9236SOL     OW28606   2.803   3.193   6.813
 9236SOL    HW128607   2.733   3.210   6.744
 9236SOL    HW228608   2.760   3.169   6.900
 9237SOL     OW28609   5.737   4.701   3.159
 9237SOL    HW128610   5.778   4.790   3.183
 9237SOL    HW228611   5.740   4.641   3.238
 9238SOL     OW28612   1.958   2.771   5.304
 9238SOL    HW128613   1.878   2.813   5.347
 9238SOL    HW228614   2.034   2.770   5.369
 9239SOL     OW28615   1.067   4.939   6.692
 9239SOL    HW128616   0.968   4.941   6.708
 9239SOL    HW228617   1.113   4.992   6.763
 9240SOL     OW28618   4.446   2.392   2.858
 9240SOL    HW128619   4.407   2.314   2.907
 9240SOL    HW228620   4.498   2.449   2.922
 9241SOL     OW28621   5.909   6.588   1.035
 9241SOL    HW128622   5.990   6.581   1.093
 9241SOL    HW228623   5.872   6.681   1.042
 9242SOL     OW28624   1.612   2.535   0.528
 9242SOL    HW128625   1.699   2.577   0.552
 9242SOL    HW228626   1.575   2.578   0.446
 9243SOL     OW28627   0.903   0.709   6.807
 9243SOL    HW128628   0.848   0.734   6.886
 9243SOL    HW228629   0.919   0.790   6.750
 9244SOL     OW28630   3.814   6.593   5.505
 9244SOL    HW128631   3.831   6.603   5.407
 9244SOL    HW228632   3.759   6.670   5.538
 9245SOL     OW28633   1.111   4.721   3.150
 9245SOL    HW128634   1.129   4.758   3.241
 9245SOL    HW228635   1.150   4.629   3.144
 9246SOL     OW28636   6.452   0.528   5.583
 9246SOL    HW128637   6.413   0.444   5.546
 9246SOL    HW228638   6.388   0.569   5.647
 9247SOL     OW28639   3.961   6.808   3.003
 9247SOL    HW128640   4.024   6.738   3.034
 9247SOL    HW228641   3.903   6.771   2.930
 9248SOL     OW28642   2.432   1.242   6.246
 9248SOL    HW128643   2.367   1.216   6.318
 9248SOL    HW228644   2.495   1.311   6.281
 9249SOL     OW28645   3.670   5.425   1.298
 9249SOL    HW128646   3.674   5.375   1.212
 9249SOL    HW228647   3.706   5.517   1.286
 9250SOL     OW28648   0.568   2.957   4.157
 9250SOL    HW128649   0.610   2.964   4.066
 9250SOL    HW228650   0.628   2.903   4.216
 9251SOL     OW28651   2.969   2.844   1.149
 9251SOL    HW128652   2.979   2.825   1.247
 9251SOL    HW228653   3.046   2.803   1.099
 9252SOL     OW28654   5.015   1.733   5.811
 9252SOL    HW128655   5.013   1.827   5.846
 9252SOL    HW228656   4.954   1.676   5.867
 9253SOL     OW28657   0.863   5.243   5.381
 9253SOL    HW128658   0.941   5.250   5.444
 9253SOL    HW228659   0.889   5.188   5.302
 9254SOL     OW28660   6.887   5.114   2.678
 9254SOL    HW128661   6.839   5.042   2.728
 9254SOL    HW228662   6.929   5.177   2.742
 9255SOL     OW28663   6.893   4.095   0.894
 9255SOL    HW128664   6.847   4.067   0.978
 9255SOL    HW228665   6.939   4.017   0.853
 9256SOL     OW28666   1.762   6.257   1.872
 9256SOL    HW128667   1.852   6.215   1.879
 9256SOL    HW228668   1.695   6.202   1.922
 9257SOL     OW28669   6.388   5.906   4.136
 9257SOL    HW128670   6.401   5.898   4.235
 9257SOL    HW228671   6.302   5.954   4.118
 9258SOL     OW28672   3.656   5.246   1.120
 9258SOL    HW128673   3.703   5.231   1.033
 9258SOL    HW228674   3.685   5.178   1.186
 9259SOL     OW28675   1.836   1.357   6.826
 9259SOL    HW128676   1.873   1.429   6.885
 9259SOL    HW228677   1.738   1.348   6.843
 9260SOL     OW28678   6.139   4.019   4.973
 9260SOL    HW128679   6.087   4.073   4.907
 9260SOL    HW228680   6.135   3.923   4.947
 9261SOL     OW28681   3.566   2.627   1.764
 9261SOL    HW128682   3.610   2.699   1.817
 9261SOL    HW228683   3.591   2.538   1.802
 9262SOL     OW28684   6.076   5.665   4.371
 9262SOL    HW128685   6.132   5.668   4.287
 9262SOL    HW228686   6.078   5.572   4.408
 9263SOL     OW28687   1.866   3.784   3.914
 9263SOL    HW128688   1.795   3.747   3.973
 9263SOL    HW228689   1.837   3.777   3.818
 9264SOL     OW28690   4.332   3.707   0.015
 9264SOL    HW128691   4.352   3.612   7.011
 9264SOL    HW228692   4.308   3.712   0.112
 9265SOL     OW28693   5.910   1.988   6.892
 9265SOL    HW128694   5.866   1.907   6.853
 9265SOL    HW228695   5.917   1.978   6.991
 9266SOL     OW28696   1.133   4.435   1.311
 9266SOL    HW128697   1.219   4.475   1.277
 9266SOL    HW228698   1.114   4.469   1.403
 9267SOL     OW28699   6.545   0.877   4.998
 9267SOL    HW128700   6.486   0.920   4.930
 9267SOL    HW228701   6.525   0.779   5.003
 9268SOL     OW28702   0.624   6.917   1.981
 9268SOL    HW128703   0.668   6.966   2.056
 9268SOL    HW228704   0.670   6.939   1.895
 9269SOL     OW28705   4.286   0.878   0.754
 9269SOL    HW128706   4.265   0.847   0.661
 9269SOL    HW228707   4.324   0.970   0.751
 9270SOL     OW28708   1.854   0.189   6.034
 9270SOL    HW128709   1.865   0.210   5.937
 9270SOL    HW228710   1.882   0.268   6.088
 9271SOL     OW28711   1.658   6.766   4.627
 9271SOL    HW128712   1.650   6.696   4.697
 9271SOL    HW228713   1.713   6.843   4.662
 9272SOL     OW28714   6.654   6.962   5.698
 9272SOL    HW128715   6.644   6.926   5.791
 9272SOL    HW228716   6.720   6.907   5.648
 9273SOL     OW28717   4.703   5.131   4.476
 9273SOL    HW128718   4.784   5.099   4.427
 9273SOL    HW228719   4.669   5.058   4.535
 9274SOL     OW28720   0.698   2.663   0.347
 9274SOL    HW128721   0.630   2.605   0.304
 9274SOL    HW228722   0.693   2.653   0.447
 9275SOL     OW28723   0.282   0.650   6.759
 9275SOL    HW128724   0.275   0.702   6.674
 9275SOL    HW228725   0.190   0.630   6.794
 9276SOL     OW28726   2.530   5.332   0.051
 9276SOL    HW128727   2.545   5.387   6.988
 9276SOL    HW228728   2.462   5.377   0.108
 9277SOL     OW28729   5.140   5.937   2.019
 9277SOL    HW128730   5.236   5.939   1.992
 9277SOL    HW228731   5.130   5.886   2.105
 9278SOL     OW28732   0.910   0.934   5.028
 9278SOL    HW128733   0.826   0.928   4.974
 9278SOL    HW228734   0.980   0.875   4.988
 9279SOL     OW28735   4.524   6.243   1.663
 9279SOL    HW128736   4.534   6.291   1.750
 9279SOL    HW228737   4.575   6.292   1.592
 9280SOL     OW28738   1.601   6.886   2.722
 9280SOL    HW128739   1.683   6.883   2.779
 9280SOL    HW228740   1.610   6.822   2.647
 9281SOL     OW28741   2.467   5.059   6.651
 9281SOL    HW128742   2.440   5.139   6.598
 9281SOL    HW228743   2.446   4.976   6.600
 9282SOL     OW28744   2.852   6.883   4.874
 9282SOL    HW128745   2.813   6.947   4.940
 9282SOL    HW228746   2.871   6.796   4.919
 9283SOL     OW28747   4.763   5.844   0.321
 9283SOL    HW128748   4.807   5.805   0.240
 9283SOL    HW228749   4.819   5.917   0.359
 9284SOL     OW28750   3.254   3.827   4.793
 9284SOL    HW128751   3.170   3.877   4.812
 9284SOL    HW228752   3.244   3.732   4.825
 9285SOL     OW28753   0.524   4.795   2.514
 9285SOL    HW128754   0.474   4.763   2.433
 9285SOL    HW228755   0.459   4.834   2.579
 9286SOL     OW28756   4.727   5.944   1.077
 9286SOL    HW128757   4.825   5.926   1.082
 9286SOL    HW228758   4.682   5.870   1.026
 9287SOL     OW28759   3.385   4.471   6.281
 9287SOL    HW128760   3.374   4.450   6.378
 9287SOL    HW228761   3.322   4.414   6.227
 9288SOL     OW28762   3.965   1.970   2.818
 9288SOL    HW128763   3.962   2.044   2.751
 9288SOL    HW228764   3.874   1.956   2.857
 9289SOL     OW28765   4.955   6.544   0.031
 9289SOL    HW128766   4.912   6.519   0.117
 9289SOL    HW228767   4.991   6.462   7.005
 9290SOL     OW28768   5.190   0.796   3.774
 9290SOL    HW128769   5.238   0.800   3.862
 9290SOL    HW228770   5.104   0.746   3.785
 9291SOL     OW28771   1.177   4.979   6.100
 9291SOL    HW128772   1.175   5.045   6.175
 9291SOL    HW228773   1.269   4.977   6.060
 9292SOL     OW28774   1.928   1.424   6.446
 9292SOL    HW128775   1.845   1.437   6.501
 9292SOL    HW228776   2.000   1.385   6.504
 9293SOL     OW28777   5.296   2.594   4.924
 9293SOL    HW128778   5.273   2.665   4.858
 9293SOL    HW228779   5.225   2.524   4.925
 9294SOL     OW28780   4.357   1.379   0.391
 9294SOL    HW128781   4.426   1.424   0.334
 9294SOL    HW228782   4.274   1.433   0.391
 9295SOL     OW28783   0.426   1.455   4.942
 9295SOL    HW128784   0.380   1.540   4.917
 9295SOL    HW228785   0.494   1.432   4.873
 9296SOL     OW28786   1.494   5.088   0.035
 9296SOL    HW128787   1.444   5.033   6.988
 9296SOL    HW228788   1.576   5.039   0.065
 9297SOL     OW28789   5.688   5.500   2.397
 9297SOL    HW128790   5.638   5.536   2.318
 9297SOL    HW228791   5.728   5.412   2.373
 9298SOL     OW28792   1.485   5.619   6.136
 9298SOL    HW128793   1.525   5.581   6.219
 9298SOL    HW228794   1.445   5.709   6.157
 9299SOL     OW28795   1.925   2.608   5.030
 9299SOL    HW128796   1.924   2.585   5.127
 9299SOL    HW228797   1.843   2.572   4.987
 9300SOL     OW28798   1.551   5.234   5.548
 9300SOL    HW128799   1.528   5.249   5.644
 9300SOL    HW228800   1.486   5.285   5.490
 9301SOL     OW28801   0.108   4.373   4.920
 9301SOL    HW128802   0.068   4.317   4.992
 9301SOL    HW228803   0.058   4.460   4.914
 9302SOL     OW28804   2.162   3.358   4.745
 9302SOL    HW128805   2.169   3.372   4.843
 9302SOL    HW228806   2.182   3.443   4.697
 9303SOL     OW28807   2.116   4.785   0.732
 9303SOL    HW128808   2.094   4.726   0.809
 9303SOL    HW228809   2.124   4.730   0.649
 9304SOL     OW28810   4.458   5.325   0.052
 9304SOL    HW128811   4.375   5.279   0.020
 9304SOL    HW228812   4.434   5.414   0.091
 9305SOL     OW28813   1.914   1.964   1.280
 9305SOL    HW128814   1.981   1.923   1.341
 9305SOL    HW228815   1.938   2.059   1.261
 9306SOL     OW28816   6.628   5.426   4.423
 9306SOL    HW128817   6.534   5.456   4.408
 9306SOL    HW228818   6.689   5.477   4.364
 9307SOL     OW28819   2.589   3.127   1.671
 9307SOL    HW128820   2.542   3.051   1.716
 9307SOL    HW228821   2.667   3.093   1.620
 9308SOL     OW28822   2.079   3.954   2.038
 9308SOL    HW128823   2.046   3.936   2.130
 9308SOL    HW228824   2.094   3.867   1.990
 9309SOL     OW28825   4.986   5.700   6.184
 9309SOL    HW128826   4.912   5.750   6.229
 9309SOL    HW228827   5.074   5.738   6.212
 9310SOL     OW28828   5.777   5.949   0.476
 9310SOL    HW128829   5.808   5.944   0.381
 9310SOL    HW228830   5.745   6.042   0.496
 9311SOL     OW28831   4.507   3.673   1.488
 9311SOL    HW128832   4.488   3.633   1.398
 9311SOL    HW228833   4.578   3.742   1.479
 9312SOL     OW28834   0.476   2.876   2.148
 9312SOL    HW128835   0.562   2.921   2.171
 9312SOL    HW228836   0.474   2.785   2.188
 9313SOL     OW28837   0.451   6.786   2.200
 9313SOL    HW128838   0.391   6.816   2.274
 9313SOL    HW228839   0.432   6.840   2.118
 9314SOL     OW28840   4.856   3.522   0.575
 9314SOL    HW128841   4.872   3.616   0.608
 9314SOL    HW228842   4.817   3.526   0.483
 9315SOL     OW28843   5.321   0.604   6.189
 9315SOL    HW128844   5.304   0.695   6.228
 9315SOL    HW228845   5.412   0.603   6.146
 9316SOL     OW28846   4.479   0.706   5.409
 9316SOL    HW128847   4.446   0.798   5.430
 9316SOL    HW228848   4.550   0.680   5.475
 9317SOL     OW28849   4.017   6.606   3.359
 9317SOL    HW128850   3.983   6.597   3.453
 9317SOL    HW228851   4.065   6.523   3.333
 9318SOL     OW28852   4.957   6.609   1.407
 9318SOL    HW128853   4.935   6.511   1.410
 9318SOL    HW228854   4.932   6.651   1.494
 9319SOL     OW28855   2.862   3.929   0.263
 9319SOL    HW128856   2.932   3.983   0.308
 9319SOL    HW228857   2.846   3.965   0.171
 9320SOL     OW28858   6.683   6.273   6.883
 9320SOL    HW128859   6.679   6.179   6.850
 9320SOL    HW228860   6.777   6.296   6.907
 9321SOL     OW28861   1.031   3.709   4.715
 9321SOL    HW128862   1.085   3.758   4.784
 9321SOL    HW228863   1.083   3.704   4.630
 9322SOL     OW28864   5.884   3.684   6.176
 9322SOL    HW128865   5.811   3.740   6.137
 9322SOL    HW228866   5.850   3.637   6.258
 9323SOL     OW28867   1.471   2.239   4.942
 9323SOL    HW128868   1.389   2.272   4.893
 9323SOL    HW228869   1.490   2.300   5.018
 9324SOL     OW28870   0.718   4.587   1.572
 9324SOL    HW128871   0.733   4.514   1.506
 9324SOL    HW228872   0.626   4.625   1.559
 9325SOL     OW28873   0.930   4.913   3.053
 9325SOL    HW128874   0.987   4.843   3.095
 9325SOL    HW228875   0.942   4.912   2.953
 9326SOL     OW28876   4.495   4.615   1.644
 9326SOL    HW128877   4.429   4.682   1.610
 9326SOL    HW228878   4.570   4.663   1.691
 9327SOL     OW28879   4.107   0.335   3.983
 9327SOL    HW128880   4.091   0.395   4.061
 9327SOL    HW228881   4.171   0.378   3.920
 9328SOL     OW28882   2.533   6.879   4.422
 9328SOL    HW128883   2.573   6.861   4.512
 9328SOL    HW228884   2.599   6.931   4.367
 9329SOL     OW28885   0.147   5.270   6.731
 9329SOL    HW128886   0.243   5.255   6.706
 9329SOL    HW228887   0.088   5.228   6.662
 9330SOL     OW28888   6.501   5.175   6.758
 9330SOL    HW128889   6.584   5.153   6.707
 9330SOL    HW228890   6.459   5.090   6.790
 9331SOL     OW28891   1.784   2.904   4.694
 9331SOL    HW128892   1.801   2.995   4.733
 9331SOL    HW228893   1.743   2.913   4.604
 9332SOL     OW28894   4.727   5.651   0.966
 9332SOL    HW128895   4.649   5.602   0.926
 9332SOL    HW228896   4.793   5.672   0.894
 9333SOL     OW28897   3.835   4.385   1.262
 9333SOL    HW128898   3.909   4.338   1.311
 9333SOL    HW228899   3.852   4.380   1.164
 9334SOL     OW28900   6.260   5.939   5.583
 9334SOL    HW128901   6.315   6.015   5.547
 9334SOL    HW228902   6.273   5.932   5.681
 9335SOL     OW28903   1.545   3.349   1.453
 9335SOL    HW128904   1.495   3.436   1.456
 9335SOL    HW228905   1.619   3.355   1.386
 9336SOL     OW28906   6.069   6.463   5.347
 9336SOL    HW128907   6.041   6.556   5.374
 9336SOL    HW228908   6.169   6.457   5.347
 9337SOL     OW28909   2.590   0.236   6.500
 9337SOL    HW128910   2.650   0.165   6.465
 9337SOL    HW228911   2.632   0.326   6.486
 9338SOL     OW28912   5.944   6.740   6.776
 9338SOL    HW128913   5.861   6.789   6.753
 9338SOL    HW228914   5.986   6.781   6.857
 9339SOL     OW28915   6.410   4.322   5.410
 9339SOL    HW128916   6.313   4.332   5.433
 9339SOL    HW228917   6.447   4.411   5.385
 9340SOL     OW28918   4.239   5.944   1.724
 9340SOL    HW128919   4.233   5.961   1.625
 9340SOL    HW228920   4.214   5.849   1.743
 9341SOL     OW28921   4.751   4.128   0.037
 9341SOL    HW128922   4.661   4.170   0.039
 9341SOL    HW228923   4.751   4.048   6.997
 9342SOL     OW28924   3.034   0.335   4.347
 9342SOL    HW128925   2.998   0.421   4.311
 9342SOL    HW228926   2.983   0.309   4.429
 9343SOL     OW28927   4.391   4.364   1.666
 9343SOL    HW128928   4.426   4.458   1.673
 9343SOL    HW228929   4.432   4.307   1.737
 9344SOL     OW28930   5.991   5.798   4.844
 9344SOL    HW128931   5.951   5.886   4.868
 9344SOL    HW228932   5.981   5.782   4.746
 9345SOL     OW28933   0.083   6.317   0.868
 9345SOL    HW128934   0.176   6.336   0.900
 9345SOL    HW228935   0.072   6.354   0.776
 9346SOL     OW28936   5.857   5.998   1.007
 9346SOL    HW128937   5.882   6.077   1.062
 9346SOL    HW228938   5.784   5.948   1.052
 9347SOL     OW28939   3.654   5.465   0.643
 9347SOL    HW128940   3.615   5.390   0.696
 9347SOL    HW228941   3.754   5.461   0.648
 9348SOL     OW28942   2.170   6.017   1.732
 9348SOL    HW128943   2.219   5.985   1.651
 9348SOL    HW228944   2.106   5.947   1.762
 9349SOL     OW28945   6.070   5.777   1.831
 9349SOL    HW128946   6.056   5.844   1.904
 9349SOL    HW228947   6.114   5.821   1.752
 9350SOL     OW28948   0.084   0.271   5.632
 9350SOL    HW128949   0.179   0.255   5.660
 9350SOL    HW228950   0.079   0.355   5.577
 9351SOL     OW28951   2.975   1.597   6.477
 9351SOL    HW128952   2.941   1.637   6.392
 9351SOL    HW228953   3.075   1.594   6.474
 9352SOL     OW28954   3.805   2.258   6.548
 9352SOL    HW128955   3.720   2.246   6.598
 9352SOL    HW228956   3.789   2.315   6.467
 9353SOL     OW28957   1.138   3.350   0.773
 9353SOL    HW128958   1.237   3.341   0.766
 9353SOL    HW228959   1.115   3.431   0.827
 9354SOL     OW28960   4.731   2.248   1.341
 9354SOL    HW128961   4.828   2.232   1.324
 9354SOL    HW228962   4.687   2.163   1.369
 9355SOL     OW28963   6.953   6.819   3.241
 9355SOL    HW128964   6.883   6.752   3.266
 9355SOL    HW228965   6.933   6.906   3.286
 9356SOL     OW28966   4.437   4.707   2.525
 9356SOL    HW128967   4.449   4.620   2.572
 9356SOL    HW228968   4.439   4.693   2.426
 9357SOL     OW28969   3.307   2.344   1.126
 9357SOL    HW128970   3.356   2.366   1.042
 9357SOL    HW228971   3.209   2.362   1.113
 9358SOL     OW28972   6.313   4.855   2.490
 9358SOL    HW128973   6.279   4.769   2.451
 9358SOL    HW228974   6.240   4.897   2.545
 9359SOL     OW28975   6.686   4.256   5.891
 9359SOL    HW128976   6.766   4.200   5.870
 9359SOL    HW228977   6.664   4.314   5.813
 9360SOL     OW28978   2.501   1.002   6.934
 9360SOL    HW128979   2.418   1.057   6.927
 9360SOL    HW228980   2.482   0.918   6.984
 9361SOL     OW28981   2.807   6.465   2.384
 9361SOL    HW128982   2.819   6.371   2.353
 9361SOL    HW228983   2.741   6.511   2.324
 9362SOL     OW28984   2.279   1.277   2.525
 9362SOL    HW128985   2.303   1.374   2.518
 9362SOL    HW228986   2.192   1.267   2.574
 9363SOL     OW28987   3.410   6.347   2.312
 9363SOL    HW128988   3.460   6.309   2.390
 9363SOL    HW228989   3.320   6.304   2.306
 9364SOL     OW28990   4.414   3.626   0.260
 9364SOL    HW128991   4.419   3.526   0.258
 9364SOL    HW228992   4.501   3.664   0.229
 9365SOL     OW28993   2.606   1.903   4.836
 9365SOL    HW128994   2.631   1.951   4.920
 9365SOL    HW228995   2.599   1.969   4.761
 9366SOL     OW28996   2.497   1.725   0.862
 9366SOL    HW128997   2.580   1.760   0.904
 9366SOL    HW228998   2.467   1.643   0.911
 9367SOL     OW28999   6.785   5.831   2.755
 9367SOL    HW129000   6.698   5.865   2.718
 9367SOL    HW229001   6.854   5.832   2.682
 9368SOL     OW29002   3.037   1.890   1.917
 9368SOL    HW129003   3.108   1.853   1.858
 9368SOL    HW229004   3.072   1.970   1.966
 9369SOL     OW29005   0.122   2.452   4.783
 9369SOL    HW129006   0.079   2.443   4.693
 9369SOL    HW229007   0.104   2.543   4.820
 9370SOL     OW29008   6.368   0.916   2.719
 9370SOL    HW129009   6.375   0.874   2.810
 9370SOL    HW229010   6.321   0.853   2.657
 9371SOL     OW29011   0.242   6.204   0.354
 9371SOL    HW129012   0.281   6.120   0.318
 9371SOL    HW229013   0.215   6.191   0.449
 9372SOL     OW29014   6.201   6.862   3.754
 9372SOL    HW129015   6.136   6.846   3.829
 9372SOL    HW229016   6.203   6.960   3.732
 9373SOL     OW29017   3.651   1.662   3.305
 9373SOL    HW129018   3.701   1.748   3.321
 9373SOL    HW229019   3.677   1.596   3.375
 9374SOL     OW29020   5.046   2.960   0.173
 9374SOL    HW129021   4.978   2.898   0.212
 9374SOL    HW229022   5.048   2.950   0.074
 9375SOL     OW29023   0.621   1.387   3.287
 9375SOL    HW129024   0.632   1.297   3.329
 9375SOL    HW229025   0.524   1.412   3.288
 9376SOL     OW29026   2.693   3.749   0.843
 9376SOL    HW129027   2.697   3.824   0.776
 9376SOL    HW229028   2.615   3.762   0.903
 9377SOL     OW29029   6.187   5.357   3.669
 9377SOL    HW129030   6.184   5.412   3.586
 9377SOL    HW229031   6.260   5.391   3.729
 9378SOL     OW29032   2.222   6.981   0.170
 9378SOL    HW129033   2.266   0.051   0.172
 9378SOL    HW229034   2.198   6.957   0.076
 9379SOL     OW29035   4.918   5.389   3.936
 9379SOL    HW129036   4.850   5.325   3.974
 9379SOL    HW229037   4.884   5.482   3.945
 9380SOL     OW29038   6.181   6.732   5.424
 9380SOL    HW129039   6.166   6.718   5.522
 9380SOL    HW229040   6.275   6.707   5.401
 9381SOL     OW29041   2.724   2.043   5.910
 9381SOL    HW129042   2.682   2.134   5.902
 9381SOL    HW229043   2.823   2.051   5.897
 9382SOL     OW29044   4.040   1.748   2.437
 9382SOL    HW129045   4.086   1.680   2.494
 9382SOL    HW229046   3.946   1.761   2.469
 9383SOL     OW29047   4.155   6.436   4.120
 9383SOL    HW129048   4.089   6.494   4.072
 9383SOL    HW229049   4.194   6.486   4.197
 9384SOL     OW29050   4.928   6.285   2.219
 9384SOL    HW129051   4.955   6.248   2.130
 9384SOL    HW229052   4.954   6.381   2.226
 9385SOL     OW29053   4.198   1.044   3.504
 9385SOL    HW129054   4.223   1.134   3.539
 9385SOL    HW229055   4.259   1.019   3.430
 9386SOL     OW29056   2.755   6.487   5.779
 9386SOL    HW129057   2.771   6.440   5.692
 9386SOL    HW229058   2.737   6.419   5.850
 9387SOL     OW29059   3.165   6.629   1.413
 9387SOL    HW129060   3.187   6.672   1.325
 9387SOL    HW229061   3.069   6.649   1.436
 9388SOL     OW29062   0.393   0.530   2.649
 9388SOL    HW129063   0.429   0.576   2.568
 9388SOL    HW229064   0.415   0.584   2.731
 9389SOL     OW29065   2.637   1.171   5.735
 9389SOL    HW129066   2.646   1.162   5.636
 9389SOL    HW229067   2.560   1.231   5.756
 9390SOL     OW29068   3.308   5.359   2.293
 9390SOL    HW129069   3.277   5.349   2.388
 9390SOL    HW229070   3.304   5.455   2.267
 9391SOL     OW29071   0.520   1.237   5.440
 9391SOL    HW129072   0.534   1.192   5.528
 9391SOL    HW229073   0.516   1.336   5.452
 9392SOL     OW29074   1.784   6.429   4.694
 9392SOL    HW129075   1.777   6.464   4.787
 9392SOL    HW229076   1.695   6.438   4.648
 9393SOL     OW29077   3.629   2.299   5.285
 9393SOL    HW129078   3.574   2.370   5.329
 9393SOL    HW229079   3.570   2.237   5.233
 9394SOL     OW29080   6.892   3.079   3.097
 9394SOL    HW129081   6.985   3.108   3.072
 9394SOL    HW229082   6.830   3.100   3.021
 9395SOL     OW29083   2.701   3.347   0.982
 9395SOL    HW129084   2.665   3.334   0.890
 9395SOL    HW229085   2.788   3.298   0.991
 9396SOL     OW29086   6.245   0.143   6.063
 9396SOL    HW129087   6.244   0.228   6.010
 9396SOL    HW229088   6.325   0.141   6.123
 9397SOL     OW29089   2.138   0.015   0.666
 9397SOL    HW129090   2.222   0.001   0.717
 9397SOL    HW229091   2.152   7.008   0.570
 9398SOL     OW29092   2.819   1.348   6.537
 9398SOL    HW129093   2.872   1.431   6.518
 9398SOL    HW229094   2.880   1.275   6.567
 9399SOL     OW29095   6.601   1.507   6.048
 9399SOL    HW129096   6.656   1.536   6.126
 9399SOL    HW229097   6.651   1.439   5.995
 9400SOL     OW29098   5.305   3.443   2.340
 9400SOL    HW129099   5.333   3.455   2.245
 9400SOL    HW229100   5.387   3.428   2.396
 9401SOL     OW29101   2.982   6.107   3.607
 9401SOL    HW129102   3.031   6.099   3.694
 9401SOL    HW229103   3.047   6.117   3.533
 9402SOL     OW29104   2.471   5.000   6.059
 9402SOL    HW129105   2.450   4.915   6.105
 9402SOL    HW229106   2.440   4.996   5.964
 9403SOL     OW29107   5.278   1.308   3.697
 9403SOL    HW129108   5.189   1.354   3.689
 9403SOL    HW229109   5.264   1.209   3.695
 9404SOL     OW29110   1.246   5.079   6.837
 9404SOL    HW129111   1.309   5.001   6.842
 9404SOL    HW229112   1.276   5.150   6.900
 9405SOL     OW29113   6.346   6.995   1.147
 9405SOL    HW129114   6.367   0.061   1.099
 9405SOL    HW229115   6.423   6.969   1.205
 9406SOL     OW29116   6.933   1.952   5.428
 9406SOL    HW129117   6.929   1.932   5.330
 9406SOL    HW229118   7.017   1.913   5.467
 9407SOL     OW29119   3.260   5.990   3.202
 9407SOL    HW129120   3.272   6.088   3.183
 9407SOL    HW229121   3.350   5.948   3.217
 9408SOL     OW29122   3.902   2.165   6.942
 9408SOL    HW129123   3.928   2.130   0.013
 9408SOL    HW229124   3.977   2.150   6.878
 9409SOL     OW29125   5.913   3.406   3.682
 9409SOL    HW129126   5.946   3.444   3.768
 9409SOL    HW229127   5.947   3.461   3.606
 9410SOL     OW29128   4.141   6.381   2.259
 9410SOL    HW129129   4.083   6.407   2.182
 9410SOL    HW229130   4.144   6.456   2.325
 9411SOL     OW29131   4.377   5.682   0.600
 9411SOL    HW129132   4.310   5.750   0.571
 9411SOL    HW229133   4.336   5.591   0.597
 9412SOL     OW29134   0.173   2.618   1.202
 9412SOL    HW129135   0.081   2.629   1.164
 9412SOL    HW229136   0.216   2.708   1.210
 9413SOL     OW29137   4.006   5.885   5.224
 9413SOL    HW129138   4.017   5.943   5.144
 9413SOL    HW229139   4.032   5.937   5.306
 9414SOL     OW29140   3.335   1.398   2.976
 9414SOL    HW129141   3.423   1.420   2.934
 9414SOL    HW229142   3.267   1.385   2.904
 9415SOL     OW29143   2.172   6.246   2.405
 9415SOL    HW129144   2.189   6.340   2.376
 9415SOL    HW229145   2.080   6.239   2.443
 9416SOL     OW29146   1.414   1.926   2.048
 9416SOL    HW129147   1.428   1.926   1.949
 9416SOL    HW229148   1.357   2.004   2.073
 9417SOL     OW29149   2.354   5.650   5.488
 9417SOL    HW129150   2.329   5.562   5.447
 9417SOL    HW229151   2.434   5.687   5.441
 9418SOL     OW29152   2.307   5.430   1.841
 9418SOL    HW129153   2.293   5.522   1.805
 9418SOL    HW229154   2.353   5.374   1.772
 9419SOL     OW29155   3.050   6.655   5.124
 9419SOL    HW129156   3.065   6.649   5.223
 9419SOL    HW229157   3.112   6.723   5.085
 9420SOL     OW29158   6.541   1.346   4.859
 9420SOL    HW129159   6.607   1.421   4.857
 9420SOL    HW229160   6.587   1.260   4.837
 9421SOL     OW29161   1.344   4.056   5.492
 9421SOL    HW129162   1.418   4.083   5.553
 9421SOL    HW229163   1.283   4.134   5.477
 9422SOL     OW29164   5.552   0.410   2.254
 9422SOL    HW129165   5.492   0.384   2.178
 9422SOL    HW229166   5.506   0.391   2.341
 9423SOL     OW29167   3.941   1.355   3.485
 9423SOL    HW129168   3.949   1.257   3.467
 9423SOL    HW229169   3.847   1.377   3.512
 9424SOL     OW29170   4.255   0.152   4.967
 9424SOL    HW129171   4.246   0.055   4.948
 9424SOL    HW229172   4.273   0.202   4.882
 9425SOL     OW29173   0.660   4.237   5.414
 9425SOL    HW129174   0.578   4.235   5.472
 9425SOL    HW229175   0.637   4.276   5.325
 9426SOL     OW29176   2.795   0.626   6.913
 9426SOL    HW129177   2.873   0.578   6.872
 9426SOL    HW229178   2.752   0.685   6.845
 9427SOL     OW29179   2.667   5.438   4.762
 9427SOL    HW129180   2.734   5.422   4.690
 9427SOL    HW229181   2.602   5.361   4.765
 9428SOL     OW29182   5.262   0.390   2.826
 9428SOL    HW129183   5.229   0.426   2.740
 9428SOL    HW229184   5.358   0.416   2.839
 9429SOL     OW29185   0.735   4.168   2.163
 9429SOL    HW129186   0.683   4.243   2.203
 9429SOL    HW229187   0.831   4.193   2.158
 9430SOL     OW29188   6.669   6.231   1.855
 9430SOL    HW129189   6.752   6.260   1.806
 9430SOL    HW229190   6.668   6.131   1.861
 9431SOL     OW29191   6.642   3.855   0.305
 9431SOL    HW129192   6.625   3.838   0.402
 9431SOL    HW229193   6.734   3.824   0.281
 9432SOL     OW29194   5.937   0.284   3.134
 9432SOL    HW129195   5.976   0.226   3.206
 9432SOL    HW229196   5.963   0.248   3.045
 9433SOL     OW29197   3.509   4.833   5.227
 9433SOL    HW129198   3.419   4.857   5.191
 9433SOL    HW229199   3.578   4.895   5.189
 9434SOL     OW29200   5.801   4.044   2.956
 9434SOL    HW129201   5.878   4.041   2.893
 9434SOL    HW229202   5.717   4.061   2.906
 9435SOL     OW29203   1.675   1.569   4.088
 9435SOL    HW129204   1.655   1.658   4.130
 9435SOL    HW229205   1.772   1.566   4.064
 9436SOL     OW29206   2.051   4.208   0.526
 9436SOL    HW129207   2.090   4.290   0.570
 9436SOL    HW229208   2.125   4.144   0.506
 9437SOL     OW29209   1.389   5.020   3.194
 9437SOL    HW129210   1.360   5.116   3.189
 9437SOL    HW229211   1.363   4.982   3.282
 9438SOL     OW29212   0.738   6.701   2.209
 9438SOL    HW129213   0.647   6.738   2.190
 9438SOL    HW229214   0.784   6.759   2.277
 9439SOL     OW29215   0.167   3.553   2.079
 9439SOL    HW129216   0.183   3.637   2.131
 9439SOL    HW229217   0.127   3.483   2.138
 9440SOL     OW29218   5.222   6.544   5.242
 9440SOL    HW129219   5.135   6.538   5.194
 9440SOL    HW229220   5.265   6.454   5.244
 9441SOL     OW29221   1.859   4.933   4.717
 9441SOL    HW129222   1.866   4.854   4.656
 9441SOL    HW229223   1.933   4.930   4.785
 9442SOL     OW29224   6.953   2.404   0.272
 9442SOL    HW129225   6.950   2.352   0.187
 9442SOL    HW229226   7.005   2.352   0.340
 9443SOL     OW29227   1.853   4.590   0.862
 9443SOL    HW129228   1.953   4.590   0.871
 9443SOL    HW229229   1.812   4.624   0.947
 9444SOL     OW29230   0.327   2.972   0.197
 9444SOL    HW129231   0.236   2.970   0.156
 9444SOL    HW229232   0.333   2.900   0.266
 9445SOL     OW29233   5.195   3.710   2.532
 9445SOL    HW129234   5.156   3.620   2.552
 9445SOL    HW229235   5.295   3.705   2.539
 9446SOL     OW29236   6.189   6.307   2.263
 9446SOL    HW129237   6.168   6.342   2.172
 9446SOL    HW229238   6.224   6.213   2.256
 9447SOL     OW29239   5.047   3.739   2.311
 9447SOL    HW129240   5.032   3.648   2.273
 9447SOL    HW229241   5.107   3.734   2.390
 9448SOL     OW29242   5.932   6.391   6.520
 9448SOL    HW129243   5.904   6.477   6.476
 9448SOL    HW229244   5.908   6.395   6.617
 9449SOL     OW29245   5.921   5.625   5.534
 9449SOL    HW129246   5.881   5.560   5.470
 9449SOL    HW229247   5.946   5.708   5.485
 9450SOL     OW29248   2.419   5.203   4.264
 9450SOL    HW129249   2.467   5.263   4.329
 9450SOL    HW229250   2.340   5.162   4.310
 9451SOL     OW29251   4.809   5.522   6.713
 9451SOL    HW129252   4.746   5.505   6.789
 9451SOL    HW229253   4.894   5.473   6.730
 9452SOL     OW29254   2.515   3.753   1.053
 9452SOL    HW129255   2.515   3.655   1.073
 9452SOL    HW229256   2.558   3.802   1.129
 9453SOL     OW29257   1.861   5.277   2.958
 9453SOL    HW129258   1.940   5.334   2.938
 9453SOL    HW229259   1.857   5.201   2.893
 9454SOL     OW29260   1.399   4.142   6.266
 9454SOL    HW129261   1.312   4.109   6.305
 9454SOL    HW229262   1.447   4.197   6.334
 9455SOL     OW29263   3.104   1.307   2.836
 9455SOL    HW129264   3.058   1.257   2.909
 9455SOL    HW229265   3.041   1.319   2.759
 9456SOL     OW29266   0.989   3.789   1.283
 9456SOL    HW129267   1.001   3.691   1.297
 9456SOL    HW229268   0.990   3.809   1.185
 9457SOL     OW29269   1.669   3.324   6.857
 9457SOL    HW129270   1.746   3.330   6.793
 9457SOL    HW229271   1.605   3.399   6.838
 9458SOL     OW29272   6.668   5.008   6.057
 9458SOL    HW129273   6.595   5.012   5.988
 9458SOL    HW229274   6.750   5.051   6.020
 9459SOL     OW29275   6.138   5.350   1.663
 9459SOL    HW129276   6.135   5.296   1.579
 9459SOL    HW229277   6.069   5.422   1.660
 9460SOL     OW29278   0.591   2.309   5.045
 9460SOL    HW129279   0.582   2.295   4.946
 9460SOL    HW229280   0.682   2.278   5.074
 9461SOL     OW29281   0.631   1.090   3.328
 9461SOL    HW129282   0.659   1.084   3.424
 9461SOL    HW229283   0.551   1.032   3.314
 9462SOL     OW29284   1.280   3.175   3.018
 9462SOL    HW129285   1.241   3.181   2.926
 9462SOL    HW229286   1.231   3.107   3.071
 9463SOL     OW29287   6.835   0.956   0.516
 9463SOL    HW129288   6.920   0.994   0.553
 9463SOL    HW229289   6.758   1.013   0.545
 9464SOL     OW29290   6.086   6.653   6.589
 9464SOL    HW129291   6.022   6.682   6.660
 9464SOL    HW229292   6.178   6.689   6.611
 9465SOL     OW29293   6.716   0.696   3.250
 9465SOL    HW129294   6.708   0.597   3.234
 9465SOL    HW229295   6.803   0.716   3.295
 9466SOL     OW29296   2.649   2.938   6.076
 9466SOL    HW129297   2.720   2.953   6.007
 9466SOL    HW229298   2.634   2.840   6.088
 9467SOL     OW29299   1.782   2.603   2.030
 9467SOL    HW129300   1.842   2.579   2.106
 9467SOL    HW229301   1.751   2.698   2.042
 9468SOL     OW29302   6.318   3.000   6.118
 9468SOL    HW129303   6.383   3.000   6.194
 9468SOL    HW229304   6.278   3.091   6.108
 9469SOL     OW29305   6.180   5.825   2.233
 9469SOL    HW129306   6.235   5.825   2.316
 9469SOL    HW229307   6.096   5.771   2.248
 9470SOL     OW29308   4.990   3.560   0.253
 9470SOL    HW129309   5.089   3.567   0.243
 9470SOL    HW229310   4.946   3.634   0.203
 9471SOL     OW29311   6.699   2.717   5.939
 9471SOL    HW129312   6.644   2.800   5.931
 9471SOL    HW229313   6.781   2.726   5.883
 9472SOL     OW29314   6.089   4.451   4.366
 9472SOL    HW129315   6.011   4.397   4.334
 9472SOL    HW229316   6.129   4.501   4.289
 9473SOL     OW29317   3.394   6.253   6.347
 9473SOL    HW129318   3.356   6.161   6.345
 9473SOL    HW229319   3.352   6.309   6.275
 9474SOL     OW29320   5.303   4.716   2.115
 9474SOL    HW129321   5.392   4.754   2.088
 9474SOL    HW229322   5.234   4.741   2.047
 9475SOL     OW29323   3.203   3.429   1.102
 9475SOL    HW129324   3.190   3.487   1.182
 9475SOL    HW229325   3.283   3.370   1.116
 9476SOL     OW29326   4.230   3.381   5.452
 9476SOL    HW129327   4.268   3.317   5.519
 9476SOL    HW229328   4.259   3.474   5.475
 9477SOL     OW29329   1.401   2.360   0.990
 9477SOL    HW129330   1.477   2.368   0.925
 9477SOL    HW229331   1.380   2.264   1.005
 9478SOL     OW29332   5.202   4.110   5.320
 9478SOL    HW129333   5.145   4.131   5.241
 9478SOL    HW229334   5.296   4.141   5.303
 9479SOL     OW29335   5.849   5.200   6.609
 9479SOL    HW129336   5.853   5.267   6.684
 9479SOL    HW229337   5.815   5.113   6.645
 9480SOL     OW29338   4.810   4.396   6.737
 9480SOL    HW129339   4.885   4.361   6.792
 9480SOL    HW229340   4.796   4.336   6.658
 9481SOL     OW29341   0.013   4.124   1.862
 9481SOL    HW129342   0.106   4.160   1.860
 9481SOL    HW229343   6.996   4.120   1.769
 9482SOL     OW29344   4.911   0.790   2.797
 9482SOL    HW129345   4.916   0.889   2.807
 9482SOL    HW229346   4.895   0.748   2.886
 9483SOL     OW29347   1.692   1.799   1.277
 9483SOL    HW129348   1.618   1.858   1.245
 9483SOL    HW229349   1.779   1.847   1.268
 9484SOL     OW29350   6.123   1.049   3.630
 9484SOL    HW129351   6.025   1.067   3.623
 9484SOL    HW229352   6.169   1.087   3.549
 9485SOL     OW29353   0.907   1.182   2.038
 9485SOL    HW129354   0.979   1.139   2.092
 9485SOL    HW229355   0.821   1.133   2.053
 9486SOL     OW29356   2.564   5.707   0.576
 9486SOL    HW129357   2.513   5.781   0.533
 9486SOL    HW229358   2.574   5.726   0.674
 9487SOL     OW29359   3.464   4.101   3.650
 9487SOL    HW129360   3.523   4.115   3.730
 9487SOL    HW229361   3.406   4.021   3.664
 9488SOL     OW29362   1.867   6.009   1.111
 9488SOL    HW129363   1.844   5.960   1.027
 9488SOL    HW229364   1.796   5.992   1.180
 9489SOL     OW29365   4.211   4.779   1.556
 9489SOL    HW129366   4.261   4.773   1.470
 9489SOL    HW229367   4.163   4.693   1.573
 9490SOL     OW29368   5.242   0.897   0.773
 9490SOL    HW129369   5.146   0.871   0.780
 9490SOL    HW229370   5.291   0.866   0.854
 9491SOL     OW29371   6.191   5.009   3.882
 9491SOL    HW129372   6.134   4.943   3.832
 9491SOL    HW229373   6.133   5.071   3.934
 9492SOL     OW29374   3.241   3.879   2.043
 9492SOL    HW129375   3.154   3.911   2.006
 9492SOL    HW229376   3.316   3.928   1.999
 9493SOL     OW29377   4.799   5.626   2.996
 9493SOL    HW129378   4.832   5.624   2.902
 9493SOL    HW229379   4.866   5.673   3.054
 9494SOL     OW29380   5.326   3.356   0.271
 9494SOL    HW129381   5.252   3.319   0.326
 9494SOL    HW229382   5.319   3.456   0.270
 9495SOL     OW29383   6.530   2.193   4.227
 9495SOL    HW129384   6.502   2.112   4.176
 9495SOL    HW229385   6.509   2.182   4.324
 9496SOL     OW29386   5.378   4.103   6.908
 9496SOL    HW129387   5.356   4.167   6.834
 9496SOL    HW229388   5.427   4.150   6.981
 9497SOL     OW29389   5.140   4.815   0.919
 9497SOL    HW129390   5.238   4.821   0.937
 9497SOL    HW229391   5.096   4.764   0.994
 9498SOL     OW29392   3.617   0.059   5.326
 9498SOL    HW129393   3.603   0.034   5.231
 9498SOL    HW229394   3.691   0.004   5.365
 9499SOL     OW29395   2.836   3.688   5.295
 9499SOL    HW129396   2.804   3.593   5.296
 9499SOL    HW229397   2.757   3.749   5.295
 9500SOL     OW29398   4.506   6.201   1.322
 9500SOL    HW129399   4.503   6.286   1.375
 9500SOL    HW229400   4.590   6.151   1.345
 9501SOL     OW29401   3.625   1.761   4.217
 9501SOL    HW129402   3.689   1.832   4.248
 9501SOL    HW229403   3.537   1.803   4.195
 9502SOL     OW29404   6.388   2.748   4.919
 9502SOL    HW129405   6.344   2.715   5.002
 9502SOL    HW229406   6.384   2.848   4.916
 9503SOL     OW29407   0.458   0.356   1.925
 9503SOL    HW129408   0.510   0.425   1.976
 9503SOL    HW229409   0.362   0.386   1.918
 9504SOL     OW29410   0.343   2.632   0.830
 9504SOL    HW129411   0.427   2.655   0.880
 9504SOL    HW229412   0.264   2.669   0.880
 9505SOL     OW29413   6.125   3.838   3.087
 9505SOL    HW129414   6.083   3.884   3.009
 9505SOL    HW229415   6.129   3.901   3.165
 9506SOL     OW29416   0.099   3.079   6.920
 9506SOL    HW129417   0.089   3.023   7.003
 9506SOL    HW229418   0.021   3.063   6.860
 9507SOL     OW29419   1.440   1.039   3.881
 9507SOL    HW129420   1.384   1.086   3.950
 9507SOL    HW229421   1.407   0.945   3.870
 9508SOL     OW29422   5.571   2.091   0.312
 9508SOL    HW129423   5.568   2.012   0.251
 9508SOL    HW229424   5.560   2.060   0.406
 9509SOL     OW29425   1.575   6.769   5.218
 9509SOL    HW129426   1.566   6.782   5.119
 9509SOL    HW229427   1.578   6.671   5.239
 9510SOL     OW29428   6.854   4.209   2.393
 9510SOL    HW129429   6.951   4.217   2.414
 9510SOL    HW229430   6.801   4.207   2.478
 9511SOL     OW29431   0.384   2.354   0.486
 9511SOL    HW129432   0.442   2.409   0.425
 9511SOL    HW229433   0.325   2.296   0.431
 9512SOL     OW29434   7.016   2.522   3.728
 9512SOL    HW129435   6.959   2.503   3.648
 9512SOL    HW229436   6.957   2.550   3.804
 9513SOL     OW29437   2.131   3.809   3.973
 9513SOL    HW129438   2.034   3.793   3.954
 9513SOL    HW229439   2.155   3.765   4.059
 9514SOL     OW29440   2.274   3.416   6.495
 9514SOL    HW129441   2.281   3.397   6.593
 9514SOL    HW229442   2.366   3.418   6.455
 9515SOL     OW29443   1.302   6.353   6.585
 9515SOL    HW129444   1.374   6.314   6.644
 9515SOL    HW229445   1.213   6.323   6.617
 9516SOL     OW29446   4.965   3.516   3.905
 9516SOL    HW129447   4.891   3.456   3.875
 9516SOL    HW229448   5.020   3.543   3.826
 9517SOL     OW29449   0.964   5.323   1.245
 9517SOL    HW129450   1.043   5.323   1.183
 9517SOL    HW229451   0.892   5.382   1.208
 9518SOL     OW29452   0.602   2.781   5.669
 9518SOL    HW129453   0.662   2.817   5.740
 9518SOL    HW229454   0.655   2.763   5.587
 9519SOL     OW29455   3.276   3.060   2.943
 9519SOL    HW129456   3.279   3.016   2.853
 9519SOL    HW229457   3.244   3.154   2.933
 9520SOL     OW29458   6.876   1.252   5.036
 9520SOL    HW129459   6.865   1.180   5.105
 9520SOL    HW229460   6.834   1.223   4.950
 9521SOL     OW29461   3.566   6.248   1.730
 9521SOL    HW129462   3.512   6.209   1.804
 9521SOL    HW229463   3.522   6.227   1.642
 9522SOL     OW29464   4.336   5.292   1.867
 9522SOL    HW129465   4.359   5.346   1.948
 9522SOL    HW229466   4.414   5.292   1.803
 9523SOL     OW29467   2.595   5.069   4.488
 9523SOL    HW129468   2.579   5.039   4.581
 9523SOL    HW229469   2.579   5.168   4.481
 9524SOL     OW29470   1.439   4.221   0.916
 9524SOL    HW129471   1.510   4.152   0.903
 9524SOL    HW229472   1.381   4.195   0.993
 9525SOL     OW29473   1.667   2.216   5.680
 9525SOL    HW129474   1.750   2.269   5.660
 9525SOL    HW229475   1.623   2.254   5.761
 9526SOL     OW29476   5.296   5.071   6.597
 9526SOL    HW129477   5.374   5.133   6.591
 9526SOL    HW229478   5.292   5.030   6.688
 9527SOL     OW29479   3.121   6.787   3.812
 9527SOL    HW129480   3.210   6.743   3.821
 9527SOL    HW229481   3.111   6.858   3.881
 9528SOL     OW29482   6.375   0.965   0.943
 9528SOL    HW129483   6.369   0.948   0.844
 9528SOL    HW229484   6.419   1.053   0.959
 9529SOL     OW29485   6.107   2.586   1.681
 9529SOL    HW129486   6.150   2.674   1.702
 9529SOL    HW229487   6.178   2.516   1.668
 9530SOL     OW29488   1.022   5.558   4.485
 9530SOL    HW129489   1.015   5.461   4.463
 9530SOL    HW229490   1.119   5.584   4.488
 9531SOL     OW29491   4.511   4.644   3.811
 9531SOL    HW129492   4.602   4.663   3.775
 9531SOL    HW229493   4.469   4.728   3.844
 9532SOL     OW29494   6.244   4.885   1.853
 9532SOL    HW129495   6.256   4.963   1.913
 9532SOL    HW229496   6.146   4.873   1.833
 9533SOL     OW29497   1.288   5.672   4.392
 9533SOL    HW129498   1.322   5.659   4.299
 9533SOL    HW229499   1.224   5.749   4.394
 9534SOL     OW29500   6.086   5.140   4.214
 9534SOL    HW129501   6.096   5.077   4.291
 9534SOL    HW229502   6.006   5.198   4.228
 9535SOL     OW29503   1.981   1.573   6.215
 9535SOL    HW129504   1.973   1.531   6.305
 9535SOL    HW229505   1.972   1.503   6.145
 9536SOL     OW29506   3.434   3.383   5.256
 9536SOL    HW129507   3.407   3.370   5.160
 9536SOL    HW229508   3.482   3.470   5.266
 9537SOL     OW29509   1.752   1.744   3.765
 9537SOL    HW129510   1.655   1.721   3.758
 9537SOL    HW229511   1.765   1.813   3.836
 9538SOL     OW29512   3.648   0.760   5.001
 9538SOL    HW129513   3.602   0.843   4.970
 9538SOL    HW229514   3.633   0.748   5.099
 9539SOL     OW29515   3.614   2.843   4.028
 9539SOL    HW129516   3.550   2.920   4.037
 9539SOL    HW229517   3.663   2.831   4.115
 9540SOL     OW29518   4.790   5.088   3.871
 9540SOL    HW129519   4.696   5.123   3.860
 9540SOL    HW229520   4.823   5.110   3.963
 9541SOL     OW29521   1.021   0.639   5.271
 9541SOL    HW129522   0.924   0.625   5.287
 9541SOL    HW229523   1.043   0.736   5.281
 9542SOL     OW29524   5.720   4.629   4.187
 9542SOL    HW129525   5.812   4.638   4.150
 9542SOL    HW229526   5.704   4.701   4.254
 9543SOL     OW29527   3.295   6.876   6.161
 9543SOL    HW129528   3.236   6.957   6.159
 9543SOL    HW229529   3.269   6.818   6.238
 9544SOL     OW29530   4.902   3.856   3.698
 9544SOL    HW129531   4.882   3.807   3.783
 9544SOL    HW229532   4.901   3.954   3.715
 9545SOL     OW29533   0.879   4.748   1.914
 9545SOL    HW129534   0.889   4.815   1.841
 9545SOL    HW229535   0.835   4.666   1.878
 9546SOL     OW29536   3.135   1.248   5.775
 9546SOL    HW129537   3.038   1.242   5.796
 9546SOL    HW229538   3.162   1.344   5.767
 9547SOL     OW29539   3.266   5.714   4.650
 9547SOL    HW129540   3.355   5.683   4.684
 9547SOL    HW229541   3.193   5.672   4.704
 9548SOL     OW29542   0.580   5.207   5.389
 9548SOL    HW129543   0.679   5.208   5.376
 9548SOL    HW229544   0.556   5.258   5.471
 9549SOL     OW29545   4.050   1.382   2.582
 9549SOL    HW129546   4.014   1.360   2.491
 9549SOL    HW229547   4.124   1.449   2.574
 9550SOL     OW29548   5.817   2.676   1.433
 9550SOL    HW129549   5.888   2.745   1.419
 9550SOL    HW229550   5.855   2.600   1.485
 9551SOL     OW29551   5.991   2.513   5.974
 9551SOL    HW129552   5.992   2.523   6.074
 9551SOL    HW229553   5.896   2.506   5.942
 9552SOL     OW29554   2.503   0.755   6.752
 9552SOL    HW129555   2.600   0.780   6.748
 9552SOL    HW229556   2.452   0.804   6.682
 9553SOL     OW29557   5.127   2.379   0.683
 9553SOL    HW129558   5.149   2.468   0.642
 9553SOL    HW229559   5.132   2.385   0.782
 9554SOL     OW29560   2.676   6.470   3.663
 9554SOL    HW129561   2.746   6.542   3.665
 9554SOL    HW229562   2.709   6.390   3.712
 9555SOL     OW29563   6.782   1.530   3.798
 9555SOL    HW129564   6.729   1.447   3.778
 9555SOL    HW229565   6.719   1.607   3.813
 9556SOL     OW29566   1.374   4.581   1.217
 9556SOL    HW129567   1.392   4.553   1.123
 9556SOL    HW229568   1.449   4.640   1.248
 9557SOL     OW29569   4.916   6.970   1.765
 9557SOL    HW129570   4.995   6.957   1.706
 9557SOL    HW229571   4.939   6.944   1.859
 9558SOL     OW29572   6.021   6.151   6.044
 9558SOL    HW129573   5.935   6.106   6.021
 9558SOL    HW229574   6.063   6.106   6.123
 9559SOL     OW29575   1.536   3.573   6.760
 9559SOL    HW129576   1.590   3.654   6.739
 9559SOL    HW229577   1.449   3.576   6.710
 9560SOL     OW29578   3.578   0.746   2.166
 9560SOL    HW129579   3.668   0.768   2.130
 9560SOL    HW229580   3.538   0.829   2.207
 9561SOL     OW29581   0.635   6.873   1.374
 9561SOL    HW129582   0.618   6.841   1.467
 9561SOL    HW229583   0.558   6.930   1.344
 9562SOL     OW29584   3.345   6.008   4.673
 9562SOL    HW129585   3.403   6.024   4.593
 9562SOL    HW229586   3.301   5.918   4.664
 9563SOL     OW29587   0.194   6.635   0.507
 9563SOL    HW129588   0.203   6.731   0.480
 9563SOL    HW229589   0.282   6.601   0.537
 9564SOL     OW29590   1.106   1.199   1.782
 9564SOL    HW129591   1.052   1.146   1.847
 9564SOL    HW229592   1.194   1.155   1.767
 9565SOL     OW29593   2.804   1.486   4.575
 9565SOL    HW129594   2.851   1.557   4.628
 9565SOL    HW229595   2.756   1.528   4.498
 9566SOL     OW29596   2.946   6.229   0.719
 9566SOL    HW129597   2.915   6.184   0.636
 9566SOL    HW229598   2.866   6.258   0.773
 9567SOL     OW29599   6.426   4.348   0.395
 9567SOL    HW129600   6.351   4.325   0.457
 9567SOL    HW229601   6.449   4.269   0.339
 9568SOL     OW29602   3.577   1.577   0.519
 9568SOL    HW129603   3.517   1.533   0.585
 9568SOL    HW229604   3.651   1.515   0.495
 9569SOL     OW29605   6.924   0.856   2.406
 9569SOL    HW129606   6.883   0.848   2.497
 9569SOL    HW229607   6.911   0.949   2.371
 9570SOL     OW29608   0.593   2.716   0.963
 9570SOL    HW129609   0.672   2.655   0.961
 9570SOL    HW229610   0.622   2.807   0.991
 9571SOL     OW29611   2.269   3.012   6.256
 9571SOL    HW129612   2.317   3.037   6.172
 9571SOL    HW229613   2.193   3.075   6.272
 9572SOL     OW29614   2.255   4.245   3.118
 9572SOL    HW129615   2.272   4.342   3.139
 9572SOL    HW229616   2.232   4.236   3.022
 9573SOL     OW29617   6.389   1.146   5.648
 9573SOL    HW129618   6.452   1.168   5.722
 9573SOL    HW229619   6.401   1.050   5.620
 9574SOL     OW29620   3.961   3.011   1.741
 9574SOL    HW129621   3.989   3.097   1.784
 9574SOL    HW229622   3.989   3.010   1.645
 9575SOL     OW29623   5.997   0.394   2.722
 9575SOL    HW129624   5.900   0.395   2.699
 9575SOL    HW229625   6.023   0.302   2.750
 9576SOL     OW29626   1.702   1.716   0.188
 9576SOL    HW129627   1.775   1.755   0.132
 9576SOL    HW229628   1.637   1.788   0.213
 9577SOL     OW29629   6.737   5.625   0.332
 9577SOL    HW129630   6.813   5.582   0.283
 9577SOL    HW229631   6.761   5.719   0.355
 9578SOL     OW29632   1.344   2.805   3.170
 9578SOL    HW129633   1.254   2.781   3.206
 9578SOL    HW229634   1.362   2.752   3.087
 9579SOL     OW29635   5.941   7.016   2.248
 9579SOL    HW129636   6.032   0.039   2.245
 9579SOL    HW229637   5.872   0.065   2.224
 9580SOL     OW29638   4.762   4.183   1.259
 9580SOL    HW129639   4.778   4.116   1.331
 9580SOL    HW229640   4.729   4.268   1.299
 9581SOL     OW29641   0.345   0.652   6.260
 9581SOL    HW129642   0.374   0.746   6.242
 9581SOL    HW229643   0.247   0.650   6.279
 9582SOL     OW29644   3.461   5.633   4.812
 9582SOL    HW129645   3.465   5.611   4.910
 9582SOL    HW229646   3.552   5.658   4.779
 9583SOL     OW29647   3.325   4.676   1.466
 9583SOL    HW129648   3.356   4.752   1.409
 9583SOL    HW229649   3.226   4.667   1.459
 9584SOL     OW29650   1.629   4.656   5.596
 9584SOL    HW129651   1.672   4.585   5.540
 9584SOL    HW229652   1.588   4.613   5.677
 9585SOL     OW29653   5.247   6.762   1.887
 9585SOL    HW129654   5.213   6.785   1.796
 9585SOL    HW229655   5.204   6.677   1.918
 9586SOL     OW29656   4.734   5.485   1.802
 9586SOL    HW129657   4.833   5.480   1.791
 9586SOL    HW229658   4.712   5.558   1.867
 9587SOL     OW29659   1.679   6.094   2.611
 9587SOL    HW129660   1.763   6.093   2.666
 9587SOL    HW229661   1.635   6.183   2.620
 9588SOL     OW29662   6.070   6.100   0.656
 9588SOL    HW129663   6.072   6.006   0.691
 9588SOL    HW229664   6.040   6.162   0.728
 9589SOL     OW29665   1.777   3.810   6.746
 9589SOL    HW129666   1.821   3.753   6.816
 9589SOL    HW229667   1.731   3.887   6.790
 9590SOL     OW29668   6.097   2.143   1.929
 9590SOL    HW129669   6.135   2.095   2.008
 9590SOL    HW229670   6.149   2.119   1.847
 9591SOL     OW29671   3.670   6.697   6.443
 9591SOL    HW129672   3.661   6.661   6.351
 9591SOL    HW229673   3.718   6.631   6.501
 9592SOL     OW29674   3.511   4.801   6.888
 9592SOL    HW129675   3.548   4.810   6.980
 9592SOL    HW229676   3.422   4.845   6.883
 9593SOL     OW29677   1.339   1.882   5.668
 9593SOL    HW129678   1.389   1.806   5.711
 9593SOL    HW229679   1.399   1.928   5.603
 9594SOL     OW29680   3.053   6.363   4.460
 9594SOL    HW129681   3.131   6.393   4.405
 9594SOL    HW229682   2.976   6.343   4.399
 9595SOL     OW29683   0.494   3.471   3.524
 9595SOL    HW129684   0.582   3.517   3.511
 9595SOL    HW229685   0.461   3.439   3.435
 9596SOL     OW29686   0.982   5.570   0.545
 9596SOL    HW129687   1.077   5.544   0.559
 9596SOL    HW229688   0.927   5.489   0.526
 9597SOL     OW29689   0.224   4.330   1.491
 9597SOL    HW129690   0.188   4.266   1.424
 9597SOL    HW229691   0.320   4.309   1.509
 9598SOL     OW29692   2.077   4.037   2.956
 9598SOL    HW129693   2.150   4.016   3.020
 9598SOL    HW229694   1.993   4.058   3.007
 9599SOL     OW29695   3.222   6.803   4.331
 9599SOL    HW129696   3.265   6.776   4.418
 9599SOL    HW229697   3.136   6.753   4.320
 9600SOL     OW29698   2.890   0.309   0.923
 9600SOL    HW129699   2.952   0.261   0.860
 9600SOL    HW229700   2.796   0.289   0.898
 9601SOL     OW29701   5.693   4.207   0.562
 9601SOL    HW129702   5.629   4.169   0.629
 9601SOL    HW229703   5.782   4.218   0.605
 9602SOL     OW29704   5.026   3.861   5.606
 9602SOL    HW129705   5.056   3.953   5.629
 9602SOL    HW229706   4.927   3.859   5.597
 9603SOL     OW29707   5.492   6.829   6.292
 9603SOL    HW129708   5.507   6.883   6.375
 9603SOL    HW229709   5.516   6.883   6.212
 9604SOL     OW29710   5.166   0.147   1.399
 9604SOL    HW129711   5.166   0.058   1.354
 9604SOL    HW229712   5.260   0.173   1.421
 9605SOL     OW29713   0.643   5.657   2.716
 9605SOL    HW129714   0.619   5.655   2.813
 9605SOL    HW229715   0.593   5.586   2.667
 9606SOL     OW29716   1.803   0.725   6.672
 9606SOL    HW129717   1.856   0.660   6.726
 9606SOL    HW229718   1.834   0.723   6.577
 9607SOL     OW29719   2.795   1.266   0.064
 9607SOL    HW129720   2.712   1.318   0.083
 9607SOL    HW229721   2.871   1.328   0.047
 9608SOL     OW29722   6.867   4.912   2.486
 9608SOL    HW129723   6.851   4.941   2.581
 9608SOL    HW229724   6.780   4.902   2.439
 9609SOL     OW29725   3.985   3.430   0.209
 9609SOL    HW129726   4.061   3.368   0.194
 9609SOL    HW229727   4.017   3.525   0.200
 9610SOL     OW29728   1.645   4.642   2.816
 9610SOL    HW129729   1.572   4.623   2.881
 9610SOL    HW229730   1.699   4.719   2.849
 9611SOL     OW29731   1.734   6.550   0.420
 9611SOL    HW129732   1.685   6.480   0.472
 9611SOL    HW229733   1.819   6.511   0.384
 9612SOL     OW29734   0.601   3.495   1.740
 9612SOL    HW129735   0.594   3.426   1.669
 9612SOL    HW229736   0.521   3.491   1.799
 9613SOL     OW29737   5.310   6.415   3.278
 9613SOL    HW129738   5.247   6.353   3.231
 9613SOL    HW229739   5.401   6.374   3.282
 9614SOL     OW29740   3.515   1.771   2.153
 9614SOL    HW129741   3.607   1.744   2.125
 9614SOL    HW229742   3.492   1.727   2.240
 9615SOL     OW29743   2.719   1.377   1.261
 9615SOL    HW129744   2.810   1.411   1.238
 9615SOL    HW229745   2.687   1.422   1.345
 9616SOL     OW29746   3.636   3.617   0.986
 9616SOL    HW129747   3.688   3.541   0.947
 9616SOL    HW229748   3.635   3.693   0.922
 9617SOL     OW29749   1.998   2.875   3.448
 9617SOL    HW129750   2.035   2.810   3.382
 9617SOL    HW229751   1.927   2.930   3.403
 9618SOL     OW29752   2.815   0.047   1.083
 9618SOL    HW129753   2.906   0.066   1.121
 9618SOL    HW229754   2.803   0.098   0.999
 9619SOL     OW29755   2.274   0.505   5.498
 9619SOL    HW129756   2.225   0.421   5.473
 9619SOL    HW229757   2.208   0.576   5.521
 9620SOL     OW29758   4.166   0.113   4.678
 9620SOL    HW129759   4.174   0.212   4.684
 9620SOL    HW229760   4.100   0.089   4.606
 9621SOL     OW29761   1.703   3.372   1.743
 9621SOL    HW129762   1.758   3.388   1.661
 9621SOL    HW229763   1.656   3.284   1.735
 9622SOL     OW29764   6.280   1.472   0.739
 9622SOL    HW129765   6.272   1.372   0.738
 9622SOL    HW229766   6.190   1.513   0.723
 9623SOL     OW29767   2.432   3.095   6.051
 9623SOL    HW129768   2.515   3.041   6.059
 9623SOL    HW229769   2.454   3.192   6.060
 9624SOL     OW29770   5.768   4.080   3.218
 9624SOL    HW129771   5.764   4.060   3.120
 9624SOL    HW229772   5.801   4.174   3.232
 9625SOL     OW29773   5.455   5.387   0.275
 9625SOL    HW129774   5.413   5.338   0.198
 9625SOL    HW229775   5.537   5.338   0.304
 9626SOL     OW29776   4.090   5.010   0.424
 9626SOL    HW129777   4.099   4.944   0.350
 9626SOL    HW229778   4.053   5.096   0.387
 9627SOL     OW29779   0.802   6.442   6.373
 9627SOL    HW129780   0.773   6.420   6.279
 9627SOL    HW229781   0.856   6.366   6.409
 9628SOL     OW29782   5.425   4.802   0.948
 9628SOL    HW129783   5.514   4.779   0.909
 9628SOL    HW229784   5.438   4.865   1.024
 9629SOL     OW29785   2.126   0.610   1.518
 9629SOL    HW129786   2.075   0.649   1.441
 9629SOL    HW229787   2.069   0.543   1.565
 9630SOL     OW29788   6.081   6.356   4.809
 9630SOL    HW129789   6.101   6.344   4.906
 9630SOL    HW229790   5.983   6.348   4.794
 9631SOL     OW29791   6.818   0.225   5.869
 9631SOL    HW129792   6.821   0.199   5.772
 9631SOL    HW229793   6.847   0.147   5.925
 9632SOL     OW29794   1.317   6.624   2.805
 9632SOL    HW129795   1.225   6.585   2.807
 9632SOL    HW229796   1.381   6.559   2.844
 9633SOL     OW29797   5.620   4.876   6.578
 9633SOL    HW129798   5.583   4.926   6.499
 9633SOL    HW229799   5.545   4.844   6.635
 9634SOL     OW29800   1.115   6.807   4.166
 9634SOL    HW129801   1.083   6.767   4.080
 9634SOL    HW229802   1.203   6.851   4.152
 9635SOL     OW29803   2.177   6.115   4.858
 9635SOL    HW129804   2.190   6.200   4.807
 9635SOL    HW229805   2.264   6.065   4.862
 9636SOL     OW29806   4.073   1.495   5.522
 9636SOL    HW129807   4.132   1.490   5.441
 9636SOL    HW229808   4.092   1.418   5.582
 9637SOL     OW29809   2.341   2.324   6.505
 9637SOL    HW129810   2.343   2.423   6.489
 9637SOL    HW229811   2.434   2.290   6.517
 9638SOL     OW29812   6.901   3.996   6.097
 9638SOL    HW129813   6.921   3.899   6.106
 9638SOL    HW229814   6.804   4.012   6.117
 9639SOL     OW29815   3.822   1.766   2.126
 9639SOL    HW129816   3.793   1.693   2.189
 9639SOL    HW229817   3.913   1.797   2.150
 9640SOL     OW29818   2.371   2.579   3.732
 9640SOL    HW129819   2.468   2.562   3.713
 9640SOL    HW229820   2.353   2.678   3.727
 9641SOL     OW29821   4.453   0.228   0.363
 9641SOL    HW129822   4.503   0.288   0.299
 9641SOL    HW229823   4.454   0.269   0.454
 9642SOL     OW29824   2.541   0.157   4.716
 9642SOL    HW129825   2.534   0.217   4.796
 9642SOL    HW229826   2.627   0.175   4.669
 9643SOL     OW29827   5.400   3.845   3.688
 9643SOL    HW129828   5.381   3.889   3.776
 9643SOL    HW229829   5.325   3.863   3.625
 9644SOL     OW29830   1.220   3.248   6.415
 9644SOL    HW129831   1.182   3.310   6.345
 9644SOL    HW229832   1.145   3.207   6.467
 9645SOL     OW29833   2.549   5.126   5.326
 9645SOL    HW129834   2.533   5.028   5.316
 9645SOL    HW229835   2.468   5.168   5.368
 9646SOL     OW29836   3.858   5.168   2.453
 9646SOL    HW129837   3.764   5.135   2.441
 9646SOL    HW229838   3.922   5.100   2.416
 9647SOL     OW29839   6.418   3.477   1.478
 9647SOL    HW129840   6.437   3.380   1.464
 9647SOL    HW229841   6.447   3.529   1.397
 9648SOL     OW29842   3.969   1.708   1.352
 9648SOL    HW129843   3.912   1.787   1.375
 9648SOL    HW229844   3.926   1.657   1.277
 9649SOL     OW29845   2.960   6.882   0.106
 9649SOL    HW129846   3.010   6.805   0.066
 9649SOL    HW229847   3.019   6.930   0.171
 9650SOL     OW29848   0.015   5.013   2.276
 9650SOL    HW129849   0.080   5.071   2.326
 9650SOL    HW229850   6.964   4.980   2.339
 9651SOL     OW29851   0.158   2.247   5.453
 9651SOL    HW129852   0.209   2.259   5.538
 9651SOL    HW229853   0.061   2.265   5.469
 9652SOL     OW29854   0.945   4.880   1.593
 9652SOL    HW129855   0.947   4.976   1.567
 9652SOL    HW229856   0.935   4.823   1.512
 9653SOL     OW29857   4.228   4.795   4.848
 9653SOL    HW129858   4.262   4.705   4.875
 9653SOL    HW229859   4.290   4.865   4.882
 9654SOL     OW29860   2.658   2.279   1.916
 9654SOL    HW129861   2.655   2.185   1.882
 9654SOL    HW229862   2.739   2.292   1.973
 9655SOL     OW29863   0.254   2.096   6.047
 9655SOL    HW129864   0.298   2.072   6.134
 9655SOL    HW229865   0.311   2.162   5.998
 9656SOL     OW29866   2.690   0.602   2.682
 9656SOL    HW129867   2.612   0.625   2.624
 9656SOL    HW229868   2.710   0.505   2.674
 9657SOL     OW29869   5.437   0.810   4.222
 9657SOL    HW129870   5.445   0.714   4.248
 9657SOL    HW229871   5.483   0.867   4.291
 9658SOL     OW29872   6.922   2.754   2.142
 9658SOL    HW129873   6.906   2.852   2.140
 9658SOL    HW229874   6.880   2.715   2.224
 9659SOL     OW29875   6.900   4.045   0.574
 9659SOL    HW129876   6.940   4.011   0.489
 9659SOL    HW229877   6.955   4.015   0.651
 9660SOL     OW29878   0.695   5.852   1.183
 9660SOL    HW129879   0.785   5.823   1.149
 9660SOL    HW229880   0.623   5.803   1.134
 9661SOL     OW29881   4.560   6.626   0.997
 9661SOL    HW129882   4.474   6.672   0.975
 9661SOL    HW229883   4.625   6.642   0.923
 9662SOL     OW29884   6.126   2.556   5.017
 9662SOL    HW129885   6.130   2.655   5.026
 9662SOL    HW229886   6.146   2.514   5.106
 9663SOL     OW29887   1.561   5.263   3.605
 9663SOL    HW129888   1.624   5.338   3.624
 9663SOL    HW229889   1.598   5.206   3.531
 9664SOL     OW29890   4.808   6.887   2.846
 9664SOL    HW129891   4.712   6.866   2.824
 9664SOL    HW229892   4.816   6.984   2.870
 9665SOL     OW29893   5.785   4.774   4.868
 9665SOL    HW129894   5.838   4.702   4.824
 9665SOL    HW229895   5.818   4.786   4.962
 9666SOL     OW29896   5.898   3.653   1.905
 9666SOL    HW129897   5.996   3.667   1.917
 9666SOL    HW229898   5.861   3.723   1.844
 9667SOL     OW29899   3.865   3.741   3.872
 9667SOL    HW129900   3.917   3.823   3.898
 9667SOL    HW229901   3.778   3.769   3.832
 9668SOL     OW29902   0.024   1.176   5.857
 9668SOL    HW129903   0.003   1.274   5.864
 9668SOL    HW229904   0.020   1.148   5.761
 9669SOL     OW29905   0.517   0.581   0.197
 9669SOL    HW129906   0.493   0.666   0.243
 9669SOL    HW229907   0.441   0.551   0.139
 9670SOL     OW29908   4.896   4.571   6.160
 9670SOL    HW129909   4.898   4.615   6.071
 9670SOL    HW229910   4.818   4.605   6.212
 9671SOL     OW29911   6.880   5.650   5.785
 9671SOL    HW129912   6.945   5.725   5.787
 9671SOL    HW229913   6.790   5.684   5.754
 9672SOL     OW29914   1.529   6.453   4.579
 9672SOL    HW129915   1.509   6.397   4.498
 9672SOL    HW229916   1.507   6.401   4.662
 9673SOL     OW29917   3.780   4.113   6.543
 9673SOL    HW129918   3.829   4.163   6.472
 9673SOL    HW229919   3.784   4.164   6.628
 9674SOL     OW29920   3.180   6.146   1.581
 9674SOL    HW129921   3.273   6.174   1.560
 9674SOL    HW229922   3.118   6.183   1.512
 9675SOL     OW29923   6.597   1.126   2.308
 9675SOL    HW129924   6.560   1.095   2.396
 9675SOL    HW229925   6.522   1.148   2.246
 9676SOL     OW29926   0.972   3.278   5.218
 9676SOL    HW129927   0.985   3.321   5.129
 9676SOL    HW229928   0.885   3.229   5.219
 9677SOL     OW29929   2.421   4.156   5.847
 9677SOL    HW129930   2.464   4.094   5.782
 9677SOL    HW229931   2.369   4.226   5.798
 9678SOL     OW29932   4.126   3.421   2.905
 9678SOL    HW129933   4.075   3.364   2.969
 9678SOL    HW229934   4.133   3.514   2.942
 9679SOL     OW29935   1.602   3.132   1.735
 9679SOL    HW129936   1.531   3.131   1.666
 9679SOL    HW229937   1.632   3.038   1.752
 9680SOL     OW29938   5.814   5.764   3.248
 9680SOL    HW129939   5.867   5.724   3.323
 9680SOL    HW229940   5.724   5.721   3.244
 9681SOL     OW29941   2.119   0.606   1.058
 9681SOL    HW129942   2.139   0.617   1.155
 9681SOL    HW229943   2.161   0.681   1.007
 9682SOL     OW29944   5.276   5.049   3.166
 9682SOL    HW129945   5.310   5.121   3.105
 9682SOL    HW229946   5.254   5.087   3.255
 9683SOL     OW29947   3.818   5.022   0.175
 9683SOL    HW129948   3.855   5.104   0.220
 9683SOL    HW229949   3.893   4.961   0.150
 9684SOL     OW29950   0.406   3.859   4.789
 9684SOL    HW129951   0.418   3.819   4.879
 9684SOL    HW229952   0.370   3.790   4.726
 9685SOL     OW29953   2.323   3.044   1.057
 9685SOL    HW129954   2.382   3.116   1.093
 9685SOL    HW229955   2.237   3.084   1.026
 9686SOL     OW29956   6.793   0.835   1.399
 9686SOL    HW129957   6.825   0.775   1.325
 9686SOL    HW229958   6.851   0.916   1.403
 9687SOL     OW29959   2.556   0.759   3.192
 9687SOL    HW129960   2.525   0.699   3.119
 9687SOL    HW229961   2.478   0.803   3.236
 9688SOL     OW29962   0.103   1.960   2.908
 9688SOL    HW129963   0.060   1.875   2.939
 9688SOL    HW229964   0.169   1.991   2.976
 9689SOL     OW29965   2.682   6.306   0.148
 9689SOL    HW129966   2.752   6.244   0.115
 9689SOL    HW229967   2.712   6.401   0.133
 9690SOL     OW29968   6.351   4.709   0.111
 9690SOL    HW129969   6.391   4.723   0.202
 9690SOL    HW229970   6.355   4.794   0.059
 9691SOL     OW29971   2.054   5.482   1.447
 9691SOL    HW129972   2.057   5.392   1.489
 9691SOL    HW229973   2.029   5.550   1.515
 9692SOL     OW29974   2.878   5.152   1.982
 9692SOL    HW129975   2.943   5.172   2.055
 9692SOL    HW229976   2.907   5.198   1.898
 9693SOL     OW29977   6.598   5.571   1.787
 9693SOL    HW129978   6.614   5.481   1.825
 9693SOL    HW229979   6.499   5.588   1.781
 9694SOL     OW29980   1.486   2.332   0.401
 9694SOL    HW129981   1.489   2.398   0.326
 9694SOL    HW229982   1.484   2.381   0.489
 9695SOL     OW29983   6.085   4.024   0.665
 9695SOL    HW129984   6.106   3.930   0.638
 9695SOL    HW229985   6.106   4.037   0.761
 9696SOL     OW29986   3.713   2.905   1.671
 9696SOL    HW129987   3.647   2.884   1.744
 9696SOL    HW229988   3.800   2.931   1.711
 9697SOL     OW29989   0.763   4.971   6.998
 9697SOL    HW129990   0.809   4.883   6.986
 9697SOL    HW229991   0.722   4.974   0.070
 9698SOL     OW29992   6.141   0.807   4.861
 9698SOL    HW129993   6.196   0.836   4.784
 9698SOL    HW229994   6.047   0.790   4.831
 9699SOL     OW29995   0.853   3.385   6.520
 9699SOL    HW129996   0.933   3.331   6.542
 9699SOL    HW229997   0.873   3.482   6.531
 9700SOL     OW29998   3.550   4.868   5.578
 9700SOL    HW129999   3.470   4.813   5.601
 9700SOL    HW230000   3.566   4.866   5.480
 9701SOL     OW30001   3.805   5.342   4.864
 9701SOL    HW130002   3.803   5.421   4.804
 9701SOL    HW230003   3.840   5.368   4.953
 9702SOL     OW30004   5.231   0.885   0.150
 9702SOL    HW130005   5.311   0.938   0.179
 9702SOL    HW230006   5.158   0.948   0.122
 9703SOL     OW30007   3.351   5.882   4.345
 9703SOL    HW130008   3.294   5.946   4.397
 9703SOL    HW230009   3.299   5.799   4.325
 9704SOL     OW30010   3.354   0.047   3.049
 9704SOL    HW130011   3.308   0.118   3.103
 9704SOL    HW230012   3.358   6.982   3.102
 9705SOL     OW30013   3.820   4.749   0.490
 9705SOL    HW130014   3.815   4.834   0.438
 9705SOL    HW230015   3.728   4.721   0.518
 9706SOL     OW30016   6.644   2.764   1.519
 9706SOL    HW130017   6.686   2.768   1.610
 9706SOL    HW230018   6.546   2.750   1.528
 9707SOL     OW30019   1.141   4.132   2.368
 9707SOL    HW130020   1.106   4.067   2.300
 9707SOL    HW230021   1.230   4.101   2.402
 9708SOL     OW30022   1.890   2.236   4.188
 9708SOL    HW130023   1.805   2.200   4.226
 9708SOL    HW230024   1.954   2.161   4.170
 9709SOL     OW30025   0.939   6.350   3.432
 9709SOL    HW130026   0.986   6.339   3.520
 9709SOL    HW230027   0.975   6.284   3.366
 9710SOL     OW30028   0.333   1.073   2.865
 9710SOL    HW130029   0.244   1.100   2.829
 9710SOL    HW230030   0.322   0.999   2.931
 9711SOL     OW30031   1.482   3.013   6.007
 9711SOL    HW130032   1.561   3.049   6.056
 9711SOL    HW230033   1.509   2.933   5.954
 9712SOL     OW30034   5.495   2.215   4.729
 9712SOL    HW130035   5.513   2.140   4.794
 9712SOL    HW230036   5.567   2.284   4.738
 9713SOL     OW30037   0.321   4.814   3.446
 9713SOL    HW130038   0.391   4.874   3.408
 9713SOL    HW230039   0.234   4.864   3.452
 9714SOL     OW30040   2.473   1.518   1.871
 9714SOL    HW130041   2.387   1.553   1.907
 9714SOL    HW230042   2.522   1.470   1.943
 9715SOL     OW30043   5.904   5.466   4.934
 9715SOL    HW130044   5.905   5.424   5.025
 9715SOL    HW230045   5.992   5.510   4.917
 9716SOL     OW30046   4.294   1.910   6.922
 9716SOL    HW130047   4.349   1.971   6.865
 9716SOL    HW230048   4.201   1.904   6.884
 9717SOL     OW30049   5.149   5.831   4.091
 9717SOL    HW130050   5.157   5.794   3.999
 9717SOL    HW230051   5.090   5.911   4.090
 9718SOL     OW30052   3.817   3.458   1.377
 9718SOL    HW130053   3.890   3.517   1.343
 9718SOL    HW230054   3.828   3.446   1.476
 9719SOL     OW30055   0.840   2.278   0.241
 9719SOL    HW130056   0.771   2.207   0.256
 9719SOL    HW230057   0.876   2.309   0.329
 9720SOL     OW30058   0.250   6.105   2.439
 9720SOL    HW130059   0.239   6.183   2.377
 9720SOL    HW230060   0.162   6.081   2.478
 9721SOL     OW30061   0.213   3.907   1.979
 9721SOL    HW130062   0.141   3.871   1.920
 9721SOL    HW230063   0.210   4.007   1.978
 9722SOL     OW30064   0.327   0.939   3.356
 9722SOL    HW130065   0.303   0.848   3.388
 9722SOL    HW230066   0.294   0.951   3.262
 9723SOL     OW30067   0.845   0.252   3.073
 9723SOL    HW130068   0.898   0.251   2.988
 9723SOL    HW230069   0.834   0.158   3.106
 9724SOL     OW30070   2.895   2.560   1.671
 9724SOL    HW130071   2.903   2.660   1.670
 9724SOL    HW230072   2.923   2.525   1.761
 9725SOL     OW30073   4.866   3.452   6.194
 9725SOL    HW130074   4.805   3.482   6.268
 9725SOL    HW230075   4.818   3.457   6.107
 9726SOL     OW30076   5.479   0.055   4.424
 9726SOL    HW130077   5.397   0.040   4.479
 9726SOL    HW230078   5.559   0.054   4.484
 9727SOL     OW30079   1.039   3.082   5.526
 9727SOL    HW130080   1.065   3.115   5.436
 9727SOL    HW230081   0.945   3.046   5.522
 9728SOL     OW30082   1.839   6.267   6.195
 9728SOL    HW130083   1.816   6.355   6.235
 9728SOL    HW230084   1.774   6.246   6.121
 9729SOL     OW30085   1.273   4.575   2.739
 9729SOL    HW130086   1.326   4.519   2.676
 9729SOL    HW230087   1.306   4.562   2.833
 9730SOL     OW30088   0.044   3.264   2.626
 9730SOL    HW130089   0.121   3.318   2.592
 9730SOL    HW230090   7.016   3.315   2.698
 9731SOL     OW30091   4.155   5.090   1.012
 9731SOL    HW130092   4.149   4.991   0.994
 9731SOL    HW230093   4.101   5.112   1.093
 9732SOL     OW30094   0.233   5.734   2.659
 9732SOL    HW130095   0.268   5.695   2.574
 9732SOL    HW230096   0.135   5.751   2.651
 9733SOL     OW30097   5.470   5.141   5.180
 9733SOL    HW130098   5.403   5.072   5.152
 9733SOL    HW230099   5.558   5.121   5.136
 9734SOL     OW30100   5.461   1.819   4.339
 9734SOL    HW130101   5.411   1.874   4.406
 9734SOL    HW230102   5.400   1.794   4.264
 9735SOL     OW30103   2.630   5.190   2.358
 9735SOL    HW130104   2.585   5.101   2.360
 9735SOL    HW230105   2.577   5.253   2.300
 9736SOL     OW30106   5.536   1.073   6.829
 9736SOL    HW130107   5.603   1.135   6.870
 9736SOL    HW230108   5.580   1.024   6.753
 9737SOL     OW30109   4.200   2.276   4.868
 9737SOL    HW130110   4.175   2.340   4.941
 9737SOL    HW230111   4.259   2.204   4.905
 9738SOL     OW30112   1.393   0.902   3.444
 9738SOL    HW130113   1.428   0.817   3.482
 9738SOL    HW230114   1.368   0.888   3.348
 9739SOL     OW30115   6.789   5.079   1.638
 9739SOL    HW130116   6.708   5.022   1.652
 9739SOL    HW230117   6.761   5.175   1.629
 9740SOL     OW30118   6.042   3.953   2.829
 9740SOL    HW130119   6.012   3.869   2.785
 9740SOL    HW230120   6.081   4.015   2.761
 9741SOL     OW30121   4.174   1.629   2.626
 9741SOL    HW130122   4.274   1.625   2.633
 9741SOL    HW230123   4.137   1.675   2.707
 9742SOL     OW30124   5.361   0.785   2.714
 9742SOL    HW130125   5.333   0.778   2.809
 9742SOL    HW230126   5.290   0.831   2.661
 9743SOL     OW30127   1.863   3.173   5.843
 9743SOL    HW130128   1.929   3.197   5.915
 9743SOL    HW230129   1.853   3.073   5.841
 9744SOL     OW30130   1.941   0.636   2.064
 9744SOL    HW130131   1.979   0.676   1.980
 9744SOL    HW230132   1.846   0.665   2.075
 9745SOL     OW30133   0.843   2.243   5.138
 9745SOL    HW130134   0.901   2.301   5.197
 9745SOL    HW230135   0.868   2.257   5.043
 9746SOL     OW30136   5.591   0.817   5.416
 9746SOL    HW130137   5.642   0.733   5.401
 9746SOL    HW230138   5.636   0.893   5.369
 9747SOL     OW30139   1.199   0.328   0.553
 9747SOL    HW130140   1.103   0.315   0.577
 9747SOL    HW230141   1.257   0.288   0.625
 9748SOL     OW30142   1.521   5.901   4.298
 9748SOL    HW130143   1.547   5.983   4.248
 9748SOL    HW230144   1.460   5.926   4.373
 9749SOL     OW30145   1.397   3.343   5.099
 9749SOL    HW130146   1.409   3.337   5.198
 9749SOL    HW230147   1.326   3.278   5.070
 9750SOL     OW30148   5.135   4.798   3.728
 9750SOL    HW130149   5.075   4.852   3.668
 9750SOL    HW230150   5.230   4.816   3.704
 9751SOL     OW30151   1.412   1.913   1.137
 9751SOL    HW130152   1.313   1.917   1.124
 9751SOL    HW230153   1.458   1.954   1.059
 9752SOL     OW30154   4.367   0.643   5.920
 9752SOL    HW130155   4.310   0.692   5.985
 9752SOL    HW230156   4.313   0.569   5.878
 9753SOL     OW30157   6.653   5.651   4.983
 9753SOL    HW130158   6.723   5.580   4.980
 9753SOL    HW230159   6.619   5.667   4.891
 9754SOL     OW30160   1.218   1.572   0.018
 9754SOL    HW130161   1.272   1.648   7.002
 9754SOL    HW230162   1.121   1.598   0.020
 9755SOL     OW30163   4.106   3.412   5.207
 9755SOL    HW130164   4.082   3.321   5.174
 9755SOL    HW230165   4.165   3.404   5.287
 9756SOL     OW30166   6.043   3.245   6.803
 9756SOL    HW130167   6.064   3.205   6.892
 9756SOL    HW230168   6.092   3.332   6.793
 9757SOL     OW30169   5.078   2.385   3.834
 9757SOL    HW130170   5.086   2.354   3.929
 9757SOL    HW230171   4.983   2.410   3.815
 9758SOL     OW30172   2.160   0.122   6.622
 9758SOL    HW130173   2.115   0.112   6.711
 9758SOL    HW230174   2.232   0.192   6.629
 9759SOL     OW30175   2.213   6.289   1.603
 9759SOL    HW130176   2.207   6.198   1.644
 9759SOL    HW230177   2.138   6.302   1.539
 9760SOL     OW30178   5.349   4.894   4.807
 9760SOL    HW130179   5.386   4.832   4.876
 9760SOL    HW230180   5.315   4.977   4.852
 9761SOL     OW30181   5.678   4.580   1.836
 9761SOL    HW130182   5.736   4.581   1.755
 9761SOL    HW230183   5.735   4.564   1.917
 9762SOL     OW30184   2.123   1.677   5.185
 9762SOL    HW130185   2.112   1.725   5.272
 9762SOL    HW230186   2.205   1.710   5.139
 9763SOL     OW30187   3.722   1.096   1.589
 9763SOL    HW130188   3.754   1.165   1.654
 9763SOL    HW230189   3.723   1.135   1.497
 9764SOL     OW30190   1.281   3.259   3.364
 9764SOL    HW130191   1.278   3.169   3.321
 9764SOL    HW230192   1.246   3.327   3.300
 9765SOL     OW30193   6.937   2.470   5.657
 9765SOL    HW130194   6.894   2.518   5.580
 9765SOL    HW230195   6.938   2.372   5.639
 9766SOL     OW30196   3.090   0.850   3.235
 9766SOL    HW130197   3.015   0.856   3.300
 9766SOL    HW230198   3.154   0.779   3.265
 9767SOL     OW30199   5.425   1.033   5.568
 9767SOL    HW130200   5.474   0.960   5.521
 9767SOL    HW230201   5.363   0.993   5.636
 9768SOL     OW30202   4.541   1.899   2.340
 9768SOL    HW130203   4.450   1.858   2.353
 9768SOL    HW230204   4.531   1.997   2.324
 9769SOL     OW30205   1.073   2.337   1.338
 9769SOL    HW130206   1.077   2.424   1.386
 9769SOL    HW230207   1.156   2.284   1.358
 9770SOL     OW30208   5.217   5.403   5.728
 9770SOL    HW130209   5.190   5.407   5.824
 9770SOL    HW230210   5.316   5.413   5.721
 9771SOL     OW30211   4.747   4.913   0.348
 9771SOL    HW130212   4.656   4.876   0.366
 9771SOL    HW230213   4.739   4.995   0.291
 9772SOL     OW30214   6.750   6.713   2.018
 9772SOL    HW130215   6.834   6.759   2.047
 9772SOL    HW230216   6.759   6.686   1.922
 9773SOL     OW30217   5.551   5.659   3.368
 9773SOL    HW130218   5.507   5.571   3.351
 9773SOL    HW230219   5.512   5.701   3.450
 9774SOL     OW30220   5.534   5.297   3.606
 9774SOL    HW130221   5.555   5.323   3.700
 9774SOL    HW230222   5.609   5.325   3.546
 9775SOL     OW30223   1.997   2.690   4.377
 9775SOL    HW130224   2.043   2.723   4.459
 9775SOL    HW230225   1.943   2.764   4.336
 9776SOL     OW30226   6.905   5.494   4.296
 9776SOL    HW130227   6.904   5.576   4.239
 9776SOL    HW230228   6.989   5.491   4.349
 9777SOL     OW30229   5.777   3.977   5.847
 9777SOL    HW130230   5.752   4.034   5.769
 9777SOL    HW230231   5.855   3.920   5.823
 9778SOL     OW30232   4.772   6.489   2.754
 9778SOL    HW130233   4.683   6.530   2.776
 9778SOL    HW230234   4.758   6.404   2.704
 9779SOL     OW30235   3.097   1.379   5.119
 9779SOL    HW130236   3.166   1.448   5.097
 9779SOL    HW230237   3.012   1.400   5.070
 9780SOL     OW30238   2.288   2.884   0.644
 9780SOL    HW130239   2.319   2.944   0.571
 9780SOL    HW230240   2.366   2.852   0.697
 9781SOL     OW30241   2.596   4.671   5.137
 9781SOL    HW130242   2.603   4.649   5.039
 9781SOL    HW230243   2.687   4.668   5.178
 9782SOL     OW30244   6.198   0.315   1.232
 9782SOL    HW130245   6.235   0.307   1.325
 9782SOL    HW230246   6.117   0.258   1.223
 9783SOL     OW30247   6.332   1.421   2.625
 9783SOL    HW130248   6.316   1.322   2.632
 9783SOL    HW230249   6.246   1.467   2.605
 9784SOL     OW30250   4.310   1.491   2.980
 9784SOL    HW130251   4.246   1.424   2.942
 9784SOL    HW230252   4.262   1.549   3.046
 9785SOL     OW30253   6.885   2.503   2.695
 9785SOL    HW130254   6.840   2.548   2.773
 9785SOL    HW230255   6.920   2.414   2.723
 9786SOL     OW30256   2.263   5.433   5.818
 9786SOL    HW130257   2.343   5.458   5.764
 9786SOL    HW230258   2.285   5.437   5.915
 9787SOL     OW30259   4.838   3.831   1.824
 9787SOL    HW130260   4.887   3.855   1.907
 9787SOL    HW230261   4.828   3.732   1.817
 9788SOL     OW30262   6.615   0.588   4.099
 9788SOL    HW130263   6.619   0.498   4.142
 9788SOL    HW230264   6.639   0.579   4.002
 9789SOL     OW30265   2.408   5.976   4.745
 9789SOL    HW130266   2.447   5.891   4.709
 9789SOL    HW230267   2.481   6.044   4.755
 9790SOL     OW30268   6.003   1.692   4.096
 9790SOL    HW130269   5.966   1.767   4.151
 9790SOL    HW230270   6.048   1.729   4.015
 9791SOL     OW30271   1.263   1.202   1.311
 9791SOL    HW130272   1.268   1.271   1.382
 9791SOL    HW230273   1.289   1.113   1.348
 9792SOL     OW30274   4.533   4.780   1.033
 9792SOL    HW130275   4.523   4.730   1.120
 9792SOL    HW230276   4.545   4.715   0.959
 9793SOL     OW30277   5.804   5.869   2.366
 9793SOL    HW130278   5.775   5.920   2.446
 9793SOL    HW230279   5.724   5.845   2.311
 9794SOL     OW30280   5.372   3.326   5.957
 9794SOL    HW130281   5.369   3.392   5.882
 9794SOL    HW230282   5.284   3.278   5.962
 9795SOL     OW30283   1.855   3.491   4.205
 9795SOL    HW130284   1.876   3.401   4.242
 9795SOL    HW230285   1.939   3.537   4.177
 9796SOL     OW30286   3.198   5.311   0.405
 9796SOL    HW130287   3.210   5.217   0.437
 9796SOL    HW230288   3.164   5.311   0.311
 9797SOL     OW30289   4.804   3.550   6.703
 9797SOL    HW130290   4.895   3.554   6.661
 9797SOL    HW230291   4.751   3.478   6.659
 9798SOL     OW30292   2.879   0.575   1.038
 9798SOL    HW130293   2.818   0.555   1.115
 9798SOL    HW230294   2.893   0.492   0.984
 9799SOL     OW30295   3.043   3.143   2.692
 9799SOL    HW130296   3.036   3.094   2.606
 9799SOL    HW230297   3.024   3.081   2.768
 9800SOL     OW30298   4.627   5.493   6.915
 9800SOL    HW130299   4.550   5.435   6.943
 9800SOL    HW230300   4.596   5.588   6.908
 9801SOL     OW30301   4.414   5.815   6.683
 9801SOL    HW130302   4.322   5.841   6.655
 9801SOL    HW230303   4.474   5.811   6.602
 9802SOL     OW30304   0.599   3.259   1.159
 9802SOL    HW130305   0.561   3.325   1.094
 9802SOL    HW230306   0.698   3.275   1.168
 9803SOL     OW30307   6.404   0.085   6.629
 9803SOL    HW130308   6.367   0.063   6.719
 9803SOL    HW230309   6.492   0.040   6.617
 9804SOL     OW30310   6.414   5.349   3.975
 9804SOL    HW130311   6.447   5.271   3.923
 9804SOL    HW230312   6.371   5.318   4.060
 9805SOL     OW30313   1.541   5.591   6.812
 9805SOL    HW130314   1.510   5.625   6.724
 9805SOL    HW230315   1.633   5.552   6.802
 9806SOL     OW30316   0.055   2.932   1.833
 9806SOL    HW130317   7.000   2.870   1.858
 9806SOL    HW230318   0.131   2.920   1.897
 9807SOL     OW30319   4.104   2.081   0.494
 9807SOL    HW130320   4.060   2.005   0.447
 9807SOL    HW230321   4.196   2.055   0.523
 9808SOL     OW30322   6.847   1.985   4.655
 9808SOL    HW130323   6.800   1.943   4.732
 9808SOL    HW230324   6.919   1.925   4.622
 9809SOL     OW30325   0.053   1.548   4.256
 9809SOL    HW130326   0.123   1.527   4.325
 9809SOL    HW230327   0.004   1.631   4.283
 9810SOL     OW30328   2.528   1.362   3.392
 9810SOL    HW130329   2.508   1.410   3.306
 9810SOL    HW230330   2.577   1.422   3.454
 9811SOL     OW30331   6.715   6.287   2.700
 9811SOL    HW130332   6.733   6.216   2.769
 9811SOL    HW230333   6.635   6.340   2.727
 9812SOL     OW30334   5.000   2.439   5.947
 9812SOL    HW130335   5.065   2.470   6.017
 9812SOL    HW230336   4.915   2.409   5.991
 9813SOL     OW30337   6.869   4.833   6.804
 9813SOL    HW130338   6.899   4.929   6.799
 9813SOL    HW230339   6.852   4.809   6.899
 9814SOL     OW30340   6.906   6.654   5.611
 9814SOL    HW130341   6.847   6.709   5.552
 9814SOL    HW230342   6.933   6.708   5.690
 9815SOL     OW30343   6.206   3.471   1.875
 9815SOL    HW130344   6.211   3.497   1.778
 9815SOL    HW230345   6.181   3.374   1.882
 9816SOL     OW30346   6.663   0.049   6.757
 9816SOL    HW130347   6.682   6.971   6.744
 9816SOL    HW230348   6.732   0.103   6.708
 9817SOL     OW30349   3.555   5.830   0.966
 9817SOL    HW130350   3.651   5.859   0.972
 9817SOL    HW230351   3.525   5.799   1.056
 9818SOL     OW30352   0.987   0.253   3.521
 9818SOL    HW130353   0.932   0.318   3.469
 9818SOL    HW230354   1.078   0.246   3.481
 9819SOL     OW30355   6.451   4.266   4.903
 9819SOL    HW130356   6.379   4.266   4.973
 9819SOL    HW230357   6.499   4.179   4.904
 9820SOL     OW30358   3.472   1.788   6.167
 9820SOL    HW130359   3.404   1.842   6.216
 9820SOL    HW230360   3.523   1.846   6.105
 9821SOL     OW30361   4.539   2.479   1.699
 9821SOL    HW130362   4.477   2.505   1.625
 9821SOL    HW230363   4.630   2.460   1.662
 9822SOL     OW30364   3.670   6.246   4.934
 9822SOL    HW130365   3.750   6.233   4.877
 9822SOL    HW230366   3.601   6.177   4.911
 9823SOL     OW30367   1.779   0.524   3.025
 9823SOL    HW130368   1.680   0.531   3.011
 9823SOL    HW230369   1.799   0.440   3.076
 9824SOL     OW30370   1.185   6.253   5.395
 9824SOL    HW130371   1.090   6.238   5.368
 9824SOL    HW230372   1.191   6.334   5.454
 9825SOL     OW30373   5.017   6.061   6.225
 9825SOL    HW130374   5.112   6.082   6.204
 9825SOL    HW230375   4.971   6.024   6.144
 9826SOL     OW30376   2.556   6.223   5.546
 9826SOL    HW130377   2.529   6.176   5.630
 9826SOL    HW230378   2.541   6.163   5.467
 9827SOL     OW30379   1.515   5.509   2.067
 9827SOL    HW130380   1.579   5.496   1.992
 9827SOL    HW230381   1.543   5.453   2.145
 9828SOL     OW30382   3.610   2.034   5.031
 9828SOL    HW130383   3.557   1.956   4.998
 9828SOL    HW230384   3.552   2.092   5.088
 9829SOL     OW30385   4.780   5.076   5.405
 9829SOL    HW130386   4.704   5.082   5.469
 9829SOL    HW230387   4.848   5.145   5.427
 9830SOL     OW30388   5.874   2.115   2.535
 9830SOL    HW130389   5.947   2.155   2.480
 9830SOL    HW230390   5.850   2.177   2.609
 9831SOL     OW30391   0.686   3.997   1.860
 9831SOL    HW130392   0.615   4.045   1.912
 9831SOL    HW230393   0.659   3.901   1.848
 9832SOL     OW30394   4.454   4.571   4.477
 9832SOL    HW130395   4.402   4.623   4.409
 9832SOL    HW230396   4.550   4.571   4.452
 9833SOL     OW30397   3.349   4.140   4.284
 9833SOL    HW130398   3.345   4.041   4.271
 9833SOL    HW230399   3.349   4.186   4.195
 9834SOL     OW30400   2.278   5.430   5.353
 9834SOL    HW130401   2.302   5.431   5.255
 9834SOL    HW230402   2.309   5.345   5.394
 9835SOL     OW30403   3.612   4.203   4.758
 9835SOL    HW130404   3.583   4.156   4.675
 9835SOL    HW230405   3.647   4.293   4.735
 9836SOL     OW30406   0.534   3.646   5.280
 9836SOL    HW130407   0.470   3.569   5.280
 9836SOL    HW230408   0.519   3.702   5.361
 9837SOL     OW30409   4.844   2.252   2.065
 9837SOL    HW130410   4.878   2.217   2.152
 9837SOL    HW230411   4.891   2.206   1.989
 9838SOL     OW30412   0.624   6.490   1.720
 9838SOL    HW130413   0.714   6.501   1.678
 9838SOL    HW230414   0.619   6.545   1.803
 9839SOL     OW30415   4.288   0.548   3.108
 9839SOL    HW130416   4.340   0.619   3.061
 9839SOL    HW230417   4.253   0.584   3.195
 9840SOL     OW30418   6.275   0.838   0.108
 9840SOL    HW130419   6.228   0.925   0.092
 9840SOL    HW230420   6.336   0.819   0.031
 9841SOL     OW30421   6.938   6.606   3.954
 9841SOL    HW130422   6.972   6.541   4.022
 9841SOL    HW230423   7.000   6.684   3.948
 9842SOL     OW30424   2.607   1.871   6.379
 9842SOL    HW130425   2.514   1.844   6.401
 9842SOL    HW230426   2.617   1.879   6.279
 9843SOL     OW30427   0.073   6.737   1.430
 9843SOL    HW130428   0.021   6.758   1.347
 9843SOL    HW230429   0.139   6.665   1.411
 9844SOL     OW30430   5.165   0.082   3.929
 9844SOL    HW130431   5.169   0.179   3.951
 9844SOL    HW230432   5.243   0.058   3.872
 9845SOL     OW30433   1.945   3.643   1.493
 9845SOL    HW130434   2.042   3.653   1.473
 9845SOL    HW230435   1.918   3.547   1.482
 9846SOL     OW30436   5.255   1.383   0.655
 9846SOL    HW130437   5.289   1.289   0.650
 9846SOL    HW230438   5.250   1.411   0.751
 9847SOL     OW30439   4.183   4.304   0.767
 9847SOL    HW130440   4.086   4.281   0.766
 9847SOL    HW230441   4.222   4.287   0.677
 9848SOL     OW30442   3.357   3.719   5.404
 9848SOL    HW130443   3.290   3.784   5.367
 9848SOL    HW230444   3.408   3.677   5.328
 9849SOL     OW30445   0.834   1.779   4.522
 9849SOL    HW130446   0.839   1.862   4.577
 9849SOL    HW230447   0.739   1.763   4.494
 9850SOL     OW30448   0.545   0.780   4.602
 9850SOL    HW130449   0.451   0.813   4.591
 9850SOL    HW230450   0.579   0.746   4.515
 9851SOL     OW30451   4.017   4.892   4.525
 9851SOL    HW130452   4.108   4.856   4.546
 9851SOL    HW230453   3.990   4.958   4.595
 9852SOL     OW30454   2.081   1.485   0.186
 9852SOL    HW130455   2.140   1.515   0.261
 9852SOL    HW230456   2.001   1.438   0.223
 9853SOL     OW30457   6.579   4.464   3.906
 9853SOL    HW130458   6.538   4.464   3.997
 9853SOL    HW230459   6.573   4.372   3.868
 9854SOL     OW30460   0.821   5.501   6.146
 9854SOL    HW130461   0.855   5.423   6.093
 9854SOL    HW230462   0.767   5.561   6.088
 9855SOL     OW30463   1.663   4.335   1.676
 9855SOL    HW130464   1.723   4.401   1.721
 9855SOL    HW230465   1.590   4.308   1.740
 9856SOL     OW30466   5.532   3.930   3.356
 9856SOL    HW130467   5.449   3.901   3.309
 9856SOL    HW230468   5.591   3.980   3.293
 9857SOL     OW30469   3.927   1.162   4.552
 9857SOL    HW130470   3.955   1.223   4.626
 9857SOL    HW230471   3.828   1.171   4.537
 9858SOL     OW30472   6.355   6.383   2.463
 9858SOL    HW130473   6.328   6.470   2.505
 9858SOL    HW230474   6.291   6.360   2.390
 9859SOL     OW30475   6.549   5.943   3.302
 9859SOL    HW130476   6.527   5.948   3.204
 9859SOL    HW230477   6.532   5.850   3.335
 9860SOL     OW30478   1.547   3.254   4.467
 9860SOL    HW130479   1.578   3.300   4.550
 9860SOL    HW230480   1.447   3.251   4.465
 9861SOL     OW30481   3.806   1.295   4.840
 9861SOL    HW130482   3.892   1.248   4.859
 9861SOL    HW230483   3.773   1.339   4.924
 9862SOL     OW30484   1.245   5.497   0.589
 9862SOL    HW130485   1.323   5.434   0.588
 9862SOL    HW230486   1.278   5.591   0.581
 9863SOL     OW30487   3.988   6.467   0.682
 9863SOL    HW130488   3.941   6.448   0.596
 9863SOL    HW230489   3.984   6.565   0.702
 9864SOL     OW30490   2.557   5.799   5.367
 9864SOL    HW130491   2.550   5.754   5.278
 9864SOL    HW230492   2.652   5.827   5.383
 9865SOL     OW30493   0.243   6.148   5.362
 9865SOL    HW130494   0.237   6.053   5.332
 9865SOL    HW230495   0.246   6.208   5.282
 9866SOL     OW30496   6.055   5.472   4.138
 9866SOL    HW130497   6.124   5.544   4.124
 9866SOL    HW230498   6.055   5.444   4.234
 9867SOL     OW30499   4.624   2.236   1.905
 9867SOL    HW130500   4.623   2.309   1.837
 9867SOL    HW230501   4.702   2.248   1.966
 9868SOL     OW30502   1.847   4.515   3.364
 9868SOL    HW130503   1.851   4.537   3.266
 9868SOL    HW230504   1.778   4.572   3.408
 9869SOL     OW30505   6.919   2.509   0.851
 9869SOL    HW130506   6.944   2.502   0.754
 9869SOL    HW230507   6.958   2.433   0.902
 9870SOL     OW30508   2.825   1.128   2.507
 9870SOL    HW130509   2.830   1.148   2.605
 9870SOL    HW230510   2.786   1.037   2.493
 9871SOL     OW30511   0.374   4.189   4.400
 9871SOL    HW130512   0.452   4.235   4.358
 9871SOL    HW230513   0.291   4.208   4.347
 9872SOL     OW30514   1.381   4.823   5.682
 9872SOL    HW130515   1.428   4.751   5.732
 9872SOL    HW230516   1.430   4.841   5.596
 9873SOL     OW30517   1.705   1.342   5.618
 9873SOL    HW130518   1.782   1.340   5.682
 9873SOL    HW230519   1.734   1.384   5.532
 9874SOL     OW30520   0.704   2.840   4.630
 9874SOL    HW130521   0.612   2.865   4.659
 9874SOL    HW230522   0.754   2.800   4.706
 9875SOL     OW30523   6.612   5.247   0.791
 9875SOL    HW130524   6.536   5.311   0.798
 9875SOL    HW230525   6.697   5.294   0.813
 9876SOL     OW30526   1.743   6.694   3.715
 9876SOL    HW130527   1.705   6.699   3.623
 9876SOL    HW230528   1.687   6.747   3.778
 9877SOL     OW30529   0.805   5.520   5.506
 9877SOL    HW130530   0.875   5.460   5.466
 9877SOL    HW230531   0.724   5.519   5.447
 9878SOL     OW30532   2.172   2.871   0.064
 9878SOL    HW130533   2.107   2.871   0.140
 9878SOL    HW230534   2.126   2.902   7.001
 9879SOL     OW30535   0.522   5.337   6.292
 9879SOL    HW130536   0.530   5.281   6.209
 9879SOL    HW230537   0.499   5.431   6.267
 9880SOL     OW30538   2.752   1.592   0.164
 9880SOL    HW130539   2.749   1.630   0.256
 9880SOL    HW230540   2.671   1.535   0.149
 9881SOL     OW30541   5.632   0.285   4.312
 9881SOL    HW130542   5.682   0.259   4.394
 9881SOL    HW230543   5.685   0.354   4.262
 9882SOL     OW30544   3.660   3.431   4.934
 9882SOL    HW130545   3.601   3.503   4.899
 9882SOL    HW230546   3.622   3.342   4.909
 9883SOL     OW30547   2.199   6.821   1.735
 9883SOL    HW130548   2.163   6.898   1.787
 9883SOL    HW230549   2.280   6.784   1.781
 9884SOL     OW30550   2.303   3.832   5.729
 9884SOL    HW130551   2.221   3.851   5.676
 9884SOL    HW230552   2.325   3.911   5.787
 9885SOL     OW30553   6.132   3.253   4.346
 9885SOL    HW130554   6.208   3.298   4.393
 9885SOL    HW230555   6.067   3.219   4.414
 9886SOL     OW30556   4.550   5.890   1.472
 9886SOL    HW130557   4.618   5.898   1.546
 9886SOL    HW230558   4.479   5.960   1.485
 9887SOL     OW30559   3.580   0.441   6.758
 9887SOL    HW130560   3.627   0.371   6.704
 9887SOL    HW230561   3.616   0.531   6.736
 9888SOL     OW30562   6.121   5.249   2.540
 9888SOL    HW130563   6.116   5.164   2.593
 9888SOL    HW230564   6.030   5.292   2.538
 9889SOL     OW30565   6.849   5.226   3.690
 9889SOL    HW130566   6.760   5.263   3.715
 9889SOL    HW230567   6.920   5.277   3.739
 9890SOL     OW30568   6.624   4.215   2.073
 9890SOL    HW130569   6.609   4.150   2.147
 9890SOL    HW230570   6.618   4.168   1.985
 9891SOL     OW30571   6.079   4.417   0.877
 9891SOL    HW130572   6.036   4.366   0.803
 9891SOL    HW230573   6.023   4.409   0.960
 9892SOL     OW30574   2.501   5.086   4.033
 9892SOL    HW130575   2.427   5.117   4.093
 9892SOL    HW230576   2.564   5.028   4.085
 9893SOL     OW30577   5.033   5.416   3.499
 9893SOL    HW130578   4.974   5.346   3.538
 9893SOL    HW230579   4.978   5.478   3.441
 9894SOL     OW30580   4.105   3.039   5.898
 9894SOL    HW130581   4.014   3.081   5.887
 9894SOL    HW230582   4.172   3.110   5.919
 9895SOL     OW30583   5.723   2.209   6.928
 9895SOL    HW130584   5.745   2.277   6.999
 9895SOL    HW230585   5.801   2.149   6.914
 9896SOL     OW30586   4.258   4.068   0.883
 9896SOL    HW130587   4.249   4.159   0.842
 9896SOL    HW230588   4.343   4.064   0.936
 9897SOL     OW30589   5.921   2.113   3.609
 9897SOL    HW130590   6.006   2.151   3.646
 9897SOL    HW230591   5.852   2.184   3.604
 9898SOL     OW30592   1.459   4.739   5.352
 9898SOL    HW130593   1.390   4.690   5.299
 9898SOL    HW230594   1.483   4.685   5.433
 9899SOL     OW30595   5.038   5.349   1.603
 9899SOL    HW130596   5.043   5.421   1.672
 9899SOL    HW230597   4.944   5.340   1.570
 9900SOL     OW30598   1.716   2.828   3.755
 9900SOL    HW130599   1.672   2.917   3.764
 9900SOL    HW230600   1.814   2.841   3.738
 9901SOL     OW30601   3.186   2.704   5.466
 9901SOL    HW130602   3.097   2.676   5.430
 9901SOL    HW230603   3.212   2.643   5.541
 9902SOL     OW30604   4.209   3.288   0.172
 9902SOL    HW130605   4.286   3.339   0.133
 9902SOL    HW230606   4.240   3.196   0.198
 9903SOL     OW30607   3.871   1.982   1.870
 9903SOL    HW130608   3.794   2.026   1.824
 9903SOL    HW230609   3.865   1.998   1.968
 9904SOL     OW30610   6.509   1.111   1.301
 9904SOL    HW130611   6.441   1.038   1.290
 9904SOL    HW230612   6.511   1.167   1.219
 9905SOL     OW30613   1.634   6.812   4.951
 9905SOL    HW130614   1.645   6.904   4.913
 9905SOL    HW230615   1.541   6.780   4.936
 9906SOL     OW30616   2.699   3.156   6.294
 9906SOL    HW130617   2.683   3.084   6.226
 9906SOL    HW230618   2.685   3.245   6.252
 9907SOL     OW30619   2.710   6.399   2.670
 9907SOL    HW130620   2.619   6.361   2.656
 9907SOL    HW230621   2.755   6.413   2.582
 9908SOL     OW30622   1.177   3.491   5.820
 9908SOL    HW130623   1.143   3.566   5.876
 9908SOL    HW230624   1.100   3.439   5.783
 9909SOL     OW30625   3.738   0.394   2.539
 9909SOL    HW130626   3.643   0.424   2.529
 9909SOL    HW230627   3.743   0.318   2.603
 9910SOL     OW30628   6.785   3.974   1.126
 9910SOL    HW130629   6.698   4.002   1.087
 9910SOL    HW230630   6.776   3.965   1.225
 9911SOL     OW30631   3.394   4.910   3.233
 9911SOL    HW130632   3.363   4.927   3.139
 9911SOL    HW230633   3.315   4.909   3.294
 9912SOL     OW30634   5.164   0.136   1.044
 9912SOL    HW130635   5.127   0.127   0.952
 9912SOL    HW230636   5.250   0.186   1.041
 9913SOL     OW30637   4.757   1.882   2.767
 9913SOL    HW130638   4.766   1.813   2.838
 9913SOL    HW230639   4.722   1.840   2.683
 9914SOL     OW30640   1.598   0.095   4.971
 9914SOL    HW130641   1.682   0.081   5.022
 9914SOL    HW230642   1.619   0.132   4.880
 9915SOL     OW30643   5.503   3.286   4.444
 9915SOL    HW130644   5.579   3.255   4.385
 9915SOL    HW230645   5.473   3.211   4.502
 9916SOL     OW30646   2.203   2.787   2.178
 9916SOL    HW130647   2.255   2.747   2.254
 9916SOL    HW230648   2.263   2.847   2.125
 9917SOL     OW30649   2.623   3.356   6.109
 9917SOL    HW130650   2.566   3.393   6.035
 9917SOL    HW230651   2.717   3.346   6.077
 9918SOL     OW30652   1.907   1.396   5.996
 9918SOL    HW130653   1.992   1.358   5.961
 9918SOL    HW230654   1.837   1.326   5.998
 9919SOL     OW30655   0.933   5.605   2.644
 9919SOL    HW130656   0.980   5.563   2.721
 9919SOL    HW230657   0.839   5.626   2.669
 9920SOL     OW30658   4.244   6.375   1.038
 9920SOL    HW130659   4.318   6.434   1.071
 9920SOL    HW230660   4.280   6.283   1.021
 9921SOL     OW30661   5.393   0.398   3.268
 9921SOL    HW130662   5.426   0.490   3.246
 9921SOL    HW230663   5.470   0.340   3.294
 9922SOL     OW30664   4.288   4.503   0.915
 9922SOL    HW130665   4.234   4.435   0.866
 9922SOL    HW230666   4.283   4.486   1.014
 9923SOL     OW30667   6.474   1.986   6.414
 9923SOL    HW130668   6.544   2.023   6.475
 9923SOL    HW230669   6.384   1.994   6.458
 9924SOL     OW30670   6.791   1.253   3.592
 9924SOL    HW130671   6.875   1.201   3.606
 9924SOL    HW230672   6.788   1.286   3.498
 9925SOL     OW30673   2.451   2.683   5.485
 9925SOL    HW130674   2.519   2.611   5.497
 9925SOL    HW230675   2.395   2.662   5.404
 9926SOL     OW30676   1.436   0.598   0.091
 9926SOL    HW130677   1.469   0.628   0.181
 9926SOL    HW230678   1.375   0.668   0.053
 9927SOL     OW30679   0.540   1.813   2.008
 9927SOL    HW130680   0.525   1.819   2.107
 9927SOL    HW230681   0.634   1.786   1.990
 9928SOL     OW30682   0.004   4.010   2.554
 9928SOL    HW130683   6.953   3.979   2.491
 9928SOL    HW230684   0.025   3.937   2.619
 9929SOL     OW30685   2.717   4.142   0.081
 9929SOL    HW130686   2.650   4.093   0.025
 9929SOL    HW230687   2.761   4.213   0.026
 9930SOL     OW30688   6.930   6.277   6.274
 9930SOL    HW130689   6.959   6.281   6.178
 9930SOL    HW230690   6.934   6.182   6.305
 9931SOL     OW30691   1.670   5.591   5.444
 9931SOL    HW130692   1.756   5.547   5.420
 9931SOL    HW230693   1.646   5.570   5.539
 9932SOL     OW30694   1.164   1.506   0.478
 9932SOL    HW130695   1.243   1.478   0.424
 9932SOL    HW230696   1.148   1.604   0.466
 9933SOL     OW30697   1.491   1.835   3.876
 9933SOL    HW130698   1.512   1.842   3.973
 9933SOL    HW230699   1.479   1.926   3.837
 9934SOL     OW30700   4.363   1.298   6.175
 9934SOL    HW130701   4.414   1.297   6.089
 9934SOL    HW230702   4.269   1.268   6.158
 9935SOL     OW30703   2.771   1.769   0.869
 9935SOL    HW130704   2.824   1.846   0.835
 9935SOL    HW230705   2.783   1.760   0.968
 9936SOL     OW30706   5.902   5.823   6.271
 9936SOL    HW130707   5.994   5.838   6.234
 9936SOL    HW230708   5.851   5.909   6.269
 9937SOL     OW30709   0.545   0.700   3.435
 9937SOL    HW130710   0.515   0.620   3.487
 9937SOL    HW230711   0.466   0.760   3.419
 9938SOL     OW30712   6.468   1.565   4.334
 9938SOL    HW130713   6.378   1.607   4.334
 9938SOL    HW230714   6.458   1.466   4.340
 9939SOL     OW30715   2.614   4.406   1.300
 9939SOL    HW130716   2.570   4.350   1.370
 9939SOL    HW230717   2.709   4.375   1.288
 9940SOL     OW30718   0.116   1.031   3.822
 9940SOL    HW130719   0.083   0.976   3.745
 9940SOL    HW230720   0.042   1.091   3.854
 9941SOL     OW30721   5.100   4.744   6.278
 9941SOL    HW130722   5.060   4.672   6.222
 9941SOL    HW230723   5.099   4.717   6.374
 9942SOL     OW30724   4.761   5.140   3.093
 9942SOL    HW130725   4.733   5.176   3.004
 9942SOL    HW230726   4.856   5.163   3.111
 9943SOL     OW30727   2.663   4.130   6.791
 9943SOL    HW130728   2.618   4.132   6.702
 9943SOL    HW230729   2.707   4.218   6.809
 9944SOL     OW30730   1.100   4.995   0.079
 9944SOL    HW130731   1.134   4.917   0.025
 9944SOL    HW230732   1.060   5.062   0.018
 9945SOL     OW30733   5.843   3.594   6.441
 9945SOL    HW130734   5.767   3.564   6.499
 9945SOL    HW230735   5.896   3.664   6.489
 9946SOL     OW30736   5.602   1.477   2.413
 9946SOL    HW130737   5.506   1.501   2.433
 9946SOL    HW230738   5.656   1.482   2.497
 9947SOL     OW30739   1.317   1.659   3.769
 9947SOL    HW130740   1.371   1.736   3.803
 9947SOL    HW230741   1.223   1.689   3.751
 9948SOL     OW30742   6.115   6.567   4.347
 9948SOL    HW130743   6.093   6.567   4.444
 9948SOL    HW230744   6.096   6.658   4.309
 9949SOL     OW30745   5.710   4.940   3.890
 9949SOL    HW130746   5.796   4.969   3.931
 9949SOL    HW230747   5.650   4.903   3.960
 9950SOL     OW30748   6.367   5.003   5.282
 9950SOL    HW130749   6.385   5.099   5.262
 9950SOL    HW230750   6.445   4.947   5.251
 9951SOL     OW30751   0.784   2.290   1.836
 9951SOL    HW130752   0.825   2.381   1.826
 9951SOL    HW230753   0.698   2.286   1.784
 9952SOL     OW30754   0.730   4.511   1.829
 9952SOL    HW130755   0.637   4.533   1.861
 9952SOL    HW230756   0.740   4.541   1.734
 9953SOL     OW30757   5.858   2.730   3.536
 9953SOL    HW130758   5.956   2.745   3.525
 9953SOL    HW230759   5.821   2.687   3.454
 9954SOL     OW30760   3.478   1.976   5.611
 9954SOL    HW130761   3.402   1.912   5.595
 9954SOL    HW230762   3.561   1.940   5.568
 9955SOL     OW30763   6.064   3.334   0.347
 9955SOL    HW130764   6.106   3.408   0.399
 9955SOL    HW230765   5.998   3.372   0.282
 9956SOL     OW30766   2.199   3.811   3.147
 9956SOL    HW130767   2.190   3.796   3.245
 9956SOL    HW230768   2.175   3.727   3.098
 9957SOL     OW30769   4.935   6.792   0.929
 9957SOL    HW130770   4.985   6.842   0.999
 9957SOL    HW230771   4.911   6.701   0.963
 9958SOL     OW30772   4.835   4.762   6.970
 9958SOL    HW130773   4.813   4.860   6.969
 9958SOL    HW230774   4.774   4.714   0.013
 9959SOL     OW30775   4.452   4.419   0.521
 9959SOL    HW130776   4.422   4.471   0.441
 9959SOL    HW230777   4.476   4.326   0.493
 9960SOL     OW30778   0.693   0.883   6.648
 9960SOL    HW130779   0.715   0.838   6.561
 9960SOL    HW230780   0.711   0.981   6.641
 9961SOL     OW30781   3.044   4.663   1.366
 9961SOL    HW130782   3.036   4.617   1.454
 9961SOL    HW230783   2.994   4.750   1.369
 9962SOL     OW30784   3.318   6.398   1.367
 9962SOL    HW130785   3.374   6.473   1.330
 9962SOL    HW230786   3.230   6.434   1.398
 9963SOL     OW30787   1.253   1.437   6.292
 9963SOL    HW130788   1.161   1.410   6.263
 9963SOL    HW230789   1.320   1.397   6.231
 9964SOL     OW30790   4.742   3.703   5.478
 9964SOL    HW130791   4.789   3.680   5.392
 9964SOL    HW230792   4.727   3.620   5.531
 9965SOL     OW30793   3.088   5.898   4.534
 9965SOL    HW130794   3.020   5.874   4.465
 9965SOL    HW230795   3.135   5.815   4.565
 9966SOL     OW30796   3.888   4.805   2.453
 9966SOL    HW130797   3.964   4.833   2.513
 9966SOL    HW230798   3.801   4.820   2.500
 9967SOL     OW30799   6.701   0.145   3.207
 9967SOL    HW130800   6.768   0.186   3.146
 9967SOL    HW230801   6.645   0.079   3.156
 9968SOL     OW30802   3.652   6.700   0.524
 9968SOL    HW130803   3.629   6.675   0.430
 9968SOL    HW230804   3.623   6.627   0.586
 9969SOL     OW30805   1.529   5.237   3.862
 9969SOL    HW130806   1.623   5.227   3.893
 9969SOL    HW230807   1.528   5.252   3.763
 9970SOL     OW30808   6.162   3.848   1.625
 9970SOL    HW130809   6.065   3.868   1.611
 9970SOL    HW230810   6.213   3.934   1.632
 9971SOL     OW30811   0.638   4.391   2.306
 9971SOL    HW130812   0.544   4.406   2.275
 9971SOL    HW230813   0.638   4.332   2.387
 9972SOL     OW30814   2.793   3.001   0.049
 9972SOL    HW130815   2.835   3.062   0.116
 9972SOL    HW230816   2.698   3.030   0.032
 9973SOL     OW30817   3.538   1.642   3.734
 9973SOL    HW130818   3.559   1.565   3.794
 9973SOL    HW230819   3.452   1.624   3.685
 9974SOL     OW30820   0.900   3.033   2.998
 9974SOL    HW130821   0.818   3.009   3.050
 9974SOL    HW230822   0.978   3.037   3.060
 9975SOL     OW30823   1.604   5.307   6.940
 9975SOL    HW130824   1.693   5.332   6.978
 9975SOL    HW230825   1.568   5.228   6.988
 9976SOL     OW30826   3.015   3.950   6.338
 9976SOL    HW130827   3.037   3.943   6.436
 9976SOL    HW230828   2.995   4.046   6.316
 9977SOL     OW30829   5.276   6.005   5.297
 9977SOL    HW130830   5.182   6.040   5.305
 9977SOL    HW230831   5.284   5.920   5.348
 9978SOL     OW30832   0.902   3.142   6.296
 9978SOL    HW130833   0.927   3.048   6.319
 9978SOL    HW230834   0.817   3.166   6.343
 9979SOL     OW30835   4.418   3.134   5.360
 9979SOL    HW130836   4.375   3.164   5.445
 9979SOL    HW230837   4.465   3.212   5.317
 9980SOL     OW30838   1.645   0.536   0.536
 9980SOL    HW130839   1.657   0.436   0.538
 9980SOL    HW230840   1.549   0.557   0.517
 9981SOL     OW30841   0.754   2.897   1.797
 9981SOL    HW130842   0.810   2.855   1.869
 9981SOL    HW230843   0.809   2.963   1.746
 9982SOL     OW30844   2.215   1.932   5.597
 9982SOL    HW130845   2.292   1.981   5.556
 9982SOL    HW230846   2.147   1.998   5.630
 9983SOL     OW30847   0.355   3.250   1.793
 9983SOL    HW130848   0.355   3.162   1.840
 9983SOL    HW230849   0.444   3.294   1.805
 9984SOL     OW30850   6.527   6.275   0.420
 9984SOL    HW130851   6.519   6.254   0.323
 9984SOL    HW230852   6.452   6.231   0.470
 9985SOL     OW30853   4.269   5.440   0.681
 9985SOL    HW130854   4.262   5.395   0.592
 9985SOL    HW230855   4.188   5.419   0.735
 9986SOL     OW30856   4.779   4.237   0.470
 9986SOL    HW130857   4.857   4.299   0.473
 9986SOL    HW230858   4.717   4.258   0.546
 9987SOL     OW30859   5.714   2.933   1.787
 9987SOL    HW130860   5.682   3.026   1.805
 9987SOL    HW230861   5.686   2.905   1.695
 9988SOL     OW30862   4.970   6.418   4.389
 9988SOL    HW130863   5.050   6.406   4.330
 9988SOL    HW230864   4.999   6.455   4.478
 9989SOL     OW30865   6.212   5.166   1.937
 9989SOL    HW130866   6.208   5.161   1.837
 9989SOL    HW230867   6.250   5.254   1.965
 9990SOL     OW30868   0.422   0.219   3.885
 9990SOL    HW130869   0.335   0.171   3.873
 9990SOL    HW230870   0.458   0.245   3.796
 9991SOL     OW30871   1.840   4.330   4.335
 9991SOL    HW130872   1.783   4.398   4.382
 9991SOL    HW230873   1.917   4.376   4.291
 9992SOL     OW30874   3.308   4.673   0.879
 9992SOL    HW130875   3.268   4.694   0.968
 9992SOL    HW230876   3.359   4.752   0.846
 9993SOL     OW30877   3.820   6.865   4.338
 9993SOL    HW130878   3.849   6.797   4.405
 9993SOL    HW230879   3.848   6.956   4.369
 9994SOL     OW30880   6.432   5.124   4.433
 9994SOL    HW130881   6.436   5.027   4.454
 9994SOL    HW230882   6.375   5.170   4.501
 9995SOL     OW30883   2.904   0.823   5.033
 9995SOL    HW130884   2.973   0.751   5.028
 9995SOL    HW230885   2.895   0.867   4.944
 9996SOL     OW30886   1.793   4.184   0.602
 9996SOL    HW130887   1.821   4.130   0.682
 9996SOL    HW230888   1.872   4.195   0.541
 9997SOL     OW30889   6.290   2.964   4.044
 9997SOL    HW130890   6.365   3.000   4.100
 9997SOL    HW230891   6.218   2.928   4.103
 9998SOL     OW30892   5.194   3.927   2.849
 9998SOL    HW130893   5.227   3.999   2.788
 9998SOL    HW230894   5.096   3.914   2.835
 9999SOL     OW30895   0.293   6.626   4.462
 9999SOL    HW130896   0.225   6.615   4.389
 9999SOL    HW230897   0.306   6.539   4.508
10000SOL     OW30898   5.063   1.871   1.543
10000SOL    HW130899   5.090   1.964   1.519
10000SOL    HW230900   5.048   1.864   1.641
10001SOL     OW30901   3.682   5.968   1.965
10001SOL    HW130902   3.746   6.032   2.006
10001SOL    HW230903   3.596   6.015   1.943
10002SOL     OW30904   2.473   0.801   1.691
10002SOL    HW130905   2.515   0.730   1.634
10002SOL    HW230906   2.544   0.849   1.743
10003SOL     OW30907   1.572   1.181   3.271
10003SOL    HW130908   1.557   1.210   3.365
10003SOL    HW230909   1.629   1.099   3.270
10004SOL     OW30910   6.282   4.844   4.959
10004SOL    HW130911   6.246   4.935   4.983
10004SOL    HW230912   6.360   4.854   4.898
10005SOL     OW30913   2.045   5.961   3.321
10005SOL    HW130914   1.973   6.015   3.278
10005SOL    HW230915   2.023   5.945   3.417
10006SOL     OW30916   5.469   0.320   5.712
10006SOL    HW130917   5.510   0.295   5.800
10006SOL    HW230918   5.399   0.253   5.688
10007SOL     OW30919   1.066   4.980   4.919
10007SOL    HW130920   1.029   5.041   4.989
10007SOL    HW230921   1.166   4.984   4.920
10008SOL     OW30922   4.173   1.992   5.539
10008SOL    HW130923   4.223   1.931   5.601
10008SOL    HW230924   4.165   1.948   5.450
10009SOL     OW30925   1.392   4.471   1.464
10009SOL    HW130926   1.425   4.513   1.379
10009SOL    HW230927   1.292   4.475   1.467
10010SOL     OW30928   2.511   4.953   6.899
10010SOL    HW130929   2.598   4.952   6.948
10010SOL    HW230930   2.518   5.013   6.819
10011SOL     OW30931   0.772   3.493   0.517
10011SOL    HW130932   0.779   3.463   0.612
10011SOL    HW230933   0.678   3.480   0.484
10012SOL     OW30934   4.841   1.184   1.619
10012SOL    HW130935   4.936   1.207   1.599
10012SOL    HW230936   4.816   1.100   1.571
10013SOL     OW30937   1.292   6.076   4.860
10013SOL    HW130938   1.262   6.014   4.787
10013SOL    HW230939   1.350   6.026   4.924
10014SOL     OW30940   0.658   6.835   3.371
10014SOL    HW130941   0.583   6.832   3.437
10014SOL    HW230942   0.716   6.754   3.382
10015SOL     OW30943   3.815   4.548   5.583
10015SOL    HW130944   3.868   4.494   5.518
10015SOL    HW230945   3.811   4.643   5.553
10016SOL     OW30946   1.973   6.848   3.663
10016SOL    HW130947   2.060   6.801   3.644
10016SOL    HW230948   1.900   6.781   3.673
10017SOL     OW30949   2.632   1.903   2.798
10017SOL    HW130950   2.691   1.937   2.724
10017SOL    HW230951   2.574   1.977   2.830
10018SOL     OW30952   6.488   3.365   5.603
10018SOL    HW130953   6.491   3.335   5.698
10018SOL    HW230954   6.547   3.306   5.547
10019SOL     OW30955   0.639   1.640   2.620
10019SOL    HW130956   0.712   1.572   2.622
10019SOL    HW230957   0.675   1.727   2.586
10020SOL     OW30958   6.757   0.568   2.127
10020SOL    HW130959   6.723   0.552   2.219
10020SOL    HW230960   6.684   0.602   2.069
10021SOL     OW30961   1.443   4.047   1.637
10021SOL    HW130962   1.421   4.130   1.687
10021SOL    HW230963   1.507   3.991   1.690
10022SOL     OW30964   3.155   6.598   0.415
10022SOL    HW130965   3.224   6.550   0.469
10022SOL    HW230966   3.095   6.532   0.370
10023SOL     OW30967   2.523   0.017   5.926
10023SOL    HW130968   2.467   0.074   5.986
10023SOL    HW230969   2.494   0.029   5.831
10024SOL     OW30970   1.540   4.658   3.086
10024SOL    HW130971   1.444   4.668   3.110
10024SOL    HW230972   1.593   4.734   3.124
10025SOL     OW30973   1.474   4.219   1.390
10025SOL    HW130974   1.456   4.157   1.467
10025SOL    HW230975   1.458   4.313   1.418
10026SOL     OW30976   4.968   1.352   3.062
10026SOL    HW130977   4.925   1.411   3.129
10026SOL    HW230978   4.903   1.330   2.989
10027SOL     OW30979   1.830   2.001   5.609
10027SOL    HW130980   1.811   1.938   5.684
10027SOL    HW230981   1.772   2.081   5.617
10028SOL     OW30982   4.068   0.338   1.554
10028SOL    HW130983   4.013   0.319   1.473
10028SOL    HW230984   4.162   0.307   1.539
10029SOL     OW30985   0.331   3.317   4.466
10029SOL    HW130986   0.291   3.307   4.557
10029SOL    HW230987   0.261   3.299   4.396
10030SOL     OW30988   2.753   6.601   4.887
10030SOL    HW130989   2.653   6.601   4.889
10030SOL    HW230990   2.785   6.548   4.808
10031SOL     OW30991   3.761   5.266   4.356
10031SOL    HW130992   3.716   5.178   4.346
10031SOL    HW230993   3.788   5.279   4.452
10032SOL     OW30994   3.265   5.905   5.357
10032SOL    HW130995   3.355   5.949   5.356
10032SOL    HW230996   3.275   5.810   5.387
10033SOL     OW30997   3.993   1.826   3.171
10033SOL    HW130998   3.957   1.902   3.225
10033SOL    HW230999   3.918   1.783   3.121
10034SOL     OW31000   2.142   0.606   3.301
10034SOL    HW131001   2.110   0.617   3.206
10034SOL    HW231002   2.178   0.694   3.334
10035SOL     OW31003   6.095   2.932   0.842
10035SOL    HW131004   6.058   2.839   0.838
10035SOL    HW231005   6.032   2.995   0.797
10036SOL     OW31006   6.439   0.670   6.427
10036SOL    HW131007   6.346   0.638   6.442
10036SOL    HW231008   6.504   0.604   6.467
10037SOL     OW31009   6.568   6.847   6.427
10037SOL    HW131010   6.530   6.757   6.450
10037SOL    HW231011   6.646   6.867   6.486
10038SOL     OW31012   4.220   0.200   0.110
10038SOL    HW131013   4.156   0.266   0.071
10038SOL    HW231014   4.314   0.227   0.089
10039SOL     OW31015   5.381   5.150   4.321
10039SOL    HW131016   5.369   5.106   4.232
10039SOL    HW231017   5.411   5.245   4.307
10040SOL     OW31018   3.814   0.284   0.428
10040SOL    HW131019   3.878   0.304   0.502
10040SOL    HW231020   3.725   0.327   0.448
10041SOL     OW31021   6.227   4.840   5.500
10041SOL    HW131022   6.142   4.884   5.528
10041SOL    HW231023   6.277   4.901   5.439
10042SOL     OW31024   0.406   1.174   5.026
10042SOL    HW131025   0.401   1.273   5.012
10042SOL    HW231026   0.461   1.154   5.108
10043SOL     OW31027   1.086   0.764   3.126
10043SOL    HW131028   1.063   0.689   3.065
10043SOL    HW231029   1.035   0.755   3.211
10044SOL     OW31030   1.970   0.806   4.923
10044SOL    HW131031   1.873   0.782   4.930
10044SOL    HW231032   2.025   0.740   4.973
10045SOL     OW31033   4.495   6.754   4.331
10045SOL    HW131034   4.531   6.846   4.342
10045SOL    HW231035   4.571   6.688   4.327
10046SOL     OW31036   0.092   2.253   1.412
10046SOL    HW131037   0.149   2.187   1.363
10046SOL    HW231038   0.028   2.296   1.349
10047SOL     OW31039   6.463   2.222   4.921
10047SOL    HW131040   6.384   2.219   4.982
10047SOL    HW231041   6.433   2.210   4.826
10048SOL     OW31042   3.547   1.344   1.714
10048SOL    HW131043   3.557   1.428   1.768
10048SOL    HW231044   3.618   1.342   1.644
10049SOL     OW31045   1.893   0.406   6.458
10049SOL    HW131046   1.982   0.448   6.436
10049SOL    HW231047   1.897   0.364   6.548
10050SOL     OW31048   5.229   2.785   4.752
10050SOL    HW131049   5.188   2.823   4.669
10050SOL    HW231050   5.222   2.852   4.827
10051SOL     OW31051   6.870   3.094   4.392
10051SOL    HW131052   6.884   3.146   4.308
10051SOL    HW231053   6.955   3.048   4.418
10052SOL     OW31054   1.907   3.744   1.757
10052SOL    HW131055   1.918   3.725   1.660
10052SOL    HW231056   1.811   3.739   1.782
10053SOL     OW31057   3.627   5.135   3.455
10053SOL    HW131058   3.550   5.188   3.419
10053SOL    HW231059   3.675   5.091   3.379
10054SOL     OW31060   4.687   5.609   5.994
10054SOL    HW131061   4.754   5.559   6.049
10054SOL    HW231062   4.641   5.676   6.051
10055SOL     OW31063   6.730   2.518   5.318
10055SOL    HW131064   6.719   2.499   5.415
10055SOL    HW231065   6.666   2.461   5.266
10056SOL     OW31066   6.205   4.681   0.950
10056SOL    HW131067   6.121   4.732   0.933
10056SOL    HW231068   6.195   4.588   0.915
10057SOL     OW31069   3.960   1.846   4.622
10057SOL    HW131070   3.885   1.862   4.558
10057SOL    HW231071   4.004   1.933   4.645
10058SOL     OW31072   6.040   4.796   3.462
10058SOL    HW131073   6.039   4.838   3.553
10058SOL    HW231074   6.116   4.834   3.409
10059SOL     OW31075   5.038   0.027   0.805
10059SOL    HW131076   4.982   6.965   0.821
10059SOL    HW231077   5.086   0.017   0.718
10060SOL     OW31078   2.969   2.151   2.223
10060SOL    HW131079   2.942   2.241   2.189
10060SOL    HW231080   3.065   2.135   2.203
10061SOL     OW31081   6.246   0.897   4.153
10061SOL    HW131082   6.163   0.898   4.097
10061SOL    HW231083   6.270   0.802   4.173
10062SOL     OW31084   6.117   6.382   3.636
10062SOL    HW131085   6.084   6.381   3.730
10062SOL    HW231086   6.133   6.477   3.607
10063SOL     OW31087   1.096   2.827   3.292
10063SOL    HW131088   1.158   2.820   3.371
10063SOL    HW231089   1.030   2.752   3.296
10064SOL     OW31090   5.107   5.214   4.815
10064SOL    HW131091   5.157   5.187   4.732
10064SOL    HW231092   5.038   5.282   4.791
10065SOL     OW31093   1.480   6.708   2.072
10065SOL    HW131094   1.393   6.722   2.117
10065SOL    HW231095   1.549   6.769   2.111
10066SOL     OW31096   0.339   1.387   4.183
10066SOL    HW131097   0.407   1.314   4.186
10066SOL    HW231098   0.293   1.393   4.272
10067SOL     OW31099   5.380   4.680   4.277
10067SOL    HW131100   5.462   4.715   4.322
10067SOL    HW231101   5.324   4.630   4.344
10068SOL     OW31102   5.680   3.089   4.689
10068SOL    HW131103   5.649   3.148   4.615
10068SOL    HW231104   5.700   2.998   4.652
10069SOL     OW31105   2.228   0.972   3.676
10069SOL    HW131106   2.189   1.064   3.668
10069SOL    HW231107   2.317   0.969   3.631
10070SOL     OW31108   0.242   6.258   4.832
10070SOL    HW131109   0.341   6.263   4.845
10070SOL    HW231110   0.206   6.177   4.877
10071SOL     OW31111   4.583   5.266   3.746
10071SOL    HW131112   4.586   5.322   3.664
10071SOL    HW231113   4.487   5.248   3.771
10072SOL     OW31114   0.479   6.555   3.797
10072SOL    HW131115   0.568   6.582   3.761
10072SOL    HW231116   0.479   6.457   3.816
10073SOL     OW31117   6.138   4.598   4.573
10073SOL    HW131118   6.123   4.530   4.501
10073SOL    HW231119   6.052   4.618   4.618
10074SOL     OW31120   1.444   6.744   5.749
10074SOL    HW131121   1.376   6.810   5.716
10074SOL    HW231122   1.400   6.680   5.812
10075SOL     OW31123   1.392   2.563   2.999
10075SOL    HW131124   1.378   2.496   3.073
10075SOL    HW231125   1.306   2.611   2.982
10076SOL     OW31126   4.862   0.091   4.618
10076SOL    HW131127   4.766   0.072   4.641
10076SOL    HW231128   4.875   0.076   4.520
10077SOL     OW31129   3.972   2.368   6.752
10077SOL    HW131130   3.906   2.317   6.697
10077SOL    HW231131   3.927   2.446   6.795
10078SOL     OW31132   6.414   6.106   4.393
10078SOL    HW131133   6.400   6.186   4.451
10078SOL    HW231134   6.356   6.030   4.425
10079SOL     OW31135   1.513   3.085   2.074
10079SOL    HW131136   1.543   3.159   2.134
10079SOL    HW231137   1.594   3.042   2.033
10080SOL     OW31138   2.560   2.629   0.259
10080SOL    HW131139   2.631   2.654   0.325
10080SOL    HW231140   2.600   2.574   0.186
10081SOL     OW31141   0.788   0.403   6.133
10081SOL    HW131142   0.825   0.395   6.226
10081SOL    HW231143   0.746   0.316   6.107
10082SOL     OW31144   6.610   2.296   2.133
10082SOL    HW131145   6.539   2.364   2.117
10082SOL    HW231146   6.572   2.219   2.185
10083SOL     OW31147   4.665   1.370   3.796
10083SOL    HW131148   4.716   1.431   3.735
10083SOL    HW231149   4.721   1.349   3.876
10084SOL     OW31150   3.324   0.529   6.199
10084SOL    HW131151   3.241   0.509   6.146
10084SOL    HW231152   3.341   0.455   6.264
10085SOL     OW31153   0.458   5.133   2.914
10085SOL    HW131154   0.380   5.093   2.962
10085SOL    HW231155   0.435   5.224   2.881
10086SOL     OW31156   6.012   4.932   2.149
10086SOL    HW131157   6.090   4.886   2.106
10086SOL    HW231158   6.043   5.013   2.198
10087SOL     OW31159   1.077   1.165   4.225
10087SOL    HW131160   1.084   1.156   4.324
10087SOL    HW231161   1.025   1.247   4.203
10088SOL     OW31162   0.382   0.179   5.029
10088SOL    HW131163   0.444   0.255   5.008
10088SOL    HW231164   0.409   0.098   4.977
10089SOL     OW31165   2.741   1.467   3.071
10089SOL    HW131166   2.712   1.384   3.022
10089SOL    HW231167   2.718   1.547   3.016
10090SOL     OW31168   1.108   4.502   0.854
10090SOL    HW131169   1.023   4.550   0.833
10090SOL    HW231170   1.172   4.564   0.900
10091SOL     OW31171   1.326   3.552   4.636
10091SOL    HW131172   1.276   3.619   4.691
10091SOL    HW231173   1.420   3.545   4.669
10092SOL     OW31174   1.616   3.797   5.304
10092SOL    HW131175   1.544   3.736   5.273
10092SOL    HW231176   1.625   3.792   5.404
10093SOL     OW31177   0.254   5.005   5.147
10093SOL    HW131178   0.202   4.975   5.227
10093SOL    HW231179   0.232   4.946   5.069
10094SOL     OW31180   2.420   0.489   2.472
10094SOL    HW131181   2.405   0.454   2.379
10094SOL    HW231182   2.480   0.427   2.522
10095SOL     OW31183   5.999   1.329   5.233
10095SOL    HW131184   6.044   1.246   5.201
10095SOL    HW231185   5.915   1.344   5.181
10096SOL     OW31186   6.604   5.448   2.622
10096SOL    HW131187   6.576   5.515   2.690
10096SOL    HW231188   6.532   5.437   2.554
10097SOL     OW31189   1.026   0.748   0.084
10097SOL    HW131190   0.967   0.680   0.129
10097SOL    HW231191   0.983   0.838   0.089
10098SOL     OW31192   1.843   5.893   5.790
10098SOL    HW131193   1.757   5.939   5.811
10098SOL    HW231194   1.886   5.937   5.711
10099SOL     OW31195   0.168   3.930   5.689
10099SOL    HW131196   0.069   3.928   5.706
10099SOL    HW231197   0.205   3.838   5.699
10100SOL     OW31198   5.026   0.346   4.992
10100SOL    HW131199   4.960   0.318   5.062
10100SOL    HW231200   5.055   0.266   4.940
10101SOL     OW31201   6.843   4.540   2.140
10101SOL    HW131202   6.877   4.453   2.105
10101SOL    HW231203   6.828   4.533   2.239
10102SOL     OW31204   3.014   1.143   3.026
10102SOL    HW131205   2.934   1.110   2.977
10102SOL    HW231206   2.992   1.152   3.123
10103SOL     OW31207   3.406   1.524   4.983
10103SOL    HW131208   3.365   1.491   4.898
10103SOL    HW231209   3.341   1.584   5.030
10104SOL     OW31210   0.529   4.111   5.008
10104SOL    HW131211   0.577   4.197   5.021
10104SOL    HW231212   0.532   4.085   4.911
10105SOL     OW31213   1.477   1.363   6.118
10105SOL    HW131214   1.501   1.309   6.038
10105SOL    HW231215   1.554   1.364   6.182
10106SOL     OW31216   5.231   4.787   0.653
10106SOL    HW131217   5.282   4.704   0.632
10106SOL    HW231218   5.185   4.776   0.742
10107SOL     OW31219   6.512   1.682   5.862
10107SOL    HW131220   6.548   1.766   5.901
10107SOL    HW231221   6.531   1.605   5.923
10108SOL     OW31222   6.176   6.259   6.998
10108SOL    HW131223   6.176   6.212   0.066
10108SOL    HW231224   6.267   6.251   6.955
10109SOL     OW31225   4.160   6.297   2.908
10109SOL    HW131226   4.179   6.323   2.814
10109SOL    HW231227   4.124   6.204   2.911
10110SOL     OW31228   3.742   6.787   5.283
10110SOL    HW131229   3.677   6.792   5.208
10110SOL    HW231230   3.834   6.804   5.249
10111SOL     OW31231   7.009   3.775   3.720
10111SOL    HW131232   0.044   3.853   3.751
10111SOL    HW231233   0.013   3.754   3.625
10112SOL     OW31234   6.041   3.620   5.393
10112SOL    HW131235   6.119   3.585   5.444
10112SOL    HW231236   6.066   3.707   5.351
10113SOL     OW31237   4.093   1.110   0.095
10113SOL    HW131238   4.092   1.012   0.073
10113SOL    HW231239   4.155   1.126   0.171
10114SOL     OW31240   5.553   1.101   0.491
10114SOL    HW131241   5.477   1.039   0.513
10114SOL    HW231242   5.594   1.135   0.576
10115SOL     OW31243   2.556   2.154   3.508
10115SOL    HW131244   2.491   2.218   3.550
10115SOL    HW231245   2.647   2.195   3.507
10116SOL     OW31246   1.095   6.756   1.424
10116SOL    HW131247   1.141   6.727   1.340
10116SOL    HW231248   1.068   6.852   1.415
10117SOL     OW31249   6.341   0.256   4.357
10117SOL    HW131250   6.347   0.158   4.337
10117SOL    HW231251   6.284   0.301   4.287
10118SOL     OW31252   0.185   4.906   2.713
10118SOL    HW131253   0.153   4.954   2.795
10118SOL    HW231254   0.276   4.868   2.730
10119SOL     OW31255   2.508   6.658   4.258
10119SOL    HW131256   2.413   6.667   4.227
10119SOL    HW231257   2.530   6.734   4.319
10120SOL     OW31258   0.784   3.169   3.899
10120SOL    HW131259   0.760   3.231   3.973
10120SOL    HW231260   0.701   3.125   3.864
10121SOL     OW31261   6.573   4.988   5.003
10121SOL    HW131262   6.633   5.067   4.994
10121SOL    HW231263   6.522   4.976   4.918
10122SOL     OW31264   5.833   2.821   0.309
10122SOL    HW131265   5.906   2.793   0.371
10122SOL    HW231266   5.776   2.742   0.287
10123SOL     OW31267   6.499   5.881   0.468
10123SOL    HW131268   6.417   5.876   0.411
10123SOL    HW231269   6.538   5.972   0.463
10124SOL     OW31270   2.536   3.930   6.974
10124SOL    HW131271   2.576   3.972   6.892
10124SOL    HW231272   2.461   3.870   6.947
10125SOL     OW31273   1.896   0.613   2.605
10125SOL    HW131274   1.916   0.666   2.523
10125SOL    HW231275   1.954   0.532   2.608
10126SOL     OW31276   6.296   5.620   6.275
10126SOL    HW131277   6.344   5.534   6.294
10126SOL    HW231278   6.319   5.687   6.345
10127SOL     OW31279   3.169   5.548   6.057
10127SOL    HW131280   3.240   5.541   5.987
10127SOL    HW231281   3.177   5.636   6.104
10128SOL     OW31282   0.563   1.302   1.215
10128SOL    HW131283   0.560   1.205   1.191
10128SOL    HW231284   0.606   1.313   1.305
10129SOL     OW31285   4.588   2.679   3.812
10129SOL    HW131286   4.630   2.632   3.889
10129SOL    HW231287   4.489   2.663   3.813
10130SOL     OW31288   1.487   4.866   2.157
10130SOL    HW131289   1.387   4.867   2.162
10130SOL    HW231290   1.521   4.781   2.195
10131SOL     OW31291   0.517   1.848   2.832
10131SOL    HW131292   0.426   1.863   2.793
10131SOL    HW231293   0.560   1.769   2.789
10132SOL     OW31294   3.450   6.469   3.133
10132SOL    HW131295   3.436   6.545   3.069
10132SOL    HW231296   3.548   6.458   3.149
10133SOL     OW31297   4.649   6.233   2.854
10133SOL    HW131298   4.555   6.217   2.885
10133SOL    HW231299   4.694   6.297   2.915
10134SOL     OW31300   6.610   0.263   3.846
10134SOL    HW131301   6.649   0.335   3.904
10134SOL    HW231302   6.540   0.303   3.787
10135SOL     OW31303   4.933   3.883   2.823
10135SOL    HW131304   4.873   3.961   2.806
10135SOL    HW231305   4.926   3.818   2.748
10136SOL     OW31306   5.660   0.037   3.169
10136SOL    HW131307   5.574   7.006   3.182
10136SOL    HW231308   5.737   6.997   3.192
10137SOL     OW31309   7.008   5.383   3.842
10137SOL    HW131310   0.060   5.388   3.911
10137SOL    HW231311   7.013   5.464   3.783
10138SOL     OW31312   4.608   2.429   0.934
10138SOL    HW131313   4.647   2.338   0.927
10138SOL    HW231314   4.669   2.495   0.890
10139SOL     OW31315   3.908   3.225   2.668
10139SOL    HW131316   3.941   3.238   2.761
10139SOL    HW231317   3.956   3.148   2.626
10140SOL     OW31318   6.134   5.910   6.149
10140SOL    HW131319   6.134   5.869   6.057
10140SOL    HW231320   6.228   5.932   6.175
10141SOL     OW31321   3.163   2.022   4.332
10141SOL    HW131322   3.070   2.048   4.359
10141SOL    HW231323   3.223   2.023   4.412
10142SOL     OW31324   5.629   6.344   5.140
10142SOL    HW131325   5.660   6.276   5.205
10142SOL    HW231326   5.708   6.382   5.091
10143SOL     OW31327   4.698   0.266   1.479
10143SOL    HW131328   4.644   0.186   1.506
10143SOL    HW231329   4.766   0.285   1.550
10144SOL     OW31330   4.296   5.957   6.076
10144SOL    HW131331   4.234   5.947   5.999
10144SOL    HW231332   4.285   6.047   6.117
10145SOL     OW31333   3.069   5.952   5.942
10145SOL    HW131334   2.996   5.888   5.967
10145SOL    HW231335   3.125   5.911   5.871
10146SOL     OW31336   3.932   5.169   5.381
10146SOL    HW131337   3.884   5.099   5.433
10146SOL    HW231338   4.017   5.132   5.344
10147SOL     OW31339   5.212   4.608   4.459
10147SOL    HW131340   5.268   4.553   4.521
10147SOL    HW231341   5.162   4.677   4.511
10148SOL     OW31342   6.267   5.625   0.202
10148SOL    HW131343   6.362   5.603   0.181
10148SOL    HW231344   6.235   5.566   0.276
10149SOL     OW31345   5.088   2.408   0.320
10149SOL    HW131346   5.074   2.333   0.385
10149SOL    HW231347   5.181   2.444   0.331
10150SOL     OW31348   5.011   4.021   0.618
10150SOL    HW131349   5.023   4.057   0.710
10150SOL    HW231350   5.090   4.044   0.562
10151SOL     OW31351   1.552   0.134   6.084
10151SOL    HW131352   1.630   0.167   6.031
10151SOL    HW231353   1.571   0.144   6.182
10152SOL     OW31354   1.833   5.780   4.126
10152SOL    HW131355   1.752   5.777   4.068
10152SOL    HW231356   1.849   5.874   4.156
10153SOL     OW31357   4.374   5.767   3.924
10153SOL    HW131358   4.383   5.808   3.833
10153SOL    HW231359   4.444   5.697   3.936
10154SOL     OW31360   6.050   6.649   5.648
10154SOL    HW131361   6.039   6.730   5.705
10154SOL    HW231362   5.961   6.623   5.609
10155SOL     OW31363   4.261   1.646   5.960
10155SOL    HW131364   4.297   1.719   5.902
10155SOL    HW231365   4.253   1.561   5.907
10156SOL     OW31366   6.344   0.167   1.677
10156SOL    HW131367   6.309   0.081   1.641
10156SOL    HW231368   6.316   0.242   1.617
10157SOL     OW31369   5.669   1.961   5.883
10157SOL    HW131370   5.615   2.014   5.818
10157SOL    HW231371   5.639   1.983   5.976
10158SOL     OW31372   4.481   3.953   6.980
10158SOL    HW131373   4.433   3.866   6.995
10158SOL    HW231374   4.559   3.938   6.920
10159SOL     OW31375   2.868   3.422   6.401
10159SOL    HW131376   2.822   3.343   6.441
10159SOL    HW231377   2.880   3.408   6.302
10160SOL     OW31378   1.034   4.476   2.488
10160SOL    HW131379   1.035   4.514   2.580
10160SOL    HW231380   0.995   4.384   2.490
10161SOL     OW31381   3.463   4.740   0.413
10161SOL    HW131382   3.397   4.666   0.429
10161SOL    HW231383   3.486   4.744   0.316
10162SOL     OW31384   3.087   4.173   0.618
10162SOL    HW131385   3.143   4.119   0.681
10162SOL    HW231386   3.000   4.196   0.662
10163SOL     OW31387   5.843   4.226   6.352
10163SOL    HW131388   5.871   4.303   6.296
10163SOL    HW231389   5.911   4.211   6.425
10164SOL     OW31390   6.332   3.050   5.259
10164SOL    HW131391   6.381   3.041   5.172
10164SOL    HW231392   6.362   3.134   5.305
10165SOL     OW31393   1.963   2.364   3.954
10165SOL    HW131394   1.909   2.332   4.031
10165SOL    HW231395   2.049   2.313   3.950
10166SOL     OW31396   3.768   0.803   1.980
10166SOL    HW131397   3.730   0.891   1.954
10166SOL    HW231398   3.739   0.733   1.913
10167SOL     OW31399   4.341   1.486   6.774
10167SOL    HW131400   4.385   1.560   6.722
10167SOL    HW231401   4.314   1.413   6.711
10168SOL     OW31402   6.971   3.816   4.724
10168SOL    HW131403   6.942   3.898   4.774
10168SOL    HW231404   7.009   3.749   4.788
10169SOL     OW31405   6.541   3.804   3.167
10169SOL    HW131406   6.640   3.805   3.183
10169SOL    HW231407   6.495   3.768   3.248
10170SOL     OW31408   0.834   4.315   5.972
10170SOL    HW131409   0.736   4.328   5.984
10170SOL    HW231410   0.853   4.221   5.945
10171SOL     OW31411   6.338   3.973   6.570
10171SOL    HW131412   6.396   3.930   6.500
10171SOL    HW231413   6.245   3.982   6.535
10172SOL     OW31414   6.136   0.121   3.247
10172SOL    HW131415   6.207   0.185   3.217
10172SOL    HW231416   6.136   0.115   3.347
10173SOL     OW31417   1.739   2.221   1.151
10173SOL    HW131418   1.816   2.270   1.193
10173SOL    HW231419   1.659   2.229   1.209
10174SOL     OW31420   5.586   5.119   1.674
10174SOL    HW131421   5.667   5.066   1.701
10174SOL    HW231422   5.508   5.058   1.667
10175SOL     OW31423   6.708   2.676   3.879
10175SOL    HW131424   6.610   2.688   3.863
10175SOL    HW231425   6.731   2.712   3.969
10176SOL     OW31426   1.229   3.399   5.538
10176SOL    HW131427   1.136   3.427   5.516
10176SOL    HW231428   1.234   3.370   5.633
10177SOL     OW31429   2.254   0.409   0.343
10177SOL    HW131430   2.180   0.436   0.281
10177SOL    HW231431   2.249   0.464   0.427
10178SOL     OW31432   6.551   3.140   5.064
10178SOL    HW131433   6.548   3.238   5.080
10178SOL    HW231434   6.635   3.116   5.014
10179SOL     OW31435   1.100   1.440   5.932
10179SOL    HW131436   1.127   1.524   5.979
10179SOL    HW231437   1.039   1.463   5.856
10180SOL     OW31438   4.327   6.172   6.631
10180SOL    HW131439   4.234   6.196   6.657
10180SOL    HW231440   4.376   6.137   6.710
10181SOL     OW31441   4.971   3.345   1.907
10181SOL    HW131442   4.909   3.420   1.887
10181SOL    HW231443   4.941   3.298   1.990
10182SOL     OW31444   5.633   1.656   2.172
10182SOL    HW131445   5.621   1.586   2.101
10182SOL    HW231446   5.621   1.614   2.262
10183SOL     OW31447   0.776   1.868   6.132
10183SOL    HW131448   0.676   1.870   6.125
10183SOL    HW231449   0.812   1.790   6.082
10184SOL     OW31450   4.715   1.480   6.203
10184SOL    HW131451   4.624   1.517   6.222
10184SOL    HW231452   4.732   1.401   6.263
10185SOL     OW31453   4.937   5.985   1.505
10185SOL    HW131454   4.904   6.032   1.422
10185SOL    HW231455   4.920   5.887   1.497
10186SOL     OW31456   5.672   3.175   3.007
10186SOL    HW131457   5.641   3.189   3.101
10186SOL    HW231458   5.723   3.089   3.001
10187SOL     OW31459   0.472   2.028   1.561
10187SOL    HW131460   0.568   2.000   1.564
10187SOL    HW231461   0.465   2.126   1.580
10188SOL     OW31462   3.792   6.345   0.341
10188SOL    HW131463   3.694   6.362   0.351
10188SOL    HW231464   3.819   6.358   0.245
10189SOL     OW31465   2.610   0.874   5.068
10189SOL    HW131466   2.616   0.852   5.165
10189SOL    HW231467   2.694   0.843   5.022
10190SOL     OW31468   5.053   2.728   1.303
10190SOL    HW131469   5.017   2.648   1.255
10190SOL    HW231470   4.982   2.798   1.308
10191SOL     OW31471   4.393   4.333   6.715
10191SOL    HW131472   4.456   4.259   6.692
10191SOL    HW231473   4.302   4.296   6.729
10192SOL     OW31474   4.468   0.972   5.417
10192SOL    HW131475   4.482   1.062   5.459
10192SOL    HW231476   4.417   0.982   5.332
10193SOL     OW31477   4.221   3.756   1.693
10193SOL    HW131478   4.292   3.689   1.671
10193SOL    HW231479   4.179   3.732   1.780
10194SOL     OW31480   6.101   5.124   4.903
10194SOL    HW131481   6.184   5.180   4.904
10194SOL    HW231482   6.042   5.151   4.979
10195SOL     OW31483   6.173   4.494   1.282
10195SOL    HW131484   6.098   4.439   1.245
10195SOL    HW231485   6.156   4.591   1.263
10196SOL     OW31486   5.021   1.282   4.442
10196SOL    HW131487   5.002   1.333   4.358
10196SOL    HW231488   5.111   1.240   4.435
10197SOL     OW31489   6.977   2.287   4.943
10197SOL    HW131490   6.900   2.231   4.911
10197SOL    HW231491   7.012   2.341   4.866
10198SOL     OW31492   4.008   0.676   1.658
10198SOL    HW131493   3.936   0.744   1.641
10198SOL    HW231494   3.970   0.584   1.651
10199SOL     OW31495   2.441   2.846   6.381
10199SOL    HW131496   2.380   2.906   6.328
10199SOL    HW231497   2.507   2.902   6.431
10200SOL     OW31498   4.830   2.252   1.052
10200SOL    HW131499   4.747   2.247   1.107
10200SOL    HW231500   4.819   2.195   0.970
10201SOL     OW31501   0.573   4.607   0.736
10201SOL    HW131502   0.668   4.578   0.744
10201SOL    HW231503   0.560   4.692   0.786
10202SOL     OW31504   4.071   2.239   6.281
10202SOL    HW131505   3.971   2.238   6.274
10202SOL    HW231506   4.102   2.160   6.335
10203SOL     OW31507   5.639   2.860   4.293
10203SOL    HW131508   5.596   2.823   4.211
10203SOL    HW231509   5.624   2.797   4.369
10204SOL     OW31510   5.630   6.656   6.551
10204SOL    HW131511   5.635   6.742   6.602
10204SOL    HW231512   5.534   6.636   6.528
10205SOL     OW31513   0.405   1.656   0.796
10205SOL    HW131514   0.433   1.575   0.745
10205SOL    HW231515   0.476   1.726   0.788
10206SOL     OW31516   1.020   0.751   5.740
10206SOL    HW131517   1.021   0.835   5.686
10206SOL    HW231518   0.970   0.680   5.690
10207SOL     OW31519   1.155   1.887   6.779
10207SOL    HW131520   1.117   1.954   6.715
10207SOL    HW231521   1.108   1.895   6.867
10208SOL     OW31522   5.552   5.314   3.984
10208SOL    HW131523   5.469   5.291   3.935
10208SOL    HW231524   5.529   5.355   4.072
10209SOL     OW31525   6.714   6.925   5.977
10209SOL    HW131526   6.809   6.952   5.995
10209SOL    HW231527   6.655   6.961   6.049
10210SOL     OW31528   4.582   6.351   0.974
10210SOL    HW131529   4.597   6.450   0.974
10210SOL    HW231530   4.501   6.329   0.919
10211SOL     OW31531   3.452   6.750   4.773
10211SOL    HW131532   3.490   6.779   4.685
10211SOL    HW231533   3.416   6.657   4.764
10212SOL     OW31534   1.075   0.218   5.032
10212SOL    HW131535   0.987   0.261   5.011
10212SOL    HW231536   1.083   0.203   5.131
10213SOL     OW31537   4.392   2.907   1.260
10213SOL    HW131538   4.476   2.864   1.227
10213SOL    HW231539   4.375   2.878   1.354
10214SOL     OW31540   1.177   2.241   1.664
10214SOL    HW131541   1.099   2.187   1.633
10214SOL    HW231542   1.205   2.210   1.755
10215SOL     OW31543   3.982   3.273   3.087
10215SOL    HW131544   3.886   3.302   3.091
10215SOL    HW231545   4.030   3.306   3.169
10216SOL     OW31546   6.509   0.812   1.440
10216SOL    HW131547   6.608   0.804   1.423
10216SOL    HW231548   6.461   0.808   1.352
10217SOL     OW31549   2.562   0.828   3.566
10217SOL    HW131550   2.648   0.780   3.583
10217SOL    HW231551   2.491   0.763   3.538
10218SOL     OW31552   1.159   3.303   1.725
10218SOL    HW131553   1.088   3.364   1.761
10218SOL    HW231554   1.248   3.337   1.754
10219SOL     OW31555   0.273   1.697   2.211
10219SOL    HW131556   0.229   1.644   2.284
10219SOL    HW231557   0.365   1.725   2.241
10220SOL     OW31558   3.834   2.901   1.208
10220SOL    HW131559   3.781   2.911   1.123
10220SOL    HW231560   3.776   2.922   1.286
10221SOL     OW31561   0.851   5.327   2.989
10221SOL    HW131562   0.795   5.380   3.054
10221SOL    HW231563   0.792   5.292   2.917
10222SOL     OW31564   2.953   3.711   4.882
10222SOL    HW131565   2.897   3.652   4.940
10222SOL    HW231566   2.937   3.690   4.786
10223SOL     OW31567   0.474   5.417   0.922
10223SOL    HW131568   0.399   5.482   0.934
10223SOL    HW231569   0.525   5.409   1.008
10224SOL     OW31570   6.054   3.203   3.333
10224SOL    HW131571   5.981   3.215   3.400
10224SOL    HW231572   6.090   3.110   3.339
10225SOL     OW31573   1.477   4.104   5.727
10225SOL    HW131574   1.509   4.016   5.764
10225SOL    HW231575   1.415   4.147   5.792
10226SOL     OW31576   3.552   1.330   0.251
10226SOL    HW131577   3.550   1.291   0.159
10226SOL    HW231578   3.499   1.414   0.252
10227SOL     OW31579   5.199   3.810   0.719
10227SOL    HW131580   5.165   3.740   0.656
10227SOL    HW231581   5.122   3.858   0.760
10228SOL     OW31582   6.487   0.622   0.432
10228SOL    HW131583   6.418   0.632   0.504
10228SOL    HW231584   6.560   0.561   0.464
10229SOL     OW31585   0.448   3.278   5.025
10229SOL    HW131586   0.437   3.310   5.119
10229SOL    HW231587   0.382   3.205   5.006
10230SOL     OW31588   6.398   5.596   2.424
10230SOL    HW131589   6.475   5.608   2.362
10230SOL    HW231590   6.356   5.685   2.443
10231SOL     OW31591   1.554   6.055   3.870
10231SOL    HW131592   1.461   6.038   3.838
10231SOL    HW231593   1.613   6.076   3.792
10232SOL     OW31594   3.097   0.750   3.506
10232SOL    HW131595   3.178   0.794   3.467
10232SOL    HW231596   3.028   0.819   3.529
10233SOL     OW31597   3.966   3.943   5.667
10233SOL    HW131598   3.957   4.043   5.660
10233SOL    HW231599   3.995   3.919   5.760
10234SOL     OW31600   5.755   0.031   0.853
10234SOL    HW131601   5.780   7.015   0.763
10234SOL    HW231602   5.791   0.124   0.863
10235SOL     OW31603   1.224   1.362   2.864
10235SOL    HW131604   1.293   1.342   2.933
10235SOL    HW231605   1.239   1.454   2.828
10236SOL     OW31606   2.495   6.805   0.277
10236SOL    HW131607   2.524   6.725   0.225
10236SOL    HW231608   2.473   6.777   0.371
10237SOL     OW31609   0.313   3.232   6.819
10237SOL    HW131610   0.252   3.179   6.878
10237SOL    HW231611   0.292   3.329   6.828
10238SOL     OW31612   4.281   5.274   1.230
10238SOL    HW131613   4.317   5.215   1.157
10238SOL    HW231614   4.358   5.320   1.275
10239SOL     OW31615   1.729   2.635   4.813
10239SOL    HW131616   1.734   2.730   4.781
10239SOL    HW231617   1.642   2.620   4.861
10240SOL     OW31618   2.482   0.100   1.908
10240SOL    HW131619   2.523   0.185   1.876
10240SOL    HW231620   2.454   0.045   1.829
10241SOL     OW31621   4.913   1.889   1.961
10241SOL    HW131622   4.923   1.974   1.910
10241SOL    HW231623   5.002   1.845   1.972
10242SOL     OW31624   0.257   2.376   1.087
10242SOL    HW131625   0.207   2.449   1.134
10242SOL    HW231626   0.339   2.415   1.044
10243SOL     OW31627   2.204   4.727   1.177
10243SOL    HW131628   2.115   4.713   1.134
10243SOL    HW231629   2.216   4.662   1.251
10244SOL     OW31630   2.374   3.882   1.260
10244SOL    HW131631   2.414   3.932   1.337
10244SOL    HW231632   2.418   3.912   1.175
10245SOL     OW31633   3.559   3.841   0.819
10245SOL    HW131634   3.514   3.924   0.851
10245SOL    HW231635   3.577   3.848   0.721
10246SOL     OW31636   3.228   3.030   4.482
10246SOL    HW131637   3.163   3.095   4.521
10246SOL    HW231638   3.199   3.004   4.390
10247SOL     OW31639   0.851   4.466   4.823
10247SOL    HW131640   0.867   4.398   4.752
10247SOL    HW231641   0.901   4.441   4.906
10248SOL     OW31642   1.240   6.725   3.768
10248SOL    HW131643   1.237   6.823   3.787
10248SOL    HW231644   1.167   6.679   3.818
10249SOL     OW31645   1.874   4.738   6.555
10249SOL    HW131646   1.821   4.699   6.630
10249SOL    HW231647   1.967   4.759   6.588
10250SOL     OW31648   5.751   2.928   0.633
10250SOL    HW131649   5.733   2.830   0.644
10250SOL    HW231650   5.687   2.966   0.566
10251SOL     OW31651   1.574   0.370   3.814
10251SOL    HW131652   1.656   0.417   3.845
10251SOL    HW231653   1.580   0.273   3.839
10252SOL     OW31654   4.904   3.678   5.270
10252SOL    HW131655   4.872   3.635   5.186
10252SOL    HW231656   5.003   3.688   5.267
10253SOL     OW31657   3.997   6.714   6.990
10253SOL    HW131658   4.049   6.780   0.025
10253SOL    HW231659   3.947   6.762   6.919
10254SOL     OW31660   5.005   1.949   4.883
10254SOL    HW131661   5.005   2.046   4.858
10254SOL    HW231662   5.089   1.927   4.933
10255SOL     OW31663   2.756   5.810   1.183
10255SOL    HW131664   2.831   5.802   1.117
10255SOL    HW231665   2.790   5.789   1.275
10256SOL     OW31666   5.450   0.959   1.871
10256SOL    HW131667   5.360   0.981   1.908
10256SOL    HW231668   5.519   0.968   1.943
10257SOL     OW31669   2.927   4.924   3.337
10257SOL    HW131670   2.926   4.976   3.252
10257SOL    HW231671   3.017   4.929   3.379
10258SOL     OW31672   3.296   2.116   3.173
10258SOL    HW131673   3.320   2.098   3.269
10258SOL    HW231674   3.266   2.030   3.130
10259SOL     OW31675   1.089   4.156   3.935
10259SOL    HW131676   1.089   4.066   3.978
10259SOL    HW231677   1.079   4.226   4.006
10260SOL     OW31678   1.439   1.339   3.464
10260SOL    HW131679   1.378   1.265   3.494
10260SOL    HW231680   1.495   1.369   3.541
10261SOL     OW31681   0.273   3.690   0.707
10261SOL    HW131682   0.321   3.618   0.656
10261SOL    HW231683   0.328   3.773   0.706
10262SOL     OW31684   4.107   0.692   6.665
10262SOL    HW131685   4.159   0.613   6.633
10262SOL    HW231686   4.065   0.739   6.587
10263SOL     OW31687   6.046   0.598   0.610
10263SOL    HW131688   6.058   0.596   0.511
10263SOL    HW231689   6.004   0.684   0.637
10264SOL     OW31690   5.884   5.020   6.382
10264SOL    HW131691   5.791   4.990   6.358
10264SOL    HW231692   5.878   5.101   6.442
10265SOL     OW31693   2.036   2.566   0.764
10265SOL    HW131694   2.074   2.480   0.799
10265SOL    HW231695   2.082   2.643   0.809
10266SOL     OW31696   3.187   2.942   3.194
10266SOL    HW131697   3.091   2.954   3.170
10266SOL    HW231698   3.244   2.967   3.115
10267SOL     OW31699   5.299   0.937   0.504
10267SOL    HW131700   5.213   0.965   0.461
10267SOL    HW231701   5.284   0.924   0.602
10268SOL     OW31702   5.691   6.783   1.756
10268SOL    HW131703   5.636   6.834   1.823
10268SOL    HW231704   5.786   6.778   1.788
10269SOL     OW31705   1.363   2.558   6.666
10269SOL    HW131706   1.344   2.633   6.730
10269SOL    HW231707   1.307   2.569   6.584
10270SOL     OW31708   3.522   6.385   2.042
10270SOL    HW131709   3.619   6.369   2.054
10270SOL    HW231710   3.474   6.372   2.129
10271SOL     OW31711   3.120   2.129   0.995
10271SOL    HW131712   3.082   2.180   1.072
10271SOL    HW231713   3.219   2.117   1.008
10272SOL     OW31714   6.910   1.130   4.199
10272SOL    HW131715   6.822   1.088   4.223
10272SOL    HW231716   6.896   1.225   4.174
10273SOL     OW31717   2.936   5.088   4.504
10273SOL    HW131718   2.927   4.994   4.471
10273SOL    HW231719   3.032   5.108   4.521
10274SOL     OW31720   0.472   4.939   5.473
10274SOL    HW131721   0.422   4.890   5.402
10274SOL    HW231722   0.506   5.026   5.437
10275SOL     OW31723   0.219   0.871   3.068
10275SOL    HW131724   0.126   0.878   3.103
10275SOL    HW231725   0.243   0.774   3.057
10276SOL     OW31726   4.480   5.569   5.695
10276SOL    HW131727   4.495   5.667   5.702
10276SOL    HW231728   4.555   5.520   5.738
10277SOL     OW31729   1.221   0.070   4.516
10277SOL    HW131730   1.209   0.144   4.450
10277SOL    HW231731   1.197   0.102   4.608
10278SOL     OW31732   0.022   0.628   4.823
10278SOL    HW131733   0.013   0.530   4.837
10278SOL    HW231734   0.118   0.654   4.836
10279SOL     OW31735   2.292   5.727   4.428
10279SOL    HW131736   2.390   5.707   4.438
10279SOL    HW231737   2.260   5.692   4.341
10280SOL     OW31738   5.566   3.605   0.531
10280SOL    HW131739   5.506   3.530   0.502
10280SOL    HW231740   5.517   3.662   0.597
10281SOL     OW31741   6.793   2.472   3.286
10281SOL    HW131742   6.742   2.427   3.212
10281SOL    HW231743   6.891   2.465   3.267
10282SOL     OW31744   4.979   3.289   3.258
10282SOL    HW131745   4.923   3.255   3.182
10282SOL    HW231746   4.952   3.243   3.342
10283SOL     OW31747   0.319   3.562   1.165
10283SOL    HW131748   0.364   3.525   1.083
10283SOL    HW231749   0.312   3.661   1.157
10284SOL     OW31750   6.989   2.510   4.069
10284SOL    HW131751   0.032   2.587   4.081
10284SOL    HW231752   6.924   2.508   4.145
10285SOL     OW31753   4.356   6.930   3.325
10285SOL    HW131754   4.258   6.947   3.322
10285SOL    HW231755   4.381   6.895   3.415
10286SOL     OW31756   2.693   1.222   3.936
10286SOL    HW131757   2.783   1.256   3.908
10286SOL    HW231758   2.677   1.245   4.032
10287SOL     OW31759   2.026   5.794   1.809
10287SOL    HW131760   1.977   5.779   1.895
10287SOL    HW231761   1.975   5.752   1.734
10288SOL     OW31762   3.363   7.015   4.852
10288SOL    HW131763   3.273   0.011   4.812
10288SOL    HW231764   3.400   6.929   4.818
10289SOL     OW31765   3.283   6.116   0.880
10289SOL    HW131766   3.283   6.126   0.979
10289SOL    HW231767   3.242   6.029   0.855
10290SOL     OW31768   3.147   3.331   2.420
10290SOL    HW131769   3.049   3.336   2.400
10290SOL    HW231770   3.171   3.237   2.443
10291SOL     OW31771   3.284   1.058   3.362
10291SOL    HW131772   3.328   1.132   3.312
10291SOL    HW231773   3.342   1.029   3.438
10292SOL     OW31774   0.392   1.294   5.802
10292SOL    HW131775   0.450   1.228   5.753
10292SOL    HW231776   0.339   1.246   5.872
10293SOL     OW31777   0.740   3.642   3.565
10293SOL    HW131778   0.696   3.708   3.626
10293SOL    HW231779   0.831   3.619   3.600
10294SOL     OW31780   3.604   1.710   2.775
10294SOL    HW131781   3.529   1.683   2.714
10294SOL    HW231782   3.691   1.687   2.732
10295SOL     OW31783   1.079   2.653   6.135
10295SOL    HW131784   1.177   2.647   6.117
10295SOL    HW231785   1.029   2.648   6.048
10296SOL     OW31786   5.511   1.041   6.045
10296SOL    HW131787   5.528   1.002   6.135
10296SOL    HW231788   5.451   1.121   6.054
10297SOL     OW31789   2.635   1.565   6.898
10297SOL    HW131790   2.670   1.615   6.977
10297SOL    HW231791   2.697   1.576   6.820
10298SOL     OW31792   1.397   4.238   1.811
10298SOL    HW131793   1.320   4.302   1.806
10298SOL    HW231794   1.423   4.225   1.907
10299SOL     OW31795   4.603   6.540   2.344
10299SOL    HW131796   4.531   6.475   2.318
10299SOL    HW231797   4.628   6.595   2.264
10300SOL     OW31798   1.088   4.234   1.819
10300SOL    HW131799   1.145   4.162   1.859
10300SOL    HW231800   1.023   4.267   1.888
10301SOL     OW31801   3.918   1.778   5.333
10301SOL    HW131802   4.011   1.777   5.368
10301SOL    HW231803   3.857   1.817   5.402
10302SOL     OW31804   2.819   6.352   4.309
10302SOL    HW131805   2.724   6.331   4.332
10302SOL    HW231806   2.822   6.430   4.247
10303SOL     OW31807   0.778   5.842   3.801
10303SOL    HW131808   0.729   5.757   3.820
10303SOL    HW231809   0.737   5.917   3.854
10304SOL     OW31810   6.312   6.882   0.578
10304SOL    HW131811   6.390   6.922   0.530
10304SOL    HW231812   6.271   6.810   0.523
10305SOL     OW31813   3.272   3.963   6.000
10305SOL    HW131814   3.299   3.909   6.080
10305SOL    HW231815   3.352   3.979   5.942
10306SOL     OW31816   5.137   6.545   1.009
10306SOL    HW131817   5.233   6.543   1.037
10306SOL    HW231818   5.131   6.551   0.909
10307SOL     OW31819   3.248   1.574   4.386
10307SOL    HW131820   3.277   1.479   4.386
10307SOL    HW231821   3.327   1.633   4.367
10308SOL     OW31822   2.071   4.297   2.612
10308SOL    HW131823   2.021   4.248   2.684
10308SOL    HW231824   2.071   4.243   2.528
10309SOL     OW31825   6.422   0.862   5.631
10309SOL    HW131826   6.371   0.842   5.714
10309SOL    HW231827   6.421   0.783   5.570
10310SOL     OW31828   2.777   3.624   6.991
10310SOL    HW131829   2.703   3.566   0.006
10310SOL    HW231830   2.864   3.575   7.001
10311SOL     OW31831   6.191   5.438   0.392
10311SOL    HW131832   6.148   5.499   0.459
10311SOL    HW231833   6.131   5.360   0.375
10312SOL     OW31834   4.827   0.576   1.848
10312SOL    HW131835   4.769   0.501   1.880
10312SOL    HW231836   4.779   0.628   1.777
10313SOL     OW31837   4.016   6.001   2.939
10313SOL    HW131838   3.941   6.020   3.001
10313SOL    HW231839   4.010   5.906   2.907
10314SOL     OW31840   0.320   0.378   6.648
10314SOL    HW131841   0.258   0.350   6.721
10314SOL    HW231842   0.321   0.478   6.642
10315SOL     OW31843   5.202   6.719   3.842
10315SOL    HW131844   5.264   6.770   3.782
10315SOL    HW231845   5.239   6.718   3.935
10316SOL     OW31846   6.114   2.266   6.021
10316SOL    HW131847   6.072   2.349   6.057
10316SOL    HW231848   6.045   2.194   6.011
10317SOL     OW31849   3.601   5.987   6.043
10317SOL    HW131850   3.567   5.973   6.136
10317SOL    HW231851   3.666   6.062   6.042
10318SOL     OW31852   4.942   0.355   6.317
10318SOL    HW131853   5.041   0.348   6.306
10318SOL    HW231854   4.920   0.365   6.414
10319SOL     OW31855   0.618   4.585   5.730
10319SOL    HW131856   0.702   4.534   5.712
10319SOL    HW231857   0.548   4.557   5.664
10320SOL     OW31858   6.687   6.233   3.347
10320SOL    HW131859   6.683   6.272   3.439
10320SOL    HW231860   6.610   6.267   3.293
10321SOL     OW31861   5.741   2.095   2.241
10321SOL    HW131862   5.743   2.119   2.338
10321SOL    HW231863   5.647   2.102   2.206
10322SOL     OW31864   3.999   4.986   4.826
10322SOL    HW131865   4.040   4.897   4.805
10322SOL    HW231866   3.991   4.995   4.926
10323SOL     OW31867   6.122   5.178   5.210
10323SOL    HW131868   6.180   5.108   5.251
10323SOL    HW231869   6.123   5.260   5.267
10324SOL     OW31870   3.139   3.603   2.545
10324SOL    HW131871   3.183   3.514   2.533
10324SOL    HW231872   3.087   3.626   2.463
10325SOL     OW31873   0.127   5.118   2.524
10325SOL    HW131874   0.086   5.042   2.574
10325SOL    HW231875   0.226   5.118   2.539
10326SOL     OW31876   5.687   3.968   6.350
10326SOL    HW131877   5.711   4.063   6.369
10326SOL    HW231878   5.685   3.953   6.251
10327SOL     OW31879   2.447   3.331   1.596
10327SOL    HW131880   2.427   3.387   1.677
10327SOL    HW231881   2.520   3.266   1.618
10328SOL     OW31882   6.513   2.826   2.010
10328SOL    HW131883   6.544   2.855   2.101
10328SOL    HW231884   6.413   2.829   2.007
10329SOL     OW31885   2.799   0.765   2.877
10329SOL    HW131886   2.831   0.729   2.965
10329SOL    HW231887   2.744   0.695   2.831
10330SOL     OW31888   4.666   0.517   1.359
10330SOL    HW131889   4.605   0.527   1.281
10330SOL    HW231890   4.685   0.420   1.375
10331SOL     OW31891   6.333   5.993   6.734
10331SOL    HW131892   6.237   5.974   6.715
10331SOL    HW231893   6.372   5.919   6.787
10332SOL     OW31894   0.808   0.259   6.605
10332SOL    HW131895   0.722   0.240   6.559
10332SOL    HW231896   0.823   0.358   6.609
10333SOL     OW31897   0.441   5.838   4.844
10333SOL    HW131898   0.523   5.884   4.810
10333SOL    HW231899   0.412   5.769   4.778
10334SOL     OW31900   3.242   0.033   4.396
10334SOL    HW131901   3.216   6.960   4.369
10334SOL    HW231902   3.333   0.054   4.361
10335SOL     OW31903   1.424   4.423   6.442
10335SOL    HW131904   1.443   4.405   6.539
10335SOL    HW231905   1.328   4.401   6.422
10336SOL     OW31906   6.520   6.529   2.067
10336SOL    HW131907   6.577   6.608   2.044
10336SOL    HW231908   6.487   6.486   1.984
10337SOL     OW31909   6.994   5.493   0.062
10337SOL    HW131910   7.018   5.562   0.130
10337SOL    HW231911   0.057   5.447   0.030
10338SOL     OW31912   1.165   6.677   2.284
10338SOL    HW131913   1.068   6.676   2.309
10338SOL    HW231914   1.220   6.679   2.367
10339SOL     OW31915   6.399   3.456   6.332
10339SOL    HW131916   6.334   3.433   6.404
10339SOL    HW231917   6.368   3.538   6.284
10340SOL     OW31918   1.782   2.491   6.750
10340SOL    HW131919   1.729   2.448   6.823
10340SOL    HW231920   1.721   2.519   6.676
10341SOL     OW31921   2.053   3.550   2.135
10341SOL    HW131922   1.973   3.495   2.110
10341SOL    HW231923   2.125   3.536   2.066
10342SOL     OW31924   1.494   0.702   3.598
10342SOL    HW131925   1.473   0.684   3.695
10342SOL    HW231926   1.590   0.680   3.581
10343SOL     OW31927   2.833   5.071   0.799
10343SOL    HW131928   2.838   5.163   0.838
10343SOL    HW231929   2.907   5.059   0.732
10344SOL     OW31930   3.727   3.884   0.055
10344SOL    HW131931   3.804   3.946   0.037
10344SOL    HW231932   3.641   3.930   0.032
10345SOL     OW31933   1.565   3.150   5.619
10345SOL    HW131934   1.472   3.113   5.632
10345SOL    HW231935   1.584   3.218   5.690
10346SOL     OW31936   6.746   5.167   1.296
10346SOL    HW131937   6.745   5.257   1.341
10346SOL    HW231938   6.822   5.113   1.331
10347SOL     OW31939   4.759   1.247   3.407
10347SOL    HW131940   4.683   1.284   3.460
10347SOL    HW231941   4.791   1.315   3.342
10348SOL     OW31942   5.786   2.256   0.352
10348SOL    HW131943   5.712   2.189   0.352
10348SOL    HW231944   5.777   2.316   0.431
10349SOL     OW31945   0.346   0.314   6.395
10349SOL    HW131946   0.445   0.325   6.391
10349SOL    HW231947   0.314   0.335   6.488
10350SOL     OW31948   2.831   5.795   5.151
10350SOL    HW131949   2.763   5.723   5.166
10350SOL    HW231950   2.805   5.877   5.202
10351SOL     OW31951   4.678   5.196   6.061
10351SOL    HW131952   4.774   5.223   6.058
10351SOL    HW231953   4.622   5.273   6.093
10352SOL     OW31954   3.351   0.801   6.009
10352SOL    HW131955   3.375   0.713   5.968
10352SOL    HW231956   3.302   0.856   5.942
10353SOL     OW31957   6.799   3.058   4.924
10353SOL    HW131958   6.797   2.959   4.936
10353SOL    HW231959   6.881   3.084   4.874
10354SOL     OW31960   5.645   0.944   0.997
10354SOL    HW131961   5.583   1.021   0.984
10354SOL    HW231962   5.660   0.898   0.910
10355SOL     OW31963   2.773   6.006   2.088
10355SOL    HW131964   2.697   6.052   2.041
10355SOL    HW231965   2.853   6.003   2.028
10356SOL     OW31966   7.003   4.204   6.335
10356SOL    HW131967   6.962   4.251   6.257
10356SOL    HW231968   0.016   4.272   6.401
10357SOL     OW31969   2.250   2.298   6.184
10357SOL    HW131970   2.327   2.303   6.247
10357SOL    HW231971   2.181   2.366   6.209
10358SOL     OW31972   6.725   2.674   2.909
10358SOL    HW131973   6.662   2.627   2.971
10358SOL    HW231974   6.785   2.734   2.962
10359SOL     OW31975   0.454   1.562   1.248
10359SOL    HW131976   0.363   1.576   1.289
10359SOL    HW231977   0.460   1.468   1.213
10360SOL     OW31978   4.589   5.257   2.901
10360SOL    HW131979   4.503   5.211   2.877
10360SOL    HW231980   4.569   5.346   2.941
10361SOL     OW31981   2.740   5.869   2.324
10361SOL    HW131982   2.760   5.909   2.235
10361SOL    HW231983   2.683   5.788   2.312
10362SOL     OW31984   1.661   5.032   4.883
10362SOL    HW131985   1.584   4.968   4.877
10362SOL    HW231986   1.734   5.003   4.821
10363SOL     OW31987   5.325   0.763   3.016
10363SOL    HW131988   5.387   0.837   2.990
10363SOL    HW231989   5.265   0.794   3.090
10364SOL     OW31990   2.709   3.923   1.182
10364SOL    HW131991   2.761   3.902   1.266
10364SOL    HW231992   2.669   4.014   1.190
10365SOL     OW31993   4.149   5.344   0.032
10365SOL    HW131994   4.140   5.443   0.035
10365SOL    HW231995   4.083   5.307   6.986
10366SOL     OW31996   2.774   6.996   3.977
10366SOL    HW131997   2.751   0.066   4.015
10366SOL    HW231998   2.698   6.963   3.922
10367SOL     OW31999   5.890   1.844   3.007
10367SOL    HW132000   5.878   1.764   3.066
10367SOL    HW232001   5.905   1.925   3.065
10368SOL     OW32002   2.613   1.384   2.039
10368SOL    HW132003   2.654   1.338   2.119
10368SOL    HW232004   2.671   1.370   1.959
10369SOL     OW32005   3.879   1.320   0.795
10369SOL    HW132006   3.833   1.262   0.729
10369SOL    HW232007   3.824   1.401   0.813
10370SOL     OW32008   4.297   0.972   5.137
10370SOL    HW132009   4.234   1.029   5.190
10370SOL    HW232010   4.323   1.020   5.053
10371SOL     OW32011   3.943   5.721   5.667
10371SOL    HW132012   3.946   5.634   5.618
10371SOL    HW232013   4.022   5.728   5.727
10372SOL     OW32014   2.606   0.889   4.550
10372SOL    HW132015   2.576   0.912   4.642
10372SOL    HW232016   2.531   0.846   4.499
10373SOL     OW32017   1.145   6.819   4.857
10373SOL    HW132018   1.128   6.846   4.952
10373SOL    HW232019   1.241   6.792   4.847
10374SOL     OW32020   2.563   1.516   3.622
10374SOL    HW132021   2.506   1.581   3.572
10374SOL    HW232022   2.506   1.443   3.659
10375SOL     OW32023   5.428   2.023   0.778
10375SOL    HW132024   5.412   2.108   0.727
10375SOL    HW232025   5.510   1.978   0.743
10376SOL     OW32026   0.018   1.611   3.750
10376SOL    HW132027   0.060   1.614   3.841
10376SOL    HW232028   6.940   1.588   3.760
10377SOL     OW32029   0.612   0.799   3.712
10377SOL    HW132030   0.652   0.824   3.624
10377SOL    HW232031   0.517   0.771   3.699
10378SOL     OW32032   6.811   0.527   5.814
10378SOL    HW132033   6.766   0.531   5.725
10378SOL    HW232034   6.896   0.474   5.806
10379SOL     OW32035   5.370   0.098   5.234
10379SOL    HW132036   5.414   0.157   5.167
10379SOL    HW232037   5.290   0.054   5.193
10380SOL     OW32038   5.733   0.784   2.660
10380SOL    HW132039   5.666   0.711   2.646
10380SOL    HW232040   5.718   0.857   2.594
10381SOL     OW32041   4.935   5.410   5.795
10381SOL    HW132042   4.837   5.422   5.781
10381SOL    HW232043   4.951   5.360   5.880
10382SOL     OW32044   2.770   5.565   5.790
10382SOL    HW132045   2.810   5.527   5.707
10382SOL    HW232046   2.792   5.662   5.797
10383SOL     OW32047   0.838   3.338   0.744
10383SOL    HW132048   0.938   3.349   0.746
10383SOL    HW232049   0.816   3.241   0.754
10384SOL     OW32050   6.847   0.462   1.008
10384SOL    HW132051   6.930   0.406   0.999
10384SOL    HW232052   6.871   0.559   1.002
10385SOL     OW32053   6.026   0.706   5.939
10385SOL    HW132054   5.979   0.733   5.856
10385SOL    HW232055   6.007   0.610   5.959
10386SOL     OW32056   6.568   3.451   5.099
10386SOL    HW132057   6.513   3.500   5.032
10386SOL    HW232058   6.558   3.494   5.188
10387SOL     OW32059   2.166   2.525   2.656
10387SOL    HW132060   2.154   2.622   2.676
10387SOL    HW232061   2.263   2.501   2.664
10388SOL     OW32062   1.701   4.853   3.201
10388SOL    HW132063   1.721   4.872   3.297
10388SOL    HW232064   1.677   4.938   3.155
10389SOL     OW32065   1.384   5.028   3.785
10389SOL    HW132066   1.424   5.114   3.816
10389SOL    HW232067   1.375   5.030   3.685
10390SOL     OW32068   1.700   3.408   3.090
10390SOL    HW132069   1.651   3.346   3.029
10390SOL    HW232070   1.744   3.480   3.036
10391SOL     OW32071   1.848   6.216   6.869
10391SOL    HW132072   1.944   6.198   6.892
10391SOL    HW232073   1.803   6.131   6.844
10392SOL     OW32074   6.052   4.980   0.424
10392SOL    HW132075   6.151   4.966   0.421
10392SOL    HW232076   6.008   4.917   0.361
10393SOL     OW32077   0.435   1.545   3.977
10393SOL    HW132078   0.363   1.479   3.999
10393SOL    HW232079   0.502   1.547   4.051
10394SOL     OW32080   2.764   6.693   6.870
10394SOL    HW132081   2.759   6.781   6.918
10394SOL    HW232082   2.700   6.694   6.793
10395SOL     OW32083   0.025   0.781   4.402
10395SOL    HW132084   6.963   0.752   4.353
10395SOL    HW232085   0.069   0.856   4.353
10396SOL     OW32086   0.622   0.486   4.421
10396SOL    HW132087   0.655   0.476   4.515
10396SOL    HW232088   0.655   0.409   4.366
10397SOL     OW32089   3.815   0.936   3.741
10397SOL    HW132090   3.737   0.880   3.769
10397SOL    HW232091   3.788   1.032   3.735
10398SOL     OW32092   6.149   2.645   1.203
10398SOL    HW132093   6.223   2.707   1.179
10398SOL    HW232094   6.084   2.692   1.263
10399SOL     OW32095   4.990   2.258   5.440
10399SOL    HW132096   5.081   2.299   5.448
10399SOL    HW232097   4.927   2.325   5.400
10400SOL     OW32098   3.023   5.623   2.724
10400SOL    HW132099   2.967   5.694   2.681
10400SOL    HW232100   2.979   5.593   2.809
10401SOL     OW32101   0.555   5.641   2.242
10401SOL    HW132102   0.487   5.700   2.286
10401SOL    HW232103   0.587   5.573   2.308
10402SOL     OW32104   1.109   3.368   4.989
10402SOL    HW132105   1.106   3.465   5.014
10402SOL    HW232106   1.171   3.355   4.912
10403SOL     OW32107   5.512   1.291   1.739
10403SOL    HW132108   5.479   1.236   1.815
10403SOL    HW232109   5.437   1.343   1.699
10404SOL     OW32110   0.469   6.842   4.127
10404SOL    HW132111   0.527   6.762   4.146
10404SOL    HW232112   0.443   6.843   4.031
10405SOL     OW32113   1.687   6.406   5.577
10405SOL    HW132114   1.617   6.340   5.604
10405SOL    HW232115   1.777   6.363   5.582
10406SOL     OW32116   2.764   4.240   6.059
10406SOL    HW132117   2.754   4.142   6.044
10406SOL    HW232118   2.844   4.274   6.011
10407SOL     OW32119   0.939   2.267   6.132
10407SOL    HW132120   1.021   2.292   6.080
10407SOL    HW232121   0.961   2.268   6.230
10408SOL     OW32122   4.683   5.016   3.497
10408SOL    HW132123   4.637   4.970   3.421
10408SOL    HW232124   4.753   4.955   3.535
10409SOL     OW32125   0.281   4.174   1.936
10409SOL    HW132126   0.379   4.191   1.926
10409SOL    HW232127   0.246   4.228   2.013
10410SOL     OW32128   5.123   1.044   1.242
10410SOL    HW132129   5.064   0.964   1.253
10410SOL    HW232130   5.068   1.127   1.245
10411SOL     OW32131   2.112   4.765   2.764
10411SOL    HW132132   2.056   4.772   2.682
10411SOL    HW232133   2.187   4.831   2.760
10412SOL     OW32134   1.397   2.077   0.464
10412SOL    HW132135   1.410   2.166   0.421
10412SOL    HW232136   1.432   2.081   0.558
10413SOL     OW32137   6.920   2.289   0.041
10413SOL    HW132138   6.927   2.309   6.963
10413SOL    HW232139   6.838   2.234   0.058
10414SOL     OW32140   5.561   6.142   6.436
10414SOL    HW132141   5.467   6.174   6.445
10414SOL    HW232142   5.597   6.118   6.526
10415SOL     OW32143   0.375   6.039   4.011
10415SOL    HW132144   0.303   6.104   4.034
10415SOL    HW232145   0.379   5.968   4.081
10416SOL     OW32146   5.490   1.978   4.936
10416SOL    HW132147   5.448   1.919   4.867
10416SOL    HW232148   5.425   1.996   5.009
10417SOL     OW32149   3.771   4.864   3.538
10417SOL    HW132150   3.678   4.891   3.562
10417SOL    HW232151   3.827   4.856   3.620
10418SOL     OW32152   6.744   4.085   6.740
10418SOL    HW132153   6.650   4.109   6.714
10418SOL    HW232154   6.782   4.159   6.796
10419SOL     OW32155   3.759   1.322   5.110
10419SOL    HW132156   3.809   1.401   5.144
10419SOL    HW232157   3.712   1.276   5.186
10420SOL     OW32158   6.737   3.453   3.580
10420SOL    HW132159   6.712   3.373   3.526
10420SOL    HW232160   6.661   3.518   3.580
10421SOL     OW32161   1.126   4.778   3.966
10421SOL    HW132162   1.123   4.712   4.040
10421SOL    HW232163   1.172   4.737   3.887
10422SOL     OW32164   6.697   3.727   4.606
10422SOL    HW132165   6.600   3.737   4.583
10422SOL    HW232166   6.736   3.817   4.625
10423SOL     OW32167   3.470   4.943   3.934
10423SOL    HW132168   3.509   4.958   3.843
10423SOL    HW232169   3.373   4.919   3.926
10424SOL     OW32170   3.518   0.852   7.016
10424SOL    HW132171   3.506   0.921   0.068
10424SOL    HW232172   3.602   0.872   6.965
10425SOL     OW32173   1.770   1.136   0.457
10425SOL    HW132174   1.689   1.189   0.483
10425SOL    HW232175   1.746   1.072   0.384
10426SOL     OW32176   5.877   2.143   6.032
10426SOL    HW132177   5.879   2.075   5.959
10426SOL    HW232178   5.908   2.101   6.118
10427SOL     OW32179   5.795   6.372   4.750
10427SOL    HW132180   5.792   6.439   4.676
10427SOL    HW232181   5.718   6.309   4.741
10428SOL     OW32182   1.776   0.698   3.855
10428SOL    HW132183   1.744   0.776   3.802
10428SOL    HW232184   1.710   0.678   3.927
10429SOL     OW32185   1.138   3.243   2.800
10429SOL    HW132186   1.154   3.240   2.701
10429SOL    HW232187   1.045   3.275   2.818
10430SOL     OW32188   3.133   0.402   4.104
10430SOL    HW132189   3.193   0.354   4.168
10430SOL    HW232190   3.093   0.482   4.149
10431SOL     OW32191   2.864   1.247   3.569
10431SOL    HW132192   2.851   1.313   3.644
10431SOL    HW232193   2.777   1.233   3.522
10432SOL     OW32194   0.892   6.255   5.423
10432SOL    HW132195   0.849   6.254   5.514
10432SOL    HW232196   0.872   6.341   5.378
10433SOL     OW32197   1.905   6.803   2.441
10433SOL    HW132198   1.907   6.729   2.374
10433SOL    HW232199   1.818   6.801   2.490
10434SOL     OW32200   4.012   6.529   4.948
10434SOL    HW132201   3.939   6.571   4.895
10434SOL    HW232202   4.095   6.585   4.940
10435SOL     OW32203   1.330   2.267   6.736
10435SOL    HW132204   1.349   2.365   6.735
10435SOL    HW232205   1.363   2.225   6.652
10436SOL     OW32206   6.951   4.549   4.878
10436SOL    HW132207   6.912   4.598   4.800
10436SOL    HW232208   6.886   4.552   4.954
10437SOL     OW32209   5.165   5.658   5.232
10437SOL    HW132210   5.104   5.720   5.183
10437SOL    HW232211   5.253   5.702   5.245
10438SOL     OW32212   6.334   5.770   6.492
10438SOL    HW132213   6.429   5.773   6.523
10438SOL    HW232214   6.300   5.863   6.481
10439SOL     OW32215   6.554   6.812   4.608
10439SOL    HW132216   6.640   6.783   4.650
10439SOL    HW232217   6.557   6.791   4.510
10440SOL     OW32218   0.271   2.191   6.730
10440SOL    HW132219   0.181   2.201   6.688
10440SOL    HW232220   0.269   2.226   6.824
10441SOL     OW32221   3.648   1.967   1.215
10441SOL    HW132222   3.709   1.955   1.137
10441SOL    HW232223   3.701   1.983   1.298
10442SOL     OW32224   2.158   1.570   5.762
10442SOL    HW132225   2.163   1.506   5.839
10442SOL    HW232226   2.180   1.662   5.793
10443SOL     OW32227   0.528   1.967   3.091
10443SOL    HW132228   0.531   1.923   3.001
10443SOL    HW232229   0.517   1.897   3.162
10444SOL     OW32230   3.674   5.575   4.429
10444SOL    HW132231   3.602   5.528   4.377
10444SOL    HW232232   3.762   5.561   4.384
10445SOL     OW32233   1.581   4.012   2.845
10445SOL    HW132234   1.496   4.018   2.794
10445SOL    HW232235   1.644   3.949   2.799
10446SOL     OW32236   1.686   4.160   5.947
10446SOL    HW132237   1.757   4.096   5.976
10446SOL    HW232238   1.606   4.151   6.006
10447SOL     OW32239   0.282   1.941   2.687
10447SOL    HW132240   0.262   2.022   2.633
10447SOL    HW232241   0.243   1.952   2.779
10448SOL     OW32242   2.690   6.262   3.119
10448SOL    HW132243   2.591   6.274   3.122
10448SOL    HW232244   2.713   6.169   3.148
10449SOL     OW32245   4.220   5.509   5.672
10449SOL    HW132246   4.316   5.532   5.664
10449SOL    HW232247   4.182   5.552   5.754
10450SOL     OW32248   0.028   0.862   6.064
10450SOL    HW132249   6.978   0.899   6.002
10450SOL    HW232250   0.117   0.902   6.042
10451SOL     OW32251   2.344   0.896   3.279
10451SOL    HW132252   2.322   0.839   3.358
10451SOL    HW232253   2.381   0.984   3.310
10452SOL     OW32254   0.327   3.690   4.592
10452SOL    HW132255   0.235   3.724   4.570
10452SOL    HW232256   0.334   3.594   4.566
10453SOL     OW32257   4.021   5.809   3.311
10453SOL    HW132258   3.970   5.781   3.392
10453SOL    HW232259   4.006   5.744   3.237
10454SOL     OW32260   6.836   0.266   5.559
10454SOL    HW132261   6.818   0.356   5.517
10454SOL    HW232262   6.934   0.248   5.556
10455SOL     OW32263   5.973   6.385   3.888
10455SOL    HW132264   5.988   6.394   3.987
10455SOL    HW232265   5.922   6.301   3.870
10456SOL     OW32266   0.965   5.228   6.907
10456SOL    HW132267   1.059   5.258   6.888
10456SOL    HW232268   0.923   5.196   6.822
10457SOL     OW32269   3.293   2.269   6.947
10457SOL    HW132270   3.331   2.354   6.912
10457SOL    HW232271   3.285   2.203   6.873
10458SOL     OW32272   6.643   5.512   6.396
10458SOL    HW132273   6.683   5.597   6.362
10458SOL    HW232274   6.663   5.503   6.494
10459SOL     OW32275   0.340   5.136   0.438
10459SOL    HW132276   0.436   5.118   0.460
10459SOL    HW232277   0.321   5.108   0.344
10460SOL     OW32278   0.748   2.628   0.677
10460SOL    HW132279   0.842   2.645   0.649
10460SOL    HW232280   0.746   2.608   0.775
10461SOL     OW32281   0.234   5.330   5.104
10461SOL    HW132282   0.326   5.290   5.108
10461SOL    HW232283   0.241   5.429   5.117
10462SOL     OW32284   3.992   1.775   0.872
10462SOL    HW132285   4.034   1.750   0.785
10462SOL    HW232286   3.932   1.700   0.902
10463SOL     OW32287   4.770   3.056   6.135
10463SOL    HW132288   4.754   2.957   6.134
10463SOL    HW232289   4.864   3.075   6.162
10464SOL     OW32290   6.554   5.071   2.928
10464SOL    HW132291   6.597   5.158   2.905
10464SOL    HW232292   6.617   4.996   2.907
10465SOL     OW32293   5.249   4.396   2.199
10465SOL    HW132294   5.179   4.442   2.254
10465SOL    HW232295   5.339   4.415   2.237
10466SOL     OW32296   6.201   4.609   6.138
10466SOL    HW132297   6.287   4.598   6.187
10466SOL    HW232298   6.188   4.705   6.114
10467SOL     OW32299   1.653   2.952   0.089
10467SOL    HW132300   1.599   2.933   0.007
10467SOL    HW232301   1.622   3.038   0.130
10468SOL     OW32302   2.891   5.189   3.841
10468SOL    HW132303   2.907   5.098   3.802
10468SOL    HW232304   2.929   5.259   3.779
10469SOL     OW32305   6.335   1.644   4.669
10469SOL    HW132306   6.423   1.692   4.676
10469SOL    HW232307   6.351   1.545   4.671
10470SOL     OW32308   2.643   2.427   4.003
10470SOL    HW132309   2.622   2.499   4.070
10470SOL    HW232310   2.611   2.455   3.913
10471SOL     OW32311   3.040   6.861   0.405
10471SOL    HW132312   3.058   6.770   0.443
10471SOL    HW232313   3.112   6.886   0.340
10472SOL     OW32314   2.810   5.002   0.207
10472SOL    HW132315   2.777   4.958   0.290
10472SOL    HW232316   2.733   5.015   0.144
10473SOL     OW32317   5.065   4.657   0.049
10473SOL    HW132318   5.048   4.580   0.110
10473SOL    HW232319   4.980   4.682   0.003
10474SOL     OW32320   5.272   1.053   3.690
10474SOL    HW132321   5.362   1.061   3.732
10474SOL    HW232322   5.228   0.969   3.720
10475SOL     OW32323   0.864   6.574   1.588
10475SOL    HW132324   0.908   6.613   1.669
10475SOL    HW232325   0.911   6.607   1.505
10476SOL     OW32326   3.788   6.188   0.044
10476SOL    HW132327   3.831   6.122   7.002
10476SOL    HW232328   3.855   6.257   0.071
10477SOL     OW32329   6.229   6.324   3.276
10477SOL    HW132330   6.291   6.374   3.336
10477SOL    HW232331   6.209   6.234   3.316
10478SOL     OW32332   6.145   0.434   0.318
10478SOL    HW132333   6.089   0.400   0.242
10478SOL    HW232334   6.230   0.471   0.281
10479SOL     OW32335   0.043   2.404   2.065
10479SOL    HW132336   0.032   2.383   1.968
10479SOL    HW232337   6.974   2.400   2.111
10480SOL     OW32338   1.984   0.058   2.489
10480SOL    HW132339   1.992   6.978   2.493
10480SOL    HW232340   2.001   0.097   2.579
10481SOL     OW32341   0.369   0.606   3.059
10481SOL    HW132342   0.419   0.628   2.975
10481SOL    HW232343   0.411   0.526   3.103
10482SOL     OW32344   5.229   3.510   4.229
10482SOL    HW132345   5.255   3.456   4.149
10482SOL    HW232346   5.211   3.449   4.306
10483SOL     OW32347   5.972   5.532   0.704
10483SOL    HW132348   5.898   5.583   0.658
10483SOL    HW232349   6.059   5.578   0.687
10484SOL     OW32350   6.146   1.479   1.566
10484SOL    HW132351   6.067   1.482   1.627
10484SOL    HW232352   6.146   1.393   1.515
10485SOL     OW32353   5.488   3.325   5.514
10485SOL    HW132354   5.402   3.349   5.468
10485SOL    HW232355   5.565   3.355   5.459
10486SOL     OW32356   5.620   2.823   1.529
10486SOL    HW132357   5.687   2.764   1.484
10486SOL    HW232358   5.561   2.768   1.588
10487SOL     OW32359   6.075   6.566   1.274
10487SOL    HW132360   6.156   6.536   1.324
10487SOL    HW232361   6.035   6.645   1.320
10488SOL     OW32362   2.661   2.518   6.361
10488SOL    HW132363   2.653   2.538   6.459
10488SOL    HW232364   2.758   2.502   6.339
10489SOL     OW32365   6.898   5.362   6.370
10489SOL    HW132366   6.974   5.412   6.328
10489SOL    HW232367   6.833   5.427   6.407
10490SOL     OW32368   0.086   0.769   3.675
10490SOL    HW132369   0.003   0.763   3.730
10490SOL    HW232370   0.063   0.760   3.578
10491SOL     OW32371   2.574   4.456   6.112
10491SOL    HW132372   2.554   4.465   6.014
10491SOL    HW232373   2.638   4.380   6.125
10492SOL     OW32374   4.874   3.320   5.137
10492SOL    HW132375   4.825   3.255   5.080
10492SOL    HW232376   4.825   3.407   5.139
10493SOL     OW32377   3.794   0.814   1.560
10493SOL    HW132378   3.754   0.906   1.565
10493SOL    HW232379   3.726   0.747   1.591
10494SOL     OW32380   5.874   1.927   4.200
10494SOL    HW132381   5.795   1.979   4.169
10494SOL    HW232382   5.862   1.903   4.296
10495SOL     OW32383   1.661   6.702   0.740
10495SOL    HW132384   1.604   6.623   0.717
10495SOL    HW232385   1.686   6.751   0.656
10496SOL     OW32386   0.156   6.577   6.298
10496SOL    HW132387   0.067   6.613   6.327
10496SOL    HW232388   0.185   6.505   6.361
10497SOL     OW32389   1.283   0.502   0.975
10497SOL    HW132390   1.185   0.487   0.963
10497SOL    HW232391   1.308   0.591   0.937
10498SOL     OW32392   1.758   6.554   5.871
10498SOL    HW132393   1.736   6.461   5.902
10498SOL    HW232394   1.843   6.552   5.818
10499SOL     OW32395   3.178   5.520   3.418
10499SOL    HW132396   3.087   5.479   3.430
10499SOL    HW232397   3.173   5.591   3.347
10500SOL     OW32398   1.124   2.316   5.944
10500SOL    HW132399   1.171   2.252   5.883
10500SOL    HW232400   1.094   2.396   5.891
10501SOL     OW32401   2.024   3.606   2.637
10501SOL    HW132402   2.061   3.613   2.544
10501SOL    HW232403   2.042   3.692   2.686
10502SOL     OW32404   3.335   6.343   0.141
10502SOL    HW132405   3.362   6.336   0.237
10502SOL    HW232406   3.247   6.298   0.128
10503SOL     OW32407   3.059   2.884   0.236
10503SOL    HW132408   2.984   2.947   0.220
10503SOL    HW232409   3.037   2.794   0.198
10504SOL     OW32410   2.679   3.046   0.517
10504SOL    HW132411   2.716   3.049   0.609
10504SOL    HW232412   2.588   3.088   0.516
10505SOL     OW32413   6.540   5.959   1.541
10505SOL    HW132414   6.525   6.054   1.570
10505SOL    HW232415   6.609   5.917   1.599
10506SOL     OW32416   0.647   3.715   6.403
10506SOL    HW132417   0.664   3.785   6.333
10506SOL    HW232418   0.625   3.760   6.490
10507SOL     OW32419   1.095   0.548   6.422
10507SOL    HW132420   1.028   0.477   6.401
10507SOL    HW232421   1.082   0.625   6.359
10508SOL     OW32422   5.555   4.600   3.610
10508SOL    HW132423   5.503   4.600   3.695
10508SOL    HW232424   5.571   4.506   3.581
10509SOL     OW32425   1.059   6.503   6.184
10509SOL    HW132426   1.070   6.407   6.209
10509SOL    HW232427   1.084   6.561   6.262
10510SOL     OW32428   5.817   5.427   0.049
10510SOL    HW132429   5.804   5.524   0.030
10510SOL    HW232430   5.914   5.404   0.048
10511SOL     OW32431   4.008   2.837   0.482
10511SOL    HW132432   3.941   2.766   0.458
10511SOL    HW232433   3.969   2.927   0.462
10512SOL     OW32434   4.341   0.156   5.875
10512SOL    HW132435   4.325   0.086   5.805
10512SOL    HW232436   4.300   0.243   5.845
10513SOL     OW32437   0.540   2.566   5.913
10513SOL    HW132438   0.584   2.619   5.985
10513SOL    HW232439   0.517   2.625   5.836
10514SOL     OW32440   6.647   4.502   0.507
10514SOL    HW132441   6.580   4.453   0.452
10514SOL    HW232442   6.692   4.438   0.570
10515SOL     OW32443   6.579   1.714   3.715
10515SOL    HW132444   6.628   1.748   3.635
10515SOL    HW232445   6.517   1.641   3.688
10516SOL     OW32446   4.372   0.849   6.339
10516SOL    HW132447   4.318   0.789   6.399
10516SOL    HW232448   4.466   0.815   6.335
10517SOL     OW32449   6.597   1.490   2.490
10517SOL    HW132450   6.517   1.453   2.538
10517SOL    HW232451   6.633   1.421   2.427
10518SOL     OW32452   1.118   6.670   0.662
10518SOL    HW132453   1.076   6.608   0.596
10518SOL    HW232454   1.062   6.753   0.670
10519SOL     OW32455   3.413   2.958   5.877
10519SOL    HW132456   3.449   2.883   5.821
10519SOL    HW232457   3.326   2.931   5.916
10520SOL     OW32458   3.110   2.564   6.753
10520SOL    HW132459   3.150   2.617   6.678
10520SOL    HW232460   3.023   2.606   6.781
10521SOL     OW32461   6.852   6.195   1.405
10521SOL    HW132462   6.885   6.196   1.500
10521SOL    HW232463   6.846   6.101   1.373
10522SOL     OW32464   6.552   0.862   0.541
10522SOL    HW132465   6.521   0.770   0.514
10522SOL    HW232466   6.651   0.868   0.528
10523SOL     OW32467   6.757   5.352   6.008
10523SOL    HW132468   6.826   5.279   6.006
10523SOL    HW232469   6.788   5.425   6.068
10524SOL     OW32470   1.893   0.049   4.453
10524SOL    HW132471   1.969   0.033   4.516
10524SOL    HW232472   1.917   0.122   4.390
10525SOL     OW32473   1.876   6.770   5.134
10525SOL    HW132474   1.948   6.726   5.080
10525SOL    HW232475   1.789   6.760   5.087
10526SOL     OW32476   0.363   1.033   2.121
10526SOL    HW132477   0.335   1.108   2.062
10526SOL    HW232478   0.404   1.069   2.204
10527SOL     OW32479   0.847   2.412   4.397
10527SOL    HW132480   0.781   2.487   4.390
10527SOL    HW232481   0.799   2.326   4.412
10528SOL     OW32482   6.864   5.455   4.941
10528SOL    HW132483   6.941   5.475   4.880
10528SOL    HW232484   6.885   5.487   5.033
10529SOL     OW32485   0.242   6.988   3.517
10529SOL    HW132486   0.197   6.952   3.436
10529SOL    HW232487   0.284   6.912   3.568
10530SOL     OW32488   2.795   2.321   6.034
10530SOL    HW132489   2.782   2.305   5.936
10530SOL    HW232490   2.872   2.268   6.067
10531SOL     OW32491   1.562   3.311   4.773
10531SOL    HW132492   1.465   3.317   4.796
10531SOL    HW232493   1.595   3.402   4.746
10532SOL     OW32494   3.722   2.394   6.321
10532SOL    HW132495   3.793   2.461   6.343
10532SOL    HW232496   3.715   2.384   6.221
10533SOL     OW32497   2.993   1.308   5.417
10533SOL    HW132498   3.073   1.268   5.374
10533SOL    HW232499   3.005   1.407   5.426
10534SOL     OW32500   0.009   5.748   0.710
10534SOL    HW132501   0.102   5.721   0.733
10534SOL    HW232502   6.965   5.675   0.736
10535SOL     OW32503   0.445   1.124   2.393
10535SOL    HW132504   0.472   1.089   2.483
10535SOL    HW232505   0.461   1.223   2.390
10536SOL     OW32506   4.786   0.597   3.009
10536SOL    HW132507   4.885   0.606   3.012
10536SOL    HW232508   4.746   0.635   3.092
10537SOL     OW32509   3.227   5.444   2.598
10537SOL    HW132510   3.157   5.513   2.616
10537SOL    HW232511   3.184   5.360   2.567
10538SOL     OW32512   4.492   4.176   0.107
10538SOL    HW132513   4.464   4.084   0.078
10538SOL    HW232514   4.413   4.237   0.104
10539SOL     OW32515   0.750   3.377   6.034
10539SOL    HW132516   0.708   3.290   6.008
10539SOL    HW232517   0.850   3.369   6.027
10540SOL     OW32518   2.048   0.693   5.629
10540SOL    HW132519   1.957   0.659   5.603
10540SOL    HW232520   2.096   0.624   5.682
10541SOL     OW32521   3.735   3.739   0.388
10541SOL    HW132522   3.790   3.667   0.429
10541SOL    HW232523   3.795   3.809   0.350
10542SOL     OW32524   0.238   2.404   0.731
10542SOL    HW132525   0.299   2.388   0.653
10542SOL    HW232526   0.270   2.482   0.784
10543SOL     OW32527   0.464   1.907   5.585
10543SOL    HW132528   0.445   1.950   5.496
10543SOL    HW232529   0.509   1.973   5.645
10544SOL     OW32530   2.019   1.946   2.086
10544SOL    HW132531   2.105   1.898   2.095
10544SOL    HW232532   1.992   1.984   2.174
10545SOL     OW32533   6.817   6.942   2.612
10545SOL    HW132534   6.856   6.892   2.689
10545SOL    HW232535   6.764   6.878   2.555
10546SOL     OW32536   2.358   0.064   4.498
10546SOL    HW132537   2.412   0.114   4.565
10546SOL    HW232538   2.412   7.008   4.461
10547SOL     OW32539   4.374   1.508   1.341
10547SOL    HW132540   4.442   1.483   1.410
10547SOL    HW232541   4.379   1.607   1.323
10548SOL     OW32542   5.209   3.533   4.688
10548SOL    HW132543   5.216   3.627   4.655
10548SOL    HW232544   5.129   3.523   4.747
10549SOL     OW32545   0.924   0.143   2.439
10549SOL    HW132546   0.900   0.241   2.438
10549SOL    HW232547   1.001   0.129   2.501
10550SOL     OW32548   5.525   0.218   3.736
10550SOL    HW132549   5.541   0.284   3.810
10550SOL    HW232550   5.455   0.254   3.674
10551SOL     OW32551   1.243   2.212   5.434
10551SOL    HW132552   1.294   2.127   5.426
10551SOL    HW232553   1.306   2.290   5.437
10552SOL     OW32554   3.555   2.182   6.231
10552SOL    HW132555   3.591   2.257   6.287
10552SOL    HW232556   3.627   2.146   6.172
10553SOL     OW32557   0.734   5.838   0.074
10553SOL    HW132558   0.804   5.766   0.075
10553SOL    HW232559   0.648   5.800   0.038
10554SOL     OW32560   6.902   4.862   0.071
10554SOL    HW132561   6.902   4.791   0.141
10554SOL    HW232562   6.994   4.900   0.062
10555SOL     OW32563   3.460   1.387   2.334
10555SOL    HW132564   3.438   1.322   2.407
10555SOL    HW232565   3.419   1.356   2.248
10556SOL     OW32566   2.119   3.363   5.017
10556SOL    HW132567   2.133   3.415   5.101
10556SOL    HW232568   2.109   3.266   5.039
10557SOL     OW32569   0.033   2.430   3.236
10557SOL    HW132570   0.065   2.513   3.280
10557SOL    HW232571   0.089   2.412   3.155
10558SOL     OW32572   4.171   6.920   5.304
10558SOL    HW132573   4.253   6.973   5.329
10558SOL    HW232574   4.197   6.844   5.245
10559SOL     OW32575   4.285   1.828   0.949
10559SOL    HW132576   4.254   1.764   1.019
10559SOL    HW232577   4.207   1.877   0.911
10560SOL     OW32578   1.115   4.209   5.057
10560SOL    HW132579   1.071   4.212   4.967
10560SOL    HW232580   1.196   4.151   5.053
10561SOL     OW32581   1.883   5.052   6.282
10561SOL    HW132582   1.954   5.075   6.215
10561SOL    HW232583   1.870   4.953   6.282
10562SOL     OW32584   4.598   1.015   0.734
10562SOL    HW132585   4.559   1.106   0.723
10562SOL    HW232586   4.613   0.997   0.831
10563SOL     OW32587   2.057   1.786   5.413
10563SOL    HW132588   2.003   1.721   5.466
10563SOL    HW232589   2.122   1.832   5.473
10564SOL     OW32590   5.946   0.914   1.674
10564SOL    HW132591   5.962   0.816   1.681
10564SOL    HW232592   5.856   0.930   1.632
10565SOL     OW32593   6.695   0.954   5.379
10565SOL    HW132594   6.707   0.973   5.477
10565SOL    HW232595   6.613   1.001   5.346
10566SOL     OW32596   3.440   3.911   6.397
10566SOL    HW132597   3.370   3.863   6.345
10566SOL    HW232598   3.423   4.010   6.394
10567SOL     OW32599   2.130   3.529   4.127
10567SOL    HW132600   2.215   3.581   4.141
10567SOL    HW232601   2.131   3.448   4.186
10568SOL     OW32602   5.679   1.354   2.180
10568SOL    HW132603   5.592   1.318   2.148
10568SOL    HW232604   5.668   1.392   2.271
10569SOL     OW32605   6.036   3.098   2.993
10569SOL    HW132606   5.958   3.110   2.931
10569SOL    HW232607   6.029   3.010   3.040
10570SOL     OW32608   1.977   4.576   2.550
10570SOL    HW132609   2.065   4.589   2.505
10570SOL    HW232610   1.981   4.496   2.610
10571SOL     OW32611   6.401   6.014   2.824
10571SOL    HW132612   6.445   5.956   2.755
10571SOL    HW232613   6.345   6.083   2.780
10572SOL     OW32614   5.490   3.720   2.525
10572SOL    HW132615   5.549   3.767   2.460
10572SOL    HW232616   5.539   3.704   2.610
10573SOL     OW32617   6.333   5.582   3.865
10573SOL    HW132618   6.409   5.624   3.816
10573SOL    HW232619   6.357   5.488   3.890
10574SOL     OW32620   1.224   1.910   3.188
10574SOL    HW132621   1.138   1.886   3.142
10574SOL    HW232622   1.292   1.839   3.172
10575SOL     OW32623   1.116   1.130   4.941
10575SOL    HW132624   1.043   1.063   4.929
10575SOL    HW232625   1.083   1.205   4.999
10576SOL     OW32626   1.774   5.578   5.046
10576SOL    HW132627   1.804   5.642   4.975
10576SOL    HW232628   1.750   5.491   5.005
10577SOL     OW32629   1.768   3.141   6.197
10577SOL    HW132630   1.743   3.230   6.157
10577SOL    HW232631   1.867   3.129   6.192
10578SOL     OW32632   5.909   0.102   5.297
10578SOL    HW132633   5.932   0.005   5.309
10578SOL    HW232634   5.988   0.158   5.323
10579SOL     OW32635   4.147   2.174   0.795
10579SOL    HW132636   4.098   2.241   0.851
10579SOL    HW232637   4.081   2.129   0.734
10580SOL     OW32638   6.601   5.752   6.560
10580SOL    HW132639   6.630   5.677   6.620
10580SOL    HW232640   6.659   5.755   6.479
10581SOL     OW32641   5.732   0.715   3.894
10581SOL    HW132642   5.700   0.795   3.944
10581SOL    HW232643   5.816   0.680   3.936
10582SOL     OW32644   3.847   5.455   6.726
10582SOL    HW132645   3.871   5.391   6.799
10582SOL    HW232646   3.850   5.408   6.638
10583SOL     OW32647   3.743   0.899   6.876
10583SOL    HW132648   3.820   0.837   6.886
10583SOL    HW232649   3.775   0.993   6.887
10584SOL     OW32650   5.308   6.228   1.475
10584SOL    HW132651   5.400   6.250   1.507
10584SOL    HW232652   5.258   6.179   1.547
10585SOL     OW32653   1.101   2.697   5.657
10585SOL    HW132654   1.075   2.764   5.588
10585SOL    HW232655   1.182   2.729   5.705
10586SOL     OW32656   2.754   5.866   5.860
10586SOL    HW132657   2.798   5.807   5.928
10586SOL    HW232658   2.711   5.943   5.907
10587SOL     OW32659   5.831   3.584   0.630
10587SOL    HW132660   5.775   3.595   0.548
10587SOL    HW232661   5.772   3.563   0.708
10588SOL     OW32662   0.841   4.740   2.520
10588SOL    HW132663   0.785   4.767   2.441
10588SOL    HW232664   0.799   4.660   2.564
10589SOL     OW32665   5.930   2.842   4.303
10589SOL    HW132666   5.834   2.849   4.328
10589SOL    HW232667   5.950   2.910   4.231
10590SOL     OW32668   1.410   0.313   3.312
10590SOL    HW132669   1.411   0.380   3.386
10590SOL    HW232670   1.359   0.232   3.342
10591SOL     OW32671   1.423   1.643   6.074
10591SOL    HW132672   1.423   1.543   6.071
10591SOL    HW232673   1.506   1.674   6.121
10592SOL     OW32674   0.160   1.337   0.470
10592SOL    HW132675   0.188   1.420   0.421
10592SOL    HW232676   0.204   1.258   0.428
10593SOL     OW32677   1.782   5.378   1.936
10593SOL    HW132678   1.882   5.385   1.938
10593SOL    HW232679   1.754   5.284   1.958
10594SOL     OW32680   6.298   1.713   4.021
10594SOL    HW132681   6.255   1.756   3.941
10594SOL    HW232682   6.334   1.784   4.081
10595SOL     OW32683   4.073   6.728   6.125
10595SOL    HW132684   4.124   6.754   6.043
10595SOL    HW232685   4.131   6.743   6.206
10596SOL     OW32686   4.427   0.202   2.155
10596SOL    HW132687   4.459   0.267   2.087
10596SOL    HW232688   4.347   0.240   2.203
10597SOL     OW32689   2.296   0.784   4.663
10597SOL    HW132690   2.327   0.698   4.624
10597SOL    HW232691   2.302   0.780   4.762
10598SOL     OW32692   1.855   2.218   6.736
10598SOL    HW132693   1.898   2.176   6.656
10598SOL    HW232694   1.826   2.311   6.714
10599SOL     OW32695   6.176   1.070   7.007
10599SOL    HW132696   6.270   1.099   6.986
10599SOL    HW232697   6.122   1.150   0.014
10600SOL     OW32698   3.154   2.734   5.853
10600SOL    HW132699   3.163   2.810   5.789
10600SOL    HW232700   3.075   2.748   5.912
10601SOL     OW32701   2.945   6.446   6.277
10601SOL    HW132702   2.971   6.373   6.215
10601SOL    HW232703   2.943   6.533   6.228
10602SOL     OW32704   4.987   1.273   1.214
10602SOL    HW132705   4.923   1.286   1.290
10602SOL    HW232706   4.965   1.337   1.141
10603SOL     OW32707   2.063   5.322   3.836
10603SOL    HW132708   2.087   5.328   3.933
10603SOL    HW232709   2.033   5.412   3.803
10604SOL     OW32710   6.828   4.588   4.611
10604SOL    HW132711   6.735   4.579   4.646
10604SOL    HW232712   6.826   4.630   4.521
10605SOL     OW32713   0.965   5.138   0.730
10605SOL    HW132714   1.016   5.097   0.806
10605SOL    HW232715   0.925   5.066   0.674
10606SOL     OW32716   0.081   0.716   1.698
10606SOL    HW132717   7.004   0.694   1.681
10606SOL    HW232718   0.104   0.693   1.793
10607SOL     OW32719   4.519   4.499   6.380
10607SOL    HW132720   4.587   4.443   6.332
10607SOL    HW232721   4.563   4.578   6.422
10608SOL     OW32722   5.730   1.390   4.441
10608SOL    HW132723   5.661   1.372   4.511
10608SOL    HW232724   5.719   1.484   4.408
10609SOL     OW32725   4.065   6.635   1.064
10609SOL    HW132726   4.025   6.658   1.153
10609SOL    HW232727   4.040   6.542   1.039
10610SOL     OW32728   1.401   3.366   5.949
10610SOL    HW132729   1.345   3.427   5.893
10610SOL    HW232730   1.489   3.351   5.903
10611SOL     OW32731   5.185   2.668   6.516
10611SOL    HW132732   5.203   2.741   6.449
10611SOL    HW232733   5.236   2.586   6.491
10612SOL     OW32734   2.316   6.632   6.106
10612SOL    HW132735   2.340   6.727   6.128
10612SOL    HW232736   2.398   6.574   6.114
10613SOL     OW32737   0.572   6.713   5.548
10613SOL    HW132738   0.505   6.732   5.476
10613SOL    HW232739   0.601   6.799   5.590
10614SOL     OW32740   6.262   1.108   4.312
10614SOL    HW132741   6.246   1.047   4.234
10614SOL    HW232742   6.248   1.203   4.284
10615SOL     OW32743   4.777   5.626   5.018
10615SOL    HW132744   4.774   5.551   5.084
10615SOL    HW232745   4.850   5.690   5.044
10616SOL     OW32746   3.253   6.428   0.946
10616SOL    HW132747   3.228   6.365   0.873
10616SOL    HW232748   3.221   6.519   0.924
10617SOL     OW32749   2.124   2.748   0.473
10617SOL    HW132750   2.191   2.681   0.442
10617SOL    HW232751   2.160   2.798   0.551
10618SOL     OW32752   5.812   2.372   0.100
10618SOL    HW132753   5.773   2.348   0.189
10618SOL    HW232754   5.909   2.394   0.111
10619SOL     OW32755   0.784   4.056   3.106
10619SOL    HW132756   0.703   4.059   3.164
10619SOL    HW232757   0.862   4.091   3.157
10620SOL     OW32758   1.960   6.171   4.642
10620SOL    HW132759   2.012   6.109   4.701
10620SOL    HW232760   1.887   6.214   4.696
10621SOL     OW32761   1.949   5.835   6.812
10621SOL    HW132762   1.886   5.912   6.805
10621SOL    HW232763   1.953   5.802   6.906
10622SOL     OW32764   3.760   0.102   1.748
10622SOL    HW132765   3.852   0.108   1.786
10622SOL    HW232766   3.704   0.041   1.804
10623SOL     OW32767   5.885   2.537   3.781
10623SOL    HW132768   5.942   2.567   3.704
10623SOL    HW232769   5.913   2.586   3.864
10624SOL     OW32770   1.544   1.203   4.780
10624SOL    HW132771   1.544   1.301   4.800
10624SOL    HW232772   1.484   1.155   4.845
10625SOL     OW32773   0.562   3.199   6.903
10625SOL    HW132774   0.483   3.197   6.842
10625SOL    HW232775   0.571   3.110   6.948
10626SOL     OW32776   0.713   1.843   1.541
10626SOL    HW132777   0.809   1.842   1.568
10626SOL    HW232778   0.704   1.810   1.447
10627SOL     OW32779   6.503   6.785   2.657
10627SOL    HW132780   6.574   6.743   2.601
10627SOL    HW232781   6.546   6.829   2.736
10628SOL     OW32782   6.410   5.595   5.748
10628SOL    HW132783   6.476   5.656   5.705
10628SOL    HW232784   6.458   5.522   5.796
10629SOL     OW32785   2.522   5.145   5.699
10629SOL    HW132786   2.548   5.215   5.766
10629SOL    HW232787   2.493   5.062   5.746
10630SOL     OW32788   5.889   1.155   3.198
10630SOL    HW132789   5.796   1.121   3.208
10630SOL    HW232790   5.893   1.251   3.225
10631SOL     OW32791   0.300   6.717   3.682
10631SOL    HW132792   0.233   6.665   3.627
10631SOL    HW232793   0.361   6.653   3.729
10632SOL     OW32794   6.619   2.550   4.934
10632SOL    HW132795   6.521   2.562   4.952
10632SOL    HW232796   6.652   2.468   4.981
10633SOL     OW32797   2.520   5.395   1.137
10633SOL    HW132798   2.452   5.443   1.191
10633SOL    HW232799   2.546   5.310   1.183
10634SOL     OW32800   3.535   6.112   1.186
10634SOL    HW132801   3.531   6.013   1.182
10634SOL    HW232802   3.631   6.141   1.185
10635SOL     OW32803   2.440   0.721   1.070
10635SOL    HW132804   2.438   0.622   1.056
10635SOL    HW232805   2.417   0.767   0.985
10636SOL     OW32806   0.738   1.986   1.214
10636SOL    HW132807   0.649   2.032   1.206
10636SOL    HW232808   0.725   1.891   1.240
10637SOL     OW32809   3.398   4.125   4.945
10637SOL    HW132810   3.338   4.092   4.872
10637SOL    HW232811   3.486   4.153   4.906
10638SOL     OW32812   6.458   6.309   4.591
10638SOL    HW132813   6.439   6.376   4.519
10638SOL    HW232814   6.516   6.351   4.661
10639SOL     OW32815   1.458   0.882   5.087
10639SOL    HW132816   1.444   0.810   5.019
10639SOL    HW232817   1.489   0.841   5.173
10640SOL     OW32818   4.967   1.242   6.692
10640SOL    HW132819   4.880   1.196   6.712
10640SOL    HW232820   5.039   1.174   6.680
10641SOL     OW32821   5.629   1.477   6.952
10641SOL    HW132822   5.562   1.431   7.011
10641SOL    HW232823   5.580   1.526   6.880
10642SOL     OW32824   0.091   2.015   1.789
10642SOL    HW132825   0.098   1.994   1.692
10642SOL    HW232826   0.150   1.953   1.841
10643SOL     OW32827   2.512   3.617   5.394
10643SOL    HW132828   2.580   3.582   5.458
10643SOL    HW232829   2.521   3.716   5.386
10644SOL     OW32830   4.495   1.679   4.004
10644SOL    HW132831   4.486   1.728   3.918
10644SOL    HW232832   4.494   1.744   4.080
10645SOL     OW32833   2.130   6.973   4.581
10645SOL    HW132834   2.127   6.874   4.569
10645SOL    HW232835   2.217   7.009   4.548
10646SOL     OW32836   1.448   2.795   5.736
10646SOL    HW132837   1.489   2.760   5.652
10646SOL    HW232838   1.366   2.848   5.714
10647SOL     OW32839   6.484   4.950   0.700
10647SOL    HW132840   6.581   4.976   0.697
10647SOL    HW232841   6.476   4.851   0.702
10648SOL     OW32842   4.878   2.974   6.942
10648SOL    HW132843   4.956   3.021   6.900
10648SOL    HW232844   4.812   2.950   6.872
10649SOL     OW32845   6.576   4.886   5.800
10649SOL    HW132846   6.588   4.880   5.701
10649SOL    HW232847   6.659   4.855   5.846
10650SOL     OW32848   2.873   6.509   4.108
10650SOL    HW132849   2.796   6.540   4.053
10650SOL    HW232850   2.925   6.441   4.056
10651SOL     OW32851   5.136   6.840   5.405
10651SOL    HW132852   5.076   6.864   5.328
10651SOL    HW232853   5.102   6.757   5.448
10652SOL     OW32854   3.670   0.377   6.008
10652SOL    HW132855   3.656   0.436   6.087
10652SOL    HW232856   3.586   0.326   5.989
10653SOL     OW32857   5.287   4.095   4.226
10653SOL    HW132858   5.225   4.018   4.238
10653SOL    HW232859   5.240   4.180   4.251
10654SOL     OW32860   3.459   0.905   0.925
10654SOL    HW132861   3.378   0.861   0.887
10654SOL    HW232862   3.433   0.990   0.970
10655SOL     OW32863   3.030   6.377   1.098
10655SOL    HW132864   3.127   6.365   1.075
10655SOL    HW232865   2.996   6.462   1.058
10656SOL     OW32866   6.536   2.536   0.104
10656SOL    HW132867   6.520   2.473   0.180
10656SOL    HW232868   6.525   2.630   0.137
10657SOL     OW32869   5.583   0.432   0.944
10657SOL    HW132870   5.569   0.405   0.849
10657SOL    HW232871   5.529   0.373   1.004
10658SOL     OW32872   0.832   5.309   4.031
10658SOL    HW132873   0.928   5.282   4.030
10658SOL    HW232874   0.774   5.228   4.041
10659SOL     OW32875   5.886   0.104   0.269
10659SOL    HW132876   5.891   0.177   0.337
10659SOL    HW232877   5.908   0.141   0.178
10660SOL     OW32878   4.539   4.769   5.469
10660SOL    HW132879   4.485   4.829   5.527
10660SOL    HW232880   4.625   4.814   5.445
10661SOL     OW32881   0.519   6.513   2.785
10661SOL    HW132882   0.554   6.517   2.691
10661SOL    HW232883   0.422   6.488   2.783
10662SOL     OW32884   6.776   1.371   0.791
10662SOL    HW132885   6.862   1.341   0.751
10662SOL    HW232886   6.786   1.466   0.824
10663SOL     OW32887   0.046   0.282   0.073
10663SOL    HW132888   0.117   0.300   0.141
10663SOL    HW232889   0.001   0.195   0.094
10664SOL     OW32890   2.241   5.250   6.981
10664SOL    HW132891   2.246   5.341   0.001
10664SOL    HW232892   2.278   5.183   0.026
10665SOL     OW32893   6.229   1.784   1.213
10665SOL    HW132894   6.324   1.781   1.180
10665SOL    HW232895   6.224   1.740   1.303
10666SOL     OW32896   2.357   5.932   0.235
10666SOL    HW132897   2.437   5.915   0.177
10666SOL    HW232898   2.274   5.927   0.179
10667SOL     OW32899   3.686   1.909   5.986
10667SOL    HW132900   3.749   1.962   6.043
10667SOL    HW232901   3.735   1.830   5.947
10668SOL     OW32902   1.675   1.457   6.566
10668SOL    HW132903   1.612   1.396   6.613
10668SOL    HW232904   1.682   1.544   6.616
10669SOL     OW32905   1.518   6.944   6.738
10669SOL    HW132906   1.553   0.017   6.749
10669SOL    HW232907   1.468   6.917   6.821
10670SOL     OW32908   5.730   4.417   5.778
10670SOL    HW132909   5.792   4.427   5.857
10670SOL    HW232910   5.662   4.491   5.780
10671SOL     OW32911   2.157   1.932   2.941
10671SOL    HW132912   2.094   1.994   2.988
10671SOL    HW232913   2.232   1.907   3.003
10672SOL     OW32914   6.986   3.010   1.369
10672SOL    HW132915   6.987   2.921   1.414
10672SOL    HW232916   6.981   3.082   1.438
10673SOL     OW32917   2.707   3.162   5.344
10673SOL    HW132918   2.806   3.147   5.334
10673SOL    HW232919   2.658   3.084   5.305
10674SOL     OW32920   4.073   3.454   1.620
10674SOL    HW132921   4.008   3.529   1.607
10674SOL    HW232922   4.118   3.464   1.708
10675SOL     OW32923   0.388   0.345   5.602
10675SOL    HW132924   0.361   0.386   5.515
10675SOL    HW232925   0.369   0.247   5.600
10676SOL     OW32926   6.294   6.852   6.404
10676SOL    HW132927   6.392   6.866   6.416
10676SOL    HW232928   6.278   6.768   6.351
10677SOL     OW32929   0.504   0.393   0.595
10677SOL    HW132930   0.545   0.481   0.571
10677SOL    HW232931   0.531   0.369   0.689
10678SOL     OW32932   2.142   5.798   2.234
10678SOL    HW132933   2.056   5.833   2.199
10678SOL    HW232934   2.201   5.874   2.261
10679SOL     OW32935   5.186   5.269   3.986
10679SOL    HW132936   5.095   5.288   3.949
10679SOL    HW232937   5.247   5.347   3.966
10680SOL     OW32938   1.515   3.350   2.723
10680SOL    HW132939   1.544   3.285   2.793
10680SOL    HW232940   1.510   3.303   2.635
10681SOL     OW32941   6.609   2.377   5.986
10681SOL    HW132942   6.521   2.363   6.031
10681SOL    HW232943   6.620   2.311   5.912
10682SOL     OW32944   0.089   1.459   2.738
10682SOL    HW132945   0.023   1.400   2.784
10682SOL    HW232946   0.168   1.405   2.709
10683SOL     OW32947   1.493   1.560   5.288
10683SOL    HW132948   1.552   1.553   5.207
10683SOL    HW232949   1.491   1.656   5.319
10684SOL     OW32950   6.459   4.666   0.361
10684SOL    HW132951   6.538   4.677   0.421
10684SOL    HW232952   6.439   4.568   0.351
10685SOL     OW32953   0.381   3.070   2.991
10685SOL    HW132954   0.446   3.014   3.043
10685SOL    HW232955   0.429   3.118   2.918
10686SOL     OW32956   3.215   5.422   6.980
10686SOL    HW132957   3.220   5.388   6.887
10686SOL    HW232958   3.306   5.419   0.002
10687SOL     OW32959   0.302   4.713   3.084
10687SOL    HW132960   0.211   4.755   3.085
10687SOL    HW232961   0.352   4.746   3.004
10688SOL     OW32962   6.596   4.904   1.737
10688SOL    HW132963   6.535   4.930   1.812
10688SOL    HW232964   6.546   4.906   1.651
10689SOL     OW32965   0.810   0.633   2.521
10689SOL    HW132966   0.737   0.685   2.476
10689SOL    HW232967   0.773   0.590   2.604
10690SOL     OW32968   4.241   4.940   1.792
10690SOL    HW132969   4.249   4.875   1.867
10690SOL    HW232970   4.222   4.890   1.707
10691SOL     OW32971   0.068   1.243   1.713
10691SOL    HW132972   0.057   1.259   1.615
10691SOL    HW232973   7.010   1.190   1.747
10692SOL     OW32974   3.715   6.217   3.608
10692SOL    HW132975   3.667   6.255   3.529
10692SOL    HW232976   3.736   6.121   3.592
10693SOL     OW32977   6.680   1.811   1.842
10693SOL    HW132978   6.745   1.772   1.778
10693SOL    HW232979   6.611   1.743   1.866
10694SOL     OW32980   3.946   6.445   0.106
10694SOL    HW132981   4.042   6.430   0.082
10694SOL    HW232982   3.930   6.542   0.121
10695SOL     OW32983   0.299   2.813   3.938
10695SOL    HW132984   0.238   2.794   3.861
10695SOL    HW232985   0.375   2.749   3.937
10696SOL     OW32986   6.979   6.038   1.768
10696SOL    HW132987   6.975   5.947   1.725
10696SOL    HW232988   6.972   6.028   1.867
10697SOL     OW32989   1.892   5.705   3.591
10697SOL    HW132990   1.835   5.718   3.510
10697SOL    HW232991   1.960   5.778   3.595
10698SOL     OW32992   2.911   6.636   3.696
10698SOL    HW132993   2.985   6.695   3.727
10698SOL    HW232994   2.882   6.664   3.604
10699SOL     OW32995   2.789   2.210   3.108
10699SOL    HW132996   2.846   2.243   3.183
10699SOL    HW232997   2.839   2.142   3.055
10700SOL     OW32998   6.614   6.800   0.761
10700SOL    HW132999   6.529   6.825   0.806
10700SOL    HW233000   6.646   6.713   0.797
10701SOL     OW33001   2.587   6.543   1.256
10701SOL    HW133002   2.503   6.566   1.206
10701SOL    HW233003   2.578   6.572   1.351
10702SOL     OW33004   6.275   2.870   1.060
10702SOL    HW133005   6.333   2.796   1.026
10702SOL    HW233006   6.212   2.899   0.988
10703SOL     OW33007   3.696   4.029   4.145
10703SOL    HW133008   3.663   3.946   4.189
10703SOL    HW233009   3.731   4.092   4.215
10704SOL     OW33010   4.976   0.246   2.178
10704SOL    HW133011   4.890   0.257   2.230
10704SOL    HW233012   5.049   0.294   2.226
10705SOL     OW33013   0.384   3.078   6.150
10705SOL    HW133014   0.459   3.076   6.083
10705SOL    HW233015   0.311   3.137   6.116
10706SOL     OW33016   3.458   0.964   2.325
10706SOL    HW133017   3.462   1.020   2.409
10706SOL    HW233018   3.432   1.023   2.248
10707SOL     OW33019   5.986   0.052   6.116
10707SOL    HW133020   5.936   0.050   6.030
10707SOL    HW233021   6.078   0.086   6.100
10708SOL     OW33022   4.552   1.268   0.701
10708SOL    HW133023   4.589   1.276   0.609
10708SOL    HW233024   4.533   1.359   0.737
10709SOL     OW33025   6.334   6.289   5.851
10709SOL    HW133026   6.299   6.381   5.872
10709SOL    HW233027   6.430   6.296   5.822
10710SOL     OW33028   5.850   5.430   3.246
10710SOL    HW133029   5.750   5.431   3.251
10710SOL    HW233030   5.888   5.430   3.338
10711SOL     OW33031   1.508   6.768   3.845
10711SOL    HW133032   1.417   6.759   3.804
10711SOL    HW233033   1.498   6.794   3.941
10712SOL     OW33034   3.623   1.671   5.022
10712SOL    HW133035   3.557   1.597   5.019
10712SOL    HW233036   3.654   1.693   4.929
10713SOL     OW33037   0.957   5.794   1.390
10713SOL    HW133038   0.860   5.774   1.393
10713SOL    HW233039   0.983   5.823   1.298
10714SOL     OW33040   6.903   5.065   5.945
10714SOL    HW133041   6.957   5.107   6.018
10714SOL    HW233042   6.963   5.010   5.887
10715SOL     OW33043   5.707   1.201   4.229
10715SOL    HW133044   5.732   1.230   4.137
10715SOL    HW233045   5.741   1.267   4.296
10716SOL     OW33046   6.206   0.312   3.510
10716SOL    HW133047   6.291   0.262   3.496
10716SOL    HW233048   6.195   0.380   3.438
10717SOL     OW33049   6.911   0.204   1.334
10717SOL    HW133050   6.839   0.271   1.355
10717SOL    HW233051   7.000   0.251   1.335
10718SOL     OW33052   0.083   4.802   0.353
10718SOL    HW133053   0.143   4.752   0.416
10718SOL    HW233054   0.010   4.743   0.322
10719SOL     OW33055   5.603   0.782   1.734
10719SOL    HW133056   5.625   0.696   1.781
10719SOL    HW233057   5.541   0.836   1.791
10720SOL     OW33058   0.333   3.240   6.520
10720SOL    HW133059   0.287   3.217   6.605
10720SOL    HW233060   0.415   3.183   6.510
10721SOL     OW33061   4.870   2.431   4.132
10721SOL    HW133062   4.873   2.367   4.209
10721SOL    HW233063   4.933   2.507   4.150
10722SOL     OW33064   0.189   3.941   0.122
10722SOL    HW133065   0.201   3.900   0.212
10722SOL    HW233066   0.180   3.869   0.053
10723SOL     OW33067   6.481   4.173   6.726
10723SOL    HW133068   6.493   4.123   6.812
10723SOL    HW233069   6.425   4.119   6.663
10724SOL     OW33070   4.086   6.634   5.610
10724SOL    HW133071   4.125   6.660   5.522
10724SOL    HW233072   3.989   6.656   5.611
10725SOL     OW33073   6.702   6.081   5.074
10725SOL    HW133074   6.763   6.161   5.078
10725SOL    HW233075   6.639   6.084   5.151
10726SOL     OW33076   5.037   0.712   4.317
10726SOL    HW133077   4.973   0.765   4.373
10726SOL    HW233078   5.005   0.711   4.222
10727SOL     OW33079   2.344   6.110   6.164
10727SOL    HW133080   2.322   6.043   6.093
10727SOL    HW233081   2.308   6.199   6.137
10728SOL     OW33082   5.137   5.750   2.891
10728SOL    HW133083   5.201   5.693   2.842
10728SOL    HW233084   5.043   5.718   2.876
10729SOL     OW33085   5.748   2.899   3.028
10729SOL    HW133086   5.841   2.892   3.064
10729SOL    HW233087   5.684   2.862   3.095
10730SOL     OW33088   2.178   6.256   2.716
10730SOL    HW133089   2.212   6.174   2.670
10730SOL    HW233090   2.241   6.282   2.789
10731SOL     OW33091   4.808   0.034   6.173
10731SOL    HW133092   4.726   0.031   6.116
10731SOL    HW233093   4.832   0.130   6.192
10732SOL     OW33094   6.218   6.428   2.859
10732SOL    HW133095   6.234   6.512   2.911
10732SOL    HW233096   6.180   6.359   2.921
10733SOL     OW33097   0.510   0.958   6.277
10733SOL    HW133098   0.464   0.955   6.188
10733SOL    HW233099   0.607   0.979   6.265
10734SOL     OW33100   0.943   1.605   5.188
10734SOL    HW133101   1.000   1.600   5.270
10734SOL    HW233102   0.958   1.694   5.143
10735SOL     OW33103   1.141   5.668   2.267
10735SOL    HW133104   1.178   5.678   2.359
10735SOL    HW233105   1.193   5.598   2.218
10736SOL     OW33106   5.891   6.675   3.448
10736SOL    HW133107   5.890   6.594   3.507
10736SOL    HW233108   5.870   6.756   3.502
10737SOL     OW33109   6.523   1.324   1.948
10737SOL    HW133110   6.622   1.338   1.937
10737SOL    HW233111   6.493   1.368   2.032
10738SOL     OW33112   3.489   1.007   1.688
10738SOL    HW133113   3.466   1.044   1.778
10738SOL    HW233114   3.574   1.048   1.655
10739SOL     OW33115   5.369   2.475   3.137
10739SOL    HW133116   5.361   2.454   3.039
10739SOL    HW233117   5.279   2.503   3.172
10740SOL     OW33118   1.848   6.717   6.134
10740SOL    HW133119   1.880   6.696   6.041
10740SOL    HW233120   1.903   6.790   6.173
10741SOL     OW33121   2.621   2.429   3.748
10741SOL    HW133122   2.640   2.446   3.651
10741SOL    HW233123   2.557   2.352   3.756
10742SOL     OW33124   6.272   6.631   2.607
10742SOL    HW133125   6.347   6.692   2.634
10742SOL    HW233126   6.222   6.602   2.688
10743SOL     OW33127   3.404   1.023   5.660
10743SOL    HW133128   3.325   0.991   5.712
10743SOL    HW233129   3.487   0.985   5.700
10744SOL     OW33130   1.652   0.267   0.647
10744SOL    HW133131   1.569   0.250   0.700
10744SOL    HW233132   1.724   0.204   0.676
10745SOL     OW33133   1.528   5.109   1.670
10745SOL    HW133134   1.542   5.046   1.747
10745SOL    HW233135   1.465   5.067   1.604
10746SOL     OW33136   2.010   5.936   6.467
10746SOL    HW133137   2.030   5.839   6.482
10746SOL    HW233138   2.056   5.990   6.538
10747SOL     OW33139   5.942   1.107   4.891
10747SOL    HW133140   5.874   1.135   4.958
10747SOL    HW233141   5.900   1.044   4.825
10748SOL     OW33142   4.157   6.253   0.661
10748SOL    HW133143   4.128   6.347   0.684
10748SOL    HW233144   4.116   6.227   0.574
10749SOL     OW33145   5.554   5.926   2.170
10749SOL    HW133146   5.493   5.884   2.237
10749SOL    HW233147   5.503   5.952   2.089
10750SOL     OW33148   4.881   2.238   4.315
10750SOL    HW133149   4.818   2.165   4.342
10750SOL    HW233150   4.964   2.232   4.371
10751SOL     OW33151   0.079   4.948   5.359
10751SOL    HW133152   0.125   4.877   5.412
10751SOL    HW233153   0.042   5.018   5.421
10752SOL     OW33154   5.931   6.269   0.479
10752SOL    HW133155   5.871   6.317   0.543
10752SOL    HW233156   5.971   6.189   0.524
10753SOL     OW33157   4.599   6.478   4.029
10753SOL    HW133158   4.612   6.461   4.126
10753SOL    HW233159   4.512   6.436   4.000
10754SOL     OW33160   1.073   3.844   1.598
10754SOL    HW133161   1.018   3.820   1.519
10754SOL    HW233162   1.097   3.941   1.594
10755SOL     OW33163   6.170   3.045   1.456
10755SOL    HW133164   6.100   3.114   1.439
10755SOL    HW233165   6.228   3.036   1.375
10756SOL     OW33166   0.750   1.563   0.764
10756SOL    HW133167   0.737   1.499   0.689
10756SOL    HW233168   0.703   1.529   0.845
10757SOL     OW33169   0.578   3.989   1.579
10757SOL    HW133170   0.611   3.991   1.674
10757SOL    HW233171   0.639   3.931   1.524
10758SOL     OW33172   0.715   0.543   6.539
10758SOL    HW133173   0.710   0.633   6.496
10758SOL    HW233174   0.682   0.550   6.634
10759SOL     OW33175   2.596   2.171   6.443
10759SOL    HW133176   2.622   2.076   6.428
10759SOL    HW233177   2.593   2.219   6.355
10760SOL     OW33178   0.819   5.327   0.579
10760SOL    HW133179   0.722   5.323   0.601
10760SOL    HW233180   0.871   5.275   0.647
10761SOL     OW33181   0.494   1.301   6.072
10761SOL    HW133182   0.450   1.319   5.983
10761SOL    HW233183   0.554   1.222   6.064
10762SOL     OW33184   3.112   6.152   6.175
10762SOL    HW133185   3.041   6.102   6.125
10762SOL    HW233186   3.201   6.136   6.132
10763SOL     OW33187   5.321   0.057   3.465
10763SOL    HW133188   5.270   0.024   3.386
10763SOL    HW233189   5.306   0.155   3.476
10764SOL     OW33190   4.435   0.815   4.454
10764SOL    HW133191   4.492   0.737   4.480
10764SOL    HW233192   4.339   0.795   4.475
10765SOL     OW33193   6.708   1.845   2.663
10765SOL    HW133194   6.780   1.911   2.687
10765SOL    HW233195   6.747   1.753   2.662
10766SOL     OW33196   1.492   5.080   6.344
10766SOL    HW133197   1.561   5.142   6.306
10766SOL    HW233198   1.509   4.987   6.311
10767SOL     OW33199   1.860   5.453   0.568
10767SOL    HW133200   1.945   5.473   0.519
10767SOL    HW233201   1.794   5.412   0.504
10768SOL     OW33202   5.584   5.830   0.847
10768SOL    HW133203   5.544   5.914   0.811
10768SOL    HW233204   5.529   5.752   0.818
10769SOL     OW33205   3.483   2.809   4.824
10769SOL    HW133206   3.542   2.810   4.904
10769SOL    HW233207   3.446   2.718   4.811
10770SOL     OW33208   5.410   0.021   3.850
10770SOL    HW133209   5.474   0.082   3.803
10770SOL    HW233210   5.460   6.967   3.894
10771SOL     OW33211   4.593   6.144   5.607
10771SOL    HW133212   4.637   6.197   5.534
10771SOL    HW233213   4.561   6.206   5.678
10772SOL     OW33214   5.883   4.709   2.693
10772SOL    HW133215   5.844   4.800   2.680
10772SOL    HW233216   5.830   4.660   2.763
10773SOL     OW33217   6.795   3.886   1.723
10773SOL    HW133218   6.740   3.817   1.677
10773SOL    HW233219   6.830   3.952   1.656
10774SOL     OW33220   1.101   3.142   0.587
10774SOL    HW133221   1.055   3.068   0.635
10774SOL    HW233222   1.114   3.219   0.649
10775SOL     OW33223   1.512   4.264   0.529
10775SOL    HW133224   1.594   4.212   0.555
10775SOL    HW233225   1.443   4.255   0.601
10776SOL     OW33226   1.182   2.089   3.631
10776SOL    HW133227   1.135   2.150   3.567
10776SOL    HW233228   1.141   1.998   3.626
10777SOL     OW33229   3.372   1.401   2.019
10777SOL    HW133230   3.305   1.475   2.021
10777SOL    HW233231   3.450   1.427   1.962
10778SOL     OW33232   6.067   6.514   3.130
10778SOL    HW133233   6.114   6.448   3.189
10778SOL    HW233234   5.972   6.485   3.117
10779SOL     OW33235   5.208   3.815   4.574
10779SOL    HW133236   5.279   3.840   4.508
10779SOL    HW233237   5.161   3.898   4.605
10780SOL     OW33238   1.754   5.983   4.875
10780SOL    HW133239   1.681   6.008   4.939
10780SOL    HW233240   1.716   5.976   4.783
10781SOL     OW33241   6.028   2.185   5.251
10781SOL    HW133242   6.045   2.161   5.347
10781SOL    HW233243   5.967   2.118   5.210
10782SOL     OW33244   1.516   2.708   5.049
10782SOL    HW133245   1.448   2.735   4.981
10782SOL    HW233246   1.507   2.765   5.131
10783SOL     OW33247   1.223   2.922   2.626
10783SOL    HW133248   1.316   2.957   2.623
10783SOL    HW233249   1.166   2.984   2.680
10784SOL     OW33250   3.672   6.147   2.277
10784SOL    HW133251   3.672   6.213   2.352
10784SOL    HW233252   3.718   6.187   2.198
10785SOL     OW33253   2.031   5.674   2.452
10785SOL    HW133254   1.948   5.640   2.407
10785SOL    HW233255   2.090   5.718   2.385
10786SOL     OW33256   3.831   1.272   1.762
10786SOL    HW133257   3.797   1.362   1.787
10786SOL    HW233258   3.931   1.274   1.756
10787SOL     OW33259   3.640   1.088   3.386
10787SOL    HW133260   3.738   1.086   3.410
10787SOL    HW233261   3.630   1.101   3.288
10788SOL     OW33262   0.827   4.705   0.549
10788SOL    HW133263   0.920   4.740   0.557
10788SOL    HW233264   0.829   4.605   0.549
10789SOL     OW33265   6.457   1.494   0.955
10789SOL    HW133266   6.547   1.537   0.957
10789SOL    HW233267   6.424   1.489   0.860
10790SOL     OW33268   0.575   2.103   4.815
10790SOL    HW133269   0.476   2.091   4.823
10790SOL    HW233270   0.620   2.040   4.878
10791SOL     OW33271   1.489   1.934   3.477
10791SOL    HW133272   1.558   1.868   3.508
10791SOL    HW233273   1.408   1.884   3.446
10792SOL     OW33274   4.078   1.715   1.604
10792SOL    HW133275   4.069   1.811   1.631
10792SOL    HW233276   4.056   1.705   1.507
10793SOL     OW33277   4.281   1.768   4.708
10793SOL    HW133278   4.223   1.749   4.787
10793SOL    HW233279   4.253   1.711   4.631
10794SOL     OW33280   4.370   2.484   0.811
10794SOL    HW133281   4.400   2.449   0.723
10794SOL    HW233282   4.447   2.482   0.875
10795SOL     OW33283   0.354   3.705   3.567
10795SOL    HW133284   0.267   3.711   3.519
10795SOL    HW233285   0.403   3.623   3.538
10796SOL     OW33286   0.304   6.825   6.243
10796SOL    HW133287   0.277   6.908   6.292
10796SOL    HW233288   0.248   6.748   6.274
10797SOL     OW33289   4.135   4.011   0.076
10797SOL    HW133290   4.147   3.913   0.057
10797SOL    HW233291   4.064   4.023   0.145
10798SOL     OW33292   2.438   6.799   6.868
10798SOL    HW133293   2.513   6.783   6.803
10798SOL    HW233294   2.453   6.884   6.917
10799SOL     OW33295   2.619   1.248   2.972
10799SOL    HW133296   2.531   1.203   2.955
10799SOL    HW233297   2.690   1.179   2.984
10800SOL     OW33298   1.956   0.217   5.674
10800SOL    HW133299   1.876   0.265   5.710
10800SOL    HW233300   1.948   0.119   5.694
10801SOL     OW33301   2.595   6.482   6.086
10801SOL    HW133302   2.667   6.421   6.053
10801SOL    HW233303   2.605   6.572   6.042
10802SOL     OW33304   0.563   4.340   4.306
10802SOL    HW133305   0.532   4.430   4.274
10802SOL    HW233306   0.661   4.332   4.290
10803SOL     OW33307   0.282   4.216   4.765
10803SOL    HW133308   0.229   4.277   4.824
10803SOL    HW233309   0.219   4.154   4.717
10804SOL     OW33310   5.054   4.677   1.142
10804SOL    HW133311   5.080   4.727   1.225
10804SOL    HW233312   4.977   4.616   1.163
10805SOL     OW33313   4.167   6.723   0.343
10805SOL    HW133314   4.203   6.751   0.254
10805SOL    HW233315   4.193   6.628   0.360
10806SOL     OW33316   5.208   3.592   0.080
10806SOL    HW133317   5.214   3.691   0.086
10806SOL    HW233318   5.149   3.567   0.003
10807SOL     OW33319   4.506   6.644   3.348
10807SOL    HW133320   4.582   6.672   3.288
10807SOL    HW233321   4.458   6.726   3.380
10808SOL     OW33322   0.026   2.504   6.472
10808SOL    HW133323   6.984   2.572   6.511
10808SOL    HW233324   0.120   2.521   6.504
10809SOL     OW33325   2.470   1.073   3.438
10809SOL    HW133326   2.531   1.025   3.501
10809SOL    HW233327   2.503   1.167   3.425
10810SOL     OW33328   0.195   1.733   5.857
10810SOL    HW133329   0.200   1.769   5.764
10810SOL    HW233330   0.232   1.640   5.858
10811SOL     OW33331   4.654   4.515   5.549
10811SOL    HW133332   4.636   4.531   5.646
10811SOL    HW233333   4.608   4.586   5.495
10812SOL     OW33334   6.758   2.178   3.137
10812SOL    HW133335   6.801   2.088   3.136
10812SOL    HW233336   6.738   2.205   3.231
10813SOL     OW33337   2.818   6.347   1.705
10813SOL    HW133338   2.863   6.311   1.623
10813SOL    HW233339   2.888   6.374   1.771
10814SOL     OW33340   1.895   6.724   4.797
10814SOL    HW133341   1.988   6.755   4.819
10814SOL    HW233342   1.837   6.803   4.779
10815SOL     OW33343   5.014   2.232   2.786
10815SOL    HW133344   4.995   2.151   2.731
10815SOL    HW233345   4.980   2.313   2.739
10816SOL     OW33346   2.264   1.827   1.998
10816SOL    HW133347   2.264   1.733   2.032
10816SOL    HW233348   2.327   1.883   2.052
10817SOL     OW33349   4.710   0.006   2.278
10817SOL    HW133350   4.695   6.957   2.206
10817SOL    HW233351   4.624   0.019   2.328
10818SOL     OW33352   5.060   3.534   6.854
10818SOL    HW133353   5.127   3.481   6.802
10818SOL    HW233354   4.986   3.563   6.794
10819SOL     OW33355   0.349   3.846   6.390
10819SOL    HW133356   0.312   3.914   6.326
10819SOL    HW233357   0.412   3.891   6.454
10820SOL     OW33358   0.228   0.067   4.457
10820SOL    HW133359   0.205   0.086   4.362
10820SOL    HW233360   0.275   0.146   4.497
10821SOL     OW33361   6.814   0.237   0.380
10821SOL    HW133362   6.756   0.200   0.452
10821SOL    HW233363   6.879   0.302   0.419
10822SOL     OW33364   1.474   4.494   0.977
10822SOL    HW133365   1.544   4.544   0.925
10822SOL    HW233366   1.488   4.396   0.966
10823SOL     OW33367   1.461   0.817   1.199
10823SOL    HW133368   1.479   0.776   1.110
10823SOL    HW233369   1.487   0.754   1.272
10824SOL     OW33370   5.495   0.578   2.651
10824SOL    HW133371   5.444   0.664   2.658
10824SOL    HW233372   5.512   0.542   2.742
10825SOL     OW33373   3.324   1.223   1.341
10825SOL    HW133374   3.412   1.254   1.303
10825SOL    HW233375   3.318   1.251   1.437
10826SOL     OW33376   6.672   3.280   1.785
10826SOL    HW133377   6.750   3.275   1.847
10826SOL    HW233378   6.661   3.193   1.737
10827SOL     OW33379   0.094   2.779   4.110
10827SOL    HW133380   0.040   2.861   4.091
10827SOL    HW233381   0.174   2.778   4.049
10828SOL     OW33382   1.144   5.662   0.348
10828SOL    HW133383   1.191   5.745   0.377
10828SOL    HW233384   1.060   5.651   0.400
10829SOL     OW33385   2.665   3.489   1.227
10829SOL    HW133386   2.675   3.441   1.139
10829SOL    HW233387   2.743   3.550   1.240
10830SOL     OW33388   4.706   2.227   3.681
10830SOL    HW133389   4.786   2.172   3.705
10830SOL    HW233390   4.632   2.167   3.651
10831SOL     OW33391   5.443   2.201   3.135
10831SOL    HW133392   5.521   2.181   3.193
10831SOL    HW233393   5.432   2.300   3.127
10832SOL     OW33394   6.951   1.789   1.287
10832SOL    HW133395   6.981   1.740   1.369
10832SOL    HW233396   6.976   1.736   1.206
10833SOL     OW33397   3.122   6.714   4.601
10833SOL    HW133398   3.024   6.730   4.590
10833SOL    HW233399   3.137   6.624   4.643
10834SOL     OW33400   0.253   0.822   5.263
10834SOL    HW133401   0.253   0.919   5.289
10834SOL    HW233402   0.172   0.802   5.208
10835SOL     OW33403   6.570   1.758   2.397
10835SOL    HW133404   6.539   1.664   2.396
10835SOL    HW233405   6.586   1.788   2.491
10836SOL     OW33406   1.938   2.410   6.463
10836SOL    HW133407   1.840   2.391   6.458
10836SOL    HW233408   1.972   2.435   6.372
10837SOL     OW33409   0.813   5.496   1.101
10837SOL    HW133410   0.806   5.485   1.002
10837SOL    HW233411   0.727   5.469   1.144
10838SOL     OW33412   5.904   6.856   0.413
10838SOL    HW133413   5.912   6.948   0.374
10838SOL    HW233414   5.938   6.857   0.507
10839SOL     OW33415   2.077   2.328   0.884
10839SOL    HW133416   2.094   2.263   0.959
10839SOL    HW233417   1.980   2.325   0.860
10840SOL     OW33418   3.644   5.586   2.492
10840SOL    HW133419   3.617   5.681   2.478
10840SOL    HW233420   3.582   5.543   2.558
10841SOL     OW33421   4.386   3.875   5.977
10841SOL    HW133422   4.324   3.819   6.031
10841SOL    HW233423   4.455   3.916   6.037
10842SOL     OW33424   6.252   2.828   1.773
10842SOL    HW133425   6.163   2.810   1.815
10842SOL    HW233426   6.294   2.907   1.817
10843SOL     OW33427   0.413   1.116   1.665
10843SOL    HW133428   0.500   1.161   1.685
10843SOL    HW233429   0.421   1.018   1.685
10844SOL     OW33430   3.951   6.558   3.616
10844SOL    HW133431   3.856   6.559   3.647
10844SOL    HW233432   4.001   6.486   3.665
10845SOL     OW33433   2.420   2.381   0.592
10845SOL    HW133434   2.422   2.479   0.570
10845SOL    HW233435   2.474   2.364   0.675
10846SOL     OW33436   3.209   2.105   1.989
10846SOL    HW133437   3.290   2.108   2.047
10846SOL    HW233438   3.218   2.172   1.916
10847SOL     OW33439   4.374   2.796   6.185
10847SOL    HW133440   4.341   2.798   6.091
10847SOL    HW233441   4.335   2.872   6.236
10848SOL     OW33442   1.501   1.013   6.846
10848SOL    HW133443   1.542   1.096   6.810
10848SOL    HW233444   1.402   1.024   6.851
10849SOL     OW33445   2.744   4.717   4.116
10849SOL    HW133446   2.806   4.672   4.180
10849SOL    HW233447   2.709   4.801   4.157
10850SOL     OW33448   5.029   6.955   1.134
10850SOL    HW133449   5.086   0.006   1.092
10850SOL    HW233450   5.085   6.899   1.195
10851SOL     OW33451   4.325   1.974   6.599
10851SOL    HW133452   4.413   1.981   6.550
10851SOL    HW233453   4.250   1.979   6.533
10852SOL     OW33454   0.744   0.053   6.330
10852SOL    HW133455   0.662   0.043   6.387
10852SOL    HW233456   0.721   0.105   6.248
10853SOL     OW33457   2.182   1.709   4.532
10853SOL    HW133458   2.174   1.731   4.629
10853SOL    HW233459   2.108   1.649   4.505
10854SOL     OW33460   6.875   6.476   0.171
10854SOL    HW133461   6.838   6.568   0.161
10854SOL    HW233462   6.962   6.480   0.220
10855SOL     OW33463   1.173   6.383   1.145
10855SOL    HW133464   1.266   6.347   1.138
10855SOL    HW233465   1.108   6.310   1.129
10856SOL     OW33466   6.148   0.159   6.566
10856SOL    HW133467   6.107   0.109   6.490
10856SOL    HW233468   6.243   0.132   6.577
10857SOL     OW33469   6.319   0.546   4.426
10857SOL    HW133470   6.379   0.612   4.472
10857SOL    HW233471   6.360   0.455   4.432
10858SOL     OW33472   1.933   1.834   1.049
10858SOL    HW133473   2.015   1.859   0.998
10858SOL    HW233474   1.933   1.882   1.137
10859SOL     OW33475   0.781   4.992   2.352
10859SOL    HW133476   0.872   5.029   2.334
10859SOL    HW233477   0.717   5.026   2.283
10860SOL     OW33478   6.389   1.919   0.900
10860SOL    HW133479   6.382   2.007   0.945
10860SOL    HW233480   6.301   1.871   0.905
10861SOL     OW33481   3.394   2.921   2.277
10861SOL    HW133482   3.473   2.872   2.240
10861SOL    HW233483   3.409   2.941   2.373
10862SOL     OW33484   4.010   3.049   5.575
10862SOL    HW133485   3.984   3.128   5.632
10862SOL    HW233486   3.933   3.023   5.517
10863SOL     OW33487   2.334   1.623   2.964
10863SOL    HW133488   2.382   1.635   2.877
10863SOL    HW233489   2.236   1.619   2.947
10864SOL     OW33490   3.149   4.866   2.144
10864SOL    HW133491   3.082   4.883   2.215
10864SOL    HW233492   3.103   4.830   2.062
10865SOL     OW33493   3.446   1.291   3.246
10865SOL    HW133494   3.527   1.246   3.208
10865SOL    HW233495   3.386   1.320   3.172
10866SOL     OW33496   0.099   3.754   3.410
10866SOL    HW133497   0.048   3.689   3.352
10866SOL    HW233498   0.094   3.845   3.369
10867SOL     OW33499   4.585   3.316   0.597
10867SOL    HW133500   4.539   3.280   0.679
10867SOL    HW233501   4.658   3.378   0.626
10868SOL     OW33502   1.068   1.421   4.960
10868SOL    HW133503   1.036   1.459   5.047
10868SOL    HW233504   0.989   1.407   4.899
10869NA      NA33505   6.784   2.505   6.063
10870NA      NA33506   4.484   4.639   5.093
10871NA      NA33507   1.213   4.856   2.752
10872NA      NA33508   5.624   3.863   3.563
10873NA      NA33509   3.837   2.302   5.381
10874NA      NA33510   2.301   4.968   0.292
10875NA      NA33511   1.404   5.460   6.941
10876NA      NA33512   3.436   4.309   1.050
10877NA      NA33513   4.511   5.320   0.810
10878NA      NA33514   3.318   0.766   6.241
10879NA      NA33515   5.409   6.799   2.041
10880NA      NA33516   1.784   6.829   5.344
10881NA      NA33517   4.149   5.164   1.806
10882NA      NA33518   3.624   3.231   6.834
   7.01953   7.01953   7.01953
