Generated by trjconv : CNT in water t= 269.00000
33518
    1C        C    1   2.847   2.770   4.750
    1C        C    2   2.902   2.717   4.870
    1C        C    3   2.841   2.770   4.984
    1C        C    4   2.849   2.772   4.261
    1C        C    5   2.903   2.726   4.383
    1C        C    6   2.845   2.771   4.504
    1C        C    7   3.012   2.643   4.627
    1C        C    8   2.893   2.719   4.627
    1C        C    9   3.076   2.604   4.747
    1C        C   10   3.011   2.628   4.870
    1C        C   11   3.183   2.494   4.980
    1C        C   12   3.062   2.566   4.984
    1C        C   13   2.850   2.772   3.772
    1C        C   14   2.902   2.721   3.893
    1C        C   15   2.849   2.769   4.014
    1C        C   16   3.016   2.643   4.140
    1C        C   17   2.901   2.726   4.138
    1C        C   18   3.079   2.609   4.262
    1C        C   19   3.019   2.646   4.385
    1C        C   20   3.210   2.558   4.506
    1C        C   21   3.079   2.610   4.507
    1C        C   22   3.280   2.543   4.627
    1C        C   23   3.208   2.549   4.748
    1C        C   24   3.412   2.481   4.868
    1C        C   25   3.270   2.501   4.867
    1C        C   26   3.492   2.477   4.983
    1C        C   27   2.849   2.764   3.283
    1C        C   28   2.903   2.721   3.406
    1C        C   29   2.849   2.767   3.529
    1C        C   30   3.015   2.635   3.651
    1C        C   31   2.902   2.720   3.651
    1C        C   32   3.078   2.604   3.774
    1C        C   33   3.015   2.636   3.896
    1C        C   34   3.205   2.546   4.017
    1C        C   35   3.075   2.600   4.019
    1C        C   36   3.277   2.534   4.138
    1C        C   37   3.211   2.558   4.261
    1C        C   38   3.416   2.507   4.383
    1C        C   39   3.277   2.536   4.383
    1C        C   40   3.486   2.503   4.505
    1C        C   41   3.417   2.507   4.628
    1C        C   42   3.630   2.489   4.745
    1C        C   43   3.488   2.493   4.749
    1C        C   44   3.704   2.492   4.866
    1C        C   45   3.631   2.474   4.984
    1C        C   46   2.835   2.752   2.794
    1C        C   47   2.894   2.710   2.916
    1C        C   48   2.844   2.763   3.038
    1C        C   49   3.016   2.637   3.163
    1C        C   50   2.898   2.716   3.160
    1C        C   51   3.078   2.601   3.285
    1C        C   52   3.016   2.637   3.407
    1C        C   53   3.206   2.545   3.528
    1C        C   54   3.075   2.597   3.529
    1C        C   55   3.274   2.525   3.651
    1C        C   56   3.209   2.550   3.774
    1C        C   57   3.415   2.508   3.894
    1C        C   58   3.275   2.526   3.896
    1C        C   59   3.486   2.507   4.016
    1C        C   60   3.417   2.513   4.140
    1C        C   61   3.628   2.503   4.259
    1C        C   62   3.487   2.501   4.261
    1C        C   63   3.699   2.508   4.381
    1C        C   64   3.628   2.504   4.503
    1C        C   65   3.836   2.543   4.620
    1C        C   66   3.700   2.507   4.624
    1C        C   67   3.903   2.569   4.742
    1C        C   68   3.838   2.534   4.862
    1C        C   69   4.050   2.590   4.979
    1C        C   70   3.920   2.537   4.976
    1C        C   71   2.823   2.733   2.311
    1C        C   72   2.875   2.687   2.434
    1C        C   73   2.829   2.744   2.554
    1C        C   74   3.008   2.624   2.673
    1C        C   75   2.889   2.700   2.674
    1C        C   76   3.073   2.599   2.796
    1C        C   77   3.011   2.632   2.919
    1C        C   78   3.205   2.544   3.039
    1C        C   79   3.073   2.596   3.041
    1C        C   80   3.274   2.522   3.160
    1C        C   81   3.206   2.541   3.283
    1C        C   82   3.411   2.495   3.404
    1C        C   83   3.273   2.521   3.406
    1C        C   84   3.482   2.494   3.526
    1C        C   85   3.413   2.501   3.649
    1C        C   86   3.624   2.508   3.767
    1C        C   87   3.484   2.496   3.771
    1C        C   88   3.696   2.518   3.889
    1C        C   89   3.627   2.510   4.012
    1C        C   90   3.831   2.555   4.135
    1C        C   91   3.695   2.516   4.135
    1C        C   92   3.900   2.577   4.256
    1C        C   93   3.835   2.548   4.378
    1C        C   94   4.030   2.634   4.499
    1C        C   95   3.905   2.569   4.499
    1C        C   96   4.090   2.671   4.621
    1C        C   97   4.033   2.628   4.743
    1C        C   98   4.197   2.764   4.861
    1C        C   99   4.102   2.657   4.863
    1C        C  100   4.216   2.840   4.977
    1C        C  101   2.822   2.728   2.071
    1C        C  102   2.988   2.589   2.190
    1C        C  103   2.876   2.679   2.191
    1C        C  104   3.060   2.571   2.312
    1C        C  105   2.996   2.615   2.430
    1C        C  106   3.196   2.533   2.550
    1C        C  107   3.065   2.587   2.550
    1C        C  108   3.269   2.519   2.670
    1C        C  109   3.201   2.539   2.793
    1C        C  110   3.407   2.495   2.914
    1C        C  111   3.268   2.520   2.915
    1C        C  112   3.480   2.488   3.035
    1C        C  113   3.412   2.492   3.159
    1C        C  114   3.624   2.494   3.279
    1C        C  115   3.482   2.492   3.281
    1C        C  116   3.693   2.507   3.402
    1C        C  117   3.624   2.499   3.525
    1C        C  118   3.834   2.541   3.648
    1C        C  119   3.695   2.514   3.645
    1C        C  120   3.898   2.572   3.770
    1C        C  121   3.832   2.555   3.894
    1C        C  122   4.026   2.646   4.015
    1C        C  123   3.900   2.581   4.015
    1C        C  124   4.087   2.682   4.137
    1C        C  125   4.026   2.641   4.258
    1C        C  126   4.202   2.762   4.376
    1C        C  127   4.093   2.672   4.378
    1C        C  128   4.242   2.820   4.498
    1C        C  129   4.193   2.769   4.620
    1C        C  130   4.329   2.935   4.740
    1C        C  131   4.246   2.820   4.740
    1C        C  132   4.363   2.998   4.862
    1C        C  133   4.287   2.960   4.974
    1C        C  134   3.172   2.471   2.082
    1C        C  135   3.036   2.507   2.083
    1C        C  136   3.260   2.482   2.191
    1C        C  137   3.194   2.525   2.308
    1C        C  138   3.404   2.484   2.430
    1C        C  139   3.264   2.506   2.429
    1C        C  140   3.477   2.477   2.551
    1C        C  141   3.407   2.491   2.673
    1C        C  142   3.622   2.496   2.790
    1C        C  143   3.480   2.493   2.794
    1C        C  144   3.690   2.503   2.914
    1C        C  145   3.621   2.494   3.037
    1C        C  146   3.830   2.543   3.156
    1C        C  147   3.694   2.502   3.157
    1C        C  148   3.896   2.565   3.279
    1C        C  149   3.829   2.544   3.401
    1C        C  150   4.024   2.625   3.521
    1C        C  151   3.898   2.561   3.524
    1C        C  152   4.083   2.666   3.643
    1C        C  153   4.022   2.641   3.768
    1C        C  154   4.196   2.762   3.886
    1C        C  155   4.080   2.682   3.890
    1C        C  156   4.244   2.816   4.007
    1C        C  157   4.194   2.773   4.132
    1C        C  158   4.345   2.921   4.253
    1C        C  159   4.252   2.814   4.255
    1C        C  160   4.383   2.981   4.374
    1C        C  161   4.334   2.928   4.495
    1C        C  162   4.439   3.113   4.616
    1C        C  163   4.369   2.990   4.617
    1C        C  164   4.470   3.181   4.736
    1C        C  165   4.436   3.119   4.858
    1C        C  166   4.509   3.322   4.976
    1C        C  167   4.480   3.186   4.972
    1C        C  168   3.474   2.430   2.074
    1C        C  169   3.400   2.461   2.189
    1C        C  170   3.617   2.469   2.308
    1C        C  171   3.475   2.469   2.309
    1C        C  172   3.691   2.490   2.427
    1C        C  173   3.617   2.489   2.547
    1C        C  174   3.829   2.532   2.667
    1C        C  175   3.691   2.500   2.667
    1C        C  176   3.891   2.567   2.789
    1C        C  177   3.825   2.543   2.912
    1C        C  178   4.021   2.630   3.034
    1C        C  179   3.894   2.568   3.033
    1C        C  180   4.084   2.662   3.156
    1C        C  181   4.023   2.626   3.278
    1C        C  182   4.198   2.749   3.400
    1C        C  183   4.087   2.661   3.400
    1C        C  184   4.246   2.803   3.521
    1C        C  185   4.195   2.752   3.643
    1C        C  186   4.342   2.911   3.764
    1C        C  187   4.251   2.803   3.762
    1C        C  188   4.381   2.975   3.883
    1C        C  189   4.339   2.921   4.007
    1C        C  190   4.448   3.103   4.127
    1C        C  191   4.382   2.978   4.129
    1C        C  192   4.474   3.168   4.250
    1C        C  193   4.451   3.106   4.375
    1C        C  194   4.502   3.316   4.490
    1C        C  195   4.470   3.178   4.494
    1C        C  196   4.518   3.384   4.613
    1C        C  197   4.509   3.318   4.737
    1C        C  198   4.555   3.533   4.853
    1C        C  199   4.530   3.392   4.856
    1C        C  200   4.582   3.621   4.963
    1C        C  201   3.614   2.420   2.075
    1C        C  202   3.824   2.518   2.184
    1C        C  203   3.690   2.466   2.186
    1C        C  204   3.897   2.542   2.304
    1C        C  205   3.829   2.519   2.426
    1C        C  206   4.022   2.616   2.544
    1C        C  207   3.898   2.549   2.545
    1C        C  208   4.084   2.655   2.665
    1C        C  209   4.021   2.624   2.788
    1C        C  210   4.190   2.753   2.908
    1C        C  211   4.081   2.663   2.910
    1C        C  212   4.241   2.802   3.030
    1C        C  213   4.193   2.752   3.153
    1C        C  214   4.334   2.908   3.276
    1C        C  215   4.243   2.800   3.276
    1C        C  216   4.376   2.969   3.397
    1C        C  217   4.334   2.913   3.520
    1C        C  218   4.439   3.098   3.639
    1C        C  219   4.377   2.971   3.641
    1C        C  220   4.462   3.165   3.762
    1C        C  221   4.446   3.101   3.887
    1C        C  222   4.505   3.307   4.002
    1C        C  223   4.481   3.168   4.006
    1C        C  224   4.514   3.376   4.126
    1C        C  225   4.511   3.304   4.248
    1C        C  226   4.512   3.523   4.368
    1C        C  227   4.513   3.382   4.366
    1C        C  228   4.518   3.595   4.489
    1C        C  229   4.525   3.525   4.612
    1C        C  230   4.497   3.739   4.727
    1C        C  231   4.534   3.601   4.730
    1C        C  232   4.486   3.817   4.845
    1C        C  233   4.548   3.757   4.955
    1C        C  234   4.021   2.602   2.066
    1C        C  235   3.896   2.541   2.066
    1C        C  236   4.084   2.649   2.182
    1C        C  237   4.023   2.606   2.302
    1C        C  238   4.196   2.738   2.420
    1C        C  239   4.084   2.649   2.422
    1C        C  240   4.251   2.787   2.541
    1C        C  241   4.195   2.742   2.662
    1C        C  242   4.332   2.905   2.786
    1C        C  243   4.243   2.795   2.784
    1C        C  244   4.378   2.962   2.907
    1C        C  245   4.339   2.904   3.030
    1C        C  246   4.440   3.090   3.151
    1C        C  247   4.376   2.964   3.153
    1C        C  248   4.458   3.160   3.273
    1C        C  249   4.438   3.096   3.397
    1C        C  250   4.504   3.301   3.514
    1C        C  251   4.464   3.165   3.517
    1C        C  252   4.517   3.370   3.636
    1C        C  253   4.496   3.302   3.758
    1C        C  254   4.523   3.516   3.878
    1C        C  255   4.511   3.375   3.879
    1C        C  256   4.513   3.586   4.000
    1C        C  257   4.517   3.517   4.124
    1C        C  258   4.485   3.730   4.241
    1C        C  259   4.511   3.591   4.244
    1C        C  260   4.462   3.800   4.362
    1C        C  261   4.486   3.733   4.484
    1C        C  262   4.427   3.938   4.602
    1C        C  263   4.475   3.805   4.605
    1C        C  264   4.396   4.008   4.720
    1C        C  265   4.424   3.943   4.843
    1C        C  266   4.312   4.132   4.958
    1C        C  267   4.379   4.011   4.957
    1C        C  268   4.260   2.773   2.060
    1C        C  269   4.200   2.729   2.179
    1C        C  270   4.348   2.887   2.298
    1C        C  271   4.254   2.781   2.299
    1C        C  272   4.380   2.954   2.419
    1C        C  273   4.337   2.900   2.541
    1C        C  274   4.450   3.079   2.661
    1C        C  275   4.376   2.959   2.663
    1C        C  276   4.478   3.148   2.782
    1C        C  277   4.447   3.085   2.905
    1C        C  278   4.501   3.289   3.025
    1C        C  279   4.470   3.151   3.027
    1C        C  280   4.507   3.362   3.146
    1C        C  281   4.499   3.295   3.270
    1C        C  282   4.518   3.508   3.392
    1C        C  283   4.517   3.367   3.390
    1C        C  284   4.516   3.582   3.513
    1C        C  285   4.520   3.511   3.635
    1C        C  286   4.487   3.724   3.754
    1C        C  287   4.516   3.585   3.755
    1C        C  288   4.467   3.792   3.875
    1C        C  289   4.487   3.724   3.998
    1C        C  290   4.420   3.929   4.117
    1C        C  291   4.468   3.797   4.118
    1C        C  292   4.394   4.000   4.237
    1C        C  293   4.423   3.935   4.359
    1C        C  294   4.321   4.123   4.480
    1C        C  295   4.394   4.002   4.480
    1C        C  296   4.279   4.186   4.599
    1C        C  297   4.319   4.127   4.720
    1C        C  298   4.202   4.317   4.836
    1C        C  299   4.281   4.197   4.838
    1C        C  300   4.169   4.396   4.950
    1C        C  301   4.349   2.879   2.061
    1C        C  302   4.469   3.067   2.174
    1C        C  303   4.397   2.943   2.177
    1C        C  304   4.486   3.139   2.295
    1C        C  305   4.451   3.076   2.417
    1C        C  306   4.510   3.281   2.538
    1C        C  307   4.482   3.142   2.539
    1C        C  308   4.516   3.354   2.658
    1C        C  309   4.506   3.286   2.782
    1C        C  310   4.516   3.500   2.902
    1C        C  311   4.517   3.358   2.903
    1C        C  312   4.517   3.573   3.023
    1C        C  313   4.515   3.503   3.146
    1C        C  314   4.479   3.713   3.264
    1C        C  315   4.505   3.574   3.268
    1C        C  316   4.467   3.786   3.384
    1C        C  317   4.482   3.719   3.507
    1C        C  318   4.417   3.921   3.626
    1C        C  319   4.467   3.788   3.630
    1C        C  320   4.392   3.987   3.748
    1C        C  321   4.421   3.926   3.872
    1C        C  322   4.313   4.110   3.991
    1C        C  323   4.391   3.992   3.994
    1C        C  324   4.275   4.169   4.113
    1C        C  325   4.321   4.120   4.238
    1C        C  326   4.181   4.284   4.353
    1C        C  327   4.276   4.179   4.358
    1C        C  328   4.135   4.343   4.473
    1C        C  329   4.189   4.296   4.595
    1C        C  330   4.026   4.439   4.715
    1C        C  331   4.142   4.356   4.713
    1C        C  332   3.966   4.487   4.833
    1C        C  333   4.050   4.470   4.944
    1C        C  334   4.552   3.267   2.059
    1C        C  335   4.534   3.128   2.062
    1C        C  336   4.539   3.344   2.175
    1C        C  337   4.521   3.276   2.297
    1C        C  338   4.525   3.493   2.411
    1C        C  339   4.524   3.352   2.417
    1C        C  340   4.519   3.566   2.532
    1C        C  341   4.521   3.495   2.654
    1C        C  342   4.491   3.704   2.774
    1C        C  343   4.511   3.565   2.777
    1C        C  344   4.476   3.777   2.894
    1C        C  345   4.486   3.710   3.018
    1C        C  346   4.412   3.911   3.136
    1C        C  347   4.459   3.777   3.140
    1C        C  348   4.382   3.977   3.257
    1C        C  349   4.420   3.919   3.381
    1C        C  350   4.314   4.104   3.501
    1C        C  351   4.386   3.983   3.503
    1C        C  352   4.272   4.163   3.622
    1C        C  353   4.316   4.106   3.744
    1C        C  354   4.181   4.269   3.867
    1C        C  355   4.273   4.162   3.866
    1C        C  356   4.125   4.317   3.987
    1C        C  357   4.173   4.268   4.110
    1C        C  358   4.011   4.408   4.227
    1C        C  359   4.122   4.322   4.230
    1C        C  360   3.950   4.443   4.350
    1C        C  361   4.019   4.423   4.472
    1C        C  362   3.828   4.514   4.593
    1C        C  363   3.962   4.468   4.593
    1C        C  364   3.759   4.539   4.713
    1C        C  365   3.834   4.538   4.833
    1C        C  366   3.628   4.594   4.950
    1C        C  367   3.765   4.575   4.949
    1C        C  368   4.510   3.560   2.054
    1C        C  369   4.521   3.484   2.171
    1C        C  370   4.503   3.703   2.288
    1C        C  371   4.518   3.563   2.288
    1C        C  372   4.483   3.776   2.408
    1C        C  373   4.495   3.705   2.530
    1C        C  374   4.423   3.905   2.649
    1C        C  375   4.473   3.773   2.651
    1C        C  376   4.391   3.971   2.770
    1C        C  377   4.429   3.910   2.892
    1C        C  378   4.315   4.094   3.012
    1C        C  379   4.392   3.975   3.012
    1C        C  380   4.268   4.152   3.132
    1C        C  381   4.310   4.098   3.256
    1C        C  382   4.176   4.263   3.378
    1C        C  383   4.272   4.159   3.377
    1C        C  384   4.120   4.309   3.499
    1C        C  385   4.171   4.262   3.622
    1C        C  386   4.005   4.391   3.739
    1C        C  387   4.120   4.308   3.745
    1C        C  388   3.947   4.432   3.861
    1C        C  389   4.010   4.400   3.983
    1C        C  390   3.818   4.495   4.103
    1C        C  391   3.948   4.440   4.104
    1C        C  392   3.752   4.516   4.226
    1C        C  393   3.822   4.502   4.348
    1C        C  394   3.617   4.539   4.475
    1C        C  395   3.758   4.528   4.471
    1C        C  396   3.543   4.555   4.595
    1C        C  397   3.619   4.557   4.714
    1C        C  398   3.409   4.555   4.836
    1C        C  399   3.549   4.575   4.835
    1C        C  400   3.340   4.521   4.953
    1C        C  401   4.506   3.699   2.052
    1C        C  402   4.455   3.912   2.165
    1C        C  403   4.494   3.777   2.168
    1C        C  404   4.419   3.978   2.285
    1C        C  405   4.439   3.910   2.407
    1C        C  406   4.328   4.094   2.524
    1C        C  407   4.398   3.972   2.527
    1C        C  408   4.280   4.150   2.644
    1C        C  409   4.315   4.090   2.768
    1C        C  410   4.178   4.254   2.888
    1C        C  411   4.272   4.148   2.889
    1C        C  412   4.124   4.302   3.010
    1C        C  413   4.174   4.257   3.134
    1C        C  414   4.000   4.379   3.252
    1C        C  415   4.121   4.306   3.255
    1C        C  416   3.938   4.413   3.374
    1C        C  417   4.004   4.389   3.497
    1C        C  418   3.812   4.483   3.618
    1C        C  419   3.942   4.428   3.618
    1C        C  420   3.745   4.510   3.740
    1C        C  421   3.818   4.490   3.859
    1C        C  422   3.610   4.532   3.984
    1C        C  423   3.750   4.513   3.981
    1C        C  424   3.539   4.538   4.107
    1C        C  425   3.612   4.534   4.228
    1C        C  426   3.406   4.543   4.357
    1C        C  427   3.547   4.545   4.353
    1C        C  428   3.331   4.537   4.477
    1C        C  429   3.402   4.552   4.598
    1C        C  430   3.190   4.519   4.722
    1C        C  431   3.329   4.548   4.719
    1C        C  432   3.123   4.493   4.844
    1C        C  433   3.204   4.491   4.958
    1C        C  434   4.385   4.119   2.054
    1C        C  435   4.453   3.996   2.053
    1C        C  436   4.299   4.157   2.162
    1C        C  437   4.335   4.093   2.283
    1C        C  438   4.179   4.246   2.400
    1C        C  439   4.283   4.149   2.402
    1C        C  440   4.125   4.296   2.521
    1C        C  441   4.180   4.250   2.642
    1C        C  442   4.008   4.374   2.762
    1C        C  443   4.126   4.296   2.764
    1C        C  444   3.945   4.410   2.883
    1C        C  445   4.009   4.384   3.007
    1C        C  446   3.811   4.466   3.127
    1C        C  447   3.944   4.417   3.128
    1C        C  448   3.746   4.497   3.248
    1C        C  449   3.812   4.476   3.372
    1C        C  450   3.607   4.525   3.495
    1C        C  451   3.746   4.502   3.494
    1C        C  452   3.537   4.539   3.617
    1C        C  453   3.607   4.535   3.740
    1C        C  454   3.396   4.537   3.863
    1C        C  455   3.537   4.542   3.863
    1C        C  456   3.329   4.530   3.988
    1C        C  457   3.398   4.537   4.111
    1C        C  458   3.195   4.501   4.236
    1C        C  459   3.334   4.529   4.236
    1C        C  460   3.124   4.484   4.357
    1C        C  461   3.193   4.506   4.478
    1C        C  462   2.996   4.432   4.601
    1C        C  463   3.124   4.491   4.600
    1C        C  464   2.932   4.396   4.722
    1C        C  465   2.989   4.441   4.844
    1C        C  466   2.793   4.345   4.956
    1C        C  467   2.902   4.433   4.957
    1C        C  468   4.117   4.279   2.041
    1C        C  469   4.185   4.243   2.158
    1C        C  470   4.007   4.371   2.277
    1C        C  471   4.127   4.294   2.278
    1C        C  472   3.939   4.400   2.397
    1C        C  473   4.007   4.372   2.518
    1C        C  474   3.813   4.459   2.642
    1C        C  475   3.945   4.407   2.640
    1C        C  476   3.747   4.490   2.763
    1C        C  477   3.816   4.467   2.884
    1C        C  478   3.605   4.509   3.009
    1C        C  479   3.745   4.487   3.004
    1C        C  480   3.535   4.529   3.131
    1C        C  481   3.607   4.525   3.252
    1C        C  482   3.394   4.533   3.376
    1C        C  483   3.536   4.533   3.373
    1C        C  484   3.324   4.524   3.498
    1C        C  485   3.396   4.532   3.619
    1C        C  486   3.187   4.498   3.747
    1C        C  487   3.325   4.525   3.741
    1C        C  488   3.123   4.473   3.871
    1C        C  489   3.193   4.492   3.992
    1C        C  490   3.000   4.410   4.116
    1C        C  491   3.128   4.471   4.115
    1C        C  492   2.934   4.384   4.238
    1C        C  493   2.995   4.427   4.358
    1C        C  494   2.823   4.303   4.482
    1C        C  495   2.934   4.391   4.480
    1C        C  496   2.768   4.256   4.603
    1C        C  497   2.818   4.311   4.723
    1C        C  498   2.665   4.163   4.848
    1C        C  499   2.755   4.272   4.843
    1C        C  500   2.591   4.117   4.958
    1C        C  501   4.000   4.354   2.039
    1C        C  502   3.814   4.462   2.155
    1C        C  503   3.943   4.404   2.156
    1C        C  504   3.743   4.484   2.276
    1C        C  505   3.810   4.458   2.398
    1C        C  506   3.604   4.501   2.520
    1C        C  507   3.742   4.473   2.521
    1C        C  508   3.534   4.515   2.642
    1C        C  509   3.607   4.514   2.763
    1C        C  510   3.396   4.527   2.885
    1C        C  511   3.537   4.521   2.886
    1C        C  512   3.325   4.522   3.007
    1C        C  513   3.394   4.530   3.130
    1C        C  514   3.187   4.492   3.256
    1C        C  515   3.325   4.523   3.253
    1C        C  516   3.119   4.473   3.379
    1C        C  517   3.186   4.494   3.501
    1C        C  518   2.993   4.413   3.626
    1C        C  519   3.120   4.476   3.625
    1C        C  520   2.934   4.374   3.748
    1C        C  521   2.997   4.409   3.869
    1C        C  522   2.830   4.284   3.996
    1C        C  523   2.939   4.374   3.994
    1C        C  524   2.780   4.234   4.118
    1C        C  525   2.829   4.290   4.238
    1C        C  526   2.688   4.136   4.365
    1C        C  527   2.776   4.246   4.362
    1C        C  528   2.653   4.075   4.488
    1C        C  529   2.687   4.141   4.608
    1C        C  530   2.579   3.960   4.731
    1C        C  531   2.639   4.089   4.730
    1C        C  532   2.537   3.902   4.853
    1C        C  533   2.527   3.993   4.963
    1C        C  534   3.619   4.557   2.040
    1C        C  535   3.752   4.512   2.040
    1C        C  536   3.535   4.538   2.155
    1C        C  537   3.604   4.510   2.276
    1C        C  538   3.392   4.516   2.402
    1C        C  539   3.534   4.516   2.399
    1C        C  540   3.320   4.510   2.523
    1C        C  541   3.393   4.517   2.643
    1C        C  542   3.184   4.485   2.766
    1C        C  543   3.322   4.514   2.765
    1C        C  544   3.120   4.463   2.890
    1C        C  545   3.188   4.485   3.012
    1C        C  546   2.995   4.402   3.134
    1C        C  547   3.120   4.466   3.134
    1C        C  548   2.939   4.364   3.258
    1C        C  549   2.992   4.411   3.380
    1C        C  550   2.832   4.276   3.505
    1C        C  551   2.934   4.374   3.503
    1C        C  552   2.778   4.230   3.627
    1C        C  553   2.825   4.284   3.748
    1C        C  554   2.693   4.123   3.873
    1C        C  555   2.781   4.235   3.873
    1C        C  556   2.656   4.064   3.996
    1C        C  557   2.685   4.130   4.118
    1C        C  558   2.593   3.946   4.246
    1C        C  559   2.650   4.075   4.243
    1C        C  560   2.567   3.879   4.368
    1C        C  561   2.589   3.949   4.489
    1C        C  562   2.529   3.749   4.613
    1C        C  563   2.560   3.886   4.612
    1C        C  564   2.510   3.681   4.736
    1C        C  565   2.515   3.760   4.854
    1C        C  566   2.524   3.546   4.979
    1C        C  567   2.519   3.685   4.972
    1C        C  568   3.324   4.482   2.044
    1C        C  569   3.395   4.517   2.160
    1C        C  570   3.182   4.482   2.281
    1C        C  571   3.320   4.515   2.281
    1C        C  572   3.112   4.464   2.403
    1C        C  573   3.180   4.487   2.524
    1C        C  574   2.984   4.406   2.645
    1C        C  575   3.112   4.464   2.646
    1C        C  576   2.928   4.368   2.769
    1C        C  577   2.992   4.402   2.889
    1C        C  578   2.822   4.277   3.014
    1C        C  579   2.932   4.366   3.012
    1C        C  580   2.773   4.227   3.137
    1C        C  581   2.828   4.276   3.258
    1C        C  582   2.700   4.111   3.384
    1C        C  583   2.786   4.223   3.382
    1C        C  584   2.658   4.057   3.507
    1C        C  585   2.690   4.119   3.630
    1C        C  586   2.589   3.936   3.753
    1C        C  587   2.650   4.063   3.753
    1C        C  588   2.567   3.872   3.877
    1C        C  589   2.592   3.938   3.999
    1C        C  590   2.536   3.740   4.127
    1C        C  591   2.572   3.876   4.125
    1C        C  592   2.524   3.671   4.250
    1C        C  593   2.527   3.743   4.371
    1C        C  594   2.513   3.533   4.500
    1C        C  595   2.518   3.674   4.494
    1C        C  596   2.513   3.462   4.622
    1C        C  597   2.513   3.539   4.740
    1C        C  598   2.537   3.328   4.863
    1C        C  599   2.525   3.469   4.862
    1C        C  600   2.531   3.248   4.978
    1C        C  601   3.193   4.438   2.042
    1C        C  602   2.982   4.399   2.160
    1C        C  603   3.118   4.444   2.159
    1C        C  604   2.922   4.363   2.284
    1C        C  605   2.986   4.402   2.404
    1C        C  606   2.819   4.268   2.528
    1C        C  607   2.922   4.364   2.524
    1C        C  608   2.765   4.224   2.651
    1C        C  609   2.823   4.273   2.770
    1C        C  610   2.687   4.111   2.894
    1C        C  611   2.774   4.223   2.893
    1C        C  612   2.651   4.051   3.017
    1C        C  613   2.691   4.112   3.138
    1C        C  614   2.595   3.926   3.261
    1C        C  615   2.659   4.052   3.262
    1C        C  616   2.565   3.867   3.386
    1C        C  617   2.587   3.934   3.508
    1C        C  618   2.534   3.731   3.637
    1C        C  619   2.565   3.869   3.631
    1C        C  620   2.518   3.665   3.761
    1C        C  621   2.533   3.735   3.883
    1C        C  622   2.517   3.525   4.010
    1C        C  623   2.524   3.667   4.007
    1C        C  624   2.517   3.457   4.134
    1C        C  625   2.516   3.530   4.255
    1C        C  626   2.539   3.321   4.379
    1C        C  627   2.516   3.461   4.378
    1C        C  628   2.556   3.250   4.500
    1C        C  629   2.531   3.322   4.619
    1C        C  630   2.592   3.120   4.745
    1C        C  631   2.549   3.256   4.742
    1C        C  632   2.613   3.047   4.865
    1C        C  633   2.557   3.111   4.980
    1C        C  634   2.783   4.308   2.055
    1C        C  635   2.892   4.395   2.048
    1C        C  636   2.746   4.231   2.166
    1C        C  637   2.809   4.277   2.284
    1C        C  638   2.680   4.108   2.410
    1C        C  639   2.766   4.221   2.406
    1C        C  640   2.639   4.051   2.532
    1C        C  641   2.678   4.112   2.654
    1C        C  642   2.585   3.920   2.776
    1C        C  643   2.646   4.048   2.775
    1C        C  644   2.560   3.857   2.900
    1C        C  645   2.590   3.924   3.021
    1C        C  646   2.528   3.720   3.145
    1C        C  647   2.564   3.857   3.142
    1C        C  648   2.524   3.655   3.271
    1C        C  649   2.533   3.729   3.391
    1C        C  650   2.513   3.521   3.518
    1C        C  651   2.521   3.662   3.515
    1C        C  652   2.516   3.451   3.641
    1C        C  653   2.510   3.524   3.762
    1C        C  654   2.537   3.317   3.889
    1C        C  655   2.514   3.457   3.887
    1C        C  656   2.556   3.249   4.011
    1C        C  657   2.542   3.318   4.133
    1C        C  658   2.616   3.123   4.259
    1C        C  659   2.562   3.254   4.257
    1C        C  660   2.643   3.058   4.381
    1C        C  661   2.609   3.119   4.504
    1C        C  662   2.712   2.937   4.628
    1C        C  663   2.630   3.052   4.627
    1C        C  664   2.749   2.873   4.748
    1C        C  665   2.689   2.926   4.866
    1C        C  666   2.737   2.863   4.981
    1C        C  667   2.684   4.019   2.055
    1C        C  668   2.686   4.102   2.168
    1C        C  669   2.591   3.912   2.293
    1C        C  670   2.647   4.043   2.289
    1C        C  671   2.557   3.847   2.414
    1C        C  672   2.582   3.922   2.532
    1C        C  673   2.518   3.719   2.658
    1C        C  674   2.558   3.855   2.654
    1C        C  675   2.510   3.649   2.780
    1C        C  676   2.528   3.719   2.901
    1C        C  677   2.503   3.509   3.028
    1C        C  678   2.515   3.649   3.023
    1C        C  679   2.512   3.442   3.153
    1C        C  680   2.516   3.514   3.274
    1C        C  681   2.536   3.307   3.400
    1C        C  682   2.514   3.447   3.398
    1C        C  683   2.552   3.241   3.523
    1C        C  684   2.535   3.311   3.644
    1C        C  685   2.612   3.117   3.770
    1C        C  686   2.554   3.246   3.768
    1C        C  687   2.646   3.056   3.893
    1C        C  688   2.610   3.119   4.014
    1C        C  689   2.715   2.935   4.140
    1C        C  690   2.641   3.056   4.137
    1C        C  691   2.758   2.880   4.262
    1C        C  692   2.710   2.934   4.384
    1C        C  693   2.752   2.877   4.506
    1C        C  694   2.632   3.889   2.057
    1C        C  695   2.529   3.703   2.174
    1C        C  696   2.579   3.835   2.175
    1C        C  697   2.506   3.638   2.297
    1C        C  698   2.523   3.710   2.418
    1C        C  699   2.489   3.502   2.544
    1C        C  700   2.507   3.642   2.540
    1C        C  701   2.494   3.432   2.667
    1C        C  702   2.498   3.508   2.786
    1C        C  703   2.512   3.295   2.914
    1C        C  704   2.502   3.436   2.907
    1C        C  705   2.537   3.227   3.035
    1C        C  706   2.535   3.302   3.154
    1C        C  707   2.603   3.104   3.279
    1C        C  708   2.557   3.238   3.278
    1C        C  709   2.635   3.044   3.403
    1C        C  710   2.610   3.112   3.524
    1C        C  711   2.714   2.930   3.647
    1C        C  712   2.643   3.053   3.648
    1C        C  713   2.755   2.877   3.771
    1C        C  714   2.717   2.934   3.895
    1C        C  715   2.761   2.880   4.018
    1C        C  716   2.448   3.500   2.063
    1C        C  717   2.489   3.634   2.059
    1C        C  718   2.463   3.421   2.182
    1C        C  719   2.480   3.498   2.301
    1C        C  720   2.512   3.289   2.427
    1C        C  721   2.487   3.428   2.423
    1C        C  722   2.533   3.222   2.549
    1C        C  723   2.511   3.292   2.669
    1C        C  724   2.591   3.097   2.791
    1C        C  725   2.532   3.225   2.792
    1C        C  726   2.615   3.032   2.914
    1C        C  727   2.574   3.090   3.036
    1C        C  728   2.707   2.922   3.159
    1C        C  729   2.621   3.035   3.157
    1C        C  730   2.752   2.867   3.281
    1C        C  731   2.707   2.922   3.403
    1C        C  732   2.750   2.867   3.526
    1C        C  733   2.492   3.194   2.073
    1C        C  734   2.485   3.280   2.184
    1C        C  735   2.577   3.086   2.306
    1C        C  736   2.521   3.216   2.306
    1C        C  737   2.610   3.020   2.427
    1C        C  738   2.586   3.091   2.547
    1C        C  739   2.698   2.913   2.671
    1C        C  740   2.618   3.029   2.670
    1C        C  741   2.741   2.857   2.793
    1C        C  742   2.701   2.919   2.913
    1C        C  743   2.749   2.867   3.036
    1C        C  744   2.541   3.064   2.075
    1C        C  745   2.689   2.900   2.186
    1C        C  746   2.610   3.017   2.187
    1C        C  747   2.731   2.842   2.307
    1C        C  748   2.689   2.903   2.427
    1C        C  749   2.741   2.855   2.549
    1C        C  750   2.735   2.837   2.069
    1C        C  751   3.662   2.306   1.993
    1C        O  752   3.736   2.211   2.030
    1C        O  753   3.675   2.326   1.855
    1C        C  754   4.640   3.062   1.983
    1C        O  755   4.596   3.002   1.881
    1C        O  756   4.746   2.999   2.049
    1C        C  757   4.465   4.225   1.988
    1C        O  758   4.576   4.269   2.026
    1C        O  759   4.466   4.229   1.848
    1C        C  760   3.587   4.650   1.930
    1C        O  761   3.551   4.771   1.935
    1C        O  762   3.586   4.609   1.797
    1C        C  763   2.871   4.515   1.965
    1C        O  764   2.930   4.507   1.854
    1C        O  765   2.826   4.642   2.006
    1C        C  766   2.360   3.465   1.950
    1C        O  767   2.411   3.429   1.840
    1C        O  768   2.239   3.531   1.929
    1C        C  769   4.678   3.586   5.070
    1C        O  770   4.631   3.570   5.186
    1C        O  771   4.804   3.646   5.068
    1C        C  772   4.277   4.450   5.036
    1C        O  773   4.262   4.439   5.161
    1C        O  774   4.320   4.582   5.017
    1C        C  775   4.149   2.507   5.051
    1C        O  776   4.196   2.405   4.993
    1C        O  777   4.232   2.550   5.155
    1C        C  778   2.888   4.552   5.044
    1C        O  779   2.830   4.659   5.013
    1C        O  780   2.938   4.540   5.175
    1C        C  781   2.452   3.044   5.060
    1C        O  782   2.398   2.938   5.019
    1C        O  783   2.465   3.027   5.198
    1C        C  784   2.429   3.977   5.073
    1C        O  785   2.326   4.048   5.075
    1C        O  786   2.469   3.938   5.202
    1C        C  787   2.955   2.403   2.016
    1C        O  788   2.924   2.406   1.894
    1C        O  789   2.916   2.283   2.072
    1C        C  790   3.196   2.386   5.081
    1C        O  791   3.133   2.277   5.067
    1C        O  792   3.209   2.425   5.214
    1C        H  793   4.325   2.986   5.070
    1C        H  794   4.176   2.807   5.071
    1C        H  795   4.522   3.125   5.050
    1C        H  796   4.538   3.358   5.072
    1C        H  797   4.568   3.819   5.040
    1C        H  798   4.446   4.006   5.041
    1C        H  799   4.273   4.160   5.054
    1C        H  800   4.009   4.482   5.042
    1C        H  801   3.825   4.629   5.019
    1C        H  802   3.586   4.615   5.046
    1C        H  803   3.378   4.556   5.046
    1C        H  804   3.166   4.442   5.045
    1C        H  805   3.874   2.514   5.070
    1C        H  806   3.676   2.462   5.080
    1C        H  807   2.996   2.550   5.066
    1C        H  808   3.444   2.468   5.079
    1C        H  809   2.905   2.790   5.067
    1C        H  810   2.686   2.880   5.074
    1C        H  811   2.542   3.295   5.073
    1C        H  812   2.494   3.504   5.073
    1C        H  813   2.544   3.743   5.059
    1C        H  814   2.611   4.164   5.053
    1C        H  815   2.771   4.305   5.053
    1C        H  816   2.751   2.898   1.983
    1C        H  817   2.855   2.692   1.976
    1C        H  818   3.203   2.399   2.010
    1C        H  819   3.435   2.465   1.981
    1C        H  820   3.846   2.541   1.972
    1C        H  821   4.074   2.596   1.972
    1C        H  822   4.237   2.722   1.968
    1C        H  823   4.351   2.942   1.974
    1C        H  824   4.535   3.316   1.965
    1C        H  825   4.525   3.516   1.958
    1C        H  826   4.548   3.752   1.969
    1C        H  827   3.814   4.539   1.956
    1C        H  828   3.958   4.371   1.942
    1C        H  829   4.146   4.222   1.955
    1C        H  830   4.519   3.979   1.971
    1C        H  831   2.640   3.826   1.971
    1C        H  832   2.722   4.058   1.963
    1C        H  833   2.708   4.315   1.979
    1C        H  834   3.379   4.456   1.955
    1C        H  835   3.161   4.375   1.962
    1C        H  836   2.484   2.984   2.031
    1C        H  837   2.420   3.211   1.996
    1C        H  838   2.461   3.689   1.972
    2V3OU   H29  839   2.807   3.542   2.540
    2V3OU   C27  840   2.793   3.500   2.643
    2V3OU   H27  841   2.739   3.567   2.714
    2V3OU   H28  842   2.734   3.406   2.626
    2V3OU   O11  843   2.914   3.473   2.714
    2V3OU   C15  844   2.926   3.402   2.832
    2V3OU   C13  845   3.052   3.376   2.891
    2V3OU   C14  846   3.080   3.270   2.977
    2V3OU   C16  847   2.976   3.188   3.019
    2V3OU    H6  848   2.990   3.109   3.094
    2V3OU   C12  849   3.215   3.222   3.014
    2V3OU    O2  850   3.242   3.129   3.094
    2V3OU   C10  851   3.327   3.304   2.965
    2V3OU    C8  852   3.456   3.269   3.003
    2V3OU   O10  853   3.489   3.157   3.073
    2V3OU   H26  854   3.405   3.115   3.098
    2V3OU    C6  855   3.564   3.351   2.957
    2V3OU    C5  856   3.539   3.466   2.883
    2V3OU    C4  857   3.702   3.293   2.955
    2V3OU    H4  858   3.729   3.228   3.043
    2V3OU    H5  859   3.710   3.231   2.861
    2V3OU    C2  860   3.814   3.397   2.953
    2V3OU    O6  861   3.800   3.475   3.072
    2V3OU   H21  862   3.762   3.560   3.043
    2V3OU    C3  863   3.778   3.494   2.841
    2V3OU    H2  864   3.864   3.567   2.844
    2V3OU    H3  865   3.776   3.434   2.746
    2V3OU   C25  866   3.948   3.325   2.932
    2V3OU    O7  867   3.996   3.301   2.821
    2V3OU   C26  868   4.026   3.292   3.058
    2V3OU   H22  869   4.066   3.383   3.109
    2V3OU   H23  870   4.112   3.225   3.032
    2V3OU    O8  871   3.958   3.208   3.149
    2V3OU   H24  872   3.923   3.261   3.223
    2V3OU    C1  873   3.645   3.566   2.849
    2V3OU    H1  874   3.622   3.617   2.751
    2V3OU    O3  875   3.665   3.656   2.958
    2V3OU   C19  876   3.618   3.791   2.941
    2V3OU    H9  877   3.524   3.800   2.879
    2V3OU    O4  878   3.718   3.852   2.864
    2V3OU   C20  879   3.844   3.872   2.928
    2V3OU   H10  880   3.894   3.771   2.934
    2V3OU   C24  881   3.612   3.857   3.079
    2V3OU   H16  882   3.540   3.795   3.139
    2V3OU   H17  883   3.569   3.959   3.064
    2V3OU   C23  884   3.746   3.875   3.151
    2V3OU   H15  885   3.783   3.770   3.176
    2V3OU    N1  886   3.736   3.948   3.276
    2V3OU   H19  887   3.801   3.923   3.348
    2V3OU   H20  888   3.644   3.935   3.313
    2V3OU   C21  889   3.848   3.950   3.060
    2V3OU   H11  890   3.950   3.931   3.105
    2V3OU    O5  891   3.824   4.089   3.067
    2V3OU   H18  892   3.784   4.103   3.154
    2V3OU   C22  893   3.912   3.949   2.816
    2V3OU   H12  894   3.857   4.046   2.802
    2V3OU   H13  895   3.901   3.895   2.718
    2V3OU   H14  896   4.022   3.947   2.835
    2V3OU   C11  897   3.162   3.467   2.854
    2V3OU    O1  898   3.141   3.584   2.817
    2V3OU    C9  899   3.298   3.420   2.889
    2V3OU    C7  900   3.404   3.501   2.850
    2V3OU    O9  901   3.388   3.621   2.784
    2V3OU   H25  902   3.292   3.632   2.778
    2V3OU   C17  903   2.826   3.308   2.865
    2V3OU    H7  904   2.730   3.344   2.827
    2V3OU   C18  905   2.851   3.213   2.963
    2V3OU    H8  906   2.780   3.167   3.033
    3SOL     OW  907   2.361   5.503   6.730
    3SOL    HW1  908   2.281   5.563   6.723
    3SOL    HW2  909   2.359   5.437   6.655
    4SOL     OW  910   0.032   0.689   1.794
    4SOL    HW1  911   0.123   0.661   1.825
    4SOL    HW2  912   6.999   0.716   1.873
    5SOL     OW  913   4.280   1.851   2.259
    5SOL    HW1  914   4.296   1.761   2.220
    5SOL    HW2  915   4.336   1.919   2.210
    6SOL     OW  916   4.234   0.848   1.567
    6SOL    HW1  917   4.150   0.795   1.585
    6SOL    HW2  918   4.210   0.942   1.544
    7SOL     OW  919   0.751   4.159   3.449
    7SOL    HW1  920   0.671   4.217   3.445
    7SOL    HW2  921   0.745   4.100   3.530
    8SOL     OW  922   2.966   0.967   5.578
    8SOL    HW1  923   3.008   1.051   5.612
    8SOL    HW2  924   3.030   0.921   5.515
    9SOL     OW  925   4.785   1.253   5.701
    9SOL    HW1  926   4.785   1.179   5.768
    9SOL    HW2  927   4.703   1.309   5.714
   10SOL     OW  928   2.025   4.972   5.171
   10SOL    HW1  929   2.064   5.023   5.095
   10SOL    HW2  930   1.935   4.937   5.146
   11SOL     OW  931   3.209   0.478   5.304
   11SOL    HW1  932   3.181   0.557   5.358
   11SOL    HW2  933   3.158   0.397   5.334
   12SOL     OW  934   3.033   5.707   3.686
   12SOL    HW1  935   2.990   5.677   3.771
   12SOL    HW2  936   3.068   5.628   3.637
   13SOL     OW  937   3.616   6.457   4.233
   13SOL    HW1  938   3.518   6.439   4.221
   13SOL    HW2  939   3.639   6.546   4.195
   14SOL     OW  940   3.772   5.132   6.218
   14SOL    HW1  941   3.837   5.135   6.142
   14SOL    HW2  942   3.817   5.156   6.303
   15SOL     OW  943   0.948   6.581   1.472
   15SOL    HW1  944   0.998   6.549   1.392
   15SOL    HW2  945   0.871   6.521   1.491
   16SOL     OW  946   5.624   2.572   6.244
   16SOL    HW1  947   5.528   2.586   6.222
   16SOL    HW2  948   5.674   2.549   6.161
   17SOL     OW  949   5.811   5.898   6.053
   17SOL    HW1  950   5.907   5.918   6.033
   17SOL    HW2  951   5.755   5.977   6.029
   18SOL     OW  952   3.629   1.144   5.590
   18SOL    HW1  953   3.698   1.090   5.638
   18SOL    HW2  954   3.630   1.121   5.493
   19SOL     OW  955   0.244   1.293   2.903
   19SOL    HW1  956   0.276   1.330   2.816
   19SOL    HW2  957   0.322   1.263   2.958
   20SOL     OW  958   4.710   1.989   4.394
   20SOL    HW1  959   4.684   2.029   4.306
   20SOL    HW2  960   4.630   1.982   4.453
   21SOL     OW  961   3.285   0.616   2.204
   21SOL    HW1  962   3.227   0.658   2.274
   21SOL    HW2  963   3.367   0.673   2.190
   22SOL     OW  964   1.416   6.433   6.814
   22SOL    HW1  965   1.400   6.368   6.887
   22SOL    HW2  966   1.425   6.385   6.727
   23SOL     OW  967   5.724   5.376   2.321
   23SOL    HW1  968   5.700   5.457   2.268
   23SOL    HW2  969   5.739   5.299   2.259
   24SOL     OW  970   3.844   0.233   3.124
   24SOL    HW1  971   3.860   0.199   3.032
   24SOL    HW2  972   3.818   0.329   3.120
   25SOL     OW  973   3.874   0.459   3.983
   25SOL    HW1  974   3.897   0.416   3.896
   25SOL    HW2  975   3.942   0.529   4.004
   26SOL     OW  976   6.687   1.212   0.590
   26SOL    HW1  977   6.661   1.282   0.656
   26SOL    HW2  978   6.672   1.247   0.497
   27SOL     OW  979   1.813   0.729   2.465
   27SOL    HW1  980   1.896   0.784   2.460
   27SOL    HW2  981   1.827   0.643   2.417
   28SOL     OW  982   2.476   0.771   5.453
   28SOL    HW1  983   2.399   0.834   5.454
   28SOL    HW2  984   2.550   0.807   5.510
   29SOL     OW  985   6.220   1.568   1.860
   29SOL    HW1  986   6.307   1.520   1.844
   29SOL    HW2  987   6.239   1.657   1.901
   30SOL     OW  988   3.817   0.816   3.435
   30SOL    HW1  989   3.823   0.899   3.491
   30SOL    HW2  990   3.909   0.785   3.412
   31SOL     OW  991   0.286   2.311   6.345
   31SOL    HW1  992   0.210   2.278   6.402
   31SOL    HW2  993   0.373   2.289   6.389
   32SOL     OW  994   0.219   1.730   3.107
   32SOL    HW1  995   0.270   1.650   3.073
   32SOL    HW2  996   0.208   1.722   3.206
   33SOL     OW  997   0.579   4.398   5.083
   33SOL    HW1  998   0.668   4.446   5.084
   33SOL    HW2  999   0.510   4.456   5.125
   34SOL     OW 1000   2.776   6.757   5.097
   34SOL    HW1 1001   2.868   6.795   5.088
   34SOL    HW2 1002   2.754   6.746   5.194
   35SOL     OW 1003   5.100   3.001   5.978
   35SOL    HW1 1004   5.032   3.036   5.914
   35SOL    HW2 1005   5.085   3.042   6.068
   36SOL     OW 1006   4.728   1.290   4.888
   36SOL    HW1 1007   4.693   1.383   4.877
   36SOL    HW2 1008   4.827   1.294   4.905
   37SOL     OW 1009   1.062   1.670   5.882
   37SOL    HW1 1010   1.061   1.722   5.967
   37SOL    HW2 1011   1.099   1.579   5.898
   38SOL     OW 1012   1.001   4.973   2.688
   38SOL    HW1 1013   0.980   4.910   2.612
   38SOL    HW2 1014   0.988   5.067   2.658
   39SOL     OW 1015   6.291   4.681   6.312
   39SOL    HW1 1016   6.311   4.706   6.407
   39SOL    HW2 1017   6.294   4.763   6.255
   40SOL     OW 1018   4.738   1.667   0.351
   40SOL    HW1 1019   4.708   1.732   0.282
   40SOL    HW2 1020   4.719   1.704   0.442
   41SOL     OW 1021   0.225   4.878   3.296
   41SOL    HW1 1022   0.159   4.899   3.224
   41SOL    HW2 1023   0.292   4.812   3.261
   42SOL     OW 1024   3.411   4.885   4.199
   42SOL    HW1 1025   3.483   4.933   4.149
   42SOL    HW2 1026   3.449   4.802   4.240
   43SOL     OW 1027   5.111   6.995   5.659
   43SOL    HW1 1028   5.048   0.036   5.704
   43SOL    HW2 1029   5.150   0.017   5.578
   44SOL     OW 1030   4.883   2.155   5.698
   44SOL    HW1 1031   4.951   2.227   5.707
   44SOL    HW2 1032   4.842   2.159   5.607
   45SOL     OW 1033   4.964   5.543   1.391
   45SOL    HW1 1034   4.908   5.594   1.456
   45SOL    HW2 1035   5.022   5.606   1.340
   46SOL     OW 1036   0.627   2.894   3.600
   46SOL    HW1 1037   0.723   2.886   3.628
   46SOL    HW2 1038   0.571   2.834   3.656
   47SOL     OW 1039   4.447   4.362   0.962
   47SOL    HW1 1040   4.494   4.427   0.901
   47SOL    HW2 1041   4.350   4.360   0.938
   48SOL     OW 1042   6.509   2.611   6.128
   48SOL    HW1 1043   6.417   2.649   6.118
   48SOL    HW2 1044   6.510   2.516   6.098
   49SOL     OW 1045   5.851   3.329   2.449
   49SOL    HW1 1046   5.926   3.274   2.486
   49SOL    HW2 1047   5.798   3.273   2.385
   50SOL     OW 1048   5.601   1.299   4.767
   50SOL    HW1 1049   5.512   1.331   4.798
   50SOL    HW2 1050   5.619   1.335   4.675
   51SOL     OW 1051   2.553   6.291   3.038
   51SOL    HW1 1052   2.631   6.241   3.000
   51SOL    HW2 1053   2.559   6.290   3.138
   52SOL     OW 1054   6.209   3.329   2.375
   52SOL    HW1 1055   6.289   3.359   2.428
   52SOL    HW2 1056   6.158   3.262   2.428
   53SOL     OW 1057   4.350   0.779   3.659
   53SOL    HW1 1058   4.429   0.817   3.708
   53SOL    HW2 1059   4.382   0.723   3.583
   54SOL     OW 1060   5.051   5.305   0.955
   54SOL    HW1 1061   4.990   5.297   1.034
   54SOL    HW2 1062   5.118   5.230   0.956
   55SOL     OW 1063   1.937   2.852   6.054
   55SOL    HW1 1064   1.881   2.934   6.038
   55SOL    HW2 1065   1.884   2.770   6.032
   56SOL     OW 1066   0.385   0.809   1.257
   56SOL    HW1 1067   0.312   0.747   1.231
   56SOL    HW2 1068   0.359   0.857   1.341
   57SOL     OW 1069   4.194   1.103   1.200
   57SOL    HW1 1070   4.247   1.184   1.175
   57SOL    HW2 1071   4.235   1.022   1.160
   58SOL     OW 1072   1.227   6.997   5.308
   58SOL    HW1 1073   1.151   0.026   5.348
   58SOL    HW2 1074   1.243   6.914   5.362
   59SOL     OW 1075   0.344   2.724   6.048
   59SOL    HW1 1076   0.307   2.737   5.955
   59SOL    HW2 1077   0.390   2.807   6.078
   60SOL     OW 1078   5.240   2.731   4.311
   60SOL    HW1 1079   5.301   2.771   4.242
   60SOL    HW2 1080   5.148   2.723   4.274
   61SOL     OW 1081   6.482   2.089   4.313
   61SOL    HW1 1082   6.568   2.121   4.273
   61SOL    HW2 1083   6.460   1.998   4.278
   62SOL     OW 1084   1.639   0.799   2.089
   62SOL    HW1 1085   1.561   0.767   2.141
   62SOL    HW2 1086   1.680   0.878   2.134
   63SOL     OW 1087   5.208   1.031   3.932
   63SOL    HW1 1088   5.236   0.967   4.004
   63SOL    HW2 1089   5.183   1.119   3.974
   64SOL     OW 1090   0.046   2.922   6.054
   64SOL    HW1 1091   0.018   2.832   6.019
   64SOL    HW2 1092   7.000   2.956   6.118
   65SOL     OW 1093   0.400   4.190   6.325
   65SOL    HW1 1094   0.461   4.155   6.397
   65SOL    HW2 1095   0.374   4.115   6.264
   66SOL     OW 1096   4.037   0.742   4.520
   66SOL    HW1 1097   4.048   0.648   4.489
   66SOL    HW2 1098   4.041   0.804   4.441
   67SOL     OW 1099   6.712   2.955   6.038
   67SOL    HW1 1100   6.669   2.964   6.127
   67SOL    HW2 1101   6.792   3.015   6.033
   68SOL     OW 1102   6.929   1.414   0.017
   68SOL    HW1 1103   6.918   1.468   6.956
   68SOL    HW2 1104   6.990   1.462   0.080
   69SOL     OW 1105   0.714   2.920   6.766
   69SOL    HW1 1106   0.624   2.934   6.806
   69SOL    HW2 1107   0.728   2.985   6.691
   70SOL     OW 1108   5.269   4.653   4.669
   70SOL    HW1 1109   5.358   4.670   4.628
   70SOL    HW2 1110   5.278   4.580   4.738
   71SOL     OW 1111   4.194   1.888   3.119
   71SOL    HW1 1112   4.188   1.941   3.034
   71SOL    HW2 1113   4.212   1.950   3.196
   72SOL     OW 1114   1.422   1.046   3.580
   72SOL    HW1 1115   1.329   1.074   3.557
   72SOL    HW2 1116   1.446   1.078   3.671
   73SOL     OW 1117   3.770   0.481   1.273
   73SOL    HW1 1118   3.816   0.432   1.198
   73SOL    HW2 1119   3.837   0.503   1.343
   74SOL     OW 1120   3.774   0.566   7.019
   74SOL    HW1 1121   3.782   0.555   0.096
   74SOL    HW2 1122   3.823   0.649   6.992
   75SOL     OW 1123   4.111   0.501   1.133
   75SOL    HW1 1124   4.168   0.507   1.051
   75SOL    HW2 1125   4.131   0.579   1.193
   76SOL     OW 1126   2.773   2.780   1.008
   76SOL    HW1 1127   2.720   2.796   1.091
   76SOL    HW2 1128   2.740   2.840   0.935
   77SOL     OW 1129   0.803   0.439   3.786
   77SOL    HW1 1130   0.835   0.405   3.874
   77SOL    HW2 1131   0.713   0.398   3.765
   78SOL     OW 1132   5.262   1.555   0.073
   78SOL    HW1 1133   5.201   1.480   0.097
   78SOL    HW2 1134   5.311   1.585   0.155
   79SOL     OW 1135   2.959   6.027   1.114
   79SOL    HW1 1136   2.974   6.092   1.039
   79SOL    HW2 1137   3.039   5.967   1.123
   80SOL     OW 1138   4.472   1.072   3.729
   80SOL    HW1 1139   4.396   1.083   3.666
   80SOL    HW2 1140   4.550   1.127   3.699
   81SOL     OW 1141   2.343   0.419   2.435
   81SOL    HW1 1142   2.372   0.432   2.340
   81SOL    HW2 1143   2.410   0.460   2.496
   82SOL     OW 1144   5.942   4.817   0.332
   82SOL    HW1 1145   5.961   4.908   0.369
   82SOL    HW2 1146   5.847   4.813   0.301
   83SOL     OW 1147   0.152   0.029   0.540
   83SOL    HW1 1148   0.158   7.008   0.450
   83SOL    HW2 1149   0.198   0.117   0.537
   84SOL     OW 1150   6.056   3.165   2.562
   84SOL    HW1 1151   6.089   3.071   2.569
   84SOL    HW2 1152   6.009   3.190   2.647
   85SOL     OW 1153   1.601   1.143   3.837
   85SOL    HW1 1154   1.615   1.212   3.766
   85SOL    HW2 1155   1.688   1.123   3.882
   86SOL     OW 1156   0.947   1.605   6.163
   86SOL    HW1 1157   0.871   1.646   6.113
   86SOL    HW2 1158   0.949   1.506   6.145
   87SOL     OW 1159   4.883   4.379   0.945
   87SOL    HW1 1160   4.807   4.408   0.887
   87SOL    HW2 1161   4.970   4.398   0.898
   88SOL     OW 1162   3.050   1.763   6.376
   88SOL    HW1 1163   3.115   1.705   6.326
   88SOL    HW2 1164   3.033   1.846   6.324
   89SOL     OW 1165   2.587   2.593   6.905
   89SOL    HW1 1166   2.623   2.647   6.828
   89SOL    HW2 1167   2.544   2.510   6.869
   90SOL     OW 1168   4.246   5.522   1.837
   90SOL    HW1 1169   4.227   5.442   1.894
   90SOL    HW2 1170   4.207   5.603   1.879
   91SOL     OW 1171   6.173   3.938   6.265
   91SOL    HW1 1172   6.267   3.918   6.238
   91SOL    HW2 1173   6.158   4.037   6.261
   92SOL     OW 1174   4.529   4.539   1.158
   92SOL    HW1 1175   4.511   4.519   1.255
   92SOL    HW2 1176   4.500   4.462   1.102
   93SOL     OW 1177   3.344   3.504   0.685
   93SOL    HW1 1178   3.373   3.543   0.772
   93SOL    HW2 1179   3.289   3.570   0.635
   94SOL     OW 1180   3.113   5.272   6.513
   94SOL    HW1 1181   3.159   5.186   6.487
   94SOL    HW2 1182   3.088   5.322   6.430
   95SOL     OW 1183   1.691   0.356   2.452
   95SOL    HW1 1184   1.715   0.337   2.357
   95SOL    HW2 1185   1.596   0.329   2.468
   96SOL     OW 1186   3.792   6.833   5.567
   96SOL    HW1 1187   3.758   6.773   5.495
   96SOL    HW2 1188   3.892   6.840   5.560
   97SOL     OW 1189   2.223   2.903   5.639
   97SOL    HW1 1190   2.199   2.937   5.730
   97SOL    HW2 1191   2.320   2.879   5.637
   98SOL     OW 1192   1.173   2.756   0.827
   98SOL    HW1 1193   1.266   2.724   0.808
   98SOL    HW2 1194   1.160   2.847   0.787
   99SOL     OW 1195   4.408   3.224   1.563
   99SOL    HW1 1196   4.428   3.157   1.635
   99SOL    HW2 1197   4.493   3.260   1.526
  100SOL     OW 1198   1.160   6.551   3.666
  100SOL    HW1 1199   1.171   6.463   3.620
  100SOL    HW2 1200   1.192   6.543   3.760
  101SOL     OW 1201   1.734   4.178   1.978
  101SOL    HW1 1202   1.777   4.141   2.061
  101SOL    HW2 1203   1.803   4.222   1.921
  102SOL     OW 1204   2.819   5.464   1.881
  102SOL    HW1 1205   2.798   5.371   1.849
  102SOL    HW2 1206   2.916   5.468   1.908
  103SOL     OW 1207   2.351   1.702   2.066
  103SOL    HW1 1208   2.447   1.682   2.046
  103SOL    HW2 1209   2.292   1.645   2.009
  104SOL     OW 1210   1.372   5.326   2.559
  104SOL    HW1 1211   1.468   5.302   2.572
  104SOL    HW2 1212   1.364   5.389   2.481
  105SOL     OW 1213   6.024   0.889   6.379
  105SOL    HW1 1214   6.118   0.924   6.370
  105SOL    HW2 1215   6.021   0.821   6.453
  106SOL     OW 1216   3.545   5.891   3.922
  106SOL    HW1 1217   3.468   5.894   3.985
  106SOL    HW2 1218   3.591   5.979   3.920
  107SOL     OW 1219   1.275   1.193   0.035
  107SOL    HW1 1220   1.198   1.236   0.083
  107SOL    HW2 1221   1.345   1.165   0.102
  108SOL     OW 1222   3.850   0.153   6.045
  108SOL    HW1 1223   3.815   0.230   5.993
  108SOL    HW2 1224   3.783   0.079   6.046
  109SOL     OW 1225   1.966   1.083   2.756
  109SOL    HW1 1226   2.041   1.085   2.822
  109SOL    HW2 1227   1.997   1.039   2.672
  110SOL     OW 1228   3.224   5.428   3.878
  110SOL    HW1 1229   3.277   5.379   3.947
  110SOL    HW2 1230   3.183   5.363   3.814
  111SOL     OW 1231   2.184   1.363   4.186
  111SOL    HW1 1232   2.258   1.330   4.244
  111SOL    HW2 1233   2.133   1.435   4.233
  112SOL     OW 1234   3.266   5.838   0.182
  112SOL    HW1 1235   3.185   5.788   0.153
  112SOL    HW2 1236   3.311   5.789   0.257
  113SOL     OW 1237   1.105   6.282   2.451
  113SOL    HW1 1238   1.180   6.347   2.446
  113SOL    HW2 1239   1.023   6.328   2.484
  114SOL     OW 1240   0.720   6.450   1.493
  114SOL    HW1 1241   0.632   6.495   1.506
  114SOL    HW2 1242   0.711   6.352   1.513
  115SOL     OW 1243   4.698   1.336   2.904
  115SOL    HW1 1244   4.700   1.370   2.999
  115SOL    HW2 1245   4.714   1.238   2.904
  116SOL     OW 1246   6.783   6.301   0.763
  116SOL    HW1 1247   6.798   6.275   0.859
  116SOL    HW2 1248   6.871   6.320   0.719
  117SOL     OW 1249   0.469   1.936   1.156
  117SOL    HW1 1250   0.379   1.972   1.177
  117SOL    HW2 1251   0.531   1.951   1.233
  118SOL     OW 1252   1.716   0.993   2.292
  118SOL    HW1 1253   1.732   0.926   2.365
  118SOL    HW2 1254   1.771   1.074   2.309
  119SOL     OW 1255   0.290   0.318   6.976
  119SOL    HW1 1256   0.315   0.234   6.927
  119SOL    HW2 1257   0.290   0.395   6.912
  120SOL     OW 1258   5.231   1.480   5.659
  120SOL    HW1 1259   5.268   1.572   5.651
  120SOL    HW2 1260   5.138   1.478   5.622
  121SOL     OW 1261   2.170   2.855   0.740
  121SOL    HW1 1262   2.179   2.845   0.641
  121SOL    HW2 1263   2.193   2.769   0.785
  122SOL     OW 1264   1.714   3.449   0.544
  122SOL    HW1 1265   1.630   3.398   0.563
  122SOL    HW2 1266   1.692   3.541   0.512
  123SOL     OW 1267   1.185   1.664   2.967
  123SOL    HW1 1268   1.223   1.735   3.026
  123SOL    HW2 1269   1.157   1.585   3.022
  124SOL     OW 1270   3.715   2.494   0.884
  124SOL    HW1 1271   3.692   2.589   0.861
  124SOL    HW2 1272   3.640   2.454   0.937
  125SOL     OW 1273   4.239   2.563   0.653
  125SOL    HW1 1274   4.266   2.656   0.678
  125SOL    HW2 1275   4.214   2.512   0.736
  126SOL     OW 1276   3.701   3.761   1.790
  126SOL    HW1 1277   3.771   3.742   1.721
  126SOL    HW2 1278   3.730   3.837   1.847
  127SOL     OW 1279   0.914   5.051   6.458
  127SOL    HW1 1280   0.966   5.067   6.374
  127SOL    HW2 1281   0.830   5.105   6.456
  128SOL     OW 1282   4.616   3.287   1.206
  128SOL    HW1 1283   4.627   3.365   1.268
  128SOL    HW2 1284   4.554   3.312   1.132
  129SOL     OW 1285   3.133   3.590   6.346
  129SOL    HW1 1286   3.131   3.690   6.341
  129SOL    HW2 1287   3.227   3.558   6.337
  130SOL     OW 1288   1.389   1.076   4.234
  130SOL    HW1 1289   1.358   1.133   4.159
  130SOL    HW2 1290   1.313   1.018   4.266
  131SOL     OW 1291   4.824   0.444   3.034
  131SOL    HW1 1292   4.829   0.409   3.127
  131SOL    HW2 1293   4.756   0.517   3.029
  132SOL     OW 1294   3.038   2.564   1.713
  132SOL    HW1 1295   3.125   2.518   1.699
  132SOL    HW2 1296   2.996   2.531   1.798
  133SOL     OW 1297   5.414   0.575   4.344
  133SOL    HW1 1298   5.359   0.539   4.269
  133SOL    HW2 1299   5.360   0.574   4.429
  134SOL     OW 1300   0.184   1.067   2.666
  134SOL    HW1 1301   0.186   1.123   2.749
  134SOL    HW2 1302   0.235   1.113   2.594
  135SOL     OW 1303   4.882   4.017   4.212
  135SOL    HW1 1304   4.933   3.933   4.193
  135SOL    HW2 1305   4.800   4.019   4.154
  136SOL     OW 1306   1.624   5.396   5.255
  136SOL    HW1 1307   1.572   5.357   5.331
  136SOL    HW2 1308   1.582   5.483   5.228
  137SOL     OW 1309   4.546   1.739   3.026
  137SOL    HW1 1310   4.599   1.677   2.968
  137SOL    HW2 1311   4.513   1.816   2.971
  138SOL     OW 1312   1.305   3.611   2.833
  138SOL    HW1 1313   1.210   3.629   2.809
  138SOL    HW2 1314   1.316   3.618   2.932
  139SOL     OW 1315   1.975   6.626   5.745
  139SOL    HW1 1316   2.020   6.567   5.812
  139SOL    HW2 1317   1.882   6.593   5.729
  140SOL     OW 1318   2.067   6.884   3.854
  140SOL    HW1 1319   2.071   6.873   3.754
  140SOL    HW2 1320   2.156   6.912   3.888
  141SOL     OW 1321   0.135   2.702   4.656
  141SOL    HW1 1322   0.156   2.682   4.560
  141SOL    HW2 1323   0.050   2.755   4.662
  142SOL     OW 1324   2.152   3.777   1.999
  142SOL    HW1 1325   2.061   3.783   2.040
  142SOL    HW2 1326   2.178   3.681   1.989
  143SOL     OW 1327   5.714   5.045   0.525
  143SOL    HW1 1328   5.814   5.042   0.526
  143SOL    HW2 1329   5.680   4.984   0.454
  144SOL     OW 1330   1.536   4.689   5.929
  144SOL    HW1 1331   1.528   4.640   5.842
  144SOL    HW2 1332   1.447   4.690   5.975
  145SOL     OW 1333   1.665   4.487   2.010
  145SOL    HW1 1334   1.699   4.418   2.073
  145SOL    HW2 1335   1.591   4.447   1.954
  146SOL     OW 1336   5.343   0.418   6.230
  146SOL    HW1 1337   5.362   0.320   6.221
  146SOL    HW2 1338   5.428   0.469   6.242
  147SOL     OW 1339   5.549   2.265   6.254
  147SOL    HW1 1340   5.615   2.310   6.193
  147SOL    HW2 1341   5.522   2.327   6.327
  148SOL     OW 1342   0.209   5.188   0.926
  148SOL    HW1 1343   0.261   5.133   0.860
  148SOL    HW2 1344   0.186   5.276   0.885
  149SOL     OW 1345   3.547   2.056   4.790
  149SOL    HW1 1346   3.488   2.107   4.853
  149SOL    HW2 1347   3.576   2.117   4.716
  150SOL     OW 1348   5.601   6.371   6.692
  150SOL    HW1 1349   5.542   6.304   6.737
  150SOL    HW2 1350   5.641   6.330   6.609
  151SOL     OW 1351   3.169   0.720   1.249
  151SOL    HW1 1352   3.216   0.734   1.161
  151SOL    HW2 1353   3.077   0.684   1.232
  152SOL     OW 1354   0.198   1.243   0.987
  152SOL    HW1 1355   0.235   1.210   0.901
  152SOL    HW2 1356   0.241   1.195   1.063
  153SOL     OW 1357   2.864   0.065   3.711
  153SOL    HW1 1358   2.931   7.022   3.676
  153SOL    HW2 1359   2.773   0.043   3.675
  154SOL     OW 1360   1.061   3.192   0.964
  154SOL    HW1 1361   1.086   3.266   1.027
  154SOL    HW2 1362   1.099   3.212   0.873
  155SOL     OW 1363   0.917   1.315   4.775
  155SOL    HW1 1364   0.823   1.282   4.774
  155SOL    HW2 1365   0.976   1.250   4.728
  156SOL     OW 1366   6.873   0.580   0.748
  156SOL    HW1 1367   6.885   0.642   0.670
  156SOL    HW2 1368   6.813   0.624   0.815
  157SOL     OW 1369   5.901   3.460   0.898
  157SOL    HW1 1370   5.950   3.374   0.914
  157SOL    HW2 1371   5.911   3.487   0.802
  158SOL     OW 1372   1.172   3.230   2.095
  158SOL    HW1 1373   1.222   3.145   2.115
  158SOL    HW2 1374   1.135   3.267   2.180
  159SOL     OW 1375   4.661   5.152   1.810
  159SOL    HW1 1376   4.589   5.214   1.842
  159SOL    HW2 1377   4.746   5.172   1.860
  160SOL     OW 1378   5.744   6.579   0.838
  160SOL    HW1 1379   5.663   6.531   0.805
  160SOL    HW2 1380   5.781   6.532   0.917
  161SOL     OW 1381   1.417   6.979   3.588
  161SOL    HW1 1382   1.405   0.025   3.516
  161SOL    HW2 1383   1.333   6.926   3.599
  162SOL     OW 1384   3.873   5.885   0.226
  162SOL    HW1 1385   3.908   5.792   0.224
  162SOL    HW2 1386   3.778   5.885   0.195
  163SOL     OW 1387   6.727   6.007   2.220
  163SOL    HW1 1388   6.789   6.037   2.292
  163SOL    HW2 1389   6.634   6.035   2.242
  164SOL     OW 1390   0.981   4.256   3.337
  164SOL    HW1 1391   0.897   4.235   3.388
  164SOL    HW2 1392   0.981   4.207   3.251
  165SOL     OW 1393   4.575   4.120   0.706
  165SOL    HW1 1394   4.480   4.090   0.692
  165SOL    HW2 1395   4.625   4.114   0.619
  166SOL     OW 1396   1.046   2.871   1.955
  166SOL    HW1 1397   1.079   2.777   1.959
  166SOL    HW2 1398   0.950   2.874   1.984
  167SOL     OW 1399   5.518   2.402   0.131
  167SOL    HW1 1400   5.614   2.406   0.157
  167SOL    HW2 1401   5.508   2.347   0.048
  168SOL     OW 1402   3.783   1.822   0.400
  168SOL    HW1 1403   3.825   1.900   0.447
  168SOL    HW2 1404   3.726   1.855   0.324
  169SOL     OW 1405   6.186   2.186   1.324
  169SOL    HW1 1406   6.244   2.105   1.324
  169SOL    HW2 1407   6.109   2.172   1.385
  170SOL     OW 1408   0.192   0.159   2.570
  170SOL    HW1 1409   0.155   0.139   2.661
  170SOL    HW2 1410   0.122   0.205   2.515
  171SOL     OW 1411   2.905   4.331   6.922
  171SOL    HW1 1412   2.880   4.339   6.826
  171SOL    HW2 1413   2.993   4.377   6.938
  172SOL     OW 1414   6.101   1.525   3.272
  172SOL    HW1 1415   6.193   1.505   3.306
  172SOL    HW2 1416   6.034   1.503   3.343
  173SOL     OW 1417   6.130   1.150   3.863
  173SOL    HW1 1418   6.183   1.183   3.784
  173SOL    HW2 1419   6.073   1.223   3.898
  174SOL     OW 1420   4.147   5.444   3.976
  174SOL    HW1 1421   4.109   5.533   4.004
  174SOL    HW2 1422   4.157   5.442   3.877
  175SOL     OW 1423   3.066   0.317   1.360
  175SOL    HW1 1424   3.038   0.255   1.434
  175SOL    HW2 1425   3.070   0.411   1.395
  176SOL     OW 1426   6.795   4.738   1.947
  176SOL    HW1 1427   6.740   4.787   1.880
  176SOL    HW2 1428   6.777   4.775   2.038
  177SOL     OW 1429   5.147   3.776   4.381
  177SOL    HW1 1430   5.177   3.862   4.339
  177SOL    HW2 1431   5.155   3.783   4.480
  178SOL     OW 1432   2.949   3.965   5.498
  178SOL    HW1 1433   2.951   4.037   5.429
  178SOL    HW2 1434   2.948   3.876   5.453
  179SOL     OW 1435   4.039   1.242   6.044
  179SOL    HW1 1436   3.980   1.197   6.112
  179SOL    HW2 1437   4.121   1.187   6.028
  180SOL     OW 1438   1.525   6.774   1.118
  180SOL    HW1 1439   1.573   6.717   1.052
  180SOL    HW2 1440   1.577   6.778   1.203
  181SOL     OW 1441   3.347   3.409   6.161
  181SOL    HW1 1442   3.341   3.509   6.157
  181SOL    HW2 1443   3.343   3.379   6.257
  182SOL     OW 1444   4.404   1.950   6.022
  182SOL    HW1 1445   4.475   1.977   6.087
  182SOL    HW2 1446   4.422   1.857   5.989
  183SOL     OW 1447   3.268   1.714   3.659
  183SOL    HW1 1448   3.200   1.786   3.672
  183SOL    HW2 1449   3.327   1.710   3.740
  184SOL     OW 1450   0.775   5.955   3.716
  184SOL    HW1 1451   0.680   5.968   3.745
  184SOL    HW2 1452   0.779   5.889   3.642
  185SOL     OW 1453   1.439   1.160   4.762
  185SOL    HW1 1454   1.420   1.254   4.732
  185SOL    HW2 1455   1.528   1.156   4.807
  186SOL     OW 1456   6.046   1.269   4.263
  186SOL    HW1 1457   6.084   1.178   4.281
  186SOL    HW2 1458   6.027   1.277   4.165
  187SOL     OW 1459   4.858   6.360   2.821
  187SOL    HW1 1460   4.857   6.319   2.730
  187SOL    HW2 1461   4.795   6.438   2.823
  188SOL     OW 1462   1.175   3.180   3.509
  188SOL    HW1 1463   1.185   3.206   3.413
  188SOL    HW2 1464   1.078   3.184   3.534
  189SOL     OW 1465   1.934   5.727   0.177
  189SOL    HW1 1466   2.015   5.772   0.214
  189SOL    HW2 1467   1.925   5.636   0.216
  190SOL     OW 1468   6.176   4.237   5.821
  190SOL    HW1 1469   6.198   4.294   5.742
  190SOL    HW2 1470   6.100   4.277   5.872
  191SOL     OW 1471   6.222   0.393   0.060
  191SOL    HW1 1472   6.219   0.378   0.159
  191SOL    HW2 1473   6.222   0.491   0.041
  192SOL     OW 1474   0.721   5.387   1.564
  192SOL    HW1 1475   0.718   5.349   1.471
  192SOL    HW2 1476   0.635   5.366   1.610
  193SOL     OW 1477   4.487   3.742   5.332
  193SOL    HW1 1478   4.547   3.792   5.394
  193SOL    HW2 1479   4.542   3.683   5.273
  194SOL     OW 1480   4.196   6.579   3.540
  194SOL    HW1 1481   4.110   6.611   3.502
  194SOL    HW2 1482   4.244   6.656   3.583
  195SOL     OW 1483   1.383   0.712   4.259
  195SOL    HW1 1484   1.328   0.641   4.303
  195SOL    HW2 1485   1.479   0.702   4.288
  196SOL     OW 1486   2.660   0.136   7.012
  196SOL    HW1 1487   2.731   0.178   6.955
  196SOL    HW2 1488   2.700   0.059   0.040
  197SOL     OW 1489   2.398   0.136   1.525
  197SOL    HW1 1490   2.351   0.217   1.560
  197SOL    HW2 1491   2.340   0.089   1.459
  198SOL     OW 1492   4.680   6.909   1.994
  198SOL    HW1 1493   4.723   6.903   1.905
  198SOL    HW2 1494   4.621   6.989   1.998
  199SOL     OW 1495   6.213   1.656   3.555
  199SOL    HW1 1496   6.202   1.635   3.458
  199SOL    HW2 1497   6.277   1.591   3.596
  200SOL     OW 1498   1.214   4.166   1.800
  200SOL    HW1 1499   1.169   4.173   1.889
  200SOL    HW2 1500   1.313   4.158   1.813
  201SOL     OW 1501   6.015   0.112   6.228
  201SOL    HW1 1502   5.919   0.139   6.220
  201SOL    HW2 1503   6.026   0.048   6.304
  202SOL     OW 1504   5.192   0.378   5.637
  202SOL    HW1 1505   5.235   0.367   5.547
  202SOL    HW2 1506   5.210   0.469   5.672
  203SOL     OW 1507   4.558   2.613   4.268
  203SOL    HW1 1508   4.579   2.632   4.364
  203SOL    HW2 1509   4.484   2.547   4.262
  204SOL     OW 1510   6.940   0.716   6.149
  204SOL    HW1 1511   7.000   0.767   6.210
  204SOL    HW2 1512   6.865   0.676   6.201
  205SOL     OW 1513   0.616   0.788   3.459
  205SOL    HW1 1514   0.537   0.815   3.514
  205SOL    HW2 1515   0.676   0.729   3.513
  206SOL     OW 1516   0.566   5.212   2.092
  206SOL    HW1 1517   0.553   5.142   2.162
  206SOL    HW2 1518   0.535   5.300   2.127
  207SOL     OW 1519   4.809   0.719   4.078
  207SOL    HW1 1520   4.738   0.749   4.141
  207SOL    HW2 1521   4.860   0.798   4.043
  208SOL     OW 1522   5.358   3.444   5.506
  208SOL    HW1 1523   5.404   3.381   5.443
  208SOL    HW2 1524   5.280   3.486   5.460
  209SOL     OW 1525   0.693   4.906   4.456
  209SOL    HW1 1526   0.760   4.832   4.469
  209SOL    HW2 1527   0.691   4.931   4.359
  210SOL     OW 1528   4.280   2.126   1.194
  210SOL    HW1 1529   4.254   2.220   1.174
  210SOL    HW2 1530   4.262   2.069   1.114
  211SOL     OW 1531   2.083   6.050   3.613
  211SOL    HW1 1532   2.047   6.141   3.634
  211SOL    HW2 1533   2.183   6.051   3.621
  212SOL     OW 1534   1.773   4.369   1.082
  212SOL    HW1 1535   1.680   4.360   1.116
  212SOL    HW2 1536   1.803   4.464   1.090
  213SOL     OW 1537   3.328   1.001   5.698
  213SOL    HW1 1538   3.380   0.967   5.619
  213SOL    HW2 1539   3.254   1.060   5.665
  214SOL     OW 1540   4.514   5.529   1.776
  214SOL    HW1 1541   4.534   5.625   1.755
  214SOL    HW2 1542   4.415   5.516   1.781
  215SOL     OW 1543   2.231   3.724   1.077
  215SOL    HW1 1544   2.268   3.638   1.112
  215SOL    HW2 1545   2.238   3.726   0.977
  216SOL     OW 1546   2.106   5.773   4.484
  216SOL    HW1 1547   2.184   5.819   4.442
  216SOL    HW2 1548   2.138   5.722   4.564
  217SOL     OW 1549   2.291   2.772   3.611
  217SOL    HW1 1550   2.291   2.859   3.560
  217SOL    HW2 1551   2.359   2.711   3.572
  218SOL     OW 1552   1.105   2.696   4.570
  218SOL    HW1 1553   1.021   2.747   4.556
  218SOL    HW2 1554   1.155   2.733   4.647
  219SOL     OW 1555   4.121   6.455   6.035
  219SOL    HW1 1556   4.069   6.433   6.117
  219SOL    HW2 1557   4.058   6.478   5.961
  220SOL     OW 1558   3.677   6.554   0.574
  220SOL    HW1 1559   3.729   6.607   0.641
  220SOL    HW2 1560   3.631   6.616   0.511
  221SOL     OW 1561   6.474   3.817   2.674
  221SOL    HW1 1562   6.481   3.753   2.750
  221SOL    HW2 1563   6.517   3.776   2.593
  222SOL     OW 1564   2.862   4.873   5.715
  222SOL    HW1 1565   2.777   4.907   5.756
  222SOL    HW2 1566   2.882   4.925   5.632
  223SOL     OW 1567   5.991   3.574   1.109
  223SOL    HW1 1568   5.986   3.673   1.123
  223SOL    HW2 1569   5.947   3.551   1.022
  224SOL     OW 1570   2.785   2.127   4.186
  224SOL    HW1 1571   2.762   2.061   4.114
  224SOL    HW2 1572   2.778   2.082   4.275
  225SOL     OW 1573   5.918   2.131   6.200
  225SOL    HW1 1574   5.848   2.066   6.229
  225SOL    HW2 1575   5.875   2.209   6.154
  226SOL     OW 1576   1.818   0.280   6.313
  226SOL    HW1 1577   1.725   0.254   6.342
  226SOL    HW2 1578   1.848   0.359   6.366
  227SOL     OW 1579   1.725   3.359   2.888
  227SOL    HW1 1580   1.762   3.407   2.808
  227SOL    HW2 1581   1.682   3.426   2.949
  228SOL     OW 1582   3.392   6.223   3.428
  228SOL    HW1 1583   3.491   6.210   3.433
  228SOL    HW2 1584   3.356   6.234   3.521
  229SOL     OW 1585   4.819   6.022   0.272
  229SOL    HW1 1586   4.840   5.925   0.264
  229SOL    HW2 1587   4.883   6.065   0.335
  230SOL     OW 1588   2.894   4.881   2.635
  230SOL    HW1 1589   2.904   4.976   2.665
  230SOL    HW2 1590   2.871   4.824   2.714
  231SOL     OW 1591   6.368   1.585   6.398
  231SOL    HW1 1592   6.334   1.505   6.448
  231SOL    HW2 1593   6.443   1.556   6.338
  232SOL     OW 1594   1.204   4.084   5.874
  232SOL    HW1 1595   1.233   4.177   5.895
  232SOL    HW2 1596   1.219   4.066   5.776
  233SOL     OW 1597   2.047   2.136   4.336
  233SOL    HW1 1598   2.064   2.212   4.273
  233SOL    HW2 1599   1.998   2.063   4.287
  234SOL     OW 1600   4.347   6.409   5.088
  234SOL    HW1 1601   4.435   6.411   5.134
  234SOL    HW2 1602   4.276   6.379   5.152
  235SOL     OW 1603   3.516   3.080   1.824
  235SOL    HW1 1604   3.611   3.110   1.823
  235SOL    HW2 1605   3.467   3.126   1.898
  236SOL     OW 1606   5.594   2.776   6.759
  236SOL    HW1 1607   5.669   2.753   6.697
  236SOL    HW2 1608   5.556   2.692   6.798
  237SOL     OW 1609   6.428   5.554   2.020
  237SOL    HW1 1610   6.414   5.646   1.982
  237SOL    HW2 1611   6.509   5.513   1.979
  238SOL     OW 1612   5.887   2.200   0.256
  238SOL    HW1 1613   5.942   2.223   0.176
  238SOL    HW2 1614   5.939   2.139   0.316
  239SOL     OW 1615   0.439   5.423   6.198
  239SOL    HW1 1616   0.351   5.419   6.151
  239SOL    HW2 1617   0.473   5.330   6.212
  240SOL     OW 1618   0.908   2.459   5.501
  240SOL    HW1 1619   0.894   2.547   5.456
  240SOL    HW2 1620   0.820   2.414   5.515
  241SOL     OW 1621   1.820   6.844   4.807
  241SOL    HW1 1622   1.919   6.833   4.818
  241SOL    HW2 1623   1.801   6.881   4.716
  242SOL     OW 1624   2.752   3.591   5.800
  242SOL    HW1 1625   2.712   3.652   5.869
  242SOL    HW2 1626   2.683   3.567   5.732
  243SOL     OW 1627   5.318   1.090   6.038
  243SOL    HW1 1628   5.356   1.055   6.124
  243SOL    HW2 1629   5.234   1.041   6.016
  244SOL     OW 1630   5.095   2.789   4.609
  244SOL    HW1 1631   5.163   2.721   4.580
  244SOL    HW2 1632   5.071   2.774   4.705
  245SOL     OW 1633   6.754   3.691   5.544
  245SOL    HW1 1634   6.797   3.705   5.454
  245SOL    HW2 1635   6.804   3.619   5.593
  246SOL     OW 1636   5.026   2.656   3.249
  246SOL    HW1 1637   4.976   2.582   3.204
  246SOL    HW2 1638   4.970   2.739   3.249
  247SOL     OW 1639   3.028   0.908   1.690
  247SOL    HW1 1640   2.973   0.981   1.649
  247SOL    HW2 1641   3.093   0.946   1.755
  248SOL     OW 1642   3.738   2.096   3.214
  248SOL    HW1 1643   3.738   2.027   3.142
  248SOL    HW2 1644   3.648   2.098   3.259
  249SOL     OW 1645   4.558   0.035   6.036
  249SOL    HW1 1646   4.646   0.053   5.993
  249SOL    HW2 1647   4.552   6.960   6.061
  250SOL     OW 1648   5.890   2.862   1.045
  250SOL    HW1 1649   5.949   2.929   1.090
  250SOL    HW2 1650   5.880   2.781   1.103
  251SOL     OW 1651   4.582   4.240   6.268
  251SOL    HW1 1652   4.534   4.296   6.201
  251SOL    HW2 1653   4.551   4.264   6.360
  252SOL     OW 1654   6.071   0.588   6.700
  252SOL    HW1 1655   5.988   0.642   6.712
  252SOL    HW2 1656   6.055   0.518   6.631
  253SOL     OW 1657   1.886   4.289   6.989
  253SOL    HW1 1658   1.982   4.280   6.963
  253SOL    HW2 1659   1.828   4.260   6.914
  254SOL     OW 1660   5.470   3.527   2.722
  254SOL    HW1 1661   5.456   3.511   2.624
  254SOL    HW2 1662   5.455   3.624   2.741
  255SOL     OW 1663   1.845   2.971   4.327
  255SOL    HW1 1664   1.872   3.068   4.333
  255SOL    HW2 1665   1.759   2.958   4.376
  256SOL     OW 1666   6.038   4.906   6.809
  256SOL    HW1 1667   6.020   4.848   6.730
  256SOL    HW2 1668   6.105   4.862   6.868
  257SOL     OW 1669   4.542   7.020   4.049
  257SOL    HW1 1670   4.515   6.933   4.089
  257SOL    HW2 1671   4.500   0.073   4.100
  258SOL     OW 1672   6.970   5.024   4.846
  258SOL    HW1 1673   6.961   4.933   4.886
  258SOL    HW2 1674   6.934   5.023   4.752
  259SOL     OW 1675   1.318   2.134   2.300
  259SOL    HW1 1676   1.334   2.194   2.222
  259SOL    HW2 1677   1.402   2.129   2.355
  260SOL     OW 1678   4.300   0.822   0.838
  260SOL    HW1 1679   4.301   0.727   0.870
  260SOL    HW2 1680   4.217   0.867   0.869
  261SOL     OW 1681   0.070   3.809   1.270
  261SOL    HW1 1682   0.037   3.903   1.281
  261SOL    HW2 1683   0.119   3.801   1.183
  262SOL     OW 1684   0.476   4.002   1.141
  262SOL    HW1 1685   0.464   3.906   1.165
  262SOL    HW2 1686   0.400   4.032   1.083
  263SOL     OW 1687   0.701   1.485   4.011
  263SOL    HW1 1688   0.751   1.528   4.086
  263SOL    HW2 1689   0.666   1.397   4.041
  264SOL     OW 1690   4.821   3.620   5.959
  264SOL    HW1 1691   4.874   3.535   5.952
  264SOL    HW2 1692   4.789   3.631   6.053
  265SOL     OW 1693   4.587   4.553   3.379
  265SOL    HW1 1694   4.630   4.644   3.384
  265SOL    HW2 1695   4.591   4.520   3.285
  266SOL     OW 1696   4.007   3.841   5.672
  266SOL    HW1 1697   3.959   3.757   5.695
  266SOL    HW2 1698   4.102   3.835   5.703
  267SOL     OW 1699   6.023   2.252   5.732
  267SOL    HW1 1700   6.077   2.237   5.815
  267SOL    HW2 1701   6.022   2.349   5.709
  268SOL     OW 1702   4.340   0.086   5.134
  268SOL    HW1 1703   4.285   0.080   5.050
  268SOL    HW2 1704   4.430   0.046   5.118
  269SOL     OW 1705   1.545   3.194   1.012
  269SOL    HW1 1706   1.587   3.254   0.944
  269SOL    HW2 1707   1.471   3.142   0.970
  270SOL     OW 1708   6.634   0.088   1.489
  270SOL    HW1 1709   6.611   0.052   1.580
  270SOL    HW2 1710   6.615   0.186   1.486
  271SOL     OW 1711   2.799   1.636   0.339
  271SOL    HW1 1712   2.892   1.622   0.305
  271SOL    HW2 1713   2.751   1.548   0.342
  272SOL     OW 1714   3.411   5.344   4.043
  272SOL    HW1 1715   3.493   5.396   4.020
  272SOL    HW2 1716   3.413   5.319   4.140
  273SOL     OW 1717   2.335   4.982   5.074
  273SOL    HW1 1718   2.426   4.956   5.044
  273SOL    HW2 1719   2.282   4.900   5.097
  274SOL     OW 1720   4.611   2.756   3.860
  274SOL    HW1 1721   4.632   2.660   3.877
  274SOL    HW2 1722   4.512   2.768   3.852
  275SOL     OW 1723   6.229   5.825   5.768
  275SOL    HW1 1724   6.206   5.739   5.813
  275SOL    HW2 1725   6.313   5.813   5.715
  276SOL     OW 1726   0.566   5.608   3.213
  276SOL    HW1 1727   0.527   5.699   3.228
  276SOL    HW2 1728   0.581   5.594   3.115
  277SOL     OW 1729   2.466   2.940   0.963
  277SOL    HW1 1730   2.489   2.942   0.865
  277SOL    HW2 1731   2.438   3.032   0.992
  278SOL     OW 1732   0.046   5.417   1.872
  278SOL    HW1 1733   0.035   5.352   1.796
  278SOL    HW2 1734   0.143   5.438   1.885
  279SOL     OW 1735   0.251   3.161   4.219
  279SOL    HW1 1736   0.285   3.102   4.292
  279SOL    HW2 1737   0.280   3.126   4.130
  280SOL     OW 1738   2.076   6.802   2.948
  280SOL    HW1 1739   2.110   6.717   2.910
  280SOL    HW2 1740   2.110   6.813   3.042
  281SOL     OW 1741   3.274   5.051   2.101
  281SOL    HW1 1742   3.343   5.122   2.087
  281SOL    HW2 1743   3.274   4.988   2.023
  282SOL     OW 1744   4.130   2.208   5.582
  282SOL    HW1 1745   4.050   2.149   5.594
  282SOL    HW2 1746   4.114   2.270   5.505
  283SOL     OW 1747   6.653   1.357   6.186
  283SOL    HW1 1748   6.747   1.352   6.150
  283SOL    HW2 1749   6.654   1.336   6.284
  284SOL     OW 1750   0.210   4.464   4.931
  284SOL    HW1 1751   0.231   4.444   4.835
  284SOL    HW2 1752   0.188   4.379   4.979
  285SOL     OW 1753   5.255   5.251   6.517
  285SOL    HW1 1754   5.325   5.300   6.464
  285SOL    HW2 1755   5.295   5.218   6.603
  286SOL     OW 1756   3.230   4.945   5.391
  286SOL    HW1 1757   3.158   5.014   5.397
  286SOL    HW2 1758   3.222   4.881   5.466
  287SOL     OW 1759   0.403   4.633   6.422
  287SOL    HW1 1760   0.459   4.606   6.500
  287SOL    HW2 1761   0.336   4.561   6.403
  288SOL     OW 1762   4.179   2.353   0.157
  288SOL    HW1 1763   4.262   2.361   0.102
  288SOL    HW2 1764   4.180   2.422   0.229
  289SOL     OW 1765   0.436   5.172   5.237
  289SOL    HW1 1766   0.477   5.147   5.325
  289SOL    HW2 1767   0.385   5.094   5.201
  290SOL     OW 1768   4.698   1.323   3.757
  290SOL    HW1 1769   4.777   1.264   3.775
  290SOL    HW2 1770   4.626   1.305   3.824
  291SOL     OW 1771   3.102   0.794   4.923
  291SOL    HW1 1772   3.063   0.714   4.877
  291SOL    HW2 1773   3.029   0.859   4.943
  292SOL     OW 1774   3.143   1.922   2.489
  292SOL    HW1 1775   3.159   2.020   2.485
  292SOL    HW2 1776   3.227   1.874   2.464
  293SOL     OW 1777   4.711   5.098   2.138
  293SOL    HW1 1778   4.614   5.094   2.161
  293SOL    HW2 1779   4.730   5.183   2.089
  294SOL     OW 1780   0.174   5.378   6.103
  294SOL    HW1 1781   0.094   5.336   6.059
  294SOL    HW2 1782   0.146   5.425   6.186
  295SOL     OW 1783   3.322   1.402   4.936
  295SOL    HW1 1784   3.236   1.362   4.905
  295SOL    HW2 1785   3.394   1.383   4.869
  296SOL     OW 1786   5.979   1.750   2.342
  296SOL    HW1 1787   5.920   1.682   2.299
  296SOL    HW2 1788   5.951   1.842   2.313
  297SOL     OW 1789   2.727   4.708   2.499
  297SOL    HW1 1790   2.747   4.734   2.404
  297SOL    HW2 1791   2.770   4.774   2.561
  298SOL     OW 1792   3.478   6.219   0.588
  298SOL    HW1 1793   3.506   6.164   0.668
  298SOL    HW2 1794   3.447   6.309   0.619
  299SOL     OW 1795   4.450   2.804   6.976
  299SOL    HW1 1796   4.517   2.748   6.927
  299SOL    HW2 1797   4.433   2.888   6.925
  300SOL     OW 1798   4.818   0.907   1.549
  300SOL    HW1 1799   4.889   0.868   1.490
  300SOL    HW2 1800   4.774   0.983   1.502
  301SOL     OW 1801   5.544   2.931   0.729
  301SOL    HW1 1802   5.520   3.025   0.703
  301SOL    HW2 1803   5.625   2.902   0.678
  302SOL     OW 1804   0.013   0.861   3.873
  302SOL    HW1 1805   0.088   0.923   3.847
  302SOL    HW2 1806   0.020   0.841   3.971
  303SOL     OW 1807   6.842   6.832   2.424
  303SOL    HW1 1808   6.910   6.895   2.387
  303SOL    HW2 1809   6.856   6.822   2.522
  304SOL     OW 1810   2.106   6.422   5.910
  304SOL    HW1 1811   2.021   6.370   5.896
  304SOL    HW2 1812   2.176   6.389   5.847
  305SOL     OW 1813   1.426   2.846   0.433
  305SOL    HW1 1814   1.510   2.873   0.480
  305SOL    HW2 1815   1.400   2.918   0.368
  306SOL     OW 1816   1.795   0.778   3.375
  306SOL    HW1 1817   1.726   0.820   3.315
  306SOL    HW2 1818   1.783   0.811   3.468
  307SOL     OW 1819   4.932   5.350   0.663
  307SOL    HW1 1820   4.953   5.338   0.760
  307SOL    HW2 1821   4.945   5.446   0.638
  308SOL     OW 1822   5.128   3.223   4.246
  308SOL    HW1 1823   5.083   3.306   4.278
  308SOL    HW2 1824   5.133   3.157   4.321
  309SOL     OW 1825   2.137   5.461   7.008
  309SOL    HW1 1826   2.090   5.406   0.055
  309SOL    HW2 1827   2.223   5.496   0.024
  310SOL     OW 1828   5.390   6.764   5.857
  310SOL    HW1 1829   5.386   6.785   5.760
  310SOL    HW2 1830   5.322   6.694   5.879
  311SOL     OW 1831   4.129   5.117   2.510
  311SOL    HW1 1832   4.177   5.057   2.446
  311SOL    HW2 1833   4.192   5.149   2.580
  312SOL     OW 1834   4.200   0.881   4.269
  312SOL    HW1 1835   4.110   0.882   4.227
  312SOL    HW2 1836   4.238   0.788   4.266
  313SOL     OW 1837   2.918   3.639   2.204
  313SOL    HW1 1838   2.964   3.712   2.256
  313SOL    HW2 1839   2.953   3.550   2.234
  314SOL     OW 1840   2.646   4.505   6.705
  314SOL    HW1 1841   2.607   4.493   6.614
  314SOL    HW2 1842   2.590   4.570   6.757
  315SOL     OW 1843   1.126   3.127   3.981
  315SOL    HW1 1844   1.112   3.035   4.019
  315SOL    HW2 1845   1.113   3.195   4.053
  316SOL     OW 1846   2.903   1.271   4.354
  316SOL    HW1 1847   2.935   1.185   4.315
  316SOL    HW2 1848   2.937   1.348   4.301
  317SOL     OW 1849   6.988   1.338   1.067
  317SOL    HW1 1850   0.053   1.292   1.051
  317SOL    HW2 1851   6.987   1.425   1.018
  318SOL     OW 1852   0.779   5.946   6.385
  318SOL    HW1 1853   0.695   5.999   6.370
  318SOL    HW2 1854   0.813   5.913   6.297
  319SOL     OW 1855   6.362   1.515   3.357
  319SOL    HW1 1856   6.395   1.609   3.345
  319SOL    HW2 1857   6.430   1.451   3.320
  320SOL     OW 1858   6.263   2.418   1.229
  320SOL    HW1 1859   6.178   2.470   1.225
  320SOL    HW2 1860   6.242   2.321   1.240
  321SOL     OW 1861   3.252   1.313   0.320
  321SOL    HW1 1862   3.307   1.397   0.318
  321SOL    HW2 1863   3.224   1.295   0.414
  322SOL     OW 1864   3.159   3.038   3.725
  322SOL    HW1 1865   3.180   3.128   3.689
  322SOL    HW2 1866   3.098   3.046   3.804
  323SOL     OW 1867   1.298   3.173   6.444
  323SOL    HW1 1868   1.252   3.252   6.405
  323SOL    HW2 1869   1.230   3.106   6.473
  324SOL     OW 1870   2.846   0.636   4.090
  324SOL    HW1 1871   2.875   0.698   4.162
  324SOL    HW2 1872   2.746   0.635   4.086
  325SOL     OW 1873   0.437   2.577   1.747
  325SOL    HW1 1874   0.445   2.526   1.833
  325SOL    HW2 1875   0.368   2.533   1.689
  326SOL     OW 1876   0.949   5.182   6.813
  326SOL    HW1 1877   0.974   5.114   6.744
  326SOL    HW2 1878   0.923   5.136   6.898
  327SOL     OW 1879   1.278   4.348   3.175
  327SOL    HW1 1880   1.218   4.334   3.254
  327SOL    HW2 1881   1.324   4.436   3.183
  328SOL     OW 1882   1.441   5.567   1.571
  328SOL    HW1 1883   1.517   5.632   1.583
  328SOL    HW2 1884   1.357   5.617   1.551
  329SOL     OW 1885   3.524   2.943   3.979
  329SOL    HW1 1886   3.429   2.913   3.994
  329SOL    HW2 1887   3.555   2.996   4.057
  330SOL     OW 1888   3.374   6.169   1.300
  330SOL    HW1 1889   3.391   6.200   1.393
  330SOL    HW2 1890   3.322   6.084   1.302
  331SOL     OW 1891   3.952   5.611   0.227
  331SOL    HW1 1892   3.952   5.586   0.323
  331SOL    HW2 1893   3.886   5.556   0.177
  332SOL     OW 1894   4.694   2.286   4.971
  332SOL    HW1 1895   4.769   2.228   4.939
  332SOL    HW2 1896   4.618   2.281   4.907
  333SOL     OW 1897   3.218   0.444   6.447
  333SOL    HW1 1898   3.202   0.476   6.541
  333SOL    HW2 1899   3.197   0.346   6.441
  334SOL     OW 1900   3.152   1.073   1.185
  334SOL    HW1 1901   3.174   1.083   1.282
  334SOL    HW2 1902   3.053   1.067   1.173
  335SOL     OW 1903   4.172   0.071   5.365
  335SOL    HW1 1904   4.178   0.150   5.426
  335SOL    HW2 1905   4.235   0.083   5.289
  336SOL     OW 1906   2.597   1.051   3.632
  336SOL    HW1 1907   2.631   0.994   3.558
  336SOL    HW2 1908   2.524   1.002   3.681
  337SOL     OW 1909   0.450   2.867   6.883
  337SOL    HW1 1910   0.433   2.901   6.975
  337SOL    HW2 1911   0.446   2.768   6.883
  338SOL     OW 1912   3.380   2.868   1.726
  338SOL    HW1 1913   3.288   2.864   1.766
  338SOL    HW2 1914   3.430   2.945   1.766
  339SOL     OW 1915   4.131   6.046   3.957
  339SOL    HW1 1916   4.067   6.049   4.033
  339SOL    HW2 1917   4.086   6.007   3.876
  340SOL     OW 1918   4.773   4.540   5.244
  340SOL    HW1 1919   4.706   4.558   5.171
  340SOL    HW2 1920   4.793   4.442   5.246
  341SOL     OW 1921   6.522   0.368   4.674
  341SOL    HW1 1922   6.468   0.292   4.710
  341SOL    HW2 1923   6.619   0.346   4.679
  342SOL     OW 1924   5.919   3.785   6.936
  342SOL    HW1 1925   5.977   3.855   6.977
  342SOL    HW2 1926   5.950   3.766   6.843
  343SOL     OW 1927   1.704   5.768   0.735
  343SOL    HW1 1928   1.644   5.728   0.666
  343SOL    HW2 1929   1.669   5.746   0.826
  344SOL     OW 1930   1.467   3.527   2.159
  344SOL    HW1 1931   1.442   3.586   2.082
  344SOL    HW2 1932   1.556   3.555   2.195
  345SOL     OW 1933   4.265   1.963   2.807
  345SOL    HW1 1934   4.289   1.941   2.712
  345SOL    HW2 1935   4.308   1.896   2.868
  346SOL     OW 1936   2.277   0.733   2.978
  346SOL    HW1 1937   2.317   0.700   3.063
  346SOL    HW2 1938   2.200   0.674   2.953
  347SOL     OW 1939   2.986   5.740   6.889
  347SOL    HW1 1940   3.032   5.776   6.808
  347SOL    HW2 1941   3.012   5.645   6.903
  348SOL     OW 1942   5.351   4.576   2.114
  348SOL    HW1 1943   5.374   4.538   2.024
  348SOL    HW2 1944   5.435   4.591   2.166
  349SOL     OW 1945   6.776   5.504   1.133
  349SOL    HW1 1946   6.845   5.443   1.171
  349SOL    HW2 1947   6.714   5.451   1.075
  350SOL     OW 1948   3.282   2.957   0.603
  350SOL    HW1 1949   3.188   2.991   0.601
  350SOL    HW2 1950   3.299   2.901   0.522
  351SOL     OW 1951   1.958   3.111   1.669
  351SOL    HW1 1952   1.888   3.114   1.597
  351SOL    HW2 1953   1.924   3.057   1.746
  352SOL     OW 1954   2.816   0.477   4.602
  352SOL    HW1 1955   2.772   0.508   4.518
  352SOL    HW2 1956   2.751   0.481   4.677
  353SOL     OW 1957   1.789   0.456   0.950
  353SOL    HW1 1958   1.747   0.399   1.021
  353SOL    HW2 1959   1.721   0.478   0.880
  354SOL     OW 1960   3.951   2.470   1.033
  354SOL    HW1 1961   4.012   2.512   0.965
  354SOL    HW2 1962   3.859   2.463   0.994
  355SOL     OW 1963   1.119   3.766   2.487
  355SOL    HW1 1964   1.139   3.680   2.441
  355SOL    HW2 1965   1.095   3.836   2.420
  356SOL     OW 1966   2.971   0.280   5.877
  356SOL    HW1 1967   2.992   0.358   5.935
  356SOL    HW2 1968   2.900   0.225   5.920
  357SOL     OW 1969   6.806   5.958   6.250
  357SOL    HW1 1970   6.766   5.866   6.252
  357SOL    HW2 1971   6.865   5.971   6.329
  358SOL     OW 1972   4.152   6.774   0.341
  358SOL    HW1 1973   4.106   6.751   0.427
  358SOL    HW2 1974   4.178   6.871   0.343
  359SOL     OW 1975   2.045   2.521   1.927
  359SOL    HW1 1976   2.012   2.426   1.927
  359SOL    HW2 1977   1.979   2.580   1.973
  360SOL     OW 1978   0.862   4.944   6.106
  360SOL    HW1 1979   0.934   4.893   6.154
  360SOL    HW2 1980   0.821   5.010   6.169
  361SOL     OW 1981   6.079   6.478   2.782
  361SOL    HW1 1982   6.118   6.550   2.839
  361SOL    HW2 1983   6.035   6.410   2.840
  362SOL     OW 1984   3.601   3.336   1.127
  362SOL    HW1 1985   3.537   3.320   1.201
  362SOL    HW2 1986   3.683   3.382   1.162
  363SOL     OW 1987   5.077   4.158   3.298
  363SOL    HW1 1988   4.983   4.154   3.330
  363SOL    HW2 1989   5.083   4.219   3.219
  364SOL     OW 1990   6.804   5.178   6.720
  364SOL    HW1 1991   6.817   5.078   6.722
  364SOL    HW2 1992   6.795   5.212   6.814
  365SOL     OW 1993   6.250   6.036   2.100
  365SOL    HW1 1994   6.170   6.078   2.058
  365SOL    HW2 1995   6.329   6.048   2.040
  366SOL     OW 1996   5.799   0.852   6.221
  366SOL    HW1 1997   5.880   0.859   6.279
  366SOL    HW2 1998   5.726   0.910   6.258
  367SOL     OW 1999   5.638   3.458   1.043
  367SOL    HW1 2000   5.735   3.439   1.031
  367SOL    HW2 2001   5.594   3.381   1.089
  368SOL     OW 2002   0.143   3.634   4.710
  368SOL    HW1 2003   0.227   3.687   4.701
  368SOL    HW2 2004   0.158   3.540   4.678
  369SOL     OW 2005   6.273   4.911   2.434
  369SOL    HW1 2006   6.219   4.977   2.381
  369SOL    HW2 2007   6.211   4.849   2.483
  370SOL     OW 2008   2.553   1.220   5.789
  370SOL    HW1 2009   2.495   1.267   5.721
  370SOL    HW2 2010   2.646   1.215   5.754
  371SOL     OW 2011   2.158   3.764   6.216
  371SOL    HW1 2012   2.240   3.800   6.172
  371SOL    HW2 2013   2.167   3.772   6.315
  372SOL     OW 2014   0.693   6.901   6.092
  372SOL    HW1 2015   0.673   6.937   6.001
  372SOL    HW2 2016   0.614   6.916   6.152
  373SOL     OW 2017   6.418   6.254   4.767
  373SOL    HW1 2018   6.333   6.207   4.791
  373SOL    HW2 2019   6.491   6.223   4.827
  374SOL     OW 2020   2.734   1.947   3.973
  374SOL    HW1 2021   2.810   1.891   4.006
  374SOL    HW2 2022   2.654   1.889   3.959
  375SOL     OW 2023   0.851   4.007   4.066
  375SOL    HW1 2024   0.929   4.002   4.129
  375SOL    HW2 2025   0.803   4.093   4.079
  376SOL     OW 2026   2.533   1.222   5.160
  376SOL    HW1 2027   2.614   1.192   5.211
  376SOL    HW2 2028   2.562   1.274   5.080
  377SOL     OW 2029   1.475   1.911   1.383
  377SOL    HW1 2030   1.493   1.997   1.335
  377SOL    HW2 2031   1.515   1.914   1.475
  378SOL     OW 2032   4.349   2.693   6.524
  378SOL    HW1 2033   4.283   2.707   6.597
  378SOL    HW2 2034   4.355   2.776   6.467
  379SOL     OW 2035   6.449   3.554   1.241
  379SOL    HW1 2036   6.361   3.508   1.237
  379SOL    HW2 2037   6.499   3.538   1.156
  380SOL     OW 2038   2.464   1.290   0.848
  380SOL    HW1 2039   2.410   1.206   0.850
  380SOL    HW2 2040   2.441   1.343   0.766
  381SOL     OW 2041   1.464   3.750   2.661
  381SOL    HW1 2042   1.554   3.787   2.682
  381SOL    HW2 2043   1.431   3.696   2.739
  382SOL     OW 2044   6.020   0.309   6.617
  382SOL    HW1 2045   5.924   0.292   6.635
  382SOL    HW2 2046   6.065   0.224   6.589
  383SOL     OW 2047   4.296   4.025   6.110
  383SOL    HW1 2048   4.313   4.108   6.057
  383SOL    HW2 2049   4.287   4.048   6.207
  384SOL     OW 2050   6.728   5.593   4.155
  384SOL    HW1 2051   6.762   5.620   4.065
  384SOL    HW2 2052   6.631   5.571   4.149
  385SOL     OW 2053   3.995   5.417   5.356
  385SOL    HW1 2054   3.918   5.441   5.297
  385SOL    HW2 2055   4.044   5.339   5.316
  386SOL     OW 2056   2.079   6.710   5.492
  386SOL    HW1 2057   2.167   6.757   5.499
  386SOL    HW2 2058   2.042   6.694   5.583
  387SOL     OW 2059   1.205   6.823   3.606
  387SOL    HW1 2060   1.171   6.856   3.518
  387SOL    HW2 2061   1.169   6.732   3.624
  388SOL     OW 2062   1.604   1.865   4.282
  388SOL    HW1 2063   1.556   1.777   4.274
  388SOL    HW2 2064   1.673   1.858   4.353
  389SOL     OW 2065   3.802   4.510   1.167
  389SOL    HW1 2066   3.816   4.412   1.157
  389SOL    HW2 2067   3.881   4.551   1.213
  390SOL     OW 2068   3.429   1.271   6.941
  390SOL    HW1 2069   3.523   1.302   6.928
  390SOL    HW2 2070   3.429   1.191   7.002
  391SOL     OW 2071   2.361   3.521   6.007
  391SOL    HW1 2072   2.280   3.560   5.964
  391SOL    HW2 2073   2.382   3.433   5.964
  392SOL     OW 2074   1.612   4.046   0.454
  392SOL    HW1 2075   1.608   4.137   0.495
  392SOL    HW2 2076   1.702   4.032   0.412
  393SOL     OW 2077   1.408   4.524   6.346
  393SOL    HW1 2078   1.379   4.478   6.262
  393SOL    HW2 2079   1.398   4.461   6.423
  394SOL     OW 2080   6.768   2.361   0.846
  394SOL    HW1 2081   6.771   2.285   0.782
  394SOL    HW2 2082   6.696   2.425   0.820
  395SOL     OW 2083   5.050   4.453   3.072
  395SOL    HW1 2084   5.006   4.542   3.082
  395SOL    HW2 2085   5.040   4.421   2.978
  396SOL     OW 2086   2.938   3.614   1.958
  396SOL    HW1 2087   2.978   3.523   1.948
  396SOL    HW2 2088   2.889   3.620   2.044
  397SOL     OW 2089   5.686   1.772   6.227
  397SOL    HW1 2090   5.758   1.715   6.266
  397SOL    HW2 2091   5.700   1.867   6.255
  398SOL     OW 2092   1.430   0.166   3.387
  398SOL    HW1 2093   1.365   0.241   3.375
  398SOL    HW2 2094   1.457   0.130   3.298
  399SOL     OW 2095   5.179   6.466   3.189
  399SOL    HW1 2096   5.184   6.459   3.288
  399SOL    HW2 2097   5.104   6.408   3.155
  400SOL     OW 2098   6.229   6.838   5.174
  400SOL    HW1 2099   6.247   6.783   5.093
  400SOL    HW2 2100   6.245   6.783   5.256
  401SOL     OW 2101   5.222   0.064   6.704
  401SOL    HW1 2102   5.152   0.033   6.639
  401SOL    HW2 2103   5.212   0.162   6.719
  402SOL     OW 2104   6.683   0.215   3.871
  402SOL    HW1 2105   6.607   0.260   3.825
  402SOL    HW2 2106   6.672   0.116   3.864
  403SOL     OW 2107   4.045   1.393   5.079
  403SOL    HW1 2108   4.015   1.445   4.999
  403SOL    HW2 2109   3.986   1.313   5.091
  404SOL     OW 2110   1.778   4.975   3.892
  404SOL    HW1 2111   1.870   4.939   3.905
  404SOL    HW2 2112   1.711   4.910   3.928
  405SOL     OW 2113   2.120   3.117   2.933
  405SOL    HW1 2114   2.020   3.119   2.925
  405SOL    HW2 2115   2.159   3.194   2.884
  406SOL     OW 2116   0.720   4.426   4.783
  406SOL    HW1 2117   0.681   4.398   4.871
  406SOL    HW2 2118   0.705   4.354   4.715
  407SOL     OW 2119   0.365   1.321   5.000
  407SOL    HW1 2120   0.424   1.402   5.007
  407SOL    HW2 2121   0.422   1.238   5.005
  408SOL     OW 2122   2.535   2.069   2.998
  408SOL    HW1 2123   2.470   1.994   3.010
  408SOL    HW2 2124   2.553   2.083   2.901
  409SOL     OW 2125   6.281   3.605   2.423
  409SOL    HW1 2126   6.228   3.551   2.357
  409SOL    HW2 2127   6.308   3.691   2.381
  410SOL     OW 2128   1.096   1.697   0.922
  410SOL    HW1 2129   1.047   1.780   0.949
  410SOL    HW2 2130   1.099   1.634   0.999
  411SOL     OW 2131   6.955   1.075   1.181
  411SOL    HW1 2132   6.957   1.094   1.279
  411SOL    HW2 2133   0.016   1.112   1.139
  412SOL     OW 2134   3.221   5.817   3.379
  412SOL    HW1 2135   3.141   5.874   3.360
  412SOL    HW2 2136   3.255   5.837   3.471
  413SOL     OW 2137   5.618   4.253   1.937
  413SOL    HW1 2138   5.614   4.160   1.901
  413SOL    HW2 2139   5.711   4.272   1.970
  414SOL     OW 2140   3.441   5.350   3.264
  414SOL    HW1 2141   3.349   5.330   3.229
  414SOL    HW2 2142   3.483   5.422   3.208
  415SOL     OW 2143   0.496   6.716   6.257
  415SOL    HW1 2144   0.464   6.793   6.312
  415SOL    HW2 2145   0.484   6.738   6.160
  416SOL     OW 2146   4.493   6.461   4.858
  416SOL    HW1 2147   4.564   6.532   4.865
  416SOL    HW2 2148   4.438   6.461   4.941
  417SOL     OW 2149   2.268   6.367   5.687
  417SOL    HW1 2150   2.218   6.384   5.602
  417SOL    HW2 2151   2.349   6.426   5.692
  418SOL     OW 2152   3.632   6.767   6.373
  418SOL    HW1 2153   3.557   6.743   6.435
  418SOL    HW2 2154   3.612   6.853   6.328
  419SOL     OW 2155   1.307   6.111   2.577
  419SOL    HW1 2156   1.290   6.139   2.672
  419SOL    HW2 2157   1.235   6.149   2.519
  420SOL     OW 2158   6.066   1.680   0.122
  420SOL    HW1 2159   6.146   1.626   0.151
  420SOL    HW2 2160   5.993   1.670   0.189
  421SOL     OW 2161   6.606   4.075   5.033
  421SOL    HW1 2162   6.584   4.000   5.096
  421SOL    HW2 2163   6.534   4.081   4.963
  422SOL     OW 2164   5.169   3.982   1.448
  422SOL    HW1 2165   5.154   3.910   1.380
  422SOL    HW2 2166   5.107   3.969   1.525
  423SOL     OW 2167   1.103   2.382   6.362
  423SOL    HW1 2168   1.095   2.476   6.395
  423SOL    HW2 2169   1.018   2.332   6.381
  424SOL     OW 2170   1.776   4.811   1.328
  424SOL    HW1 2171   1.712   4.784   1.399
  424SOL    HW2 2172   1.768   4.909   1.310
  425SOL     OW 2173   4.924   2.065   3.312
  425SOL    HW1 2174   4.921   1.997   3.239
  425SOL    HW2 2175   4.975   2.028   3.389
  426SOL     OW 2176   2.658   2.038   4.618
  426SOL    HW1 2177   2.684   1.953   4.664
  426SOL    HW2 2178   2.560   2.054   4.629
  427SOL     OW 2179   5.810   6.812   3.777
  427SOL    HW1 2180   5.834   6.816   3.874
  427SOL    HW2 2181   5.889   6.778   3.725
  428SOL     OW 2182   4.104   0.073   3.237
  428SOL    HW1 2183   4.192   0.119   3.220
  428SOL    HW2 2184   4.034   0.112   3.177
  429SOL     OW 2185   0.797   5.113   3.199
  429SOL    HW1 2186   0.771   5.093   3.105
  429SOL    HW2 2187   0.774   5.208   3.220
  430SOL     OW 2188   1.477   5.840   4.079
  430SOL    HW1 2189   1.472   5.902   4.000
  430SOL    HW2 2190   1.541   5.876   4.147
  431SOL     OW 2191   3.103   0.240   1.093
  431SOL    HW1 2192   3.080   0.143   1.095
  431SOL    HW2 2193   3.087   0.280   1.183
  432SOL     OW 2194   6.600   1.961   1.399
  432SOL    HW1 2195   6.646   2.034   1.451
  432SOL    HW2 2196   6.502   1.978   1.398
  433SOL     OW 2197   2.336   6.755   5.402
  433SOL    HW1 2198   2.383   6.671   5.376
  433SOL    HW2 2199   2.314   6.807   5.320
  434SOL     OW 2200   3.689   5.518   2.943
  434SOL    HW1 2201   3.772   5.491   2.992
  434SOL    HW2 2202   3.614   5.527   3.007
  435SOL     OW 2203   4.341   2.143   6.438
  435SOL    HW1 2204   4.355   2.236   6.472
  435SOL    HW2 2205   4.388   2.131   6.351
  436SOL     OW 2206   3.027   5.021   1.817
  436SOL    HW1 2207   3.039   4.948   1.884
  436SOL    HW2 2208   3.116   5.053   1.786
  437SOL     OW 2209   0.678   0.951   6.206
  437SOL    HW1 2210   0.616   0.875   6.189
  437SOL    HW2 2211   0.626   1.030   6.239
  438SOL     OW 2212   2.197   3.998   4.389
  438SOL    HW1 2213   2.199   3.965   4.295
  438SOL    HW2 2214   2.159   3.927   4.448
  439SOL     OW 2215   6.110   6.265   2.584
  439SOL    HW1 2216   6.071   6.185   2.629
  439SOL    HW2 2217   6.153   6.324   2.652
  440SOL     OW 2218   2.781   1.926   5.420
  440SOL    HW1 2219   2.752   2.016   5.454
  440SOL    HW2 2220   2.700   1.868   5.408
  441SOL     OW 2221   0.369   3.281   3.362
  441SOL    HW1 2222   0.378   3.362   3.419
  441SOL    HW2 2223   0.437   3.213   3.391
  442SOL     OW 2224   4.076   6.041   5.303
  442SOL    HW1 2225   4.097   5.988   5.385
  442SOL    HW2 2226   3.979   6.029   5.279
  443SOL     OW 2227   5.583   4.335   4.826
  443SOL    HW1 2228   5.583   4.278   4.744
  443SOL    HW2 2229   5.677   4.361   4.849
  444SOL     OW 2230   5.125   0.790   6.467
  444SOL    HW1 2231   5.042   0.845   6.475
  444SOL    HW2 2232   5.102   0.697   6.438
  445SOL     OW 2233   1.754   5.541   2.942
  445SOL    HW1 2234   1.738   5.560   3.038
  445SOL    HW2 2235   1.852   5.543   2.922
  446SOL     OW 2236   4.239   4.933   2.905
  446SOL    HW1 2237   4.163   4.989   2.871
  446SOL    HW2 2238   4.318   4.945   2.844
  447SOL     OW 2239   0.030   3.434   5.893
  447SOL    HW1 2240   6.985   3.448   5.965
  447SOL    HW2 2241   0.042   3.336   5.876
  448SOL     OW 2242   2.434   0.687   2.730
  448SOL    HW1 2243   2.472   0.615   2.789
  448SOL    HW2 2244   2.358   0.731   2.776
  449SOL     OW 2245   2.909   1.237   4.019
  449SOL    HW1 2246   2.866   1.324   3.994
  449SOL    HW2 2247   2.890   1.169   3.949
  450SOL     OW 2248   1.647   4.665   3.715
  450SOL    HW1 2249   1.579   4.733   3.687
  450SOL    HW2 2250   1.696   4.699   3.795
  451SOL     OW 2251   1.675   2.122   4.919
  451SOL    HW1 2252   1.655   2.183   4.843
  451SOL    HW2 2253   1.653   2.167   5.006
  452SOL     OW 2254   4.810   6.672   0.701
  452SOL    HW1 2255   4.760   6.715   0.776
  452SOL    HW2 2256   4.760   6.592   0.669
  453SOL     OW 2257   3.436   0.563   6.987
  453SOL    HW1 2258   3.471   0.597   6.900
  453SOL    HW2 2259   3.477   0.615   0.040
  454SOL     OW 2260   6.800   3.773   6.551
  454SOL    HW1 2261   6.852   3.818   6.478
  454SOL    HW2 2262   6.848   3.784   6.637
  455SOL     OW 2263   5.031   2.867   4.903
  455SOL    HW1 2264   5.032   2.799   4.977
  455SOL    HW2 2265   5.125   2.890   4.878
  456SOL     OW 2266   0.889   6.936   4.232
  456SOL    HW1 2267   0.948   6.859   4.207
  456SOL    HW2 2268   0.886   6.944   4.332
  457SOL     OW 2269   1.999   4.304   4.564
  457SOL    HW1 2270   1.920   4.343   4.516
  457SOL    HW2 2271   2.063   4.266   4.497
  458SOL     OW 2272   2.672   6.340   2.689
  458SOL    HW1 2273   2.673   6.314   2.786
  458SOL    HW2 2274   2.718   6.269   2.636
  459SOL     OW 2275   2.381   6.843   6.179
  459SOL    HW1 2276   2.386   6.926   6.124
  459SOL    HW2 2277   2.319   6.778   6.136
  460SOL     OW 2278   1.715   6.992   4.527
  460SOL    HW1 2279   1.688   6.973   4.433
  460SOL    HW2 2280   1.750   0.063   4.533
  461SOL     OW 2281   0.038   5.199   5.459
  461SOL    HW1 2282   6.972   5.205   5.412
  461SOL    HW2 2283   0.045   5.273   5.526
  462SOL     OW 2284   4.244   3.221   6.258
  462SOL    HW1 2285   4.144   3.218   6.268
  462SOL    HW2 2286   4.285   3.253   6.343
  463SOL     OW 2287   6.461   0.013   4.084
  463SOL    HW1 2288   6.387   6.991   4.033
  463SOL    HW2 2289   6.458   7.005   4.180
  464SOL     OW 2290   2.941   0.716   5.743
  464SOL    HW1 2291   2.987   0.783   5.684
  464SOL    HW2 2292   2.985   0.714   5.832
  465SOL     OW 2293   0.386   2.274   0.074
  465SOL    HW1 2294   0.365   2.339   0.000
  465SOL    HW2 2295   0.356   2.182   0.047
  466SOL     OW 2296   2.351   6.681   3.955
  466SOL    HW1 2297   2.266   6.634   3.975
  466SOL    HW2 2298   2.362   6.691   3.856
  467SOL     OW 2299   1.227   1.429   2.405
  467SOL    HW1 2300   1.212   1.422   2.503
  467SOL    HW2 2301   1.322   1.405   2.384
  468SOL     OW 2302   3.536   5.508   5.272
  468SOL    HW1 2303   3.492   5.589   5.311
  468SOL    HW2 2304   3.468   5.451   5.228
  469SOL     OW 2305   2.738   3.739   6.056
  469SOL    HW1 2306   2.798   3.664   6.082
  469SOL    HW2 2307   2.793   3.817   6.025
  470SOL     OW 2308   3.985   6.044   1.106
  470SOL    HW1 2309   3.967   6.007   1.015
  470SOL    HW2 2310   4.070   6.098   1.104
  471SOL     OW 2311   2.378   2.617   3.895
  471SOL    HW1 2312   2.388   2.565   3.980
  471SOL    HW2 2313   2.461   2.607   3.840
  472SOL     OW 2314   5.343   4.496   6.692
  472SOL    HW1 2315   5.377   4.484   6.786
  472SOL    HW2 2316   5.284   4.419   6.668
  473SOL     OW 2317   1.492   1.902   2.776
  473SOL    HW1 2318   1.445   1.972   2.830
  473SOL    HW2 2319   1.424   1.842   2.733
  474SOL     OW 2320   5.356   6.052   4.707
  474SOL    HW1 2321   5.299   6.113   4.762
  474SOL    HW2 2322   5.437   6.100   4.675
  475SOL     OW 2323   6.467   2.759   0.366
  475SOL    HW1 2324   6.432   2.717   0.450
  475SOL    HW2 2325   6.445   2.700   0.288
  476SOL     OW 2326   6.662   3.996   2.280
  476SOL    HW1 2327   6.749   3.965   2.318
  476SOL    HW2 2328   6.599   4.019   2.354
  477SOL     OW 2329   2.597   5.911   3.181
  477SOL    HW1 2330   2.526   5.977   3.159
  477SOL    HW2 2331   2.593   5.835   3.116
  478SOL     OW 2332   4.300   6.114   2.863
  478SOL    HW1 2333   4.232   6.180   2.895
  478SOL    HW2 2334   4.386   6.163   2.843
  479SOL     OW 2335   4.009   3.426   5.282
  479SOL    HW1 2336   4.088   3.469   5.324
  479SOL    HW2 2337   4.035   3.337   5.244
  480SOL     OW 2338   2.422   0.160   0.965
  480SOL    HW1 2339   2.490   0.105   0.916
  480SOL    HW2 2340   2.366   0.100   1.022
  481SOL     OW 2341   0.985   6.428   1.854
  481SOL    HW1 2342   0.950   6.520   1.870
  481SOL    HW2 2343   0.927   6.361   1.900
  482SOL     OW 2344   4.736   4.824   2.343
  482SOL    HW1 2345   4.644   4.807   2.379
  482SOL    HW2 2346   4.765   4.746   2.287
  483SOL     OW 2347   6.567   2.315   2.694
  483SOL    HW1 2348   6.526   2.324   2.785
  483SOL    HW2 2349   6.521   2.377   2.630
  484SOL     OW 2350   1.676   4.009   4.595
  484SOL    HW1 2351   1.676   4.093   4.650
  484SOL    HW2 2352   1.724   3.937   4.644
  485SOL     OW 2353   4.672   4.749   2.676
  485SOL    HW1 2354   4.710   4.825   2.730
  485SOL    HW2 2355   4.684   4.769   2.579
  486SOL     OW 2356   6.356   1.670   0.603
  486SOL    HW1 2357   6.406   1.654   0.517
  486SOL    HW2 2358   6.336   1.768   0.611
  487SOL     OW 2359   0.693   0.462   3.373
  487SOL    HW1 2360   0.746   0.497   3.451
  487SOL    HW2 2361   0.609   0.419   3.407
  488SOL     OW 2362   0.845   0.243   2.461
  488SOL    HW1 2363   0.801   0.192   2.387
  488SOL    HW2 2364   0.833   0.195   2.547
  489SOL     OW 2365   5.139   6.337   5.870
  489SOL    HW1 2366   5.039   6.332   5.869
  489SOL    HW2 2367   5.174   6.332   5.777
  490SOL     OW 2368   1.944   5.817   3.598
  490SOL    HW1 2369   1.876   5.813   3.671
  490SOL    HW2 2370   1.983   5.908   3.593
  491SOL     OW 2371   1.354   3.161   1.522
  491SOL    HW1 2372   1.273   3.216   1.537
  491SOL    HW2 2373   1.391   3.131   1.610
  492SOL     OW 2374   1.744   0.759   5.748
  492SOL    HW1 2375   1.779   0.760   5.654
  492SOL    HW2 2376   1.647   0.782   5.747
  493SOL     OW 2377   2.958   6.631   5.734
  493SOL    HW1 2378   2.867   6.664   5.759
  493SOL    HW2 2379   2.980   6.660   5.641
  494SOL     OW 2380   1.061   6.666   6.776
  494SOL    HW1 2381   1.078   6.567   6.775
  494SOL    HW2 2382   1.059   6.700   6.683
  495SOL     OW 2383   3.921   5.633   3.538
  495SOL    HW1 2384   3.894   5.678   3.454
  495SOL    HW2 2385   3.866   5.550   3.551
  496SOL     OW 2386   5.689   2.786   1.768
  496SOL    HW1 2387   5.617   2.764   1.833
  496SOL    HW2 2388   5.677   2.732   1.684
  497SOL     OW 2389   3.304   1.072   4.691
  497SOL    HW1 2390   3.290   1.086   4.593
  497SOL    HW2 2391   3.383   1.013   4.706
  498SOL     OW 2392   0.773   5.059   2.331
  498SOL    HW1 2393   0.726   5.005   2.261
  498SOL    HW2 2394   0.718   5.138   2.356
  499SOL     OW 2395   1.830   5.509   4.696
  499SOL    HW1 2396   1.884   5.439   4.648
  499SOL    HW2 2397   1.747   5.529   4.644
  500SOL     OW 2398   6.658   2.620   6.832
  500SOL    HW1 2399   6.726   2.547   6.833
  500SOL    HW2 2400   6.575   2.589   6.786
  501SOL     OW 2401   4.013   6.738   0.573
  501SOL    HW1 2402   3.920   6.775   0.564
  501SOL    HW2 2403   4.010   6.655   0.628
  502SOL     OW 2404   0.743   4.327   6.124
  502SOL    HW1 2405   0.824   4.321   6.065
  502SOL    HW2 2406   0.758   4.271   6.205
  503SOL     OW 2407   0.840   4.604   6.276
  503SOL    HW1 2408   0.855   4.505   6.285
  503SOL    HW2 2409   0.803   4.623   6.185
  504SOL     OW 2410   1.298   5.474   2.318
  504SOL    HW1 2411   1.329   5.501   2.227
  504SOL    HW2 2412   1.206   5.434   2.312
  505SOL     OW 2413   3.931   6.117   4.994
  505SOL    HW1 2414   3.887   6.092   5.080
  505SOL    HW2 2415   3.879   6.078   4.918
  506SOL     OW 2416   3.489   5.719   2.356
  506SOL    HW1 2417   3.461   5.669   2.439
  506SOL    HW2 2418   3.580   5.758   2.370
  507SOL     OW 2419   3.041   6.524   2.955
  507SOL    HW1 2420   2.972   6.520   3.027
  507SOL    HW2 2421   3.090   6.437   2.950
  508SOL     OW 2422   0.349   3.200   2.620
  508SOL    HW1 2423   0.303   3.128   2.670
  508SOL    HW2 2424   0.291   3.281   2.616
  509SOL     OW 2425   3.044   1.678   0.915
  509SOL    HW1 2426   3.020   1.761   0.966
  509SOL    HW2 2427   3.135   1.689   0.874
  510SOL     OW 2428   6.389   4.237   6.703
  510SOL    HW1 2429   6.443   4.185   6.637
  510SOL    HW2 2430   6.450   4.286   6.765
  511SOL     OW 2431   0.431   2.849   6.389
  511SOL    HW1 2432   0.387   2.887   6.308
  511SOL    HW2 2433   0.463   2.924   6.448
  512SOL     OW 2434   0.060   2.271   6.488
  512SOL    HW1 2435   0.001   2.191   6.474
  512SOL    HW2 2436   0.093   2.272   6.582
  513SOL     OW 2437   5.355   6.729   3.183
  513SOL    HW1 2438   5.442   6.747   3.137
  513SOL    HW2 2439   5.330   6.633   3.171
  514SOL     OW 2440   6.072   0.493   4.690
  514SOL    HW1 2441   6.046   0.404   4.652
  514SOL    HW2 2442   6.172   0.498   4.698
  515SOL     OW 2443   1.270   1.338   0.737
  515SOL    HW1 2444   1.212   1.419   0.730
  515SOL    HW2 2445   1.366   1.366   0.742
  516SOL     OW 2446   2.767   4.734   1.735
  516SOL    HW1 2447   2.817   4.684   1.805
  516SOL    HW2 2448   2.697   4.791   1.779
  517SOL     OW 2449   3.321   4.872   1.902
  517SOL    HW1 2450   3.413   4.833   1.911
  517SOL    HW2 2451   3.254   4.808   1.941
  518SOL     OW 2452   2.236   2.509   3.656
  518SOL    HW1 2453   2.173   2.443   3.697
  518SOL    HW2 2454   2.264   2.576   3.725
  519SOL     OW 2455   0.948   6.549   3.005
  519SOL    HW1 2456   0.990   6.640   3.007
  519SOL    HW2 2457   0.878   6.546   2.933
  520SOL     OW 2458   6.316   3.628   6.486
  520SOL    HW1 2459   6.270   3.711   6.519
  520SOL    HW2 2460   6.267   3.593   6.407
  521SOL     OW 2461   6.519   6.414   5.532
  521SOL    HW1 2462   6.499   6.432   5.435
  521SOL    HW2 2463   6.541   6.317   5.544
  522SOL     OW 2464   4.095   3.526   3.544
  522SOL    HW1 2465   4.125   3.591   3.613
  522SOL    HW2 2466   4.168   3.510   3.479
  523SOL     OW 2467   0.272   5.832   1.022
  523SOL    HW1 2468   0.365   5.816   0.991
  523SOL    HW2 2469   0.238   5.918   0.982
  524SOL     OW 2470   1.262   2.494   3.006
  524SOL    HW1 2471   1.282   2.447   3.092
  524SOL    HW2 2472   1.231   2.588   3.026
  525SOL     OW 2473   1.747   4.278   5.746
  525SOL    HW1 2474   1.816   4.207   5.759
  525SOL    HW2 2475   1.790   4.368   5.758
  526SOL     OW 2476   3.559   6.788   4.117
  526SOL    HW1 2477   3.497   6.716   4.148
  526SOL    HW2 2478   3.506   6.859   4.070
  527SOL     OW 2479   6.952   2.948   0.589
  527SOL    HW1 2480   6.945   2.881   0.662
  527SOL    HW2 2481   7.012   2.913   0.516
  528SOL     OW 2482   1.737   2.384   3.477
  528SOL    HW1 2483   1.758   2.468   3.428
  528SOL    HW2 2484   1.817   2.324   3.478
  529SOL     OW 2485   1.981   6.176   5.066
  529SOL    HW1 2486   1.918   6.101   5.084
  529SOL    HW2 2487   1.945   6.260   5.108
  530SOL     OW 2488   4.013   3.786   3.344
  530SOL    HW1 2489   4.016   3.822   3.437
  530SOL    HW2 2490   4.024   3.861   3.279
  531SOL     OW 2491   0.933   1.452   2.980
  531SOL    HW1 2492   0.964   1.542   3.009
  531SOL    HW2 2493   1.009   1.386   2.988
  532SOL     OW 2494   1.358   2.248   0.591
  532SOL    HW1 2495   1.261   2.254   0.569
  532SOL    HW2 2496   1.375   2.288   0.681
  533SOL     OW 2497   4.384   6.925   3.049
  533SOL    HW1 2498   4.333   6.991   2.994
  533SOL    HW2 2499   4.352   6.929   3.143
  534SOL     OW 2500   5.433   6.014   2.579
  534SOL    HW1 2501   5.442   5.987   2.675
  534SOL    HW2 2502   5.523   6.034   2.542
  535SOL     OW 2503   6.286   3.832   3.585
  535SOL    HW1 2504   6.365   3.866   3.635
  535SOL    HW2 2505   6.317   3.789   3.500
  536SOL     OW 2506   6.252   4.715   2.763
  536SOL    HW1 2507   6.238   4.642   2.830
  536SOL    HW2 2508   6.339   4.702   2.716
  537SOL     OW 2509   3.114   7.004   4.555
  537SOL    HW1 2510   3.100   6.907   4.577
  537SOL    HW2 2511   3.035   0.034   4.585
  538SOL     OW 2512   0.714   4.723   3.926
  538SOL    HW1 2513   0.655   4.685   3.998
  538SOL    HW2 2514   0.779   4.787   3.968
  539SOL     OW 2515   1.945   4.436   1.695
  539SOL    HW1 2516   2.017   4.506   1.697
  539SOL    HW2 2517   1.927   4.410   1.600
  540SOL     OW 2518   1.683   1.499   2.783
  540SOL    HW1 2519   1.748   1.427   2.758
  540SOL    HW2 2520   1.661   1.553   2.702
  541SOL     OW 2521   5.790   5.448   4.511
  541SOL    HW1 2522   5.699   5.409   4.522
  541SOL    HW2 2523   5.787   5.546   4.531
  542SOL     OW 2524   4.952   6.803   6.882
  542SOL    HW1 2525   4.994   6.761   6.802
  542SOL    HW2 2526   4.912   6.891   6.857
  543SOL     OW 2527   6.435   3.837   4.560
  543SOL    HW1 2528   6.433   3.847   4.659
  543SOL    HW2 2529   6.450   3.741   4.536
  544SOL     OW 2530   1.142   4.786   6.713
  544SOL    HW1 2531   1.126   4.712   6.779
  544SOL    HW2 2532   1.064   4.792   6.651
  545SOL     OW 2533   3.410   1.125   1.194
  545SOL    HW1 2534   3.315   1.108   1.165
  545SOL    HW2 2535   3.416   1.215   1.237
  546SOL     OW 2536   1.540   3.306   0.762
  546SOL    HW1 2537   1.638   3.289   0.773
  546SOL    HW2 2538   1.526   3.398   0.726
  547SOL     OW 2539   3.598   1.724   6.845
  547SOL    HW1 2540   3.583   1.821   6.825
  547SOL    HW2 2541   3.553   1.701   6.932
  548SOL     OW 2542   3.128   3.371   1.929
  548SOL    HW1 2543   3.164   3.347   1.838
  548SOL    HW2 2544   3.097   3.288   1.975
  549SOL     OW 2545   5.502   2.214   1.549
  549SOL    HW1 2546   5.405   2.234   1.560
  549SOL    HW2 2547   5.528   2.225   1.453
  550SOL     OW 2548   1.487   5.337   3.867
  550SOL    HW1 2549   1.564   5.341   3.804
  550SOL    HW2 2550   1.456   5.429   3.888
  551SOL     OW 2551   0.693   0.024   1.789
  551SOL    HW1 2552   0.671   6.979   1.719
  551SOL    HW2 2553   0.709   0.113   1.746
  552SOL     OW 2554   5.775   5.033   6.927
  552SOL    HW1 2555   5.848   5.000   6.866
  552SOL    HW2 2556   5.697   4.970   6.922
  553SOL     OW 2557   2.490   6.873   4.108
  553SOL    HW1 2558   2.424   6.902   4.177
  553SOL    HW2 2559   2.443   6.817   4.039
  554SOL     OW 2560   5.628   6.718   6.587
  554SOL    HW1 2561   5.673   6.675   6.666
  554SOL    HW2 2562   5.561   6.784   6.620
  555SOL     OW 2563   3.090   4.924   4.765
  555SOL    HW1 2564   3.181   4.897   4.735
  555SOL    HW2 2565   3.090   5.021   4.790
  556SOL     OW 2566   5.162   1.613   3.515
  556SOL    HW1 2567   5.166   1.514   3.527
  556SOL    HW2 2568   5.112   1.635   3.431
  557SOL     OW 2569   6.634   5.244   0.375
  557SOL    HW1 2570   6.652   5.342   0.378
  557SOL    HW2 2571   6.556   5.222   0.433
  558SOL     OW 2572   3.169   3.577   3.169
  558SOL    HW1 2573   3.106   3.649   3.195
  558SOL    HW2 2574   3.139   3.490   3.208
  559SOL     OW 2575   0.466   5.688   6.331
  559SOL    HW1 2576   0.512   5.604   6.303
  559SOL    HW2 2577   0.463   5.751   6.254
  560SOL     OW 2578   5.972   3.894   3.988
  560SOL    HW1 2579   5.951   3.962   3.918
  560SOL    HW2 2580   6.059   3.849   3.965
  561SOL     OW 2581   0.372   2.285   1.052
  561SOL    HW1 2582   0.343   2.214   0.988
  561SOL    HW2 2583   0.457   2.327   1.020
  562SOL     OW 2584   4.434   0.087   6.485
  562SOL    HW1 2585   4.348   0.053   6.448
  562SOL    HW2 2586   4.483   0.139   6.415
  563SOL     OW 2587   2.903   0.349   3.762
  563SOL    HW1 2588   2.827   0.394   3.809
  563SOL    HW2 2589   2.885   0.251   3.755
  564SOL     OW 2590   1.026   2.602   0.033
  564SOL    HW1 2591   1.032   2.611   0.133
  564SOL    HW2 2592   0.970   2.675   7.018
  565SOL     OW 2593   3.787   3.498   4.872
  565SOL    HW1 2594   3.751   3.415   4.830
  565SOL    HW2 2595   3.750   3.578   4.823
  566SOL     OW 2596   0.613   4.491   3.841
  566SOL    HW1 2597   0.670   4.570   3.867
  566SOL    HW2 2598   0.518   4.522   3.830
  567SOL     OW 2599   2.783   2.661   1.620
  567SOL    HW1 2600   2.876   2.659   1.585
  567SOL    HW2 2601   2.766   2.580   1.676
  568SOL     OW 2602   4.634   0.373   0.194
  568SOL    HW1 2603   4.715   0.344   0.244
  568SOL    HW2 2604   4.554   0.369   0.255
  569SOL     OW 2605   1.855   2.707   0.175
  569SOL    HW1 2606   1.775   2.767   0.174
  569SOL    HW2 2607   1.831   2.620   0.217
  570SOL     OW 2608   3.976   6.390   6.254
  570SOL    HW1 2609   3.883   6.425   6.265
  570SOL    HW2 2610   4.039   6.444   6.311
  571SOL     OW 2611   3.334   5.545   2.521
  571SOL    HW1 2612   3.330   5.544   2.620
  571SOL    HW2 2613   3.242   5.556   2.484
  572SOL     OW 2614   2.562   4.740   5.459
  572SOL    HW1 2615   2.581   4.723   5.555
  572SOL    HW2 2616   2.505   4.821   5.449
  573SOL     OW 2617   5.332   1.519   6.113
  573SOL    HW1 2618   5.302   1.433   6.155
  573SOL    HW2 2619   5.432   1.519   6.107
  574SOL     OW 2620   3.706   1.328   4.890
  574SOL    HW1 2621   3.707   1.428   4.895
  574SOL    HW2 2622   3.614   1.297   4.867
  575SOL     OW 2623   5.327   4.090   0.686
  575SOL    HW1 2624   5.378   4.135   0.759
  575SOL    HW2 2625   5.231   4.118   0.689
  576SOL     OW 2626   1.596   2.196   2.983
  576SOL    HW1 2627   1.580   2.265   2.912
  576SOL    HW2 2628   1.513   2.187   3.038
  577SOL     OW 2629   1.595   1.234   3.142
  577SOL    HW1 2630   1.597   1.149   3.194
  577SOL    HW2 2631   1.544   1.303   3.193
  578SOL     OW 2632   6.534   5.276   4.258
  578SOL    HW1 2633   6.598   5.205   4.231
  578SOL    HW2 2634   6.441   5.247   4.236
  579SOL     OW 2635   1.755   3.255   3.807
  579SOL    HW1 2636   1.667   3.208   3.812
  579SOL    HW2 2637   1.814   3.223   3.881
  580SOL     OW 2638   4.990   5.557   5.568
  580SOL    HW1 2639   4.999   5.510   5.480
  580SOL    HW2 2640   5.079   5.595   5.594
  581SOL     OW 2641   1.904   2.938   1.871
  581SOL    HW1 2642   1.866   2.855   1.831
  581SOL    HW2 2643   1.943   2.918   1.961
  582SOL     OW 2644   4.654   5.942   2.261
  582SOL    HW1 2645   4.567   5.979   2.296
  582SOL    HW2 2646   4.649   5.934   2.162
  583SOL     OW 2647   2.628   6.767   5.332
  583SOL    HW1 2648   2.570   6.848   5.325
  583SOL    HW2 2649   2.574   6.690   5.368
  584SOL     OW 2650   3.081   5.093   6.747
  584SOL    HW1 2651   3.050   5.165   6.685
  584SOL    HW2 2652   3.022   5.014   6.739
  585SOL     OW 2653   4.982   2.148   6.519
  585SOL    HW1 2654   5.012   2.167   6.612
  585SOL    HW2 2655   4.893   2.191   6.503
  586SOL     OW 2656   3.466   0.509   6.310
  586SOL    HW1 2657   3.406   0.590   6.304
  586SOL    HW2 2658   3.434   0.450   6.384
  587SOL     OW 2659   4.357   1.870   4.255
  587SOL    HW1 2660   4.345   1.891   4.158
  587SOL    HW2 2661   4.388   1.775   4.265
  588SOL     OW 2662   2.450   4.691   1.395
  588SOL    HW1 2663   2.433   4.623   1.325
  588SOL    HW2 2664   2.371   4.751   1.404
  589SOL     OW 2665   3.389   4.625   1.631
  589SOL    HW1 2666   3.294   4.640   1.659
  589SOL    HW2 2667   3.449   4.636   1.709
  590SOL     OW 2668   5.338   2.771   2.086
  590SOL    HW1 2669   5.247   2.737   2.065
  590SOL    HW2 2670   5.405   2.698   2.072
  591SOL     OW 2671   3.098   5.568   3.365
  591SOL    HW1 2672   3.141   5.658   3.363
  591SOL    HW2 2673   3.006   5.574   3.324
  592SOL     OW 2674   3.632   1.545   1.025
  592SOL    HW1 2675   3.585   1.504   1.103
  592SOL    HW2 2676   3.580   1.622   0.990
  593SOL     OW 2677   3.958   2.192   4.533
  593SOL    HW1 2678   3.919   2.239   4.612
  593SOL    HW2 2679   4.055   2.217   4.525
  594SOL     OW 2680   6.951   1.144   0.048
  594SOL    HW1 2681   6.989   1.133   6.979
  594SOL    HW2 2682   6.937   1.242   0.067
  595SOL     OW 2683   5.738   0.629   3.743
  595SOL    HW1 2684   5.705   0.661   3.655
  595SOL    HW2 2685   5.768   0.707   3.798
  596SOL     OW 2686   1.355   5.500   3.502
  596SOL    HW1 2687   1.430   5.502   3.436
  596SOL    HW2 2688   1.342   5.407   3.535
  597SOL     OW 2689   2.314   0.150   0.223
  597SOL    HW1 2690   2.322   0.054   0.197
  597SOL    HW2 2691   2.390   0.175   0.282
  598SOL     OW 2692   3.970   3.875   5.383
  598SOL    HW1 2693   4.046   3.855   5.321
  598SOL    HW2 2694   3.997   3.853   5.477
  599SOL     OW 2695   2.600   6.252   1.722
  599SOL    HW1 2696   2.515   6.289   1.760
  599SOL    HW2 2697   2.661   6.327   1.696
  600SOL     OW 2698   6.631   1.304   0.048
  600SOL    HW1 2699   6.541   1.344   0.033
  600SOL    HW2 2700   6.678   1.295   6.982
  601SOL     OW 2701   1.334   0.362   4.689
  601SOL    HW1 2702   1.390   0.286   4.722
  601SOL    HW2 2703   1.334   0.435   4.757
  602SOL     OW 2704   1.399   1.655   6.085
  602SOL    HW1 2705   1.309   1.685   6.117
  602SOL    HW2 2706   1.387   1.581   6.019
  603SOL     OW 2707   2.785   2.406   5.223
  603SOL    HW1 2708   2.863   2.422   5.284
  603SOL    HW2 2709   2.800   2.321   5.172
  604SOL     OW 2710   0.879   2.252   2.033
  604SOL    HW1 2711   0.824   2.230   2.114
  604SOL    HW2 2712   0.833   2.323   1.980
  605SOL     OW 2713   6.610   5.851   0.475
  605SOL    HW1 2714   6.654   5.912   0.541
  605SOL    HW2 2715   6.653   5.761   0.478
  606SOL     OW 2716   5.071   6.356   6.959
  606SOL    HW1 2717   5.112   6.447   6.961
  606SOL    HW2 2718   4.998   6.353   6.891
  607SOL     OW 2719   6.219   5.857   5.401
  607SOL    HW1 2720   6.235   5.949   5.436
  607SOL    HW2 2721   6.151   5.861   5.328
  608SOL     OW 2722   4.107   6.373   6.795
  608SOL    HW1 2723   4.097   6.312   6.717
  608SOL    HW2 2724   4.154   6.325   6.869
  609SOL     OW 2725   3.597   2.925   2.349
  609SOL    HW1 2726   3.665   2.910   2.420
  609SOL    HW2 2727   3.641   2.962   2.267
  610SOL     OW 2728   5.840   4.378   1.635
  610SOL    HW1 2729   5.919   4.319   1.616
  610SOL    HW2 2730   5.759   4.320   1.647
  611SOL     OW 2731   4.304   6.543   1.526
  611SOL    HW1 2732   4.374   6.573   1.591
  611SOL    HW2 2733   4.213   6.559   1.565
  612SOL     OW 2734   4.090   6.274   4.716
  612SOL    HW1 2735   4.033   6.288   4.798
  612SOL    HW2 2736   4.164   6.210   4.738
  613SOL     OW 2737   4.314   6.589   5.443
  613SOL    HW1 2738   4.299   6.521   5.514
  613SOL    HW2 2739   4.229   6.601   5.390
  614SOL     OW 2740   5.475   5.597   0.560
  614SOL    HW1 2741   5.379   5.597   0.534
  614SOL    HW2 2742   5.484   5.616   0.658
  615SOL     OW 2743   6.520   2.472   1.939
  615SOL    HW1 2744   6.579   2.392   1.929
  615SOL    HW2 2745   6.552   2.528   2.016
  616SOL     OW 2746   0.398   2.763   3.677
  616SOL    HW1 2747   0.336   2.801   3.746
  616SOL    HW2 2748   0.347   2.700   3.618
  617SOL     OW 2749   6.849   4.553   5.566
  617SOL    HW1 2750   6.789   4.481   5.531
  617SOL    HW2 2751   6.853   4.628   5.501
  618SOL     OW 2752   6.798   2.577   0.205
  618SOL    HW1 2753   6.887   2.586   0.160
  618SOL    HW2 2754   6.760   2.667   0.222
  619SOL     OW 2755   3.952   1.145   0.259
  619SOL    HW1 2756   3.987   1.078   0.193
  619SOL    HW2 2757   3.905   1.097   0.333
  620SOL     OW 2758   4.293   3.117   1.347
  620SOL    HW1 2759   4.208   3.160   1.317
  620SOL    HW2 2760   4.326   3.162   1.430
  621SOL     OW 2761   2.562   6.763   0.060
  621SOL    HW1 2762   2.581   6.719   6.994
  621SOL    HW2 2763   2.630   6.835   0.077
  622SOL     OW 2764   1.044   0.093   6.137
  622SOL    HW1 2765   1.044   0.169   6.202
  622SOL    HW2 2766   0.970   0.107   6.071
  623SOL     OW 2767   0.777   5.733   4.920
  623SOL    HW1 2768   0.852   5.668   4.909
  623SOL    HW2 2769   0.759   5.747   5.017
  624SOL     OW 2770   6.632   2.795   1.098
  624SOL    HW1 2771   6.616   2.817   1.001
  624SOL    HW2 2772   6.719   2.833   1.127
  625SOL     OW 2773   1.886   1.865   1.753
  625SOL    HW1 2774   1.966   1.876   1.811
  625SOL    HW2 2775   1.810   1.829   1.807
  626SOL     OW 2776   2.280   5.765   3.489
  626SOL    HW1 2777   2.355   5.699   3.488
  626SOL    HW2 2778   2.211   5.737   3.556
  627SOL     OW 2779   5.517   6.280   0.121
  627SOL    HW1 2780   5.597   6.317   0.073
  627SOL    HW2 2781   5.530   6.292   0.220
  628SOL     OW 2782   5.979   5.479   6.024
  628SOL    HW1 2783   5.954   5.416   5.950
  628SOL    HW2 2784   6.078   5.474   6.040
  629SOL     OW 2785   6.453   6.744   6.966
  629SOL    HW1 2786   6.531   6.710   7.017
  629SOL    HW2 2787   6.442   6.691   6.881
  630SOL     OW 2788   6.665   1.985   2.159
  630SOL    HW1 2789   6.661   1.934   2.245
  630SOL    HW2 2790   6.582   1.966   2.106
  631SOL     OW 2791   3.196   6.677   5.390
  631SOL    HW1 2792   3.219   6.731   5.309
  631SOL    HW2 2793   3.132   6.728   5.447
  632SOL     OW 2794   2.350   0.869   0.734
  632SOL    HW1 2795   2.447   0.858   0.755
  632SOL    HW2 2796   2.340   0.917   0.647
  633SOL     OW 2797   4.202   3.727   0.339
  633SOL    HW1 2798   4.133   3.782   0.387
  633SOL    HW2 2799   4.203   3.752   0.242
  634SOL     OW 2800   3.885   4.212   1.132
  634SOL    HW1 2801   3.873   4.128   1.185
  634SOL    HW2 2802   3.982   4.226   1.111
  635SOL     OW 2803   4.682   5.118   1.048
  635SOL    HW1 2804   4.625   5.043   1.082
  635SOL    HW2 2805   4.624   5.185   1.002
  636SOL     OW 2806   4.097   5.598   6.884
  636SOL    HW1 2807   4.131   5.510   6.917
  636SOL    HW2 2808   4.166   5.668   6.901
  637SOL     OW 2809   6.451   3.490   3.165
  637SOL    HW1 2810   6.434   3.585   3.193
  637SOL    HW2 2811   6.364   3.448   3.140
  638SOL     OW 2812   5.215   2.589   3.600
  638SOL    HW1 2813   5.267   2.613   3.682
  638SOL    HW2 2814   5.139   2.529   3.625
  639SOL     OW 2815   4.866   3.762   2.475
  639SOL    HW1 2816   4.906   3.734   2.388
  639SOL    HW2 2817   4.841   3.858   2.471
  640SOL     OW 2818   6.984   5.349   4.003
  640SOL    HW1 2819   6.995   5.401   4.088
  640SOL    HW2 2820   6.918   5.275   4.018
  641SOL     OW 2821   6.436   5.874   4.945
  641SOL    HW1 2822   6.488   5.914   4.869
  641SOL    HW2 2823   6.408   5.781   4.920
  642SOL     OW 2824   6.804   3.204   4.852
  642SOL    HW1 2825   6.737   3.131   4.868
  642SOL    HW2 2826   6.858   3.182   4.771
  643SOL     OW 2827   5.420   6.087   5.064
  643SOL    HW1 2828   5.323   6.073   5.084
  643SOL    HW2 2829   5.461   6.002   5.031
  644SOL     OW 2830   1.604   5.668   4.620
  644SOL    HW1 2831   1.683   5.719   4.589
  644SOL    HW2 2832   1.533   5.669   4.549
  645SOL     OW 2833   4.109   1.370   3.880
  645SOL    HW1 2834   4.185   1.409   3.828
  645SOL    HW2 2835   4.106   1.271   3.865
  646SOL     OW 2836   2.604   1.401   4.667
  646SOL    HW1 2837   2.525   1.461   4.653
  646SOL    HW2 2838   2.684   1.442   4.623
  647SOL     OW 2839   5.179   2.051   4.594
  647SOL    HW1 2840   5.131   2.016   4.514
  647SOL    HW2 2841   5.183   1.979   4.664
  648SOL     OW 2842   0.064   3.521   3.940
  648SOL    HW1 2843   0.004   3.442   3.930
  648SOL    HW2 2844   0.075   3.566   3.851
  649SOL     OW 2845   3.003   3.349   0.817
  649SOL    HW1 2846   2.953   3.284   0.874
  649SOL    HW2 2847   3.014   3.311   0.725
  650SOL     OW 2848   6.096   4.595   0.831
  650SOL    HW1 2849   6.106   4.528   0.905
  650SOL    HW2 2850   6.136   4.559   0.748
  651SOL     OW 2851   6.158   6.148   6.239
  651SOL    HW1 2852   6.102   6.108   6.311
  651SOL    HW2 2853   6.123   6.120   6.149
  652SOL     OW 2854   4.869   6.236   3.669
  652SOL    HW1 2855   4.881   6.261   3.573
  652SOL    HW2 2856   4.802   6.296   3.712
  653SOL     OW 2857   2.570   5.819   5.308
  653SOL    HW1 2858   2.477   5.829   5.345
  653SOL    HW2 2859   2.564   5.787   5.213
  654SOL     OW 2860   0.020   4.156   5.914
  654SOL    HW1 2861   0.030   4.058   5.897
  654SOL    HW2 2862   6.966   4.173   5.976
  655SOL     OW 2863   0.692   6.017   2.178
  655SOL    HW1 2864   0.604   5.969   2.176
  655SOL    HW2 2865   0.682   6.101   2.231
  656SOL     OW 2866   1.779   5.324   1.436
  656SOL    HW1 2867   1.740   5.357   1.350
  656SOL    HW2 2868   1.855   5.382   1.463
  657SOL     OW 2869   1.660   2.405   1.674
  657SOL    HW1 2870   1.690   2.315   1.707
  657SOL    HW2 2871   1.738   2.467   1.671
  658SOL     OW 2872   2.896   3.947   6.497
  658SOL    HW1 2873   2.956   4.024   6.515
  658SOL    HW2 2874   2.904   3.921   6.400
  659SOL     OW 2875   2.404   6.054   6.279
  659SOL    HW1 2876   2.416   6.041   6.180
  659SOL    HW2 2877   2.459   6.132   6.309
  660SOL     OW 2878   5.459   4.824   2.419
  660SOL    HW1 2879   5.473   4.887   2.495
  660SOL    HW2 2880   5.450   4.875   2.334
  661SOL     OW 2881   4.010   5.201   3.207
  661SOL    HW1 2882   4.064   5.117   3.202
  661SOL    HW2 2883   4.048   5.268   3.144
  662SOL     OW 2884   3.971   0.218   5.665
  662SOL    HW1 2885   3.938   0.313   5.666
  662SOL    HW2 2886   4.030   0.202   5.745
  663SOL     OW 2887   2.201   4.071   6.359
  663SOL    HW1 2888   2.138   4.048   6.284
  663SOL    HW2 2889   2.151   4.074   6.445
  664SOL     OW 2890   0.265   4.990   6.348
  664SOL    HW1 2891   0.184   5.001   6.291
  664SOL    HW2 2892   0.261   5.057   6.423
  665SOL     OW 2893   5.137   4.782   1.373
  665SOL    HW1 2894   5.110   4.870   1.334
  665SOL    HW2 2895   5.071   4.755   1.443
  666SOL     OW 2896   4.836   2.085   2.410
  666SOL    HW1 2897   4.738   2.087   2.430
  666SOL    HW2 2898   4.887   2.112   2.492
  667SOL     OW 2899   0.792   4.800   3.499
  667SOL    HW1 2900   0.729   4.844   3.435
  667SOL    HW2 2901   0.826   4.715   3.458
  668SOL     OW 2902   5.342   6.446   6.330
  668SOL    HW1 2903   5.298   6.431   6.419
  668SOL    HW2 2904   5.383   6.537   6.329
  669SOL     OW 2905   4.198   0.364   2.762
  669SOL    HW1 2906   4.250   0.393   2.681
  669SOL    HW2 2907   4.201   0.436   2.831
  670SOL     OW 2908   3.340   2.731   1.040
  670SOL    HW1 2909   3.240   2.724   1.046
  670SOL    HW2 2910   3.382   2.674   1.110
  671SOL     OW 2911   1.933   6.576   6.986
  671SOL    HW1 2912   1.922   6.629   6.902
  671SOL    HW2 2913   1.861   6.600   0.028
  672SOL     OW 2914   1.055   5.117   2.341
  672SOL    HW1 2915   1.082   5.087   2.250
  672SOL    HW2 2916   0.958   5.097   2.356
  673SOL     OW 2917   0.012   6.895   1.594
  673SOL    HW1 2918   7.008   6.904   1.690
  673SOL    HW2 2919   6.953   6.879   1.538
  674SOL     OW 2920   0.660   1.375   5.219
  674SOL    HW1 2921   0.671   1.445   5.289
  674SOL    HW2 2922   0.685   1.414   5.130
  675SOL     OW 2923   0.831   1.116   3.114
  675SOL    HW1 2924   0.765   1.065   3.169
  675SOL    HW2 2925   0.784   1.193   3.069
  676SOL     OW 2926   3.370   6.233   2.776
  676SOL    HW1 2927   3.347   6.162   2.711
  676SOL    HW2 2928   3.384   6.320   2.728
  677SOL     OW 2929   5.697   2.082   0.540
  677SOL    HW1 2930   5.683   1.984   0.526
  677SOL    HW2 2931   5.751   2.097   0.623
  678SOL     OW 2932   1.864   1.211   5.387
  678SOL    HW1 2933   1.906   1.284   5.333
  678SOL    HW2 2934   1.933   1.171   5.448
  679SOL     OW 2935   4.163   1.815   3.903
  679SOL    HW1 2936   4.173   1.776   3.812
  679SOL    HW2 2937   4.229   1.890   3.915
  680SOL     OW 2938   5.337   6.214   5.430
  680SOL    HW1 2939   5.269   6.234   5.360
  680SOL    HW2 2940   5.426   6.251   5.402
  681SOL     OW 2941   5.645   5.240   1.617
  681SOL    HW1 2942   5.695   5.187   1.548
  681SOL    HW2 2943   5.693   5.234   1.704
  682SOL     OW 2944   0.384   1.132   0.794
  682SOL    HW1 2945   0.372   1.050   0.739
  682SOL    HW2 2946   0.436   1.200   0.741
  683SOL     OW 2947   4.387   3.320   0.429
  683SOL    HW1 2948   4.470   3.345   0.478
  683SOL    HW2 2949   4.411   3.273   0.344
  684SOL     OW 2950   0.407   0.805   0.006
  684SOL    HW1 2951   0.371   0.781   0.096
  684SOL    HW2 2952   0.506   0.810   0.009
  685SOL     OW 2953   4.042   1.151   3.110
  685SOL    HW1 2954   4.104   1.223   3.142
  685SOL    HW2 2955   3.997   1.180   3.026
  686SOL     OW 2956   4.874   3.308   3.435
  686SOL    HW1 2957   4.924   3.305   3.348
  686SOL    HW2 2958   4.861   3.403   3.463
  687SOL     OW 2959   0.616   2.209   4.985
  687SOL    HW1 2960   0.623   2.244   5.079
  687SOL    HW2 2961   0.586   2.114   4.987
  688SOL     OW 2962   1.095   1.819   0.408
  688SOL    HW1 2963   1.176   1.873   0.431
  688SOL    HW2 2964   1.013   1.873   0.426
  689SOL     OW 2965   6.698   4.564   6.456
  689SOL    HW1 2966   6.606   4.525   6.442
  689SOL    HW2 2967   6.710   4.643   6.396
  690SOL     OW 2968   0.312   4.039   2.731
  690SOL    HW1 2969   0.315   4.139   2.742
  690SOL    HW2 2970   0.362   3.996   2.806
  691SOL     OW 2971   2.409   6.884   0.442
  691SOL    HW1 2972   2.412   6.974   0.485
  691SOL    HW2 2973   2.455   6.887   0.353
  692SOL     OW 2974   3.663   0.096   3.789
  692SOL    HW1 2975   3.584   0.070   3.733
  692SOL    HW2 2976   3.657   0.050   3.877
  693SOL     OW 2977   5.713   1.024   3.536
  693SOL    HW1 2978   5.623   0.987   3.560
  693SOL    HW2 2979   5.704   1.085   3.457
  694SOL     OW 2980   4.386   6.127   3.479
  694SOL    HW1 2981   4.345   6.200   3.533
  694SOL    HW2 2982   4.403   6.159   3.386
  695SOL     OW 2983   4.273   0.002   3.912
  695SOL    HW1 2984   4.204   6.958   3.886
  695SOL    HW2 2985   4.362   6.995   3.879
  696SOL     OW 2986   4.226   4.945   2.332
  696SOL    HW1 2987   4.153   4.931   2.265
  696SOL    HW2 2988   4.246   4.859   2.379
  697SOL     OW 2989   2.054   3.578   3.873
  697SOL    HW1 2990   1.983   3.649   3.878
  697SOL    HW2 2991   2.028   3.510   3.805
  698SOL     OW 2992   4.996   6.745   0.506
  698SOL    HW1 2993   5.091   6.728   0.535
  698SOL    HW2 2994   4.934   6.706   0.574
  699SOL     OW 2995   1.991   3.402   6.225
  699SOL    HW1 2996   1.912   3.464   6.223
  699SOL    HW2 2997   2.020   3.389   6.320
  700SOL     OW 2998   2.933   0.322   2.340
  700SOL    HW1 2999   2.854   0.263   2.351
  700SOL    HW2 3000   3.016   0.272   2.367
  701SOL     OW 3001   6.660   3.794   5.786
  701SOL    HW1 3002   6.671   3.768   5.690
  701SOL    HW2 3003   6.565   3.823   5.802
  702SOL     OW 3004   1.654   6.419   4.563
  702SOL    HW1 3005   1.589   6.488   4.593
  702SOL    HW2 3006   1.720   6.402   4.636
  703SOL     OW 3007   3.557   3.717   6.219
  703SOL    HW1 3008   3.517   3.663   6.292
  703SOL    HW2 3009   3.629   3.665   6.174
  704SOL     OW 3010   1.843   2.384   0.164
  704SOL    HW1 3011   1.933   2.352   0.133
  704SOL    HW2 3012   1.852   2.424   0.256
  705SOL     OW 3013   5.707   5.439   3.222
  705SOL    HW1 3014   5.768   5.432   3.143
  705SOL    HW2 3015   5.742   5.381   3.296
  706SOL     OW 3016   4.246   2.260   4.553
  706SOL    HW1 3017   4.222   2.240   4.648
  706SOL    HW2 3018   4.307   2.339   4.550
  707SOL     OW 3019   4.475   5.357   2.412
  707SOL    HW1 3020   4.490   5.450   2.446
  707SOL    HW2 3021   4.424   5.361   2.326
  708SOL     OW 3022   4.337   6.847   1.920
  708SOL    HW1 3023   4.415   6.814   1.973
  708SOL    HW2 3024   4.322   6.944   1.941
  709SOL     OW 3025   0.560   6.029   0.878
  709SOL    HW1 3026   0.617   6.019   0.796
  709SOL    HW2 3027   0.532   6.124   0.887
  710SOL     OW 3028   3.829   3.069   1.399
  710SOL    HW1 3029   3.765   3.113   1.463
  710SOL    HW2 3030   3.857   2.980   1.436
  711SOL     OW 3031   6.957   3.539   5.652
  711SOL    HW1 3032   6.990   3.492   5.734
  711SOL    HW2 3033   0.008   3.541   5.584
  712SOL     OW 3034   4.837   2.613   0.881
  712SOL    HW1 3035   4.837   2.712   0.896
  712SOL    HW2 3036   4.914   2.588   0.823
  713SOL     OW 3037   4.324   2.539   5.709
  713SOL    HW1 3038   4.413   2.524   5.665
  713SOL    HW2 3039   4.337   2.594   5.792
  714SOL     OW 3040   0.367   4.560   3.523
  714SOL    HW1 3041   0.396   4.637   3.580
  714SOL    HW2 3042   0.281   4.522   3.558
  715SOL     OW 3043   5.310   5.934   0.107
  715SOL    HW1 3044   5.231   5.873   0.092
  715SOL    HW2 3045   5.277   6.028   0.120
  716SOL     OW 3046   0.654   0.785   1.824
  716SOL    HW1 3047   0.717   0.724   1.777
  716SOL    HW2 3048   0.639   0.753   1.917
  717SOL     OW 3049   6.485   4.339   4.607
  717SOL    HW1 3050   6.399   4.295   4.630
  717SOL    HW2 3051   6.535   4.360   4.691
  718SOL     OW 3052   4.852   2.593   6.029
  718SOL    HW1 3053   4.835   2.658   6.104
  718SOL    HW2 3054   4.878   2.505   6.067
  719SOL     OW 3055   6.600   0.851   2.701
  719SOL    HW1 3056   6.599   0.754   2.673
  719SOL    HW2 3057   6.508   0.889   2.692
  720SOL     OW 3058   2.572   0.537   6.146
  720SOL    HW1 3059   2.524   0.622   6.169
  720SOL    HW2 3060   2.544   0.465   6.210
  721SOL     OW 3061   2.617   1.766   3.192
  721SOL    HW1 3062   2.557   1.805   3.122
  721SOL    HW2 3063   2.576   1.681   3.226
  722SOL     OW 3064   3.297   0.213   5.587
  722SOL    HW1 3065   3.201   0.221   5.613
  722SOL    HW2 3066   3.304   0.209   5.488
  723SOL     OW 3067   1.560   4.524   3.482
  723SOL    HW1 3068   1.587   4.578   3.403
  723SOL    HW2 3069   1.602   4.561   3.565
  724SOL     OW 3070   0.877   3.029   4.535
  724SOL    HW1 3071   0.882   2.948   4.593
  724SOL    HW2 3072   0.798   3.020   4.474
  725SOL     OW 3073   1.988   5.415   1.172
  725SOL    HW1 3074   1.914   5.365   1.218
  725SOL    HW2 3075   2.061   5.351   1.148
  726SOL     OW 3076   3.442   4.999   1.123
  726SOL    HW1 3077   3.468   5.095   1.138
  726SOL    HW2 3078   3.344   4.994   1.103
  727SOL     OW 3079   5.868   5.195   5.610
  727SOL    HW1 3080   5.810   5.192   5.528
  727SOL    HW2 3081   5.964   5.195   5.582
  728SOL     OW 3082   6.454   2.967   4.524
  728SOL    HW1 3083   6.396   2.913   4.463
  728SOL    HW2 3084   6.442   2.936   4.618
  729SOL     OW 3085   0.573   2.028   1.645
  729SOL    HW1 3086   0.609   1.971   1.719
  729SOL    HW2 3087   0.567   2.123   1.676
  730SOL     OW 3088   5.659   0.182   4.790
  730SOL    HW1 3089   5.660   0.279   4.767
  730SOL    HW2 3090   5.564   0.150   4.794
  731SOL     OW 3091   4.971   4.408   6.548
  731SOL    HW1 3092   4.970   4.349   6.628
  731SOL    HW2 3093   4.977   4.503   6.576
  732SOL     OW 3094   6.365   3.363   1.598
  732SOL    HW1 3095   6.375   3.421   1.679
  732SOL    HW2 3096   6.362   3.267   1.626
  733SOL     OW 3097   5.220   6.954   5.251
  733SOL    HW1 3098   5.320   6.949   5.248
  733SOL    HW2 3099   5.184   6.871   5.293
  734SOL     OW 3100   6.520   4.690   2.679
  734SOL    HW1 3101   6.565   4.629   2.613
  734SOL    HW2 3102   6.537   4.785   2.652
  735SOL     OW 3103   4.705   1.488   6.994
  735SOL    HW1 3104   4.714   1.437   0.057
  735SOL    HW2 3105   4.610   1.516   6.981
  736SOL     OW 3106   6.569   1.549   3.941
  736SOL    HW1 3107   6.531   1.481   4.004
  736SOL    HW2 3108   6.660   1.521   3.912
  737SOL     OW 3109   5.134   1.650   4.670
  737SOL    HW1 3110   5.180   1.728   4.712
  737SOL    HW2 3111   5.053   1.626   4.725
  738SOL     OW 3112   2.117   3.848   1.282
  738SOL    HW1 3113   2.165   3.795   1.212
  738SOL    HW2 3114   2.073   3.785   1.346
  739SOL     OW 3115   5.149   0.746   3.600
  739SOL    HW1 3116   5.206   0.694   3.537
  739SOL    HW2 3117   5.053   0.719   3.589
  740SOL     OW 3118   6.289   0.984   1.623
  740SOL    HW1 3119   6.246   0.942   1.544
  740SOL    HW2 3120   6.387   0.961   1.624
  741SOL     OW 3121   1.789   0.335   3.445
  741SOL    HW1 3122   1.727   0.396   3.396
  741SOL    HW2 3123   1.872   0.320   3.391
  742SOL     OW 3124   2.833   6.505   1.848
  742SOL    HW1 3125   2.931   6.503   1.865
  742SOL    HW2 3126   2.803   6.600   1.838
  743SOL     OW 3127   0.432   5.069   3.463
  743SOL    HW1 3128   0.338   5.034   3.465
  743SOL    HW2 3129   0.492   4.998   3.425
  744SOL     OW 3130   5.344   0.640   0.794
  744SOL    HW1 3131   5.263   0.583   0.808
  744SOL    HW2 3132   5.378   0.629   0.701
  745SOL     OW 3133   1.738   5.265   4.586
  745SOL    HW1 3134   1.700   5.209   4.659
  745SOL    HW2 3135   1.666   5.290   4.522
  746SOL     OW 3136   6.672   3.893   6.964
  746SOL    HW1 3137   6.588   3.844   6.941
  746SOL    HW2 3138   6.704   3.944   6.885
  747SOL     OW 3139   3.487   6.745   4.403
  747SOL    HW1 3140   3.493   6.819   4.336
  747SOL    HW2 3141   3.403   6.693   4.387
  748SOL     OW 3142   4.108   4.792   2.029
  748SOL    HW1 3143   4.139   4.876   1.985
  748SOL    HW2 3144   4.160   4.715   1.992
  749SOL     OW 3145   6.050   3.699   4.964
  749SOL    HW1 3146   6.010   3.730   5.050
  749SOL    HW2 3147   6.146   3.728   4.959
  750SOL     OW 3148   2.563   2.146   1.635
  750SOL    HW1 3149   2.654   2.123   1.600
  750SOL    HW2 3150   2.570   2.173   1.731
  751SOL     OW 3151   3.805   2.078   0.004
  751SOL    HW1 3152   3.812   2.094   6.928
  751SOL    HW2 3153   3.896   2.087   0.045
  752SOL     OW 3154   3.384   1.344   2.056
  752SOL    HW1 3155   3.417   1.316   1.965
  752SOL    HW2 3156   3.350   1.438   2.051
  753SOL     OW 3157   1.627   3.650   5.435
  753SOL    HW1 3158   1.562   3.623   5.363
  753SOL    HW2 3159   1.705   3.588   5.435
  754SOL     OW 3160   4.825   2.354   5.212
  754SOL    HW1 3161   4.793   2.343   5.118
  754SOL    HW2 3162   4.766   2.419   5.260
  755SOL     OW 3163   1.320   4.570   5.228
  755SOL    HW1 3164   1.369   4.525   5.302
  755SOL    HW2 3165   1.322   4.512   5.147
  756SOL     OW 3166   2.955   6.636   6.703
  756SOL    HW1 3167   2.960   6.634   6.603
  756SOL    HW2 3168   3.048   6.633   6.741
  757SOL     OW 3169   0.224   0.278   4.339
  757SOL    HW1 3170   0.271   0.229   4.266
  757SOL    HW2 3171   0.262   0.371   4.347
  758SOL     OW 3172   3.261   0.085   3.040
  758SOL    HW1 3173   3.238   0.115   2.947
  758SOL    HW2 3174   3.195   0.122   3.105
  759SOL     OW 3175   0.361   1.849   2.335
  759SOL    HW1 3176   0.439   1.800   2.295
  759SOL    HW2 3177   0.276   1.807   2.303
  760SOL     OW 3178   6.221   0.074   4.406
  760SOL    HW1 3179   6.309   0.035   4.433
  760SOL    HW2 3180   6.151   0.002   4.406
  761SOL     OW 3181   5.264   3.973   5.970
  761SOL    HW1 3182   5.210   4.011   5.894
  761SOL    HW2 3183   5.358   3.958   5.940
  762SOL     OW 3184   2.088   6.761   4.865
  762SOL    HW1 3185   2.103   6.711   4.779
  762SOL    HW2 3186   2.150   6.839   4.868
  763SOL     OW 3187   4.255   5.115   6.038
  763SOL    HW1 3188   4.293   5.202   6.069
  763SOL    HW2 3189   4.170   5.096   6.087
  764SOL     OW 3190   5.731   1.002   5.319
  764SOL    HW1 3191   5.657   1.042   5.372
  764SOL    HW2 3192   5.776   0.931   5.372
  765SOL     OW 3193   1.666   5.227   1.668
  765SOL    HW1 3194   1.678   5.263   1.576
  765SOL    HW2 3195   1.755   5.225   1.714
  766SOL     OW 3196   2.565   2.380   6.023
  766SOL    HW1 3197   2.496   2.325   5.975
  766SOL    HW2 3198   2.624   2.321   6.077
  767SOL     OW 3199   6.512   6.213   2.282
  767SOL    HW1 3200   6.432   6.165   2.318
  767SOL    HW2 3201   6.492   6.310   2.274
  768SOL     OW 3202   2.695   6.241   2.389
  768SOL    HW1 3203   2.647   6.324   2.415
  768SOL    HW2 3204   2.658   6.206   2.303
  769SOL     OW 3205   2.171   0.592   5.372
  769SOL    HW1 3206   2.165   0.664   5.303
  769SOL    HW2 3207   2.267   0.566   5.384
  770SOL     OW 3208   1.663   4.311   3.167
  770SOL    HW1 3209   1.602   4.247   3.214
  770SOL    HW2 3210   1.610   4.388   3.131
  771SOL     OW 3211   1.147   4.930   2.920
  771SOL    HW1 3212   1.092   4.924   2.836
  771SOL    HW2 3213   1.180   5.023   2.931
  772SOL     OW 3214   5.363   5.144   6.760
  772SOL    HW1 3215   5.457   5.177   6.752
  772SOL    HW2 3216   5.363   5.049   6.792
  773SOL     OW 3217   0.403   4.372   4.119
  773SOL    HW1 3218   0.489   4.321   4.116
  773SOL    HW2 3219   0.326   4.308   4.116
  774SOL     OW 3220   1.937   1.554   2.022
  774SOL    HW1 3221   1.903   1.460   2.016
  774SOL    HW2 3222   1.977   1.569   2.112
  775SOL     OW 3223   1.538   2.749   3.803
  775SOL    HW1 3224   1.631   2.786   3.802
  775SOL    HW2 3225   1.522   2.697   3.719
  776SOL     OW 3226   1.353   0.120   5.826
  776SOL    HW1 3227   1.363   0.115   5.727
  776SOL    HW2 3228   1.298   0.200   5.850
  777SOL     OW 3229   1.976   4.308   1.919
  777SOL    HW1 3230   1.960   4.359   1.835
  777SOL    HW2 3231   2.035   4.229   1.900
  778SOL     OW 3232   2.490   1.193   2.042
  778SOL    HW1 3233   2.553   1.137   1.988
  778SOL    HW2 3234   2.540   1.236   2.117
  779SOL     OW 3235   6.166   2.548   2.270
  779SOL    HW1 3236   6.209   2.482   2.208
  779SOL    HW2 3237   6.146   2.632   2.221
  780SOL     OW 3238   0.571   3.563   4.049
  780SOL    HW1 3239   0.665   3.545   4.081
  780SOL    HW2 3240   0.548   3.497   3.978
  781SOL     OW 3241   6.332   0.014   0.238
  781SOL    HW1 3242   6.254   0.034   0.298
  781SOL    HW2 3243   6.331   6.939   0.215
  782SOL     OW 3244   1.339   3.999   6.569
  782SOL    HW1 3245   1.434   3.991   6.599
  782SOL    HW2 3246   1.334   3.982   6.470
  783SOL     OW 3247   4.987   4.940   2.208
  783SOL    HW1 3248   4.956   4.917   2.116
  783SOL    HW2 3249   5.050   4.869   2.241
  784SOL     OW 3250   4.540   4.759   0.751
  784SOL    HW1 3251   4.547   4.704   0.834
  784SOL    HW2 3252   4.551   4.700   0.671
  785SOL     OW 3253   0.244   2.326   3.633
  785SOL    HW1 3254   0.211   2.349   3.542
  785SOL    HW2 3255   0.333   2.282   3.627
  786SOL     OW 3256   0.886   0.518   2.913
  786SOL    HW1 3257   0.863   0.588   2.980
  786SOL    HW2 3258   0.911   0.561   2.827
  787SOL     OW 3259   1.647   0.212   6.834
  787SOL    HW1 3260   1.634   0.114   6.819
  787SOL    HW2 3261   1.573   0.248   6.891
  788SOL     OW 3262   3.811   1.442   0.296
  788SOL    HW1 3263   3.819   1.484   0.206
  788SOL    HW2 3264   3.746   1.366   0.292
  789SOL     OW 3265   4.533   4.217   1.180
  789SOL    HW1 3266   4.625   4.255   1.173
  789SOL    HW2 3267   4.483   4.235   1.095
  790SOL     OW 3268   2.109   1.224   3.053
  790SOL    HW1 3269   2.028   1.282   3.048
  790SOL    HW2 3270   2.089   1.142   3.108
  791SOL     OW 3271   1.431   5.789   4.381
  791SOL    HW1 3272   1.394   5.720   4.319
  791SOL    HW2 3273   1.488   5.853   4.330
  792SOL     OW 3274   0.616   0.942   1.251
  792SOL    HW1 3275   0.710   0.926   1.223
  792SOL    HW2 3276   0.571   0.855   1.271
  793SOL     OW 3277   4.986   4.793   3.866
  793SOL    HW1 3278   5.022   4.723   3.927
  793SOL    HW2 3279   4.892   4.815   3.892
  794SOL     OW 3280   3.078   3.835   6.000
  794SOL    HW1 3281   3.061   3.864   5.906
  794SOL    HW2 3282   3.048   3.741   6.012
  795SOL     OW 3283   3.328   6.665   4.765
  795SOL    HW1 3284   3.418   6.669   4.723
  795SOL    HW2 3285   3.338   6.639   4.862
  796SOL     OW 3286   6.878   2.365   6.271
  796SOL    HW1 3287   6.917   2.362   6.363
  796SOL    HW2 3288   6.865   2.460   6.243
  797SOL     OW 3289   5.861   2.623   1.201
  797SOL    HW1 3290   5.955   2.643   1.230
  797SOL    HW2 3291   5.863   2.558   1.125
  798SOL     OW 3292   3.082   6.267   2.068
  798SOL    HW1 3293   3.161   6.302   2.017
  798SOL    HW2 3294   3.005   6.256   2.005
  799SOL     OW 3295   0.223   0.053   6.202
  799SOL    HW1 3296   0.278   0.055   6.118
  799SOL    HW2 3297   0.145   7.014   6.189
  800SOL     OW 3298   5.376   1.475   2.818
  800SOL    HW1 3299   5.372   1.381   2.850
  800SOL    HW2 3300   5.443   1.526   2.872
  801SOL     OW 3301   2.091   4.513   4.692
  801SOL    HW1 3302   2.146   4.557   4.620
  801SOL    HW2 3303   2.050   4.430   4.656
  802SOL     OW 3304   2.805   1.974   1.136
  802SOL    HW1 3305   2.793   2.049   1.201
  802SOL    HW2 3306   2.731   1.974   1.069
  803SOL     OW 3307   0.950   0.222   5.783
  803SOL    HW1 3308   0.858   0.225   5.745
  803SOL    HW2 3309   0.955   0.280   5.864
  804SOL     OW 3310   5.784   6.346   0.058
  804SOL    HW1 3311   5.813   6.289   7.004
  804SOL    HW2 3312   5.811   6.302   0.144
  805SOL     OW 3313   3.073   0.937   3.457
  805SOL    HW1 3314   3.041   1.008   3.395
  805SOL    HW2 3315   3.102   0.857   3.405
  806SOL     OW 3316   4.906   1.541   3.963
  806SOL    HW1 3317   4.859   1.535   3.875
  806SOL    HW2 3318   4.845   1.508   4.036
  807SOL     OW 3319   1.359   0.792   5.320
  807SOL    HW1 3320   1.320   0.836   5.239
  807SOL    HW2 3321   1.356   0.856   5.397
  808SOL     OW 3322   4.092   3.830   6.376
  808SOL    HW1 3323   4.143   3.903   6.329
  808SOL    HW2 3324   4.141   3.743   6.365
  809SOL     OW 3325   0.985   4.591   1.482
  809SOL    HW1 3326   0.982   4.633   1.391
  809SOL    HW2 3327   0.891   4.575   1.514
  810SOL     OW 3328   3.241   3.883   1.276
  810SOL    HW1 3329   3.281   3.868   1.366
  810SOL    HW2 3330   3.218   3.795   1.235
  811SOL     OW 3331   5.206   5.809   5.522
  811SOL    HW1 3332   5.212   5.798   5.621
  811SOL    HW2 3333   5.154   5.892   5.501
  812SOL     OW 3334   0.364   0.777   2.604
  812SOL    HW1 3335   0.421   0.711   2.555
  812SOL    HW2 3336   0.268   0.763   2.580
  813SOL     OW 3337   4.212   0.123   4.173
  813SOL    HW1 3338   4.235   0.053   4.240
  813SOL    HW2 3339   4.204   0.082   4.082
  814SOL     OW 3340   5.638   6.342   2.614
  814SOL    HW1 3341   5.622   6.423   2.558
  814SOL    HW2 3342   5.568   6.335   2.685
  815SOL     OW 3343   0.317   3.460   3.559
  815SOL    HW1 3344   0.222   3.432   3.566
  815SOL    HW2 3345   0.322   3.557   3.535
  816SOL     OW 3346   6.301   6.020   0.610
  816SOL    HW1 3347   6.374   6.086   0.592
  816SOL    HW2 3348   6.267   5.983   0.524
  817SOL     OW 3349   1.781   5.084   1.322
  817SOL    HW1 3350   1.797   5.150   1.394
  817SOL    HW2 3351   1.698   5.109   1.271
  818SOL     OW 3352   5.954   2.462   2.859
  818SOL    HW1 3353   5.872   2.479   2.804
  818SOL    HW2 3354   5.926   2.432   2.951
  819SOL     OW 3355   6.018   2.692   2.495
  819SOL    HW1 3356   5.920   2.674   2.504
  819SOL    HW2 3357   6.060   2.617   2.443
  820SOL     OW 3358   3.911   2.133   4.947
  820SOL    HW1 3359   3.862   2.177   5.023
  820SOL    HW2 3360   3.869   2.044   4.929
  821SOL     OW 3361   0.151   3.803   1.022
  821SOL    HW1 3362   0.174   3.900   1.015
  821SOL    HW2 3363   0.130   3.767   0.931
  822SOL     OW 3364   0.679   3.769   3.717
  822SOL    HW1 3365   0.714   3.676   3.710
  822SOL    HW2 3366   0.658   3.790   3.812
  823SOL     OW 3367   5.421   3.947   6.442
  823SOL    HW1 3368   5.423   3.860   6.393
  823SOL    HW2 3369   5.328   3.984   6.441
  824SOL     OW 3370   4.751   1.642   6.249
  824SOL    HW1 3371   4.682   1.714   6.243
  824SOL    HW2 3372   4.837   1.675   6.210
  825SOL     OW 3373   6.722   5.128   1.536
  825SOL    HW1 3374   6.730   5.071   1.618
  825SOL    HW2 3375   6.807   5.180   1.524
  826SOL     OW 3376   3.974   2.376   6.052
  826SOL    HW1 3377   3.969   2.434   6.134
  826SOL    HW2 3378   4.059   2.325   6.053
  827SOL     OW 3379   2.769   4.328   5.509
  827SOL    HW1 3380   2.824   4.266   5.454
  827SOL    HW2 3381   2.819   4.414   5.524
  828SOL     OW 3382   5.162   6.148   0.088
  828SOL    HW1 3383   5.125   6.199   0.165
  828SOL    HW2 3384   5.121   6.180   0.003
  829SOL     OW 3385   3.832   3.525   2.519
  829SOL    HW1 3386   3.928   3.535   2.493
  829SOL    HW2 3387   3.795   3.614   2.545
  830SOL     OW 3388   5.416   4.866   6.739
  830SOL    HW1 3389   5.414   4.835   6.643
  830SOL    HW2 3390   5.511   4.864   6.771
  831SOL     OW 3391   6.462   0.549   0.241
  831SOL    HW1 3392   6.518   0.586   0.316
  831SOL    HW2 3393   6.502   0.463   0.209
  832SOL     OW 3394   4.485   1.087   2.805
  832SOL    HW1 3395   4.419   1.064   2.733
  832SOL    HW2 3396   4.451   1.166   2.857
  833SOL     OW 3397   0.841   3.831   6.718
  833SOL    HW1 3398   0.865   3.890   6.641
  833SOL    HW2 3399   0.905   3.754   6.722
  834SOL     OW 3400   3.915   3.959   1.276
  834SOL    HW1 3401   3.843   3.982   1.341
  834SOL    HW2 3402   3.882   3.886   1.215
  835SOL     OW 3403   3.524   0.182   5.856
  835SOL    HW1 3404   3.586   0.257   5.880
  835SOL    HW2 3405   3.561   0.096   5.890
  836SOL     OW 3406   3.880   6.404   5.376
  836SOL    HW1 3407   3.819   6.450   5.440
  836SOL    HW2 3408   3.925   6.327   5.421
  837SOL     OW 3409   5.412   0.163   1.229
  837SOL    HW1 3410   5.343   0.232   1.205
  837SOL    HW2 3411   5.400   0.082   1.172
  838SOL     OW 3412   2.150   0.993   4.299
  838SOL    HW1 3413   2.204   0.981   4.216
  838SOL    HW2 3414   2.141   1.091   4.319
  839SOL     OW 3415   1.222   1.775   2.288
  839SOL    HW1 3416   1.181   1.856   2.330
  839SOL    HW2 3417   1.151   1.706   2.273
  840SOL     OW 3418   6.851   5.591   0.128
  840SOL    HW1 3419   6.831   5.685   0.101
  840SOL    HW2 3420   6.949   5.582   0.148
  841SOL     OW 3421   3.280   5.037   6.438
  841SOL    HW1 3422   3.353   5.102   6.457
  841SOL    HW2 3423   3.270   5.026   6.339
  842SOL     OW 3424   3.748   0.293   4.741
  842SOL    HW1 3425   3.744   0.345   4.656
  842SOL    HW2 3426   3.683   0.217   4.736
  843SOL     OW 3427   1.110   1.005   1.260
  843SOL    HW1 3428   1.036   0.948   1.294
  843SOL    HW2 3429   1.189   0.997   1.322
  844SOL     OW 3430   5.809   0.435   0.738
  844SOL    HW1 3431   5.813   0.519   0.793
  844SOL    HW2 3432   5.722   0.389   0.755
  845SOL     OW 3433   4.765   4.199   4.451
  845SOL    HW1 3434   4.788   4.103   4.467
  845SOL    HW2 3435   4.794   4.254   4.529
  846SOL     OW 3436   2.175   1.541   5.958
  846SOL    HW1 3437   2.221   1.621   5.919
  846SOL    HW2 3438   2.230   1.459   5.942
  847SOL     OW 3439   1.177   2.827   1.165
  847SOL    HW1 3440   1.102   2.768   1.133
  847SOL    HW2 3441   1.203   2.801   1.258
  848SOL     OW 3442   6.623   0.242   5.530
  848SOL    HW1 3443   6.694   0.183   5.570
  848SOL    HW2 3444   6.629   0.238   5.431
  849SOL     OW 3445   6.469   4.090   5.470
  849SOL    HW1 3446   6.467   4.144   5.555
  849SOL    HW2 3447   6.548   4.118   5.416
  850SOL     OW 3448   4.936   1.239   3.515
  850SOL    HW1 3449   4.929   1.206   3.609
  850SOL    HW2 3450   5.024   1.213   3.476
  851SOL     OW 3451   6.632   2.591   2.349
  851SOL    HW1 3452   6.639   2.618   2.445
  851SOL    HW2 3453   6.688   2.510   2.333
  852SOL     OW 3454   1.205   3.558   0.280
  852SOL    HW1 3455   1.155   3.570   0.366
  852SOL    HW2 3456   1.164   3.485   0.226
  853SOL     OW 3457   1.048   4.372   0.912
  853SOL    HW1 3458   0.988   4.385   0.991
  853SOL    HW2 3459   1.134   4.331   0.942
  854SOL     OW 3460   5.686   4.846   0.723
  854SOL    HW1 3461   5.690   4.910   0.647
  854SOL    HW2 3462   5.647   4.890   0.804
  855SOL     OW 3463   6.596   0.037   1.794
  855SOL    HW1 3464   6.584   0.102   1.869
  855SOL    HW2 3465   6.566   6.969   1.823
  856SOL     OW 3466   1.295   2.421   5.902
  856SOL    HW1 3467   1.215   2.435   5.959
  856SOL    HW2 3468   1.266   2.398   5.809
  857SOL     OW 3469   6.321   4.683   2.025
  857SOL    HW1 3470   6.233   4.637   2.014
  857SOL    HW2 3471   6.354   4.669   2.119
  858SOL     OW 3472   2.770   3.409   1.148
  858SOL    HW1 3473   2.760   3.470   1.227
  858SOL    HW2 3474   2.679   3.388   1.111
  859SOL     OW 3475   5.571   6.634   5.041
  859SOL    HW1 3476   5.590   6.732   5.035
  859SOL    HW2 3477   5.598   6.589   4.957
  860SOL     OW 3478   5.778   2.867   0.591
  860SOL    HW1 3479   5.835   2.948   0.583
  860SOL    HW2 3480   5.808   2.813   0.670
  861SOL     OW 3481   2.691   5.920   3.723
  861SOL    HW1 3482   2.685   5.944   3.820
  861SOL    HW2 3483   2.787   5.903   3.699
  862SOL     OW 3484   1.455   3.825   4.480
  862SOL    HW1 3485   1.486   3.905   4.531
  862SOL    HW2 3486   1.523   3.801   4.411
  863SOL     OW 3487   5.967   1.745   0.768
  863SOL    HW1 3488   6.049   1.792   0.734
  863SOL    HW2 3489   5.954   1.661   0.716
  864SOL     OW 3490   4.311   5.713   4.161
  864SOL    HW1 3491   4.367   5.632   4.145
  864SOL    HW2 3492   4.214   5.687   4.158
  865SOL     OW 3493   1.613   6.176   5.812
  865SOL    HW1 3494   1.576   6.091   5.850
  865SOL    HW2 3495   1.556   6.253   5.839
  866SOL     OW 3496   2.229   1.788   2.289
  866SOL    HW1 3497   2.211   1.885   2.274
  866SOL    HW2 3498   2.279   1.751   2.210
  867SOL     OW 3499   4.846   3.608   0.367
  867SOL    HW1 3500   4.943   3.632   0.362
  867SOL    HW2 3501   4.826   3.569   0.457
  868SOL     OW 3502   5.794   1.324   0.434
  868SOL    HW1 3503   5.734   1.366   0.501
  868SOL    HW2 3504   5.739   1.288   0.358
  869SOL     OW 3505   0.595   4.190   2.809
  869SOL    HW1 3506   0.649   4.201   2.892
  869SOL    HW2 3507   0.526   4.263   2.803
  870SOL     OW 3508   3.846   3.121   0.291
  870SOL    HW1 3509   3.812   3.156   0.203
  870SOL    HW2 3510   3.773   3.072   0.338
  871SOL     OW 3511   4.684   2.225   2.700
  871SOL    HW1 3512   4.675   2.156   2.629
  871SOL    HW2 3513   4.773   2.216   2.745
  872SOL     OW 3514   5.230   3.538   4.050
  872SOL    HW1 3515   5.133   3.513   4.048
  872SOL    HW2 3516   5.284   3.458   4.023
  873SOL     OW 3517   5.853   6.722   4.533
  873SOL    HW1 3518   5.779   6.726   4.465
  873SOL    HW2 3519   5.822   6.764   4.618
  874SOL     OW 3520   0.845   4.120   5.865
  874SOL    HW1 3521   0.835   4.190   5.794
  874SOL    HW2 3522   0.757   4.103   5.908
  875SOL     OW 3523   4.749   3.742   0.867
  875SOL    HW1 3524   4.678   3.811   0.883
  875SOL    HW2 3525   4.822   3.780   0.811
  876SOL     OW 3526   0.798   4.266   2.189
  876SOL    HW1 3527   0.839   4.274   2.098
  876SOL    HW2 3528   0.726   4.197   2.187
  877SOL     OW 3529   3.529   4.393   5.858
  877SOL    HW1 3530   3.608   4.332   5.858
  877SOL    HW2 3531   3.508   4.420   5.952
  878SOL     OW 3532   3.475   5.964   5.171
  878SOL    HW1 3533   3.489   5.871   5.204
  878SOL    HW2 3534   3.459   6.026   5.248
  879SOL     OW 3535   3.506   1.782   0.645
  879SOL    HW1 3536   3.559   1.715   0.592
  879SOL    HW2 3537   3.514   1.872   0.603
  880SOL     OW 3538   3.082   3.439   4.212
  880SOL    HW1 3539   3.039   3.395   4.291
  880SOL    HW2 3540   3.174   3.469   4.237
  881SOL     OW 3541   5.210   3.874   5.432
  881SOL    HW1 3542   5.233   3.790   5.480
  881SOL    HW2 3543   5.110   3.884   5.428
  882SOL     OW 3544   0.759   2.494   4.739
  882SOL    HW1 3545   0.706   2.464   4.660
  882SOL    HW2 3546   0.697   2.521   4.813
  883SOL     OW 3547   3.656   0.289   0.423
  883SOL    HW1 3548   3.643   0.258   0.517
  883SOL    HW2 3549   3.676   0.211   0.364
  884SOL     OW 3550   0.054   4.141   0.177
  884SOL    HW1 3551   0.061   4.042   0.190
  884SOL    HW2 3552   0.078   4.187   0.262
  885SOL     OW 3553   4.679   6.580   5.765
  885SOL    HW1 3554   4.620   6.625   5.698
  885SOL    HW2 3555   4.749   6.644   5.797
  886SOL     OW 3556   3.838   1.062   1.094
  886SOL    HW1 3557   3.910   1.130   1.111
  886SOL    HW2 3558   3.806   1.069   1.000
  887SOL     OW 3559   4.139   5.529   3.695
  887SOL    HW1 3560   4.217   5.588   3.676
  887SOL    HW2 3561   4.063   5.553   3.635
  888SOL     OW 3562   6.704   6.980   2.787
  888SOL    HW1 3563   6.723   6.884   2.764
  888SOL    HW2 3564   6.606   6.992   2.803
  889SOL     OW 3565   0.447   0.815   6.011
  889SOL    HW1 3566   0.502   0.793   5.930
  889SOL    HW2 3567   0.368   0.753   6.015
  890SOL     OW 3568   2.242   4.871   1.989
  890SOL    HW1 3569   2.143   4.865   2.003
  890SOL    HW2 3570   2.274   4.790   1.940
  891SOL     OW 3571   6.813   3.753   0.636
  891SOL    HW1 3572   6.732   3.812   0.629
  891SOL    HW2 3573   6.787   3.659   0.616
  892SOL     OW 3574   3.698   3.915   5.368
  892SOL    HW1 3575   3.796   3.896   5.363
  892SOL    HW2 3576   3.678   3.964   5.453
  893SOL     OW 3577   1.548   0.320   2.767
  893SOL    HW1 3578   1.546   0.280   2.676
  893SOL    HW2 3579   1.534   0.419   2.761
  894SOL     OW 3580   0.976   2.647   3.118
  894SOL    HW1 3581   1.034   2.635   3.199
  894SOL    HW2 3582   0.881   2.654   3.147
  895SOL     OW 3583   1.748   5.291   3.568
  895SOL    HW1 3584   1.740   5.366   3.633
  895SOL    HW2 3585   1.792   5.324   3.484
  896SOL     OW 3586   6.407   5.809   1.908
  896SOL    HW1 3587   6.417   5.827   1.810
  896SOL    HW2 3588   6.496   5.820   1.953
  897SOL     OW 3589   4.454   0.421   6.843
  897SOL    HW1 3590   4.377   0.366   6.812
  897SOL    HW2 3591   4.421   0.499   6.895
  898SOL     OW 3592   3.521   5.930   2.078
  898SOL    HW1 3593   3.496   5.988   2.156
  898SOL    HW2 3594   3.448   5.934   2.009
  899SOL     OW 3595   0.622   5.687   0.252
  899SOL    HW1 3596   0.650   5.643   0.167
  899SOL    HW2 3597   0.522   5.680   0.263
  900SOL     OW 3598   4.856   6.285   6.811
  900SOL    HW1 3599   4.877   6.209   6.749
  900SOL    HW2 3600   4.757   6.293   6.822
  901SOL     OW 3601   1.357   0.757   4.583
  901SOL    HW1 3602   1.430   0.727   4.645
  901SOL    HW2 3603   1.345   0.690   4.510
  902SOL     OW 3604   1.112   2.542   1.231
  902SOL    HW1 3605   1.166   2.510   1.310
  902SOL    HW2 3606   1.174   2.562   1.155
  903SOL     OW 3607   0.174   2.901   6.796
  903SOL    HW1 3608   0.267   2.880   6.826
  903SOL    HW2 3609   0.116   2.821   6.805
  904SOL     OW 3610   2.101   2.836   2.547
  904SOL    HW1 3611   2.103   2.741   2.514
  904SOL    HW2 3612   2.169   2.847   2.619
  905SOL     OW 3613   5.037   4.659   6.070
  905SOL    HW1 3614   5.046   4.649   5.971
  905SOL    HW2 3615   5.029   4.568   6.112
  906SOL     OW 3616   0.733   2.657   6.608
  906SOL    HW1 3617   0.781   2.573   6.636
  906SOL    HW2 3618   0.736   2.723   6.683
  907SOL     OW 3619   5.062   2.315   2.090
  907SOL    HW1 3620   5.047   2.359   2.179
  907SOL    HW2 3621   5.015   2.368   2.019
  908SOL     OW 3622   2.430   5.117   2.849
  908SOL    HW1 3623   2.530   5.125   2.845
  908SOL    HW2 3624   2.395   5.085   2.761
  909SOL     OW 3625   3.571   5.603   2.091
  909SOL    HW1 3626   3.584   5.515   2.136
  909SOL    HW2 3627   3.561   5.675   2.160
  910SOL     OW 3628   2.969   0.856   0.862
  910SOL    HW1 3629   2.981   0.930   0.796
  910SOL    HW2 3630   3.045   0.792   0.855
  911SOL     OW 3631   0.603   5.594   6.709
  911SOL    HW1 3632   0.688   5.612   6.659
  911SOL    HW2 3633   0.530   5.651   6.672
  912SOL     OW 3634   5.243   0.560   3.408
  912SOL    HW1 3635   5.187   0.497   3.461
  912SOL    HW2 3636   5.216   0.554   3.311
  913SOL     OW 3637   2.394   1.010   4.131
  913SOL    HW1 3638   2.485   1.000   4.091
  913SOL    HW2 3639   2.400   1.068   4.213
  914SOL     OW 3640   3.082   5.840   5.565
  914SOL    HW1 3641   3.060   5.747   5.535
  914SOL    HW2 3642   3.010   5.902   5.536
  915SOL     OW 3643   0.817   3.076   0.843
  915SOL    HW1 3644   0.887   3.096   0.912
  915SOL    HW2 3645   0.767   2.994   0.870
  916SOL     OW 3646   2.113   3.222   2.467
  916SOL    HW1 3647   2.083   3.299   2.410
  916SOL    HW2 3648   2.171   3.161   2.413
  917SOL     OW 3649   6.294   1.200   2.603
  917SOL    HW1 3650   6.218   1.136   2.608
  917SOL    HW2 3651   6.371   1.166   2.657
  918SOL     OW 3652   3.338   0.087   0.968
  918SOL    HW1 3653   3.341   0.119   0.873
  918SOL    HW2 3654   3.315   0.163   1.028
  919SOL     OW 3655   6.679   6.411   3.547
  919SOL    HW1 3656   6.599   6.352   3.552
  919SOL    HW2 3657   6.710   6.419   3.453
  920SOL     OW 3658   2.340   4.711   2.380
  920SOL    HW1 3659   2.342   4.642   2.309
  920SOL    HW2 3660   2.399   4.684   2.456
  921SOL     OW 3661   4.208   4.995   3.170
  921SOL    HW1 3662   4.307   4.995   3.189
  921SOL    HW2 3663   4.193   4.975   3.073
  922SOL     OW 3664   3.146   3.696   5.542
  922SOL    HW1 3665   3.206   3.737   5.610
  922SOL    HW2 3666   3.181   3.716   5.450
  923SOL     OW 3667   2.719   4.439   5.947
  923SOL    HW1 3668   2.775   4.508   5.901
  923SOL    HW2 3669   2.695   4.367   5.881
  924SOL     OW 3670   5.699   2.708   2.983
  924SOL    HW1 3671   5.652   2.626   2.951
  924SOL    HW2 3672   5.632   2.781   3.000
  925SOL     OW 3673   0.297   1.577   6.587
  925SOL    HW1 3674   0.391   1.551   6.563
  925SOL    HW2 3675   0.257   1.506   6.645
  926SOL     OW 3676   5.945   1.322   1.176
  926SOL    HW1 3677   6.023   1.332   1.238
  926SOL    HW2 3678   5.905   1.412   1.158
  927SOL     OW 3679   5.710   3.894   3.239
  927SOL    HW1 3680   5.725   3.903   3.141
  927SOL    HW2 3681   5.633   3.952   3.266
  928SOL     OW 3682   1.049   6.293   0.400
  928SOL    HW1 3683   1.021   6.263   0.491
  928SOL    HW2 3684   0.968   6.322   0.348
  929SOL     OW 3685   0.391   0.700   0.824
  929SOL    HW1 3686   0.460   0.679   0.893
  929SOL    HW2 3687   0.389   0.627   0.756
  930SOL     OW 3688   5.464   6.171   4.117
  930SOL    HW1 3689   5.460   6.258   4.167
  930SOL    HW2 3690   5.385   6.166   4.055
  931SOL     OW 3691   5.834   1.866   4.059
  931SOL    HW1 3692   5.803   1.942   4.116
  931SOL    HW2 3693   5.769   1.850   3.986
  932SOL     OW 3694   2.911   6.665   3.920
  932SOL    HW1 3695   2.827   6.645   3.870
  932SOL    HW2 3696   2.925   6.764   3.924
  933SOL     OW 3697   1.999   5.526   3.545
  933SOL    HW1 3698   2.011   5.521   3.644
  933SOL    HW2 3699   1.930   5.595   3.523
  934SOL     OW 3700   1.330   0.040   6.267
  934SOL    HW1 3701   1.268   0.095   6.323
  934SOL    HW2 3702   1.277   7.002   6.207
  935SOL     OW 3703   4.646   4.514   4.480
  935SOL    HW1 3704   4.700   4.446   4.529
  935SOL    HW2 3705   4.552   4.514   4.514
  936SOL     OW 3706   1.013   0.266   6.341
  936SOL    HW1 3707   1.043   0.260   6.436
  936SOL    HW2 3708   0.939   0.333   6.334
  937SOL     OW 3709   5.416   1.460   4.982
  937SOL    HW1 3710   5.465   1.527   4.925
  937SOL    HW2 3711   5.479   1.419   5.048
  938SOL     OW 3712   6.730   5.355   6.084
  938SOL    HW1 3713   6.795   5.285   6.114
  938SOL    HW2 3714   6.718   5.351   5.985
  939SOL     OW 3715   6.885   6.537   5.375
  939SOL    HW1 3716   6.822   6.459   5.369
  939SOL    HW2 3717   6.842   6.610   5.429
  940SOL     OW 3718   0.667   3.463   1.741
  940SOL    HW1 3719   0.700   3.517   1.818
  940SOL    HW2 3720   0.588   3.509   1.700
  941SOL     OW 3721   5.434   1.284   6.293
  941SOL    HW1 3722   5.492   1.216   6.250
  941SOL    HW2 3723   5.490   1.352   6.341
  942SOL     OW 3724   4.774   0.188   2.887
  942SOL    HW1 3725   4.796   0.267   2.943
  942SOL    HW2 3726   4.696   0.139   2.928
  943SOL     OW 3727   2.118   3.511   4.113
  943SOL    HW1 3728   2.110   3.523   4.014
  943SOL    HW2 3729   2.106   3.600   4.158
  944SOL     OW 3730   0.431   4.621   6.015
  944SOL    HW1 3731   0.438   4.545   6.079
  944SOL    HW2 3732   0.459   4.706   6.060
  945SOL     OW 3733   6.540   4.712   5.484
  945SOL    HW1 3734   6.521   4.633   5.541
  945SOL    HW2 3735   6.466   4.779   5.493
  946SOL     OW 3736   4.704   2.917   5.963
  946SOL    HW1 3737   4.605   2.909   5.968
  946SOL    HW2 3738   4.745   2.860   6.035
  947SOL     OW 3739   3.746   2.925   3.344
  947SOL    HW1 3740   3.699   2.932   3.433
  947SOL    HW2 3741   3.843   2.944   3.356
  948SOL     OW 3742   3.791   0.318   2.546
  948SOL    HW1 3743   3.825   0.373   2.470
  948SOL    HW2 3744   3.774   0.224   2.514
  949SOL     OW 3745   0.956   5.841   5.868
  949SOL    HW1 3746   1.041   5.846   5.815
  949SOL    HW2 3747   0.882   5.883   5.816
  950SOL     OW 3748   4.730   5.586   1.991
  950SOL    HW1 3749   4.728   5.489   1.966
  950SOL    HW2 3750   4.818   5.608   2.033
  951SOL     OW 3751   2.242   0.746   3.894
  951SOL    HW1 3752   2.256   0.662   3.841
  951SOL    HW2 3753   2.159   0.739   3.948
  952SOL     OW 3754   4.311   1.660   3.149
  952SOL    HW1 3755   4.396   1.668   3.097
  952SOL    HW2 3756   4.254   1.740   3.132
  953SOL     OW 3757   5.428   4.442   3.859
  953SOL    HW1 3758   5.509   4.501   3.853
  953SOL    HW2 3759   5.457   4.346   3.860
  954SOL     OW 3760   3.822   5.176   1.314
  954SOL    HW1 3761   3.835   5.252   1.377
  954SOL    HW2 3762   3.725   5.168   1.290
  955SOL     OW 3763   0.297   3.678   2.673
  955SOL    HW1 3764   0.357   3.735   2.617
  955SOL    HW2 3765   0.205   3.715   2.673
  956SOL     OW 3766   6.937   1.465   3.106
  956SOL    HW1 3767   6.953   1.433   3.012
  956SOL    HW2 3768   6.946   1.564   3.109
  957SOL     OW 3769   6.214   4.005   5.328
  957SOL    HW1 3770   6.128   4.022   5.376
  957SOL    HW2 3771   6.286   4.061   5.368
  958SOL     OW 3772   4.099   1.765   1.648
  958SOL    HW1 3773   4.035   1.799   1.580
  958SOL    HW2 3774   4.055   1.765   1.738
  959SOL     OW 3775   4.692   5.943   2.744
  959SOL    HW1 3776   4.703   5.876   2.670
  959SOL    HW2 3777   4.662   5.895   2.827
  960SOL     OW 3778   1.225   6.371   1.786
  960SOL    HW1 3779   1.133   6.400   1.812
  960SOL    HW2 3780   1.219   6.286   1.734
  961SOL     OW 3781   4.663   0.138   3.860
  961SOL    HW1 3782   4.692   0.076   3.787
  961SOL    HW2 3783   4.610   0.086   3.928
  962SOL     OW 3784   0.140   1.309   5.327
  962SOL    HW1 3785   0.126   1.341   5.420
  962SOL    HW2 3786   0.237   1.289   5.312
  963SOL     OW 3787   6.285   1.329   6.557
  963SOL    HW1 3788   6.280   1.230   6.570
  963SOL    HW2 3789   6.278   1.375   6.645
  964SOL     OW 3790   5.359   4.190   0.428
  964SOL    HW1 3791   5.354   4.183   0.527
  964SOL    HW2 3792   5.413   4.271   0.403
  965SOL     OW 3793   5.211   2.247   1.600
  965SOL    HW1 3794   5.154   2.167   1.622
  965SOL    HW2 3795   5.163   2.306   1.537
  966SOL     OW 3796   5.614   2.564   2.063
  966SOL    HW1 3797   5.561   2.527   2.139
  966SOL    HW2 3798   5.711   2.566   2.089
  967SOL     OW 3799   2.553   4.210   0.517
  967SOL    HW1 3800   2.502   4.145   0.461
  967SOL    HW2 3801   2.649   4.209   0.490
  968SOL     OW 3802   3.573   0.767   1.654
  968SOL    HW1 3803   3.630   0.686   1.648
  968SOL    HW2 3804   3.479   0.740   1.675
  969SOL     OW 3805   2.982   6.103   6.329
  969SOL    HW1 3806   3.076   6.078   6.352
  969SOL    HW2 3807   2.952   6.051   6.250
  970SOL     OW 3808   5.520   1.074   6.491
  970SOL    HW1 3809   5.508   1.056   6.393
  970SOL    HW2 3810   5.467   1.008   6.544
  971SOL     OW 3811   6.766   2.283   3.081
  971SOL    HW1 3812   6.843   2.226   3.109
  971SOL    HW2 3813   6.787   2.326   2.993
  972SOL     OW 3814   5.475   3.193   2.499
  972SOL    HW1 3815   5.389   3.145   2.480
  972SOL    HW2 3816   5.513   3.159   2.585
  973SOL     OW 3817   0.243   4.803   6.618
  973SOL    HW1 3818   0.284   4.805   6.527
  973SOL    HW2 3819   0.290   4.868   6.678
  974SOL     OW 3820   5.264   6.261   2.190
  974SOL    HW1 3821   5.332   6.215   2.133
  974SOL    HW2 3822   5.292   6.257   2.286
  975SOL     OW 3823   1.572   0.207   6.394
  975SOL    HW1 3824   1.555   0.278   6.463
  975SOL    HW2 3825   1.491   0.198   6.335
  976SOL     OW 3826   6.409   3.380   2.758
  976SOL    HW1 3827   6.491   3.436   2.769
  976SOL    HW2 3828   6.437   3.287   2.734
  977SOL     OW 3829   1.043   0.338   2.297
  977SOL    HW1 3830   1.042   0.438   2.291
  977SOL    HW2 3831   0.976   0.308   2.366
  978SOL     OW 3832   5.042   3.448   5.817
  978SOL    HW1 3833   5.099   3.415   5.742
  978SOL    HW2 3834   4.976   3.377   5.843
  979SOL     OW 3835   0.161   2.394   0.859
  979SOL    HW1 3836   0.161   2.481   0.809
  979SOL    HW2 3837   0.238   2.393   0.923
  980SOL     OW 3838   4.363   2.367   3.849
  980SOL    HW1 3839   4.318   2.439   3.797
  980SOL    HW2 3840   4.390   2.293   3.788
  981SOL     OW 3841   0.163   1.500   4.552
  981SOL    HW1 3842   0.088   1.565   4.567
  981SOL    HW2 3843   0.189   1.458   4.639
  982SOL     OW 3844   1.923   1.882   5.146
  982SOL    HW1 3845   1.834   1.838   5.152
  982SOL    HW2 3846   1.930   1.932   5.060
  983SOL     OW 3847   6.222   3.238   4.335
  983SOL    HW1 3848   6.247   3.274   4.246
  983SOL    HW2 3849   6.140   3.182   4.327
  984SOL     OW 3850   2.879   1.875   4.921
  984SOL    HW1 3851   2.820   1.838   4.849
  984SOL    HW2 3852   2.954   1.812   4.939
  985SOL     OW 3853   5.509   4.005   5.085
  985SOL    HW1 3854   5.605   4.005   5.056
  985SOL    HW2 3855   5.468   3.917   5.063
  986SOL     OW 3856   6.107   4.962   1.102
  986SOL    HW1 3857   6.143   4.956   1.009
  986SOL    HW2 3858   6.015   4.925   1.105
  987SOL     OW 3859   4.431   6.809   2.220
  987SOL    HW1 3860   4.506   6.844   2.276
  987SOL    HW2 3861   4.350   6.866   2.234
  988SOL     OW 3862   3.465   3.322   2.021
  988SOL    HW1 3863   3.426   3.402   2.067
  988SOL    HW2 3864   3.467   3.245   2.085
  989SOL     OW 3865   6.149   1.278   6.221
  989SOL    HW1 3866   6.112   1.294   6.313
  989SOL    HW2 3867   6.235   1.228   6.229
  990SOL     OW 3868   4.651   1.437   2.103
  990SOL    HW1 3869   4.614   1.524   2.137
  990SOL    HW2 3870   4.623   1.364   2.165
  991SOL     OW 3871   0.673   3.622   5.042
  991SOL    HW1 3872   0.699   3.678   4.963
  991SOL    HW2 3873   0.625   3.540   5.010
  992SOL     OW 3874   6.965   2.941   1.988
  992SOL    HW1 3875   6.938   2.947   1.892
  992SOL    HW2 3876   0.042   2.934   1.995
  993SOL     OW 3877   0.673   4.780   1.106
  993SOL    HW1 3878   0.609   4.798   1.031
  993SOL    HW2 3879   0.765   4.768   1.069
  994SOL     OW 3880   4.063   4.710   0.967
  994SOL    HW1 3881   4.007   4.734   1.045
  994SOL    HW2 3882   4.160   4.714   0.993
  995SOL     OW 3883   3.661   2.810   5.180
  995SOL    HW1 3884   3.747   2.851   5.210
  995SOL    HW2 3885   3.640   2.840   5.086
  996SOL     OW 3886   3.355   4.894   4.688
  996SOL    HW1 3887   3.401   4.891   4.777
  996SOL    HW2 3888   3.422   4.906   4.616
  997SOL     OW 3889   1.160   0.015   3.780
  997SOL    HW1 3890   1.239   0.034   3.839
  997SOL    HW2 3891   1.182   6.962   3.719
  998SOL     OW 3892   5.340   0.901   5.158
  998SOL    HW1 3893   5.309   0.808   5.136
  998SOL    HW2 3894   5.345   0.955   5.074
  999SOL     OW 3895   5.003   4.331   2.826
  999SOL    HW1 3896   4.933   4.368   2.764
  999SOL    HW2 3897   5.094   4.359   2.793
 1000SOL     OW 3898   2.451   1.154   1.465
 1000SOL    HW1 3899   2.458   1.253   1.475
 1000SOL    HW2 3900   2.359   1.130   1.435
 1001SOL     OW 3901   4.815   5.631   0.858
 1001SOL    HW1 3902   4.787   5.555   0.916
 1001SOL    HW2 3903   4.736   5.688   0.836
 1002SOL     OW 3904   5.976   1.511   1.463
 1002SOL    HW1 3905   5.884   1.472   1.470
 1002SOL    HW2 3906   6.043   1.448   1.502
 1003SOL     OW 3907   2.044   6.430   2.227
 1003SOL    HW1 3908   1.946   6.424   2.245
 1003SOL    HW2 3909   2.060   6.495   2.152
 1004SOL     OW 3910   0.114   0.137   1.938
 1004SOL    HW1 3911   0.135   0.098   2.027
 1004SOL    HW2 3912   0.196   0.136   1.881
 1005SOL     OW 3913   2.292   2.835   4.242
 1005SOL    HW1 3914   2.286   2.933   4.261
 1005SOL    HW2 3915   2.287   2.820   4.143
 1006SOL     OW 3916   0.849   4.436   1.234
 1006SOL    HW1 3917   0.780   4.371   1.201
 1006SOL    HW2 3918   0.926   4.385   1.272
 1007SOL     OW 3919   4.765   0.375   5.490
 1007SOL    HW1 3920   4.679   0.359   5.441
 1007SOL    HW2 3921   4.813   0.451   5.448
 1008SOL     OW 3922   0.811   3.264   5.931
 1008SOL    HW1 3923   0.857   3.210   5.860
 1008SOL    HW2 3924   0.809   3.360   5.903
 1009SOL     OW 3925   0.584   5.398   4.672
 1009SOL    HW1 3926   0.548   5.323   4.728
 1009SOL    HW2 3927   0.551   5.485   4.709
 1010SOL     OW 3928   3.354   2.104   6.512
 1010SOL    HW1 3929   3.452   2.115   6.498
 1010SOL    HW2 3930   3.335   2.011   6.544
 1011SOL     OW 3931   2.076   4.614   2.464
 1011SOL    HW1 3932   2.163   4.641   2.422
 1011SOL    HW2 3933   2.083   4.520   2.496
 1012SOL     OW 3934   6.605   6.707   2.332
 1012SOL    HW1 3935   6.534   6.768   2.298
 1012SOL    HW2 3936   6.672   6.759   2.384
 1013SOL     OW 3937   1.340   1.051   5.895
 1013SOL    HW1 3938   1.395   1.128   5.927
 1013SOL    HW2 3939   1.400   0.980   5.857
 1014SOL     OW 3940   6.211   5.236   5.879
 1014SOL    HW1 3941   6.239   5.236   5.975
 1014SOL    HW2 3942   6.257   5.312   5.831
 1015SOL     OW 3943   2.443   6.777   5.824
 1015SOL    HW1 3944   2.459   6.693   5.876
 1015SOL    HW2 3945   2.359   6.768   5.771
 1016SOL     OW 3946   4.301   3.346   0.011
 1016SOL    HW1 3947   4.261   3.398   0.087
 1016SOL    HW2 3948   4.238   3.274   7.006
 1017SOL     OW 3949   4.033   3.306   1.385
 1017SOL    HW1 3950   4.045   3.376   1.455
 1017SOL    HW2 3951   3.961   3.242   1.413
 1018SOL     OW 3952   0.508   4.432   4.413
 1018SOL    HW1 3953   0.571   4.373   4.463
 1018SOL    HW2 3954   0.420   4.386   4.402
 1019SOL     OW 3955   6.920   6.682   0.962
 1019SOL    HW1 3956   6.946   6.601   1.014
 1019SOL    HW2 3957   6.924   6.661   0.864
 1020SOL     OW 3958   6.812   1.147   0.901
 1020SOL    HW1 3959   6.874   1.197   0.960
 1020SOL    HW2 3960   6.717   1.168   0.927
 1021SOL     OW 3961   5.797   7.001   1.512
 1021SOL    HW1 3962   5.712   0.027   1.533
 1021SOL    HW2 3963   5.776   6.905   1.494
 1022SOL     OW 3964   3.265   4.244   5.371
 1022SOL    HW1 3965   3.189   4.267   5.310
 1022SOL    HW2 3966   3.347   4.227   5.317
 1023SOL     OW 3967   0.808   0.311   3.182
 1023SOL    HW1 3968   0.773   0.386   3.237
 1023SOL    HW2 3969   0.789   0.329   3.085
 1024SOL     OW 3970   0.654   2.822   4.292
 1024SOL    HW1 3971   0.608   2.782   4.371
 1024SOL    HW2 3972   0.698   2.751   4.239
 1025SOL     OW 3973   3.603   3.849   1.441
 1025SOL    HW1 3974   3.585   3.924   1.503
 1025SOL    HW2 3975   3.551   3.768   1.469
 1026SOL     OW 3976   2.358   2.275   1.089
 1026SOL    HW1 3977   2.303   2.275   1.172
 1026SOL    HW2 3978   2.454   2.294   1.112
 1027SOL     OW 3979   3.281   6.261   1.830
 1027SOL    HW1 3980   3.278   6.355   1.865
 1027SOL    HW2 3981   3.217   6.253   1.753
 1028SOL     OW 3982   2.600   6.285   1.073
 1028SOL    HW1 3983   2.521   6.236   1.111
 1028SOL    HW2 3984   2.568   6.351   1.005
 1029SOL     OW 3985   1.814   0.036   6.531
 1029SOL    HW1 3986   1.732   0.041   6.475
 1029SOL    HW2 3987   1.855   0.127   6.539
 1030SOL     OW 3988   3.138   2.807   1.846
 1030SOL    HW1 3989   3.203   2.767   1.912
 1030SOL    HW2 3990   3.112   2.738   1.779
 1031SOL     OW 3991   4.797   4.243   1.174
 1031SOL    HW1 3992   4.876   4.188   1.203
 1031SOL    HW2 3993   4.823   4.299   1.095
 1032SOL     OW 3994   2.344   1.934   5.511
 1032SOL    HW1 3995   2.407   1.939   5.433
 1032SOL    HW2 3996   2.395   1.951   5.595
 1033SOL     OW 3997   1.402   6.729   2.014
 1033SOL    HW1 3998   1.355   6.643   2.032
 1033SOL    HW2 3999   1.425   6.734   1.917
 1034SOL     OW 4000   0.460   5.036   4.472
 1034SOL    HW1 4001   0.395   4.961   4.489
 1034SOL    HW2 4002   0.548   4.998   4.447
 1035SOL     OW 4003   0.099   1.343   5.034
 1035SOL    HW1 4004   0.096   1.336   5.134
 1035SOL    HW2 4005   0.194   1.340   5.003
 1036SOL     OW 4006   3.415   0.515   1.198
 1036SOL    HW1 4007   3.384   0.574   1.273
 1036SOL    HW2 4008   3.514   0.524   1.188
 1037SOL     OW 4009   1.693   1.390   2.213
 1037SOL    HW1 4010   1.656   1.431   2.130
 1037SOL    HW2 4011   1.618   1.361   2.272
 1038SOL     OW 4012   1.600   1.086   5.403
 1038SOL    HW1 4013   1.590   0.989   5.426
 1038SOL    HW2 4014   1.687   1.120   5.440
 1039SOL     OW 4015   3.539   3.868   4.469
 1039SOL    HW1 4016   3.581   3.958   4.484
 1039SOL    HW2 4017   3.452   3.863   4.517
 1040SOL     OW 4018   4.857   1.043   2.408
 1040SOL    HW1 4019   4.809   0.980   2.469
 1040SOL    HW2 4020   4.801   1.061   2.327
 1041SOL     OW 4021   0.004   6.370   4.181
 1041SOL    HW1 4022   6.992   6.387   4.274
 1041SOL    HW2 4023   0.090   6.420   4.167
 1042SOL     OW 4024   4.049   5.205   2.148
 1042SOL    HW1 4025   4.062   5.250   2.237
 1042SOL    HW2 4026   4.037   5.275   2.077
 1043SOL     OW 4027   3.153   1.938   4.708
 1043SOL    HW1 4028   3.121   2.033   4.713
 1043SOL    HW2 4029   3.177   1.907   4.800
 1044SOL     OW 4030   5.876   5.196   3.006
 1044SOL    HW1 4031   5.843   5.241   2.923
 1044SOL    HW2 4032   5.902   5.265   3.073
 1045SOL     OW 4033   4.233   0.219   2.342
 1045SOL    HW1 4034   4.216   0.127   2.377
 1045SOL    HW2 4035   4.154   0.277   2.362
 1046SOL     OW 4036   1.856   0.471   0.508
 1046SOL    HW1 4037   1.946   0.433   0.488
 1046SOL    HW2 4038   1.866   0.554   0.563
 1047SOL     OW 4039   2.008   0.929   3.697
 1047SOL    HW1 4040   2.048   0.842   3.667
 1047SOL    HW2 4041   1.912   0.915   3.721
 1048SOL     OW 4042   3.882   6.385   3.554
 1048SOL    HW1 4043   3.980   6.405   3.544
 1048SOL    HW2 4044   3.855   6.399   3.649
 1049SOL     OW 4045   6.649   6.322   3.942
 1049SOL    HW1 4046   6.611   6.396   3.998
 1049SOL    HW2 4047   6.745   6.340   3.923
 1050SOL     OW 4048   4.147   4.732   1.342
 1050SOL    HW1 4049   4.139   4.633   1.348
 1050SOL    HW2 4050   4.066   4.769   1.296
 1051SOL     OW 4051   1.409   5.660   0.728
 1051SOL    HW1 4052   1.470   5.652   0.649
 1051SOL    HW2 4053   1.422   5.750   0.770
 1052SOL     OW 4054   3.969   0.615   4.934
 1052SOL    HW1 4055   4.053   0.562   4.932
 1052SOL    HW2 4056   3.957   0.663   4.847
 1053SOL     OW 4057   6.506   5.322   2.885
 1053SOL    HW1 4058   6.446   5.245   2.907
 1053SOL    HW2 4059   6.529   5.320   2.788
 1054SOL     OW 4060   3.300   3.732   6.604
 1054SOL    HW1 4061   3.222   3.706   6.661
 1054SOL    HW2 4062   3.271   3.804   6.540
 1055SOL     OW 4063   3.638   6.076   4.521
 1055SOL    HW1 4064   3.618   5.996   4.465
 1055SOL    HW2 4065   3.685   6.145   4.466
 1056SOL     OW 4066   2.588   4.425   6.425
 1056SOL    HW1 4067   2.517   4.374   6.377
 1056SOL    HW2 4068   2.675   4.413   6.378
 1057SOL     OW 4069   2.806   3.233   1.924
 1057SOL    HW1 4070   2.795   3.186   2.011
 1057SOL    HW2 4071   2.869   3.181   1.866
 1058SOL     OW 4072   4.945   1.806   3.243
 1058SOL    HW1 4073   4.933   1.805   3.144
 1058SOL    HW2 4074   5.042   1.793   3.264
 1059SOL     OW 4075   3.048   0.526   1.922
 1059SOL    HW1 4076   2.997   0.558   1.842
 1059SOL    HW2 4077   3.067   0.603   1.983
 1060SOL     OW 4078   0.134   4.597   4.301
 1060SOL    HW1 4079   0.195   4.521   4.323
 1060SOL    HW2 4080   0.161   4.677   4.355
 1061SOL     OW 4081   6.494   3.051   0.295
 1061SOL    HW1 4082   6.534   2.980   0.353
 1061SOL    HW2 4083   6.566   3.115   0.266
 1062SOL     OW 4084   5.209   4.974   6.001
 1062SOL    HW1 4085   5.275   5.024   5.944
 1062SOL    HW2 4086   5.220   5.002   6.096
 1063SOL     OW 4087   1.416   4.665   1.514
 1063SOL    HW1 4088   1.363   4.715   1.582
 1063SOL    HW2 4089   1.512   4.661   1.542
 1064SOL     OW 4090   1.387   3.878   2.445
 1064SOL    HW1 4091   1.381   3.816   2.524
 1064SOL    HW2 4092   1.303   3.873   2.392
 1065SOL     OW 4093   3.959   0.519   3.542
 1065SOL    HW1 4094   4.001   0.438   3.501
 1065SOL    HW2 4095   3.882   0.549   3.486
 1066SOL     OW 4096   4.788   6.675   3.507
 1066SOL    HW1 4097   4.879   6.679   3.465
 1066SOL    HW2 4098   4.724   6.729   3.452
 1067SOL     OW 4099   0.679   3.340   1.084
 1067SOL    HW1 4100   0.680   3.258   1.027
 1067SOL    HW2 4101   0.746   3.405   1.049
 1068SOL     OW 4102   6.438   5.020   2.925
 1068SOL    HW1 4103   6.487   5.042   2.840
 1068SOL    HW2 4104   6.342   5.001   2.904
 1069SOL     OW 4105   4.293   5.083   0.795
 1069SOL    HW1 4106   4.193   5.081   0.796
 1069SOL    HW2 4107   4.327   5.009   0.737
 1070SOL     OW 4108   0.104   0.819   2.260
 1070SOL    HW1 4109   0.155   0.905   2.250
 1070SOL    HW2 4110   0.144   0.765   2.333
 1071SOL     OW 4111   1.163   0.341   4.196
 1071SOL    HW1 4112   1.080   0.287   4.211
 1071SOL    HW2 4113   1.167   0.371   4.101
 1072SOL     OW 4114   1.639   0.851   0.605
 1072SOL    HW1 4115   1.601   0.939   0.635
 1072SOL    HW2 4116   1.738   0.861   0.590
 1073SOL     OW 4117   4.987   0.095   2.271
 1073SOL    HW1 4118   4.943   0.009   2.246
 1073SOL    HW2 4119   4.980   0.159   2.195
 1074SOL     OW 4120   2.190   5.213   1.128
 1074SOL    HW1 4121   2.281   5.232   1.163
 1074SOL    HW2 4122   2.168   5.116   1.141
 1075SOL     OW 4123   5.077   0.419   3.564
 1075SOL    HW1 4124   5.012   0.344   3.546
 1075SOL    HW2 4125   5.160   0.381   3.605
 1076SOL     OW 4126   0.027   2.017   5.409
 1076SOL    HW1 4127   0.059   2.004   5.503
 1076SOL    HW2 4128   6.964   1.967   5.396
 1077SOL     OW 4129   5.653   0.447   1.204
 1077SOL    HW1 4130   5.725   0.460   1.271
 1077SOL    HW2 4131   5.585   0.520   1.214
 1078SOL     OW 4132   1.238   0.850   2.636
 1078SOL    HW1 4133   1.207   0.945   2.643
 1078SOL    HW2 4134   1.206   0.798   2.715
 1079SOL     OW 4135   1.525   6.514   2.265
 1079SOL    HW1 4136   1.502   6.491   2.170
 1079SOL    HW2 4137   1.495   6.608   2.283
 1080SOL     OW 4138   2.164   4.607   3.057
 1080SOL    HW1 4139   2.068   4.636   3.059
 1080SOL    HW2 4140   2.197   4.609   2.963
 1081SOL     OW 4141   0.331   5.689   5.482
 1081SOL    HW1 4142   0.396   5.614   5.472
 1081SOL    HW2 4143   0.373   5.774   5.451
 1082SOL     OW 4144   4.632   1.943   4.714
 1082SOL    HW1 4145   4.566   2.018   4.721
 1082SOL    HW2 4146   4.609   1.885   4.635
 1083SOL     OW 4147   4.015   4.012   0.710
 1083SOL    HW1 4148   4.014   3.964   0.622
 1083SOL    HW2 4149   3.931   4.065   0.720
 1084SOL     OW 4150   6.083   6.227   6.958
 1084SOL    HW1 4151   6.120   6.316   6.986
 1084SOL    HW2 4152   5.995   6.241   6.913
 1085SOL     OW 4153   1.896   3.258   4.260
 1085SOL    HW1 4154   1.830   3.333   4.264
 1085SOL    HW2 4155   1.924   3.242   4.166
 1086SOL     OW 4156   0.201   5.498   0.506
 1086SOL    HW1 4157   0.289   5.531   0.542
 1086SOL    HW2 4158   0.182   5.542   0.418
 1087SOL     OW 4159   5.922   1.967   4.920
 1087SOL    HW1 4160   5.884   2.014   5.000
 1087SOL    HW2 4161   6.004   1.916   4.946
 1088SOL     OW 4162   0.778   3.913   3.000
 1088SOL    HW1 4163   0.860   3.928   2.945
 1088SOL    HW2 4164   0.797   3.935   3.095
 1089SOL     OW 4165   0.846   6.339   4.181
 1089SOL    HW1 4166   0.858   6.316   4.278
 1089SOL    HW2 4167   0.814   6.258   4.132
 1090SOL     OW 4168   2.769   2.407   3.528
 1090SOL    HW1 4169   2.849   2.350   3.549
 1090SOL    HW2 4170   2.774   2.435   3.432
 1091SOL     OW 4171   3.344   2.103   5.012
 1091SOL    HW1 4172   3.407   2.143   5.079
 1091SOL    HW2 4173   3.273   2.169   4.990
 1092SOL     OW 4174   1.539   3.914   1.333
 1092SOL    HW1 4175   1.559   3.879   1.241
 1092SOL    HW2 4176   1.555   4.013   1.335
 1093SOL     OW 4177   1.891   1.207   2.360
 1093SOL    HW1 4178   1.815   1.263   2.392
 1093SOL    HW2 4179   1.926   1.245   2.274
 1094SOL     OW 4180   6.938   6.869   2.955
 1094SOL    HW1 4181   6.998   6.819   3.017
 1094SOL    HW2 4182   6.914   6.810   2.877
 1095SOL     OW 4183   0.833   2.836   6.400
 1095SOL    HW1 4184   0.797   2.773   6.468
 1095SOL    HW2 4185   0.764   2.852   6.330
 1096SOL     OW 4186   3.572   4.322   1.768
 1096SOL    HW1 4187   3.571   4.422   1.773
 1096SOL    HW2 4188   3.495   4.285   1.820
 1097SOL     OW 4189   2.147   4.513   4.307
 1097SOL    HW1 4190   2.171   4.421   4.338
 1097SOL    HW2 4191   2.159   4.577   4.383
 1098SOL     OW 4192   4.546   3.402   6.954
 1098SOL    HW1 4193   4.560   3.496   6.922
 1098SOL    HW2 4194   4.455   3.394   6.995
 1099SOL     OW 4195   3.898   0.968   5.527
 1099SOL    HW1 4196   3.907   1.038   5.456
 1099SOL    HW2 4197   3.984   0.959   5.576
 1100SOL     OW 4198   3.492   1.778   4.779
 1100SOL    HW1 4199   3.455   1.777   4.686
 1100SOL    HW2 4200   3.524   1.871   4.801
 1101SOL     OW 4201   6.126   2.886   6.556
 1101SOL    HW1 4202   6.032   2.910   6.579
 1101SOL    HW2 4203   6.127   2.823   6.478
 1102SOL     OW 4204   0.429   6.682   4.664
 1102SOL    HW1 4205   0.337   6.655   4.691
 1102SOL    HW2 4206   0.436   6.782   4.664
 1103SOL     OW 4207   4.392   1.682   0.031
 1103SOL    HW1 4208   4.362   1.647   0.120
 1103SOL    HW2 4209   4.334   1.645   6.981
 1104SOL     OW 4210   1.928   3.205   6.007
 1104SOL    HW1 4211   1.841   3.162   6.030
 1104SOL    HW2 4212   1.949   3.277   6.073
 1105SOL     OW 4213   6.364   3.532   5.072
 1105SOL    HW1 4214   6.406   3.600   5.012
 1105SOL    HW2 4215   6.264   3.540   5.067
 1106SOL     OW 4216   0.084   2.511   1.809
 1106SOL    HW1 4217   0.084   2.417   1.843
 1106SOL    HW2 4218   0.126   2.514   1.719
 1107SOL     OW 4219   0.594   0.715   6.673
 1107SOL    HW1 4220   0.506   0.755   6.698
 1107SOL    HW2 4221   0.646   0.780   6.618
 1108SOL     OW 4222   3.691   6.751   5.153
 1108SOL    HW1 4223   3.763   6.682   5.156
 1108SOL    HW2 4224   3.673   6.778   5.058
 1109SOL     OW 4225   4.731   1.424   4.144
 1109SOL    HW1 4226   4.785   1.406   4.227
 1109SOL    HW2 4227   4.639   1.452   4.170
 1110SOL     OW 4228   3.365   1.817   3.282
 1110SOL    HW1 4229   3.375   1.863   3.194
 1110SOL    HW2 4230   3.277   1.769   3.286
 1111SOL     OW 4231   4.769   5.324   6.196
 1111SOL    HW1 4232   4.698   5.348   6.130
 1111SOL    HW2 4233   4.858   5.329   6.151
 1112SOL     OW 4234   4.908   1.626   2.250
 1112SOL    HW1 4235   4.882   1.695   2.183
 1112SOL    HW2 4236   4.978   1.566   2.211
 1113SOL     OW 4237   6.174   4.718   1.704
 1113SOL    HW1 4238   6.229   4.659   1.763
 1113SOL    HW2 4239   6.209   4.714   1.611
 1114SOL     OW 4240   3.550   1.470   5.947
 1114SOL    HW1 4241   3.542   1.569   5.938
 1114SOL    HW2 4242   3.548   1.428   5.856
 1115SOL     OW 4243   4.224   3.065   6.011
 1115SOL    HW1 4244   4.227   3.077   6.110
 1115SOL    HW2 4245   4.131   3.044   5.982
 1116SOL     OW 4246   5.073   0.128   6.172
 1116SOL    HW1 4247   5.152   0.079   6.135
 1116SOL    HW2 4248   5.085   0.226   6.157
 1117SOL     OW 4249   2.388   1.937   2.674
 1117SOL    HW1 4250   2.441   1.857   2.648
 1117SOL    HW2 4251   2.449   2.009   2.707
 1118SOL     OW 4252   2.816   4.216   0.448
 1118SOL    HW1 4253   2.823   4.116   0.445
 1118SOL    HW2 4254   2.905   4.256   0.428
 1119SOL     OW 4255   3.968   4.800   1.671
 1119SOL    HW1 4256   3.894   4.734   1.657
 1119SOL    HW2 4257   4.044   4.755   1.718
 1120SOL     OW 4258   6.175   6.472   6.975
 1120SOL    HW1 4259   6.262   6.486   7.022
 1120SOL    HW2 4260   6.124   6.558   6.974
 1121SOL     OW 4261   5.820   4.668   4.534
 1121SOL    HW1 4262   5.814   4.573   4.566
 1121SOL    HW2 4263   5.822   4.729   4.613
 1122SOL     OW 4264   5.857   2.695   0.405
 1122SOL    HW1 4265   5.788   2.624   0.389
 1122SOL    HW2 4266   5.823   2.760   0.473
 1123SOL     OW 4267   4.894   1.744   2.978
 1123SOL    HW1 4268   4.811   1.705   2.940
 1123SOL    HW2 4269   4.971   1.684   2.960
 1124SOL     OW 4270   0.372   3.202   5.214
 1124SOL    HW1 4271   0.298   3.136   5.228
 1124SOL    HW2 4272   0.417   3.221   5.301
 1125SOL     OW 4273   2.803   2.162   3.823
 1125SOL    HW1 4274   2.788   2.078   3.875
 1125SOL    HW2 4275   2.760   2.239   3.870
 1126SOL     OW 4276   5.443   4.960   0.171
 1126SOL    HW1 4277   5.485   5.044   0.136
 1126SOL    HW2 4278   5.376   4.927   0.104
 1127SOL     OW 4279   5.482   5.507   4.973
 1127SOL    HW1 4280   5.506   5.502   4.876
 1127SOL    HW2 4281   5.410   5.441   4.993
 1128SOL     OW 4282   5.830   1.875   5.271
 1128SOL    HW1 4283   5.842   1.945   5.201
 1128SOL    HW2 4284   5.753   1.815   5.246
 1129SOL     OW 4285   1.669   0.255   0.511
 1129SOL    HW1 4286   1.730   0.333   0.513
 1129SOL    HW2 4287   1.722   0.170   0.505
 1130SOL     OW 4288   3.092   5.165   0.700
 1130SOL    HW1 4289   2.998   5.135   0.718
 1130SOL    HW2 4290   3.151   5.085   0.692
 1131SOL     OW 4291   0.876   5.637   5.415
 1131SOL    HW1 4292   0.948   5.677   5.472
 1131SOL    HW2 4293   0.815   5.582   5.473
 1132SOL     OW 4294   4.959   6.787   2.707
 1132SOL    HW1 4295   5.034   6.743   2.757
 1132SOL    HW2 4296   4.960   6.755   2.612
 1133SOL     OW 4297   1.418   0.819   1.174
 1133SOL    HW1 4298   1.396   0.850   1.266
 1133SOL    HW2 4299   1.369   0.875   1.107
 1134SOL     OW 4300   5.484   0.549   1.778
 1134SOL    HW1 4301   5.502   0.546   1.877
 1134SOL    HW2 4302   5.399   0.598   1.762
 1135SOL     OW 4303   2.690   0.316   2.848
 1135SOL    HW1 4304   2.656   0.275   2.762
 1135SOL    HW2 4305   2.653   0.409   2.857
 1136SOL     OW 4306   4.451   4.683   3.016
 1136SOL    HW1 4307   4.359   4.688   3.056
 1136SOL    HW2 4308   4.443   4.676   2.916
 1137SOL     OW 4309   1.269   0.046   6.599
 1137SOL    HW1 4310   1.359   0.086   6.583
 1137SOL    HW2 4311   1.201   0.119   6.611
 1138SOL     OW 4312   0.207   0.647   5.821
 1138SOL    HW1 4313   0.119   0.692   5.838
 1138SOL    HW2 4314   0.257   0.697   5.750
 1139SOL     OW 4315   3.054   4.933   2.245
 1139SOL    HW1 4316   3.077   4.888   2.331
 1139SOL    HW2 4317   3.136   4.974   2.206
 1140SOL     OW 4318   3.197   1.173   1.527
 1140SOL    HW1 4319   3.283   1.177   1.578
 1140SOL    HW2 4320   3.183   1.081   1.491
 1141SOL     OW 4321   0.378   6.489   6.743
 1141SOL    HW1 4322   0.369   6.406   6.689
 1141SOL    HW2 4323   0.297   6.501   6.800
 1142SOL     OW 4324   3.074   6.742   4.630
 1142SOL    HW1 4325   3.163   6.719   4.670
 1142SOL    HW2 4326   3.054   6.679   4.555
 1143SOL     OW 4327   1.762   3.170   3.436
 1143SOL    HW1 4328   1.708   3.254   3.430
 1143SOL    HW2 4329   1.794   3.158   3.530
 1144SOL     OW 4330   6.223   4.659   4.306
 1144SOL    HW1 4331   6.134   4.704   4.308
 1144SOL    HW2 4332   6.258   4.657   4.212
 1145SOL     OW 4333   6.750   3.499   2.237
 1145SOL    HW1 4334   6.765   3.441   2.157
 1145SOL    HW2 4335   6.743   3.595   2.208
 1146SOL     OW 4336   0.136   0.623   2.478
 1146SOL    HW1 4337   0.169   0.543   2.529
 1146SOL    HW2 4338   0.058   0.662   2.525
 1147SOL     OW 4339   2.851   5.369   1.516
 1147SOL    HW1 4340   2.827   5.452   1.567
 1147SOL    HW2 4341   2.807   5.290   1.558
 1148SOL     OW 4342   4.724   5.928   0.539
 1148SOL    HW1 4343   4.815   5.941   0.577
 1148SOL    HW2 4344   4.680   6.017   0.525
 1149SOL     OW 4345   6.531   3.624   2.902
 1149SOL    HW1 4346   6.481   3.557   2.956
 1149SOL    HW2 4347   6.570   3.694   2.963
 1150SOL     OW 4348   1.877   3.613   0.242
 1150SOL    HW1 4349   1.891   3.515   0.223
 1150SOL    HW2 4350   1.899   3.631   0.338
 1151SOL     OW 4351   4.658   4.544   0.091
 1151SOL    HW1 4352   4.661   4.643   0.078
 1151SOL    HW2 4353   4.712   4.499   0.020
 1152SOL     OW 4354   5.406   4.787   6.469
 1152SOL    HW1 4355   5.471   4.718   6.502
 1152SOL    HW2 4356   5.342   4.744   6.405
 1153SOL     OW 4357   1.043   0.302   1.882
 1153SOL    HW1 4358   1.141   0.285   1.892
 1153SOL    HW2 4359   1.009   0.251   1.802
 1154SOL     OW 4360   6.847   4.648   1.151
 1154SOL    HW1 4361   6.793   4.726   1.181
 1154SOL    HW2 4362   6.913   4.623   1.222
 1155SOL     OW 4363   2.508   5.164   6.275
 1155SOL    HW1 4364   2.455   5.082   6.253
 1155SOL    HW2 4365   2.542   5.205   6.190
 1156SOL     OW 4366   4.141   1.591   4.641
 1156SOL    HW1 4367   4.228   1.578   4.688
 1156SOL    HW2 4368   4.154   1.650   4.562
 1157SOL     OW 4369   5.600   1.994   5.867
 1157SOL    HW1 4370   5.666   2.066   5.844
 1157SOL    HW2 4371   5.630   1.907   5.828
 1158SOL     OW 4372   0.569   5.142   5.454
 1158SOL    HW1 4373   0.525   5.074   5.514
 1158SOL    HW2 4374   0.668   5.129   5.457
 1159SOL     OW 4375   6.461   6.645   3.439
 1159SOL    HW1 4376   6.400   6.705   3.387
 1159SOL    HW2 4377   6.505   6.697   3.512
 1160SOL     OW 4378   5.136   4.700   1.004
 1160SOL    HW1 4379   5.188   4.651   1.074
 1160SOL    HW2 4380   5.199   4.735   0.934
 1161SOL     OW 4381   6.093   0.234   5.864
 1161SOL    HW1 4382   6.068   0.138   5.878
 1161SOL    HW2 4383   6.039   0.292   5.925
 1162SOL     OW 4384   3.427   2.376   6.871
 1162SOL    HW1 4385   3.486   2.330   6.938
 1162SOL    HW2 4386   3.429   2.475   6.888
 1163SOL     OW 4387   6.668   4.007   1.908
 1163SOL    HW1 4388   6.760   4.036   1.934
 1163SOL    HW2 4389   6.666   3.983   1.811
 1164SOL     OW 4390   6.213   3.642   4.725
 1164SOL    HW1 4391   6.115   3.642   4.745
 1164SOL    HW2 4392   6.231   3.585   4.644
 1165SOL     OW 4393   3.613   4.983   3.540
 1165SOL    HW1 4394   3.589   4.956   3.447
 1165SOL    HW2 4395   3.542   5.042   3.577
 1166SOL     OW 4396   3.894   0.073   6.913
 1166SOL    HW1 4397   3.861   0.164   6.889
 1166SOL    HW2 4398   3.827   0.004   6.883
 1167SOL     OW 4399   4.478   6.153   6.906
 1167SOL    HW1 4400   4.537   6.111   6.976
 1167SOL    HW2 4401   4.468   6.090   6.829
 1168SOL     OW 4402   4.883   2.442   3.121
 1168SOL    HW1 4403   4.909   2.473   3.030
 1168SOL    HW2 4404   4.798   2.390   3.116
 1169SOL     OW 4405   4.870   2.378   6.230
 1169SOL    HW1 4406   4.789   2.387   6.287
 1169SOL    HW2 4407   4.875   2.285   6.193
 1170SOL     OW 4408   5.094   0.553   3.175
 1170SOL    HW1 4409   5.177   0.556   3.119
 1170SOL    HW2 4410   5.015   0.537   3.116
 1171SOL     OW 4411   2.435   5.900   6.828
 1171SOL    HW1 4412   2.345   5.904   6.870
 1171SOL    HW2 4413   2.429   5.935   6.734
 1172SOL     OW 4414   3.190   4.242   1.688
 1172SOL    HW1 4415   3.098   4.281   1.694
 1172SOL    HW2 4416   3.258   4.315   1.685
 1173SOL     OW 4417   2.849   0.660   0.051
 1173SOL    HW1 4418   2.930   0.665   0.109
 1173SOL    HW2 4419   2.795   0.742   0.062
 1174SOL     OW 4420   2.879   5.019   1.318
 1174SOL    HW1 4421   2.859   4.970   1.403
 1174SOL    HW2 4422   2.796   5.027   1.264
 1175SOL     OW 4423   4.237   4.231   6.720
 1175SOL    HW1 4424   4.261   4.134   6.709
 1175SOL    HW2 4425   4.317   4.281   6.751
 1176SOL     OW 4426   5.925   3.970   6.650
 1176SOL    HW1 4427   5.852   3.998   6.712
 1176SOL    HW2 4428   5.897   3.986   6.555
 1177SOL     OW 4429   0.388   3.131   4.947
 1177SOL    HW1 4430   0.395   3.160   5.042
 1177SOL    HW2 4431   0.431   3.041   4.936
 1178SOL     OW 4432   3.219   4.413   1.081
 1178SOL    HW1 4433   3.210   4.351   1.004
 1178SOL    HW2 4434   3.316   4.425   1.103
 1179SOL     OW 4435   2.487   5.933   0.716
 1179SOL    HW1 4436   2.421   5.955   0.788
 1179SOL    HW2 4437   2.439   5.891   0.639
 1180SOL     OW 4438   2.831   6.185   4.701
 1180SOL    HW1 4439   2.929   6.166   4.698
 1180SOL    HW2 4440   2.781   6.099   4.711
 1181SOL     OW 4441   6.910   4.172   6.400
 1181SOL    HW1 4442   6.980   4.205   6.337
 1181SOL    HW2 4443   6.852   4.105   6.354
 1182SOL     OW 4444   3.641   5.218   2.835
 1182SOL    HW1 4445   3.672   5.225   2.740
 1182SOL    HW2 4446   3.721   5.213   2.895
 1183SOL     OW 4447   3.306   5.223   1.344
 1183SOL    HW1 4448   3.208   5.227   1.330
 1183SOL    HW2 4449   3.330   5.141   1.397
 1184SOL     OW 4450   6.827   0.988   5.314
 1184SOL    HW1 4451   6.920   1.009   5.342
 1184SOL    HW2 4452   6.771   0.971   5.395
 1185SOL     OW 4453   1.258   0.925   0.362
 1185SOL    HW1 4454   1.170   0.898   0.323
 1185SOL    HW2 4455   1.249   1.016   0.404
 1186SOL     OW 4456   5.272   6.556   5.188
 1186SOL    HW1 4457   5.188   6.531   5.139
 1186SOL    HW2 4458   5.344   6.577   5.122
 1187SOL     OW 4459   5.454   6.862   5.311
 1187SOL    HW1 4460   5.489   6.768   5.313
 1187SOL    HW2 4461   5.495   6.914   5.386
 1188SOL     OW 4462   2.807   5.315   6.586
 1188SOL    HW1 4463   2.818   5.340   6.683
 1188SOL    HW2 4464   2.712   5.330   6.558
 1189SOL     OW 4465   6.294   1.195   1.805
 1189SOL    HW1 4466   6.248   1.178   1.893
 1189SOL    HW2 4467   6.270   1.122   1.741
 1190SOL     OW 4468   2.731   5.488   2.734
 1190SOL    HW1 4469   2.738   5.388   2.729
 1190SOL    HW2 4470   2.645   5.513   2.779
 1191SOL     OW 4471   3.297   6.356   4.099
 1191SOL    HW1 4472   3.295   6.338   4.198
 1191SOL    HW2 4473   3.242   6.287   4.052
 1192SOL     OW 4474   5.664   5.894   3.791
 1192SOL    HW1 4475   5.737   5.928   3.731
 1192SOL    HW2 4476   5.693   5.902   3.886
 1193SOL     OW 4477   6.989   1.566   5.379
 1193SOL    HW1 4478   6.897   1.536   5.354
 1193SOL    HW2 4479   0.014   1.600   5.298
 1194SOL     OW 4480   6.737   1.331   1.712
 1194SOL    HW1 4481   6.645   1.371   1.718
 1194SOL    HW2 4482   6.742   1.271   1.633
 1195SOL     OW 4483   0.459   3.363   0.384
 1195SOL    HW1 4484   0.476   3.266   0.403
 1195SOL    HW2 4485   0.360   3.378   0.376
 1196SOL     OW 4486   6.957   4.407   3.369
 1196SOL    HW1 4487   6.970   4.478   3.438
 1196SOL    HW2 4488   6.998   4.437   3.282
 1197SOL     OW 4489   4.531   6.217   4.021
 1197SOL    HW1 4490   4.630   6.218   4.036
 1197SOL    HW2 4491   4.506   6.132   3.974
 1198SOL     OW 4492   1.450   3.702   1.950
 1198SOL    HW1 4493   1.367   3.744   1.912
 1198SOL    HW2 4494   1.484   3.633   1.887
 1199SOL     OW 4495   3.338   3.919   3.344
 1199SOL    HW1 4496   3.355   3.831   3.299
 1199SOL    HW2 4497   3.307   3.986   3.276
 1200SOL     OW 4498   3.195   4.070   4.437
 1200SOL    HW1 4499   3.251   4.087   4.518
 1200SOL    HW2 4500   3.105   4.035   4.466
 1201SOL     OW 4501   6.973   1.282   4.543
 1201SOL    HW1 4502   6.988   1.213   4.614
 1201SOL    HW2 4503   0.026   1.347   4.544
 1202SOL     OW 4504   0.699   6.017   5.278
 1202SOL    HW1 4505   0.757   6.079   5.331
 1202SOL    HW2 4506   0.661   6.065   5.200
 1203SOL     OW 4507   0.760   5.355   0.476
 1203SOL    HW1 4508   0.728   5.407   0.397
 1203SOL    HW2 4509   0.796   5.266   0.446
 1204SOL     OW 4510   4.307   1.456   1.379
 1204SOL    HW1 4511   4.343   1.412   1.462
 1204SOL    HW2 4512   4.322   1.395   1.301
 1205SOL     OW 4513   3.522   3.512   0.469
 1205SOL    HW1 4514   3.466   3.500   0.552
 1205SOL    HW2 4515   3.517   3.607   0.440
 1206SOL     OW 4516   1.696   2.965   5.006
 1206SOL    HW1 4517   1.642   3.040   5.045
 1206SOL    HW2 4518   1.658   2.939   4.917
 1207SOL     OW 4519   0.493   0.263   0.880
 1207SOL    HW1 4520   0.564   0.208   0.926
 1207SOL    HW2 4521   0.420   0.283   0.945
 1208SOL     OW 4522   3.103   3.574   1.666
 1208SOL    HW1 4523   3.173   3.597   1.733
 1208SOL    HW2 4524   3.035   3.647   1.661
 1209SOL     OW 4525   5.566   0.644   4.088
 1209SOL    HW1 4526   5.664   0.668   4.088
 1209SOL    HW2 4527   5.539   0.616   4.180
 1210SOL     OW 4528   3.946   6.670   3.416
 1210SOL    HW1 4529   3.906   6.728   3.486
 1210SOL    HW2 4530   3.888   6.589   3.402
 1211SOL     OW 4531   1.133   2.955   3.261
 1211SOL    HW1 4532   1.091   2.884   3.318
 1211SOL    HW2 4533   1.170   2.913   3.178
 1212SOL     OW 4534   6.374   0.186   5.906
 1212SOL    HW1 4535   6.415   0.274   5.930
 1212SOL    HW2 4536   6.275   0.193   5.908
 1213SOL     OW 4537   6.149   2.761   1.599
 1213SOL    HW1 4538   6.103   2.796   1.681
 1213SOL    HW2 4539   6.248   2.770   1.610
 1214SOL     OW 4540   1.013   2.406   0.272
 1214SOL    HW1 4541   1.024   2.503   0.294
 1214SOL    HW2 4542   1.099   2.358   0.288
 1215SOL     OW 4543   1.050   4.715   3.361
 1215SOL    HW1 4544   1.145   4.707   3.393
 1215SOL    HW2 4545   0.994   4.646   3.405
 1216SOL     OW 4546   5.349   1.583   0.354
 1216SOL    HW1 4547   5.268   1.607   0.407
 1216SOL    HW2 4548   5.412   1.660   0.351
 1217SOL     OW 4549   2.926   4.816   0.467
 1217SOL    HW1 4550   2.871   4.899   0.469
 1217SOL    HW2 4551   2.941   4.784   0.560
 1218SOL     OW 4552   1.807   3.040   5.276
 1218SOL    HW1 4553   1.817   2.995   5.365
 1218SOL    HW2 4554   1.801   2.971   5.204
 1219SOL     OW 4555   6.148   5.756   2.055
 1219SOL    HW1 4556   6.152   5.810   2.139
 1219SOL    HW2 4557   6.231   5.770   2.003
 1220SOL     OW 4558   0.524   4.459   2.409
 1220SOL    HW1 4559   0.593   4.448   2.481
 1220SOL    HW2 4560   0.490   4.369   2.382
 1221SOL     OW 4561   4.409   3.285   6.482
 1221SOL    HW1 4562   4.441   3.314   6.572
 1221SOL    HW2 4563   4.484   3.240   6.433
 1222SOL     OW 4564   6.935   0.892   6.734
 1222SOL    HW1 4565   6.873   0.828   6.689
 1222SOL    HW2 4566   0.006   0.856   6.732
 1223SOL     OW 4567   3.872   1.437   0.578
 1223SOL    HW1 4568   3.873   1.455   0.479
 1223SOL    HW2 4569   3.879   1.523   0.627
 1224SOL     OW 4570   3.145   6.270   0.045
 1224SOL    HW1 4571   3.065   6.307   7.021
 1224SOL    HW2 4572   3.143   6.170   0.040
 1225SOL     OW 4573   3.294   2.820   6.580
 1225SOL    HW1 4574   3.346   2.783   6.503
 1225SOL    HW2 4575   3.200   2.786   6.576
 1226SOL     OW 4576   3.254   6.577   1.435
 1226SOL    HW1 4577   3.260   6.500   1.498
 1226SOL    HW2 4578   3.159   6.595   1.412
 1227SOL     OW 4579   4.744   4.632   5.880
 1227SOL    HW1 4580   4.751   4.532   5.870
 1227SOL    HW2 4581   4.764   4.657   5.975
 1228SOL     OW 4582   2.710   2.178   6.151
 1228SOL    HW1 4583   2.767   2.194   6.232
 1228SOL    HW2 4584   2.767   2.188   6.069
 1229SOL     OW 4585   3.240   5.437   6.670
 1229SOL    HW1 4586   3.192   5.367   6.617
 1229SOL    HW2 4587   3.210   5.528   6.640
 1230SOL     OW 4588   4.998   6.215   2.161
 1230SOL    HW1 4589   5.098   6.209   2.163
 1230SOL    HW2 4590   4.966   6.267   2.240
 1231SOL     OW 4591   1.805   2.222   5.550
 1231SOL    HW1 4592   1.810   2.252   5.646
 1231SOL    HW2 4593   1.880   2.159   5.531
 1232SOL     OW 4594   6.773   1.730   5.241
 1232SOL    HW1 4595   6.736   1.638   5.255
 1232SOL    HW2 4596   6.757   1.786   5.322
 1233SOL     OW 4597   0.796   5.369   5.064
 1233SOL    HW1 4598   0.831   5.279   5.090
 1233SOL    HW2 4599   0.697   5.365   5.053
 1234SOL     OW 4600   5.617   2.897   5.508
 1234SOL    HW1 4601   5.668   2.961   5.566
 1234SOL    HW2 4602   5.605   2.937   5.418
 1235SOL     OW 4603   5.982   6.011   2.689
 1235SOL    HW1 4604   5.996   5.960   2.774
 1235SOL    HW2 4605   5.952   5.948   2.617
 1236SOL     OW 4606   4.549   0.649   0.622
 1236SOL    HW1 4607   4.593   0.560   0.618
 1236SOL    HW2 4608   4.533   0.683   0.530
 1237SOL     OW 4609   1.631   4.391   6.131
 1237SOL    HW1 4610   1.618   4.443   6.046
 1237SOL    HW2 4611   1.543   4.360   6.165
 1238SOL     OW 4612   0.917   1.037   6.686
 1238SOL    HW1 4613   1.016   1.044   6.678
 1238SOL    HW2 4614   0.894   0.961   6.748
 1239SOL     OW 4615   6.477   6.598   6.720
 1239SOL    HW1 4616   6.555   6.557   6.673
 1239SOL    HW2 4617   6.419   6.526   6.759
 1240SOL     OW 4618   5.461   6.189   0.674
 1240SOL    HW1 4619   5.362   6.199   0.686
 1240SOL    HW2 4620   5.506   6.202   0.762
 1241SOL     OW 4621   5.239   4.334   4.523
 1241SOL    HW1 4622   5.182   4.288   4.455
 1241SOL    HW2 4623   5.213   4.303   4.615
 1242SOL     OW 4624   0.908   3.814   1.386
 1242SOL    HW1 4625   0.914   3.740   1.318
 1242SOL    HW2 4626   0.854   3.889   1.348
 1243SOL     OW 4627   0.846   0.725   5.070
 1243SOL    HW1 4628   0.918   0.788   5.040
 1243SOL    HW2 4629   0.826   0.661   4.995
 1244SOL     OW 4630   6.048   6.799   4.086
 1244SOL    HW1 4631   6.026   6.708   4.049
 1244SOL    HW2 4632   5.974   6.862   4.065
 1245SOL     OW 4633   6.209   4.184   0.932
 1245SOL    HW1 4634   6.254   4.273   0.927
 1245SOL    HW2 4635   6.131   4.183   0.869
 1246SOL     OW 4636   2.451   0.398   1.079
 1246SOL    HW1 4637   2.486   0.471   1.020
 1246SOL    HW2 4638   2.451   0.312   1.028
 1247SOL     OW 4639   0.398   6.475   6.348
 1247SOL    HW1 4640   0.478   6.471   6.288
 1247SOL    HW2 4641   0.350   6.387   6.345
 1248SOL     OW 4642   2.505   0.293   4.912
 1248SOL    HW1 4643   2.448   0.237   4.852
 1248SOL    HW2 4644   2.547   0.235   4.982
 1249SOL     OW 4645   6.572   2.102   2.542
 1249SOL    HW1 4646   6.572   2.189   2.592
 1249SOL    HW2 4647   6.478   2.071   2.530
 1250SOL     OW 4648   5.924   5.545   3.601
 1250SOL    HW1 4649   5.902   5.573   3.508
 1250SOL    HW2 4650   5.989   5.470   3.599
 1251SOL     OW 4651   2.771   0.437   3.526
 1251SOL    HW1 4652   2.733   0.524   3.557
 1251SOL    HW2 4653   2.840   0.406   3.591
 1252SOL     OW 4654   4.868   3.363   6.071
 1252SOL    HW1 4655   4.789   3.308   6.044
 1252SOL    HW2 4656   4.947   3.303   6.086
 1253SOL     OW 4657   3.076   5.816   1.932
 1253SOL    HW1 4658   3.081   5.880   2.008
 1253SOL    HW2 4659   3.055   5.725   1.967
 1254SOL     OW 4660   1.045   2.908   2.723
 1254SOL    HW1 4661   1.127   2.922   2.778
 1254SOL    HW2 4662   1.071   2.884   2.629
 1255SOL     OW 4663   5.776   1.404   6.612
 1255SOL    HW1 4664   5.699   1.405   6.547
 1255SOL    HW2 4665   5.753   1.460   6.691
 1256SOL     OW 4666   6.736   6.187   3.031
 1256SOL    HW1 4667   6.761   6.271   2.983
 1256SOL    HW2 4668   6.760   6.195   3.128
 1257SOL     OW 4669   6.703   5.968   5.044
 1257SOL    HW1 4670   6.696   5.929   4.952
 1257SOL    HW2 4671   6.626   5.938   5.100
 1258SOL     OW 4672   1.633   4.742   3.317
 1258SOL    HW1 4673   1.680   4.803   3.380
 1258SOL    HW2 4674   1.618   4.789   3.229
 1259SOL     OW 4675   3.651   0.789   4.059
 1259SOL    HW1 4676   3.681   0.845   3.982
 1259SOL    HW2 4677   3.569   0.738   4.032
 1260SOL     OW 4678   2.422   2.335   0.250
 1260SOL    HW1 4679   2.468   2.252   0.218
 1260SOL    HW2 4680   2.414   2.332   0.350
 1261SOL     OW 4681   0.230   6.024   6.649
 1261SOL    HW1 4682   0.273   6.113   6.632
 1261SOL    HW2 4683   0.162   6.034   6.722
 1262SOL     OW 4684   5.688   4.132   1.238
 1262SOL    HW1 4685   5.684   4.215   1.182
 1262SOL    HW2 4686   5.638   4.058   1.193
 1263SOL     OW 4687   0.077   2.249   1.891
 1263SOL    HW1 4688   7.021   2.191   1.911
 1263SOL    HW2 4689   0.161   2.196   1.899
 1264SOL     OW 4690   6.935   4.091   1.673
 1264SOL    HW1 4691   6.923   4.080   1.771
 1264SOL    HW2 4692   6.894   4.013   1.625
 1265SOL     OW 4693   5.234   5.061   4.058
 1265SOL    HW1 4694   5.136   5.082   4.068
 1265SOL    HW2 4695   5.244   4.970   4.020
 1266SOL     OW 4696   0.116   1.483   4.275
 1266SOL    HW1 4697   0.199   1.502   4.223
 1266SOL    HW2 4698   0.138   1.482   4.373
 1267SOL     OW 4699   4.749   6.659   1.042
 1267SOL    HW1 4700   4.665   6.647   0.990
 1267SOL    HW2 4701   4.813   6.717   0.990
 1268SOL     OW 4702   2.691   2.537   0.263
 1268SOL    HW1 4703   2.740   2.573   0.183
 1268SOL    HW2 4704   2.615   2.480   0.233
 1269SOL     OW 4705   5.946   5.014   5.107
 1269SOL    HW1 4706   5.861   4.972   5.077
 1269SOL    HW2 4707   5.973   5.087   5.044
 1270SOL     OW 4708   1.094   2.709   3.409
 1270SOL    HW1 4709   1.121   2.613   3.405
 1270SOL    HW2 4710   1.126   2.749   3.495
 1271SOL     OW 4711   2.623   2.092   3.628
 1271SOL    HW1 4712   2.611   2.004   3.674
 1271SOL    HW2 4713   2.678   2.152   3.686
 1272SOL     OW 4714   5.254   4.851   6.980
 1272SOL    HW1 4715   5.308   4.858   6.896
 1272SOL    HW2 4716   5.219   4.758   6.989
 1273SOL     OW 4717   0.431   3.072   0.093
 1273SOL    HW1 4718   0.493   3.146   0.068
 1273SOL    HW2 4719   0.450   3.042   0.187
 1274SOL     OW 4720   6.774   4.794   1.462
 1274SOL    HW1 4721   6.852   4.813   1.402
 1274SOL    HW2 4722   6.770   4.862   1.535
 1275SOL     OW 4723   3.689   1.862   4.549
 1275SOL    HW1 4724   3.730   1.876   4.639
 1275SOL    HW2 4725   3.630   1.940   4.527
 1276SOL     OW 4726   6.516   6.134   5.284
 1276SOL    HW1 4727   6.509   6.034   5.276
 1276SOL    HW2 4728   6.441   6.176   5.233
 1277SOL     OW 4729   0.814   5.610   5.945
 1277SOL    HW1 4730   0.877   5.688   5.950
 1277SOL    HW2 4731   0.857   5.529   5.985
 1278SOL     OW 4732   1.030   6.963   4.825
 1278SOL    HW1 4733   1.072   7.002   4.744
 1278SOL    HW2 4734   1.089   6.891   4.863
 1279SOL     OW 4735   1.776   5.166   0.780
 1279SOL    HW1 4736   1.717   5.092   0.813
 1279SOL    HW2 4737   1.871   5.135   0.780
 1280SOL     OW 4738   3.750   6.245   4.334
 1280SOL    HW1 4739   3.710   6.321   4.282
 1280SOL    HW2 4740   3.822   6.279   4.394
 1281SOL     OW 4741   2.055   6.127   3.298
 1281SOL    HW1 4742   2.090   6.096   3.387
 1281SOL    HW2 4743   1.969   6.080   3.278
 1282SOL     OW 4744   6.836   2.422   6.849
 1282SOL    HW1 4745   6.843   2.378   6.760
 1282SOL    HW2 4746   6.900   2.379   6.913
 1283SOL     OW 4747   0.372   3.440   5.874
 1283SOL    HW1 4748   0.360   3.531   5.913
 1283SOL    HW2 4749   0.289   3.414   5.824
 1284SOL     OW 4750   4.983   2.233   1.286
 1284SOL    HW1 4751   4.928   2.264   1.208
 1284SOL    HW2 4752   4.986   2.305   1.355
 1285SOL     OW 4753   4.307   2.423   6.167
 1285SOL    HW1 4754   4.306   2.343   6.108
 1285SOL    HW2 4755   4.374   2.410   6.240
 1286SOL     OW 4756   4.726   3.724   1.408
 1286SOL    HW1 4757   4.711   3.782   1.328
 1286SOL    HW2 4758   4.737   3.781   1.489
 1287SOL     OW 4759   5.996   5.507   5.233
 1287SOL    HW1 4760   6.030   5.587   5.282
 1287SOL    HW2 4761   6.046   5.425   5.262
 1288SOL     OW 4762   3.984   3.273   6.258
 1288SOL    HW1 4763   3.957   3.363   6.293
 1288SOL    HW2 4764   3.902   3.218   6.241
 1289SOL     OW 4765   6.819   6.847   1.149
 1289SOL    HW1 4766   6.753   6.796   1.204
 1289SOL    HW2 4767   6.855   6.788   1.077
 1290SOL     OW 4768   0.858   6.540   7.009
 1290SOL    HW1 4769   0.930   6.474   0.007
 1290SOL    HW2 4770   0.899   6.625   6.977
 1291SOL     OW 4771   7.006   3.994   4.492
 1291SOL    HW1 4772   6.923   3.987   4.435
 1291SOL    HW2 4773   0.061   3.954   4.443
 1292SOL     OW 4774   0.819   6.116   2.465
 1292SOL    HW1 4775   0.834   6.176   2.544
 1292SOL    HW2 4776   0.842   6.164   2.381
 1293SOL     OW 4777   0.958   1.734   6.775
 1293SOL    HW1 4778   0.967   1.653   6.718
 1293SOL    HW2 4779   0.945   1.814   6.717
 1294SOL     OW 4780   0.801   3.810   6.160
 1294SOL    HW1 4781   0.831   3.863   6.081
 1294SOL    HW2 4782   0.881   3.784   6.215
 1295SOL     OW 4783   0.218   3.518   1.640
 1295SOL    HW1 4784   0.316   3.498   1.648
 1295SOL    HW2 4785   0.172   3.442   1.595
 1296SOL     OW 4786   4.064   6.525   5.740
 1296SOL    HW1 4787   4.098   6.616   5.760
 1296SOL    HW2 4788   4.002   6.529   5.662
 1297SOL     OW 4789   0.179   0.599   1.243
 1297SOL    HW1 4790   0.169   0.634   1.150
 1297SOL    HW2 4791   0.142   0.506   1.247
 1298SOL     OW 4792   5.582   5.058   3.101
 1298SOL    HW1 4793   5.528   4.983   3.061
 1298SOL    HW2 4794   5.678   5.048   3.074
 1299SOL     OW 4795   1.683   3.402   3.302
 1299SOL    HW1 4796   1.666   3.494   3.337
 1299SOL    HW2 4797   1.601   3.369   3.254
 1300SOL     OW 4798   2.418   2.999   1.322
 1300SOL    HW1 4799   2.337   2.966   1.371
 1300SOL    HW2 4800   2.393   3.019   1.227
 1301SOL     OW 4801   7.020   0.128   1.192
 1301SOL    HW1 4802   6.922   0.105   1.187
 1301SOL    HW2 4803   0.050   0.062   1.139
 1302SOL     OW 4804   4.229   0.750   5.892
 1302SOL    HW1 4805   4.156   0.777   5.954
 1302SOL    HW2 4806   4.203   0.666   5.844
 1303SOL     OW 4807   4.021   2.163   1.567
 1303SOL    HW1 4808   3.982   2.186   1.655
 1303SOL    HW2 4809   4.110   2.207   1.556
 1304SOL     OW 4810   2.246   0.615   6.870
 1304SOL    HW1 4811   2.260   0.536   6.930
 1304SOL    HW2 4812   2.157   0.608   6.826
 1305SOL     OW 4813   5.509   3.719   0.930
 1305SOL    HW1 4814   5.525   3.638   0.986
 1305SOL    HW2 4815   5.583   3.729   0.864
 1306SOL     OW 4816   1.170   5.361   3.789
 1306SOL    HW1 4817   1.255   5.372   3.841
 1306SOL    HW2 4818   1.187   5.307   3.707
 1307SOL     OW 4819   1.669   4.191   3.943
 1307SOL    HW1 4820   1.762   4.202   3.979
 1307SOL    HW2 4821   1.632   4.280   3.918
 1308SOL     OW 4822   6.559   6.877   5.355
 1308SOL    HW1 4823   6.475   6.925   5.379
 1308SOL    HW2 4824   6.594   6.828   5.435
 1309SOL     OW 4825   5.507   4.573   5.503
 1309SOL    HW1 4826   5.418   4.572   5.458
 1309SOL    HW2 4827   5.560   4.494   5.472
 1310SOL     OW 4828   6.361   4.166   3.965
 1310SOL    HW1 4829   6.354   4.067   3.955
 1310SOL    HW2 4830   6.455   4.195   3.950
 1311SOL     OW 4831   0.444   5.938   5.433
 1311SOL    HW1 4832   0.536   5.960   5.402
 1311SOL    HW2 4833   0.378   6.001   5.390
 1312SOL     OW 4834   0.798   6.335   6.789
 1312SOL    HW1 4835   0.790   6.411   6.853
 1312SOL    HW2 4836   0.889   6.336   6.746
 1313SOL     OW 4837   0.713   4.946   2.752
 1313SOL    HW1 4838   0.809   4.917   2.759
 1313SOL    HW2 4839   0.705   5.039   2.789
 1314SOL     OW 4840   4.362   1.253   5.674
 1314SOL    HW1 4841   4.271   1.255   5.715
 1314SOL    HW2 4842   4.428   1.295   5.736
 1315SOL     OW 4843   0.787   1.606   2.440
 1315SOL    HW1 4844   0.697   1.610   2.396
 1315SOL    HW2 4845   0.828   1.697   2.441
 1316SOL     OW 4846   2.827   6.176   5.545
 1316SOL    HW1 4847   2.911   6.231   5.550
 1316SOL    HW2 4848   2.772   6.206   5.467
 1317SOL     OW 4849   2.133   4.242   6.155
 1317SOL    HW1 4850   2.042   4.200   6.159
 1317SOL    HW2 4851   2.195   4.193   6.216
 1318SOL     OW 4852   0.943   1.907   0.959
 1318SOL    HW1 4853   0.996   1.970   1.015
 1318SOL    HW2 4854   0.862   1.877   1.010
 1319SOL     OW 4855   6.465   6.451   0.019
 1319SOL    HW1 4856   6.488   6.383   6.972
 1319SOL    HW2 4857   6.529   6.528   0.012
 1320SOL     OW 4858   4.234   4.602   6.831
 1320SOL    HW1 4859   4.146   4.600   6.784
 1320SOL    HW2 4860   4.250   4.694   6.867
 1321SOL     OW 4861   5.579   1.926   6.551
 1321SOL    HW1 4862   5.656   1.868   6.576
 1321SOL    HW2 4863   5.496   1.872   6.546
 1322SOL     OW 4864   3.782   1.105   3.239
 1322SOL    HW1 4865   3.856   1.150   3.191
 1322SOL    HW2 4866   3.809   1.089   3.334
 1323SOL     OW 4867   4.257   0.379   6.069
 1323SOL    HW1 4868   4.236   0.451   6.135
 1323SOL    HW2 4869   4.247   0.415   5.976
 1324SOL     OW 4870   0.622   3.978   6.722
 1324SOL    HW1 4871   0.706   3.930   6.748
 1324SOL    HW2 4872   0.544   3.936   6.767
 1325SOL     OW 4873   2.341   0.101   3.371
 1325SOL    HW1 4874   2.405   0.150   3.429
 1325SOL    HW2 4875   2.320   0.012   3.412
 1326SOL     OW 4876   4.658   3.910   5.490
 1326SOL    HW1 4877   4.651   4.005   5.459
 1326SOL    HW2 4878   4.747   3.873   5.463
 1327SOL     OW 4879   0.754   6.004   1.889
 1327SOL    HW1 4880   0.764   6.097   1.926
 1327SOL    HW2 4881   0.737   5.941   1.965
 1328SOL     OW 4882   1.912   3.174   1.226
 1328SOL    HW1 4883   1.891   3.270   1.205
 1328SOL    HW2 4884   2.007   3.167   1.256
 1329SOL     OW 4885   0.738   2.434   1.887
 1329SOL    HW1 4886   0.774   2.518   1.845
 1329SOL    HW2 4887   0.656   2.455   1.939
 1330SOL     OW 4888   0.688   1.142   2.074
 1330SOL    HW1 4889   0.603   1.089   2.079
 1330SOL    HW2 4890   0.672   1.226   2.022
 1331SOL     OW 4891   4.902   3.122   2.562
 1331SOL    HW1 4892   4.856   3.094   2.646
 1331SOL    HW2 4893   4.895   3.048   2.494
 1332SOL     OW 4894   2.845   0.258   6.852
 1332SOL    HW1 4895   2.810   0.351   6.859
 1332SOL    HW2 4896   2.881   0.242   6.760
 1333SOL     OW 4897   2.899   3.377   3.986
 1333SOL    HW1 4898   2.894   3.444   3.912
 1333SOL    HW2 4899   2.967   3.406   4.053
 1334SOL     OW 4900   6.099   1.753   4.014
 1334SOL    HW1 4901   6.124   1.794   3.926
 1334SOL    HW2 4902   6.008   1.783   4.041
 1335SOL     OW 4903   2.058   1.747   2.512
 1335SOL    HW1 4904   1.972   1.798   2.509
 1335SOL    HW2 4905   2.119   1.781   2.440
 1336SOL     OW 4906   2.258   2.667   5.306
 1336SOL    HW1 4907   2.228   2.762   5.315
 1336SOL    HW2 4908   2.352   2.664   5.271
 1337SOL     OW 4909   1.411   2.245   4.674
 1337SOL    HW1 4910   1.413   2.175   4.603
 1337SOL    HW2 4911   1.317   2.279   4.683
 1338SOL     OW 4912   5.351   2.241   4.703
 1338SOL    HW1 4913   5.292   2.165   4.676
 1338SOL    HW2 4914   5.363   2.303   4.626
 1339SOL     OW 4915   6.335   2.109   6.562
 1339SOL    HW1 4916   6.325   2.010   6.554
 1339SOL    HW2 4917   6.254   2.147   6.608
 1340SOL     OW 4918   6.221   1.718   2.493
 1340SOL    HW1 4919   6.129   1.725   2.454
 1340SOL    HW2 4920   6.288   1.746   2.424
 1341SOL     OW 4921   5.097   6.747   6.656
 1341SOL    HW1 4922   5.180   6.801   6.673
 1341SOL    HW2 4923   5.056   6.775   6.569
 1342SOL     OW 4924   2.897   5.683   6.201
 1342SOL    HW1 4925   2.889   5.683   6.301
 1342SOL    HW2 4926   2.985   5.641   6.175
 1343SOL     OW 4927   5.251   5.470   2.347
 1343SOL    HW1 4928   5.164   5.471   2.396
 1343SOL    HW2 4929   5.237   5.501   2.253
 1344SOL     OW 4930   6.747   5.815   4.782
 1344SOL    HW1 4931   6.793   5.869   4.711
 1344SOL    HW2 4932   6.673   5.763   4.740
 1345SOL     OW 4933   1.261   6.973   3.037
 1345SOL    HW1 4934   1.274   6.927   3.125
 1345SOL    HW2 4935   1.343   0.005   3.016
 1346SOL     OW 4936   0.932   5.518   4.832
 1346SOL    HW1 4937   0.890   5.484   4.748
 1346SOL    HW2 4938   0.926   5.449   4.903
 1347SOL     OW 4939   0.132   6.352   5.286
 1347SOL    HW1 4940   0.058   6.397   5.237
 1347SOL    HW2 4941   0.205   6.418   5.304
 1348SOL     OW 4942   5.365   5.978   3.487
 1348SOL    HW1 4943   5.339   6.016   3.399
 1348SOL    HW2 4944   5.465   5.981   3.496
 1349SOL     OW 4945   4.575   2.408   5.621
 1349SOL    HW1 4946   4.650   2.435   5.560
 1349SOL    HW2 4947   4.611   2.391   5.713
 1350SOL     OW 4948   5.527   5.231   5.344
 1350SOL    HW1 4949   5.496   5.164   5.410
 1350SOL    HW2 4950   5.483   5.319   5.362
 1351SOL     OW 4951   5.787   1.866   2.804
 1351SOL    HW1 4952   5.886   1.861   2.809
 1351SOL    HW2 4953   5.752   1.790   2.749
 1352SOL     OW 4954   0.025   6.376   2.547
 1352SOL    HW1 4955   6.985   6.414   2.480
 1352SOL    HW2 4956   7.006   6.294   2.588
 1353SOL     OW 4957   0.197   2.300   0.572
 1353SOL    HW1 4958   0.168   2.301   0.668
 1353SOL    HW2 4959   0.117   2.299   0.513
 1354SOL     OW 4960   0.945   4.302   1.954
 1354SOL    HW1 4961   0.958   4.399   1.935
 1354SOL    HW2 4962   0.931   4.252   1.869
 1355SOL     OW 4963   6.196   2.706   4.020
 1355SOL    HW1 4964   6.183   2.720   3.922
 1355SOL    HW2 4965   6.266   2.769   4.053
 1356SOL     OW 4966   3.269   3.279   2.561
 1356SOL    HW1 4967   3.361   3.251   2.587
 1356SOL    HW2 4968   3.202   3.220   2.607
 1357SOL     OW 4969   0.573   3.429   6.148
 1357SOL    HW1 4970   0.664   3.422   6.190
 1357SOL    HW2 4971   0.583   3.454   6.052
 1358SOL     OW 4972   4.223   7.018   6.219
 1358SOL    HW1 4973   4.214   0.026   6.124
 1358SOL    HW2 4974   4.295   6.949   6.226
 1359SOL     OW 4975   6.099   5.320   2.203
 1359SOL    HW1 4976   6.007   5.360   2.206
 1359SOL    HW2 4977   6.131   5.318   2.109
 1360SOL     OW 4978   3.146   3.032   6.969
 1360SOL    HW1 4979   3.064   3.078   7.005
 1360SOL    HW2 4980   3.205   3.099   6.925
 1361SOL     OW 4981   0.090   5.520   5.176
 1361SOL    HW1 4982   0.044   5.602   5.208
 1361SOL    HW2 4983   0.064   5.442   5.234
 1362SOL     OW 4984   3.355   4.152   3.773
 1362SOL    HW1 4985   3.317   4.112   3.689
 1362SOL    HW2 4986   3.296   4.226   3.804
 1363SOL     OW 4987   0.156   5.611   2.880
 1363SOL    HW1 4988   0.244   5.649   2.848
 1363SOL    HW2 4989   0.152   5.514   2.857
 1364SOL     OW 4990   6.476   3.259   1.201
 1364SOL    HW1 4991   6.516   3.241   1.292
 1364SOL    HW2 4992   6.383   3.294   1.212
 1365SOL     OW 4993   0.344   3.583   6.842
 1365SOL    HW1 4994   0.302   3.603   6.931
 1365SOL    HW2 4995   0.313   3.494   6.810
 1366SOL     OW 4996   0.822   4.831   0.182
 1366SOL    HW1 4997   0.725   4.808   0.197
 1366SOL    HW2 4998   0.865   4.760   0.126
 1367SOL     OW 4999   2.098   0.248   3.388
 1367SOL    HW1 5000   2.185   0.199   3.387
 1367SOL    HW2 5001   2.071   0.272   3.295
 1368SOL     OW 5002   5.829   0.380   3.073
 1368SOL    HW1 5003   5.927   0.362   3.057
 1368SOL    HW2 5004   5.818   0.471   3.111
 1369SOL     OW 5005   2.572   6.732   1.287
 1369SOL    HW1 5006   2.661   6.697   1.257
 1369SOL    HW2 5007   2.576   6.832   1.293
 1370SOL     OW 5008   3.761   1.079   0.820
 1370SOL    HW1 5009   3.750   0.984   0.789
 1370SOL    HW2 5010   3.678   1.108   0.868
 1371SOL     OW 5011   5.857   1.957   4.478
 1371SOL    HW1 5012   5.930   2.017   4.443
 1371SOL    HW2 5013   5.854   1.873   4.424
 1372SOL     OW 5014   1.383   2.997   0.212
 1372SOL    HW1 5015   1.299   2.961   0.171
 1372SOL    HW2 5016   1.375   3.096   0.222
 1373SOL     OW 5017   5.162   2.868   0.521
 1373SOL    HW1 5018   5.090   2.840   0.457
 1373SOL    HW2 5019   5.249   2.829   0.492
 1374SOL     OW 5020   5.252   1.817   7.012
 1374SOL    HW1 5021   5.267   1.729   0.033
 1374SOL    HW2 5022   5.214   1.804   6.920
 1375SOL     OW 5023   0.285   4.011   6.146
 1375SOL    HW1 5024   0.304   4.027   6.049
 1375SOL    HW2 5025   0.290   3.913   6.165
 1376SOL     OW 5026   4.392   4.614   4.605
 1376SOL    HW1 5027   4.360   4.680   4.538
 1376SOL    HW2 5028   4.314   4.566   4.645
 1377SOL     OW 5029   6.795   4.114   6.098
 1377SOL    HW1 5030   6.814   4.018   6.076
 1377SOL    HW2 5031   6.702   4.121   6.134
 1378SOL     OW 5032   5.978   1.278   4.738
 1378SOL    HW1 5033   6.071   1.253   4.766
 1378SOL    HW2 5034   5.962   1.374   4.759
 1379SOL     OW 5035   3.328   6.794   2.548
 1379SOL    HW1 5036   3.242   6.813   2.595
 1379SOL    HW2 5037   3.393   6.753   2.612
 1380SOL     OW 5038   0.306   0.471   2.636
 1380SOL    HW1 5039   0.404   0.453   2.640
 1380SOL    HW2 5040   0.256   0.388   2.661
 1381SOL     OW 5041   6.379   2.551   0.553
 1381SOL    HW1 5042   6.283   2.573   0.568
 1381SOL    HW2 5043   6.387   2.479   0.483
 1382SOL     OW 5044   4.216   4.583   0.690
 1382SOL    HW1 5045   4.242   4.496   0.732
 1382SOL    HW2 5046   4.117   4.585   0.677
 1383SOL     OW 5047   1.192   0.212   1.608
 1383SOL    HW1 5048   1.290   0.204   1.590
 1383SOL    HW2 5049   1.159   0.301   1.576
 1384SOL     OW 5050   4.310   0.293   1.903
 1384SOL    HW1 5051   4.331   0.210   1.852
 1384SOL    HW2 5052   4.269   0.270   1.990
 1385SOL     OW 5053   1.041   3.622   3.833
 1385SOL    HW1 5054   1.053   3.673   3.918
 1385SOL    HW2 5055   0.988   3.539   3.851
 1386SOL     OW 5056   2.725   1.157   4.697
 1386SOL    HW1 5057   2.671   1.228   4.651
 1386SOL    HW2 5058   2.814   1.194   4.723
 1387SOL     OW 5059   3.942   6.138   2.583
 1387SOL    HW1 5060   3.948   6.137   2.483
 1387SOL    HW2 5061   3.964   6.229   2.617
 1388SOL     OW 5062   0.237   6.696   3.351
 1388SOL    HW1 5063   0.167   6.649   3.404
 1388SOL    HW2 5064   0.267   6.637   3.276
 1389SOL     OW 5065   0.420   1.132   3.695
 1389SOL    HW1 5066   0.402   1.079   3.778
 1389SOL    HW2 5067   0.338   1.182   3.670
 1390SOL     OW 5068   5.383   2.610   5.889
 1390SOL    HW1 5069   5.404   2.525   5.937
 1390SOL    HW2 5070   5.298   2.649   5.926
 1391SOL     OW 5071   6.446   0.771   5.055
 1391SOL    HW1 5072   6.416   0.757   4.961
 1391SOL    HW2 5073   6.370   0.752   5.117
 1392SOL     OW 5074   5.340   6.125   6.678
 1392SOL    HW1 5075   5.396   6.132   6.760
 1392SOL    HW2 5076   5.388   6.068   6.610
 1393SOL     OW 5077   6.105   3.505   6.088
 1393SOL    HW1 5078   6.067   3.448   6.015
 1393SOL    HW2 5079   6.071   3.599   6.078
 1394SOL     OW 5080   4.052   6.373   4.077
 1394SOL    HW1 5081   4.124   6.338   4.137
 1394SOL    HW2 5082   3.989   6.298   4.055
 1395SOL     OW 5083   1.186   4.298   4.092
 1395SOL    HW1 5084   1.247   4.258   4.023
 1395SOL    HW2 5085   1.224   4.384   4.124
 1396SOL     OW 5086   1.599   0.548   3.643
 1396SOL    HW1 5087   1.580   0.451   3.629
 1396SOL    HW2 5088   1.541   0.602   3.583
 1397SOL     OW 5089   0.758   6.044   4.337
 1397SOL    HW1 5090   0.659   6.055   4.339
 1397SOL    HW2 5091   0.784   5.985   4.260
 1398SOL     OW 5092   1.355   1.826   6.403
 1398SOL    HW1 5093   1.417   1.878   6.462
 1398SOL    HW2 5094   1.398   1.738   6.381
 1399SOL     OW 5095   4.127   0.433   6.955
 1399SOL    HW1 5096   4.057   0.390   6.898
 1399SOL    HW2 5097   4.198   0.366   6.977
 1400SOL     OW 5098   7.004   2.184   4.368
 1400SOL    HW1 5099   0.040   2.135   4.433
 1400SOL    HW2 5100   6.977   2.272   4.407
 1401SOL     OW 5101   6.024   6.907   4.375
 1401SOL    HW1 5102   5.976   6.844   4.436
 1401SOL    HW2 5103   6.024   6.870   4.282
 1402SOL     OW 5104   5.954   4.515   6.798
 1402SOL    HW1 5105   5.886   4.559   6.857
 1402SOL    HW2 5106   5.917   4.507   6.705
 1403SOL     OW 5107   1.820   1.862   1.286
 1403SOL    HW1 5108   1.724   1.842   1.309
 1403SOL    HW2 5109   1.838   1.837   1.191
 1404SOL     OW 5110   5.811   6.825   0.110
 1404SOL    HW1 5111   5.749   6.747   0.120
 1404SOL    HW2 5112   5.826   6.868   0.198
 1405SOL     OW 5113   2.928   3.338   0.524
 1405SOL    HW1 5114   2.882   3.300   0.444
 1405SOL    HW2 5115   2.860   3.370   0.590
 1406SOL     OW 5116   2.873   4.724   0.719
 1406SOL    HW1 5117   2.929   4.703   0.799
 1406SOL    HW2 5118   2.824   4.642   0.690
 1407SOL     OW 5119   1.634   4.071   3.433
 1407SOL    HW1 5120   1.597   4.010   3.363
 1407SOL    HW2 5121   1.569   4.146   3.448
 1408SOL     OW 5122   5.213   6.379   6.581
 1408SOL    HW1 5123   5.252   6.456   6.632
 1408SOL    HW2 5124   5.259   6.294   6.609
 1409SOL     OW 5125   6.778   0.846   4.832
 1409SOL    HW1 5126   6.749   0.842   4.927
 1409SOL    HW2 5127   6.863   0.793   4.821
 1410SOL     OW 5128   3.056   4.279   0.297
 1410SOL    HW1 5129   2.977   4.326   0.257
 1410SOL    HW2 5130   3.136   4.338   0.290
 1411SOL     OW 5131   3.561   5.811   6.257
 1411SOL    HW1 5132   3.570   5.742   6.184
 1411SOL    HW2 5133   3.652   5.848   6.279
 1412SOL     OW 5134   0.636   4.174   1.622
 1412SOL    HW1 5135   0.557   4.236   1.625
 1412SOL    HW2 5136   0.719   4.225   1.646
 1413SOL     OW 5137   1.449   1.598   4.296
 1413SOL    HW1 5138   1.522   1.533   4.316
 1413SOL    HW2 5139   1.430   1.653   4.378
 1414SOL     OW 5140   1.640   1.986   2.183
 1414SOL    HW1 5141   1.594   2.061   2.230
 1414SOL    HW2 5142   1.739   1.991   2.199
 1415SOL     OW 5143   2.907   1.548   4.744
 1415SOL    HW1 5144   2.898   1.531   4.842
 1415SOL    HW2 5145   2.992   1.598   4.727
 1416SOL     OW 5146   3.801   0.692   4.298
 1416SOL    HW1 5147   3.751   0.687   4.385
 1416SOL    HW2 5148   3.735   0.696   4.223
 1417SOL     OW 5149   3.113   2.815   5.887
 1417SOL    HW1 5150   3.122   2.886   5.957
 1417SOL    HW2 5151   3.041   2.842   5.822
 1418SOL     OW 5152   2.911   3.496   0.030
 1418SOL    HW1 5153   2.945   3.572   0.086
 1418SOL    HW2 5154   2.863   3.533   6.973
 1419SOL     OW 5155   2.591   5.454   4.062
 1419SOL    HW1 5156   2.503   5.430   4.105
 1419SOL    HW2 5157   2.666   5.426   4.123
 1420SOL     OW 5158   3.708   5.755   2.630
 1420SOL    HW1 5159   3.633   5.723   2.688
 1420SOL    HW2 5160   3.716   5.855   2.638
 1421SOL     OW 5161   1.084   4.001   4.225
 1421SOL    HW1 5162   1.158   4.057   4.189
 1421SOL    HW2 5163   1.072   4.019   4.323
 1422SOL     OW 5164   3.342   4.171   5.806
 1422SOL    HW1 5165   3.244   4.192   5.805
 1422SOL    HW2 5166   3.394   4.253   5.831
 1423SOL     OW 5167   3.198   0.948   5.141
 1423SOL    HW1 5168   3.176   0.895   5.060
 1423SOL    HW2 5169   3.298   0.960   5.147
 1424SOL     OW 5170   6.588   3.430   6.580
 1424SOL    HW1 5171   6.602   3.402   6.485
 1424SOL    HW2 5172   6.517   3.373   6.622
 1425SOL     OW 5173   2.080   5.536   5.553
 1425SOL    HW1 5174   2.178   5.520   5.552
 1425SOL    HW2 5175   2.046   5.543   5.459
 1426SOL     OW 5176   1.719   1.916   5.925
 1426SOL    HW1 5177   1.814   1.904   5.953
 1426SOL    HW2 5178   1.715   1.927   5.825
 1427SOL     OW 5179   0.276   0.071   3.861
 1427SOL    HW1 5180   0.225   7.012   3.834
 1427SOL    HW2 5181   0.250   0.147   3.802
 1428SOL     OW 5182   0.091   2.003   2.080
 1428SOL    HW1 5183   0.130   2.036   2.166
 1428SOL    HW2 5184   0.155   2.022   2.005
 1429SOL     OW 5185   6.338   1.323   0.051
 1429SOL    HW1 5186   6.302   1.396   0.110
 1429SOL    HW2 5187   6.270   1.251   0.042
 1430SOL     OW 5188   2.279   4.517   3.889
 1430SOL    HW1 5189   2.289   4.482   3.982
 1430SOL    HW2 5190   2.241   4.445   3.830
 1431SOL     OW 5191   2.473   2.445   6.322
 1431SOL    HW1 5192   2.454   2.499   6.240
 1431SOL    HW2 5193   2.388   2.402   6.353
 1432SOL     OW 5194   2.068   1.067   1.574
 1432SOL    HW1 5195   2.034   1.155   1.541
 1432SOL    HW2 5196   2.060   1.062   1.673
 1433SOL     OW 5197   4.280   0.086   4.581
 1433SOL    HW1 5198   4.194   0.130   4.555
 1433SOL    HW2 5199   4.320   0.041   4.501
 1434SOL     OW 5200   6.833   0.913   6.355
 1434SOL    HW1 5201   6.772   0.848   6.399
 1434SOL    HW2 5202   6.928   0.884   6.367
 1435SOL     OW 5203   0.137   0.735   3.306
 1435SOL    HW1 5204   0.080   0.703   3.382
 1435SOL    HW2 5205   0.174   0.656   3.257
 1436SOL     OW 5206   6.078   3.909   0.124
 1436SOL    HW1 5207   6.163   3.923   0.174
 1436SOL    HW2 5208   6.000   3.936   0.180
 1437SOL     OW 5209   3.334   0.593   5.633
 1437SOL    HW1 5210   3.384   0.508   5.615
 1437SOL    HW2 5211   3.341   0.615   5.731
 1438SOL     OW 5212   2.802   0.332   1.649
 1438SOL    HW1 5213   2.888   0.291   1.678
 1438SOL    HW2 5214   2.765   0.388   1.724
 1439SOL     OW 5215   0.521   5.297   0.945
 1439SOL    HW1 5216   0.496   5.280   1.041
 1439SOL    HW2 5217   0.460   5.365   0.906
 1440SOL     OW 5218   3.519   3.462   5.173
 1440SOL    HW1 5219   3.604   3.499   5.135
 1440SOL    HW2 5220   3.533   3.442   5.270
 1441SOL     OW 5221   6.602   3.606   4.346
 1441SOL    HW1 5222   6.540   3.678   4.317
 1441SOL    HW2 5223   6.550   3.533   4.390
 1442SOL     OW 5224   0.161   4.855   0.285
 1442SOL    HW1 5225   0.081   4.814   0.239
 1442SOL    HW2 5226   0.203   4.786   0.345
 1443SOL     OW 5227   0.869   2.349   4.947
 1443SOL    HW1 5228   0.857   2.392   4.857
 1443SOL    HW2 5229   0.788   2.294   4.968
 1444SOL     OW 5230   4.504   6.031   1.402
 1444SOL    HW1 5231   4.562   6.100   1.445
 1444SOL    HW2 5232   4.412   6.037   1.440
 1445SOL     OW 5233   0.352   2.501   2.702
 1445SOL    HW1 5234   0.413   2.432   2.664
 1445SOL    HW2 5235   0.384   2.592   2.677
 1446SOL     OW 5236   5.034   2.496   6.759
 1446SOL    HW1 5237   5.115   2.457   6.715
 1446SOL    HW2 5238   5.063   2.560   6.830
 1447SOL     OW 5239   6.575   6.772   5.010
 1447SOL    HW1 5240   6.647   6.810   5.067
 1447SOL    HW2 5241   6.533   6.845   4.956
 1448SOL     OW 5242   6.795   2.312   0.308
 1448SOL    HW1 5243   6.782   2.239   0.241
 1448SOL    HW2 5244   6.798   2.400   0.261
 1449SOL     OW 5245   5.989   0.577   6.976
 1449SOL    HW1 5246   6.059   0.557   6.908
 1449SOL    HW2 5247   5.982   0.501   0.018
 1450SOL     OW 5248   0.710   2.471   2.278
 1450SOL    HW1 5249   0.689   2.377   2.250
 1450SOL    HW2 5250   0.710   2.477   2.378
 1451SOL     OW 5251   3.497   0.797   2.119
 1451SOL    HW1 5252   3.470   0.856   2.195
 1451SOL    HW2 5253   3.503   0.850   2.035
 1452SOL     OW 5254   4.324   1.876   4.700
 1452SOL    HW1 5255   4.296   1.896   4.794
 1452SOL    HW2 5256   4.261   1.920   4.637
 1453SOL     OW 5257   6.982   3.227   5.269
 1453SOL    HW1 5258   6.989   3.128   5.264
 1453SOL    HW2 5259   0.040   3.264   5.316
 1454SOL     OW 5260   6.370   2.448   2.560
 1454SOL    HW1 5261   6.383   2.547   2.567
 1454SOL    HW2 5262   6.279   2.425   2.594
 1455SOL     OW 5263   1.824   0.106   2.091
 1455SOL    HW1 5264   1.737   0.076   2.054
 1455SOL    HW2 5265   1.843   0.200   2.061
 1456SOL     OW 5266   6.515   0.159   5.183
 1456SOL    HW1 5267   6.464   0.106   5.251
 1456SOL    HW2 5268   6.606   0.179   5.218
 1457SOL     OW 5269   1.273   6.636   1.256
 1457SOL    HW1 5270   1.357   6.593   1.221
 1457SOL    HW2 5271   1.279   6.735   1.243
 1458SOL     OW 5272   5.273   6.441   4.001
 1458SOL    HW1 5273   5.226   6.526   3.978
 1458SOL    HW2 5274   5.319   6.404   3.920
 1459SOL     OW 5275   3.156   4.679   6.283
 1459SOL    HW1 5276   3.158   4.623   6.200
 1459SOL    HW2 5277   3.177   4.774   6.260
 1460SOL     OW 5278   0.455   5.236   5.992
 1460SOL    HW1 5279   0.535   5.262   5.937
 1460SOL    HW2 5280   0.374   5.236   5.934
 1461SOL     OW 5281   0.364   5.168   3.229
 1461SOL    HW1 5282   0.392   5.125   3.314
 1461SOL    HW2 5283   0.369   5.102   3.154
 1462SOL     OW 5284   0.044   0.833   5.932
 1462SOL    HW1 5285   0.066   0.930   5.934
 1462SOL    HW2 5286   7.019   0.807   6.016
 1463SOL     OW 5287   0.432   5.835   6.111
 1463SOL    HW1 5288   0.382   5.778   6.045
 1463SOL    HW2 5289   0.448   5.925   6.071
 1464SOL     OW 5290   6.442   0.080   0.871
 1464SOL    HW1 5291   6.461   0.177   0.857
 1464SOL    HW2 5292   6.522   0.035   0.912
 1465SOL     OW 5293   2.043   1.666   3.483
 1465SOL    HW1 5294   1.966   1.647   3.422
 1465SOL    HW2 5295   2.125   1.620   3.449
 1466SOL     OW 5296   1.537   0.593   2.810
 1466SOL    HW1 5297   1.542   0.630   2.903
 1466SOL    HW2 5298   1.561   0.665   2.745
 1467SOL     OW 5299   2.683   1.027   1.996
 1467SOL    HW1 5300   2.663   0.970   1.917
 1467SOL    HW2 5301   2.734   0.973   2.063
 1468SOL     OW 5302   5.144   5.790   3.249
 1468SOL    HW1 5303   5.200   5.727   3.302
 1468SOL    HW2 5304   5.196   5.873   3.230
 1469SOL     OW 5305   1.079   0.615   2.256
 1469SOL    HW1 5306   1.082   0.640   2.159
 1469SOL    HW2 5307   1.067   0.698   2.311
 1470SOL     OW 5308   1.860   0.769   3.024
 1470SOL    HW1 5309   1.847   0.868   3.026
 1470SOL    HW2 5310   1.775   0.723   3.050
 1471SOL     OW 5311   0.356   0.429   0.709
 1471SOL    HW1 5312   0.409   0.368   0.767
 1471SOL    HW2 5313   0.263   0.394   0.699
 1472SOL     OW 5314   4.571   5.902   4.835
 1472SOL    HW1 5315   4.491   5.899   4.775
 1472SOL    HW2 5316   4.602   5.997   4.845
 1473SOL     OW 5317   5.971   5.616   3.865
 1473SOL    HW1 5318   5.928   5.600   3.776
 1473SOL    HW2 5319   6.069   5.626   3.854
 1474SOL     OW 5320   6.059   5.952   3.533
 1474SOL    HW1 5321   6.021   5.969   3.442
 1474SOL    HW2 5322   6.077   5.855   3.544
 1475SOL     OW 5323   6.307   0.241   1.465
 1475SOL    HW1 5324   6.267   0.317   1.414
 1475SOL    HW2 5325   6.407   0.243   1.453
 1476SOL     OW 5326   1.691   1.478   1.549
 1476SOL    HW1 5327   1.740   1.408   1.602
 1476SOL    HW2 5328   1.743   1.563   1.551
 1477SOL     OW 5329   2.303   0.377   6.717
 1477SOL    HW1 5330   2.345   0.461   6.752
 1477SOL    HW2 5331   2.362   0.299   6.737
 1478SOL     OW 5332   5.158   4.470   0.510
 1478SOL    HW1 5333   5.114   4.558   0.530
 1478SOL    HW2 5334   5.254   4.485   0.488
 1479SOL     OW 5335   1.596   3.226   0.020
 1479SOL    HW1 5336   1.615   3.318   7.009
 1479SOL    HW2 5337   1.674   3.167   0.002
 1480SOL     OW 5338   2.758   0.086   6.238
 1480SOL    HW1 5339   2.685   0.106   6.304
 1480SOL    HW2 5340   2.839   0.138   6.261
 1481SOL     OW 5341   0.272   1.704   5.551
 1481SOL    HW1 5342   0.249   1.763   5.473
 1481SOL    HW2 5343   0.202   1.714   5.622
 1482SOL     OW 5344   5.116   2.543   1.001
 1482SOL    HW1 5345   5.130   2.565   0.905
 1482SOL    HW2 5346   5.033   2.487   1.010
 1483SOL     OW 5347   6.396   2.153   6.135
 1483SOL    HW1 5348   6.332   2.151   6.212
 1483SOL    HW2 5349   6.425   2.060   6.114
 1484SOL     OW 5350   6.022   4.481   4.117
 1484SOL    HW1 5351   6.061   4.428   4.042
 1484SOL    HW2 5352   6.024   4.578   4.094
 1485SOL     OW 5353   3.856   1.969   2.689
 1485SOL    HW1 5354   3.884   1.882   2.649
 1485SOL    HW2 5355   3.914   1.991   2.767
 1486SOL     OW 5356   4.521   2.441   2.664
 1486SOL    HW1 5357   4.570   2.359   2.693
 1486SOL    HW2 5358   4.501   2.435   2.566
 1487SOL     OW 5359   0.069   2.638   6.788
 1487SOL    HW1 5360   0.028   2.568   6.728
 1487SOL    HW2 5361   0.036   2.624   6.881
 1488SOL     OW 5362   5.534   2.444   3.220
 1488SOL    HW1 5363   5.617   2.429   3.275
 1488SOL    HW2 5364   5.455   2.449   3.281
 1489SOL     OW 5365   3.946   5.261   4.069
 1489SOL    HW1 5366   3.872   5.228   4.011
 1489SOL    HW2 5367   4.011   5.313   4.014
 1490SOL     OW 5368   1.533   2.908   1.465
 1490SOL    HW1 5369   1.522   2.810   1.484
 1490SOL    HW2 5370   1.444   2.954   1.476
 1491SOL     OW 5371   6.085   3.522   4.296
 1491SOL    HW1 5372   6.072   3.617   4.271
 1491SOL    HW2 5373   6.002   3.470   4.275
 1492SOL     OW 5374   5.523   2.187   2.699
 1492SOL    HW1 5375   5.431   2.203   2.664
 1492SOL    HW2 5376   5.520   2.125   2.777
 1493SOL     OW 5377   5.048   0.166   3.847
 1493SOL    HW1 5378   5.140   0.128   3.855
 1493SOL    HW2 5379   4.986   0.098   3.808
 1494SOL     OW 5380   5.068   2.239   5.958
 1494SOL    HW1 5381   5.156   2.261   6.000
 1494SOL    HW2 5382   5.003   2.212   6.029
 1495SOL     OW 5383   6.670   2.697   4.283
 1495SOL    HW1 5384   6.700   2.614   4.237
 1495SOL    HW2 5385   6.688   2.776   4.223
 1496SOL     OW 5386   1.154   1.356   2.662
 1496SOL    HW1 5387   1.153   1.355   2.762
 1496SOL    HW2 5388   1.065   1.387   2.628
 1497SOL     OW 5389   0.426   3.470   2.868
 1497SOL    HW1 5390   0.374   3.508   2.791
 1497SOL    HW2 5391   0.463   3.381   2.842
 1498SOL     OW 5392   1.938   4.364   6.517
 1498SOL    HW1 5393   1.988   4.430   6.573
 1498SOL    HW2 5394   1.917   4.404   6.428
 1499SOL     OW 5395   1.085   3.789   5.436
 1499SOL    HW1 5396   1.123   3.724   5.370
 1499SOL    HW2 5397   1.135   3.783   5.522
 1500SOL     OW 5398   6.267   6.766   0.151
 1500SOL    HW1 5399   6.178   6.737   0.117
 1500SOL    HW2 5400   6.331   6.777   0.075
 1501SOL     OW 5401   5.020   1.199   6.470
 1501SOL    HW1 5402   5.054   1.204   6.376
 1501SOL    HW2 5403   4.959   1.276   6.488
 1502SOL     OW 5404   5.756   6.744   1.203
 1502SOL    HW1 5405   5.804   6.656   1.199
 1502SOL    HW2 5406   5.727   6.770   1.111
 1503SOL     OW 5407   2.824   1.119   2.221
 1503SOL    HW1 5408   2.764   1.193   2.191
 1503SOL    HW2 5409   2.919   1.152   2.222
 1504SOL     OW 5410   1.152   1.477   4.650
 1504SOL    HW1 5411   1.098   1.490   4.733
 1504SOL    HW2 5412   1.133   1.552   4.586
 1505SOL     OW 5413   5.678   0.814   6.526
 1505SOL    HW1 5414   5.585   0.808   6.561
 1505SOL    HW2 5415   5.697   0.908   6.498
 1506SOL     OW 5416   1.725   4.975   1.792
 1506SOL    HW1 5417   1.774   5.061   1.780
 1506SOL    HW2 5418   1.634   4.993   1.830
 1507SOL     OW 5419   0.823   2.269   5.907
 1507SOL    HW1 5420   0.890   2.231   5.971
 1507SOL    HW2 5421   0.756   2.199   5.883
 1508SOL     OW 5422   6.642   0.680   1.643
 1508SOL    HW1 5423   6.696   0.670   1.726
 1508SOL    HW2 5424   6.545   0.684   1.665
 1509SOL     OW 5425   4.618   2.425   6.333
 1509SOL    HW1 5426   4.593   2.520   6.314
 1509SOL    HW2 5427   4.647   2.417   6.429
 1510SOL     OW 5428   5.990   2.656   4.196
 1510SOL    HW1 5429   6.029   2.586   4.256
 1510SOL    HW2 5430   6.063   2.699   4.144
 1511SOL     OW 5431   3.296   2.661   1.430
 1511SOL    HW1 5432   3.275   2.759   1.426
 1511SOL    HW2 5433   3.269   2.625   1.518
 1512SOL     OW 5434   6.986   6.511   2.133
 1512SOL    HW1 5435   6.965   6.425   2.086
 1512SOL    HW2 5436   0.063   6.516   2.149
 1513SOL     OW 5437   4.162   0.552   3.954
 1513SOL    HW1 5438   4.121   0.590   3.871
 1513SOL    HW2 5439   4.199   0.462   3.935
 1514SOL     OW 5440   4.925   2.738   5.688
 1514SOL    HW1 5441   5.021   2.710   5.693
 1514SOL    HW2 5442   4.878   2.712   5.772
 1515SOL     OW 5443   6.640   3.503   5.245
 1515SOL    HW1 5444   6.547   3.496   5.209
 1515SOL    HW2 5445   6.702   3.447   5.190
 1516SOL     OW 5446   0.470   0.488   1.197
 1516SOL    HW1 5447   0.388   0.442   1.163
 1516SOL    HW2 5448   0.519   0.530   1.120
 1517SOL     OW 5449   3.853   5.776   3.325
 1517SOL    HW1 5450   3.939   5.822   3.303
 1517SOL    HW2 5451   3.795   5.772   3.244
 1518SOL     OW 5452   0.720   3.038   0.404
 1518SOL    HW1 5453   0.792   3.043   0.473
 1518SOL    HW2 5454   0.637   3.082   0.440
 1519SOL     OW 5455   0.041   4.575   2.099
 1519SOL    HW1 5456   7.013   4.588   2.014
 1519SOL    HW2 5457   0.089   4.487   2.095
 1520SOL     OW 5458   1.132   3.239   2.589
 1520SOL    HW1 5459   1.176   3.219   2.677
 1520SOL    HW2 5460   1.071   3.165   2.564
 1521SOL     OW 5461   3.003   3.692   0.189
 1521SOL    HW1 5462   2.940   3.764   0.160
 1521SOL    HW2 5463   3.094   3.710   0.151
 1522SOL     OW 5464   6.442   0.800   4.778
 1522SOL    HW1 5465   6.526   0.833   4.735
 1522SOL    HW2 5466   6.363   0.842   4.733
 1523SOL     OW 5467   5.012   4.202   0.420
 1523SOL    HW1 5468   5.057   4.120   0.456
 1523SOL    HW2 5469   5.073   4.281   0.430
 1524SOL     OW 5470   1.019   2.016   2.101
 1524SOL    HW1 5471   1.106   2.031   2.054
 1524SOL    HW2 5472   0.964   2.100   2.097
 1525SOL     OW 5473   6.279   2.214   0.135
 1525SOL    HW1 5474   6.278   2.282   0.208
 1525SOL    HW2 5475   6.191   2.214   0.088
 1526SOL     OW 5476   1.286   0.522   6.767
 1526SOL    HW1 5477   1.307   0.617   6.744
 1526SOL    HW2 5478   1.188   0.514   6.785
 1527SOL     OW 5479   3.709   0.675   5.777
 1527SOL    HW1 5480   3.729   0.724   5.862
 1527SOL    HW2 5481   3.684   0.741   5.706
 1528SOL     OW 5482   5.173   5.915   1.638
 1528SOL    HW1 5483   5.240   5.982   1.670
 1528SOL    HW2 5484   5.148   5.935   1.543
 1529SOL     OW 5485   3.566   0.879   6.928
 1529SOL    HW1 5486   3.569   0.812   7.002
 1529SOL    HW2 5487   3.523   0.839   6.848
 1530SOL     OW 5488   2.634   0.821   1.709
 1530SOL    HW1 5489   2.675   0.733   1.734
 1530SOL    HW2 5490   2.593   0.813   1.618
 1531SOL     OW 5491   5.630   1.391   4.500
 1531SOL    HW1 5492   5.603   1.301   4.466
 1531SOL    HW2 5493   5.730   1.399   4.498
 1532SOL     OW 5494   2.705   3.243   5.984
 1532SOL    HW1 5495   2.706   3.162   6.043
 1532SOL    HW2 5496   2.793   3.253   5.939
 1533SOL     OW 5497   0.190   3.365   0.028
 1533SOL    HW1 5498   0.205   3.267   0.020
 1533SOL    HW2 5499   0.094   3.382   0.050
 1534SOL     OW 5500   0.930   4.769   6.521
 1534SOL    HW1 5501   0.880   4.698   6.472
 1534SOL    HW2 5502   0.899   4.859   6.491
 1535SOL     OW 5503   4.977   6.080   4.281
 1535SOL    HW1 5504   4.900   6.066   4.344
 1535SOL    HW2 5505   4.950   6.055   4.188
 1536SOL     OW 5506   3.849   4.559   5.307
 1536SOL    HW1 5507   3.757   4.524   5.291
 1536SOL    HW2 5508   3.856   4.652   5.271
 1537SOL     OW 5509   3.949   5.875   2.862
 1537SOL    HW1 5510   3.901   5.961   2.846
 1537SOL    HW2 5511   4.031   5.871   2.804
 1538SOL     OW 5512   3.383   5.503   6.254
 1538SOL    HW1 5513   3.376   5.528   6.351
 1538SOL    HW2 5514   3.462   5.550   6.214
 1539SOL     OW 5515   4.322   4.344   1.335
 1539SOL    HW1 5516   4.345   4.390   1.420
 1539SOL    HW2 5517   4.393   4.278   1.312
 1540SOL     OW 5518   1.301   0.332   5.109
 1540SOL    HW1 5519   1.285   0.291   5.199
 1540SOL    HW2 5520   1.289   0.263   5.038
 1541SOL     OW 5521   3.326   3.060   2.049
 1541SOL    HW1 5522   3.229   3.082   2.040
 1541SOL    HW2 5523   3.360   3.097   2.136
 1542SOL     OW 5524   0.334   5.716   1.479
 1542SOL    HW1 5525   0.312   5.785   1.410
 1542SOL    HW2 5526   0.431   5.722   1.503
 1543SOL     OW 5527   2.865   3.565   3.787
 1543SOL    HW1 5528   2.778   3.607   3.813
 1543SOL    HW2 5529   2.940   3.612   3.834
 1544SOL     OW 5530   3.039   3.855   1.975
 1544SOL    HW1 5531   2.990   3.888   2.056
 1544SOL    HW2 5532   3.005   3.764   1.950
 1545SOL     OW 5533   5.473   0.894   4.634
 1545SOL    HW1 5534   5.419   0.925   4.555
 1545SOL    HW2 5535   5.563   0.936   4.632
 1546SOL     OW 5536   5.606   0.586   6.282
 1546SOL    HW1 5537   5.575   0.589   6.377
 1546SOL    HW2 5538   5.642   0.675   6.256
 1547SOL     OW 5539   2.509   4.577   2.549
 1547SOL    HW1 5540   2.585   4.641   2.547
 1547SOL    HW2 5541   2.522   4.512   2.624
 1548SOL     OW 5542   4.963   3.737   5.739
 1548SOL    HW1 5543   5.040   3.675   5.725
 1548SOL    HW2 5544   4.910   3.707   5.818
 1549SOL     OW 5545   5.139   1.884   2.662
 1549SOL    HW1 5546   5.113   1.858   2.569
 1549SOL    HW2 5547   5.235   1.864   2.677
 1550SOL     OW 5548   3.159   5.604   6.119
 1550SOL    HW1 5549   3.202   5.629   6.033
 1550SOL    HW2 5550   3.224   5.555   6.177
 1551SOL     OW 5551   2.398   3.350   0.353
 1551SOL    HW1 5552   2.309   3.313   0.382
 1551SOL    HW2 5553   2.383   3.430   0.295
 1552SOL     OW 5554   0.356   0.219   1.762
 1552SOL    HW1 5555   0.411   0.221   1.846
 1552SOL    HW2 5556   0.415   0.236   1.683
 1553SOL     OW 5557   6.301   1.366   5.919
 1553SOL    HW1 5558   6.336   1.429   5.988
 1553SOL    HW2 5559   6.225   1.314   5.957
 1554SOL     OW 5560   3.334   2.142   2.585
 1554SOL    HW1 5561   3.295   2.198   2.658
 1554SOL    HW2 5562   3.434   2.141   2.594
 1555SOL     OW 5563   5.165   2.053   5.780
 1555SOL    HW1 5564   5.208   1.969   5.812
 1555SOL    HW2 5565   5.135   2.108   5.858
 1556SOL     OW 5566   3.654   0.921   0.285
 1556SOL    HW1 5567   3.585   0.985   0.250
 1556SOL    HW2 5568   3.707   0.965   0.357
 1557SOL     OW 5569   2.455   1.525   0.231
 1557SOL    HW1 5570   2.426   1.445   0.177
 1557SOL    HW2 5571   2.521   1.579   0.178
 1558SOL     OW 5572   5.523   1.682   3.959
 1558SOL    HW1 5573   5.486   1.644   3.874
 1558SOL    HW2 5574   5.550   1.777   3.944
 1559SOL     OW 5575   0.180   2.633   0.729
 1559SOL    HW1 5576   0.207   2.718   0.774
 1559SOL    HW2 5577   0.193   2.642   0.630
 1560SOL     OW 5578   2.778   1.347   6.652
 1560SOL    HW1 5579   2.836   1.335   6.572
 1560SOL    HW2 5580   2.835   1.369   6.732
 1561SOL     OW 5581   5.981   6.274   2.958
 1561SOL    HW1 5582   6.011   6.178   2.955
 1561SOL    HW2 5583   5.887   6.280   2.926
 1562SOL     OW 5584   3.518   6.088   1.081
 1562SOL    HW1 5585   3.480   6.151   1.148
 1562SOL    HW2 5586   3.592   6.035   1.122
 1563SOL     OW 5587   2.253   1.767   5.827
 1563SOL    HW1 5588   2.167   1.818   5.821
 1563SOL    HW2 5589   2.316   1.815   5.888
 1564SOL     OW 5590   1.439   2.366   2.831
 1564SOL    HW1 5591   1.385   2.431   2.884
 1564SOL    HW2 5592   1.397   2.275   2.838
 1565SOL     OW 5593   3.965   5.362   4.317
 1565SOL    HW1 5594   4.042   5.333   4.374
 1565SOL    HW2 5595   3.970   5.315   4.229
 1566SOL     OW 5596   6.633   5.536   4.953
 1566SOL    HW1 5597   6.711   5.594   4.975
 1566SOL    HW2 5598   6.593   5.566   4.866
 1567SOL     OW 5599   6.360   5.726   0.543
 1567SOL    HW1 5600   6.453   5.762   0.533
 1567SOL    HW2 5601   6.296   5.786   0.497
 1568SOL     OW 5602   2.132   6.203   2.437
 1568SOL    HW1 5603   2.207   6.229   2.498
 1568SOL    HW2 5604   2.097   6.284   2.390
 1569SOL     OW 5605   3.851   6.756   3.664
 1569SOL    HW1 5606   3.841   6.685   3.734
 1569SOL    HW2 5607   3.761   6.779   3.627
 1570SOL     OW 5608   1.874   6.255   0.648
 1570SOL    HW1 5609   1.837   6.164   0.669
 1570SOL    HW2 5610   1.889   6.263   0.550
 1571SOL     OW 5611   6.731   1.697   3.194
 1571SOL    HW1 5612   6.664   1.709   3.120
 1571SOL    HW2 5613   6.823   1.712   3.158
 1572SOL     OW 5614   1.927   5.620   0.592
 1572SOL    HW1 5615   1.843   5.619   0.647
 1572SOL    HW2 5616   2.004   5.593   0.649
 1573SOL     OW 5617   6.415   5.097   2.049
 1573SOL    HW1 5618   6.474   5.133   2.121
 1573SOL    HW2 5619   6.430   5.149   1.965
 1574SOL     OW 5620   6.383   2.294   3.347
 1574SOL    HW1 5621   6.460   2.336   3.299
 1574SOL    HW2 5622   6.310   2.273   3.281
 1575SOL     OW 5623   2.528   1.656   1.657
 1575SOL    HW1 5624   2.429   1.653   1.647
 1575SOL    HW2 5625   2.554   1.614   1.744
 1576SOL     OW 5626   0.707   0.148   3.711
 1576SOL    HW1 5627   0.737   0.120   3.620
 1576SOL    HW2 5628   0.779   0.128   3.777
 1577SOL     OW 5629   2.696   0.583   5.920
 1577SOL    HW1 5630   2.652   0.584   6.009
 1577SOL    HW2 5631   2.745   0.669   5.906
 1578SOL     OW 5632   5.091   1.849   5.284
 1578SOL    HW1 5633   5.096   1.754   5.313
 1578SOL    HW2 5634   5.086   1.908   5.365
 1579SOL     OW 5635   0.155   1.733   2.173
 1579SOL    HW1 5636   0.209   1.665   2.123
 1579SOL    HW2 5637   0.143   1.814   2.116
 1580SOL     OW 5638   3.526   4.145   4.011
 1580SOL    HW1 5639   3.438   4.160   4.058
 1580SOL    HW2 5640   3.513   4.156   3.913
 1581SOL     OW 5641   6.480   5.017   5.204
 1581SOL    HW1 5642   6.574   5.005   5.171
 1581SOL    HW2 5643   6.463   5.113   5.222
 1582SOL     OW 5644   2.665   6.418   4.627
 1582SOL    HW1 5645   2.572   6.394   4.601
 1582SOL    HW2 5646   2.715   6.335   4.655
 1583SOL     OW 5647   0.552   5.705   3.558
 1583SOL    HW1 5648   0.455   5.718   3.536
 1583SOL    HW2 5649   0.608   5.764   3.499
 1584SOL     OW 5650   0.884   5.343   5.694
 1584SOL    HW1 5651   0.863   5.313   5.601
 1584SOL    HW2 5652   0.849   5.435   5.708
 1585SOL     OW 5653   4.328   2.209   3.026
 1585SOL    HW1 5654   4.231   2.228   3.043
 1585SOL    HW2 5655   4.379   2.296   3.024
 1586SOL     OW 5656   2.917   5.166   2.176
 1586SOL    HW1 5657   2.862   5.167   2.092
 1586SOL    HW2 5658   2.971   5.082   2.179
 1587SOL     OW 5659   2.735   5.654   5.978
 1587SOL    HW1 5660   2.806   5.674   6.045
 1587SOL    HW2 5661   2.754   5.703   5.893
 1588SOL     OW 5662   4.652   1.239   1.709
 1588SOL    HW1 5663   4.677   1.335   1.714
 1588SOL    HW2 5664   4.634   1.204   1.801
 1589SOL     OW 5665   6.964   3.199   2.498
 1589SOL    HW1 5666   6.990   3.287   2.539
 1589SOL    HW2 5667   6.985   3.125   2.563
 1590SOL     OW 5668   4.855   0.484   3.916
 1590SOL    HW1 5669   4.829   0.552   3.985
 1590SOL    HW2 5670   4.785   0.413   3.912
 1591SOL     OW 5671   0.109   5.615   1.067
 1591SOL    HW1 5672   0.061   5.596   0.981
 1591SOL    HW2 5673   0.180   5.684   1.051
 1592SOL     OW 5674   2.354   3.768   6.415
 1592SOL    HW1 5675   2.421   3.825   6.368
 1592SOL    HW2 5676   2.396   3.680   6.437
 1593SOL     OW 5677   1.263   0.129   4.946
 1593SOL    HW1 5678   1.320   0.139   4.865
 1593SOL    HW2 5679   1.204   0.049   4.935
 1594SOL     OW 5680   0.281   6.113   1.968
 1594SOL    HW1 5681   0.320   6.034   1.922
 1594SOL    HW2 5682   0.231   6.084   2.049
 1595SOL     OW 5683   0.766   4.944   0.806
 1595SOL    HW1 5684   0.850   4.981   0.845
 1595SOL    HW2 5685   0.753   4.980   0.714
 1596SOL     OW 5686   6.777   3.559   3.659
 1596SOL    HW1 5687   6.700   3.529   3.717
 1596SOL    HW2 5688   6.814   3.644   3.696
 1597SOL     OW 5689   1.226   5.817   1.371
 1597SOL    HW1 5690   1.211   5.718   1.374
 1597SOL    HW2 5691   1.150   5.861   1.324
 1598SOL     OW 5692   0.251   4.417   6.360
 1598SOL    HW1 5693   0.165   4.381   6.324
 1598SOL    HW2 5694   0.321   4.346   6.356
 1599SOL     OW 5695   5.772   5.594   5.005
 1599SOL    HW1 5696   5.834   5.519   5.030
 1599SOL    HW2 5697   5.681   5.557   4.986
 1600SOL     OW 5698   2.972   1.600   3.751
 1600SOL    HW1 5699   3.054   1.631   3.798
 1600SOL    HW2 5700   2.921   1.679   3.718
 1601SOL     OW 5701   6.296   6.869   3.982
 1601SOL    HW1 5702   6.344   6.791   3.942
 1601SOL    HW2 5703   6.200   6.846   3.997
 1602SOL     OW 5704   4.336   4.602   3.882
 1602SOL    HW1 5705   4.237   4.591   3.896
 1602SOL    HW2 5706   4.352   4.680   3.821
 1603SOL     OW 5707   1.958   5.724   3.344
 1603SOL    HW1 5708   1.887   5.742   3.277
 1603SOL    HW2 5709   1.938   5.774   3.428
 1604SOL     OW 5710   4.843   4.479   1.704
 1604SOL    HW1 5711   4.842   4.423   1.787
 1604SOL    HW2 5712   4.781   4.441   1.636
 1605SOL     OW 5713   6.290   5.528   2.261
 1605SOL    HW1 5714   6.323   5.537   2.167
 1605SOL    HW2 5715   6.219   5.458   2.264
 1606SOL     OW 5716   4.063   6.093   5.896
 1606SOL    HW1 5717   4.138   6.157   5.880
 1606SOL    HW2 5718   4.099   5.999   5.893
 1607SOL     OW 5719   3.796   6.867   0.540
 1607SOL    HW1 5720   3.737   6.895   0.616
 1607SOL    HW2 5721   3.764   6.910   0.455
 1608SOL     OW 5722   0.380   0.935   3.514
 1608SOL    HW1 5723   0.425   0.999   3.577
 1608SOL    HW2 5724   0.281   0.936   3.530
 1609SOL     OW 5725   4.065   0.062   0.335
 1609SOL    HW1 5726   3.976   0.034   0.298
 1609SOL    HW2 5727   4.083   0.157   0.309
 1610SOL     OW 5728   5.912   5.387   0.521
 1610SOL    HW1 5729   5.994   5.336   0.546
 1610SOL    HW2 5730   5.864   5.338   0.448
 1611SOL     OW 5731   2.606   3.059   0.330
 1611SOL    HW1 5732   2.631   2.964   0.313
 1611SOL    HW2 5733   2.533   3.086   0.266
 1612SOL     OW 5734   3.025   0.528   0.500
 1612SOL    HW1 5735   3.104   0.587   0.483
 1612SOL    HW2 5736   3.056   0.438   0.531
 1613SOL     OW 5737   1.508   4.979   1.961
 1613SOL    HW1 5738   1.507   5.075   1.990
 1613SOL    HW2 5739   1.508   4.920   2.042
 1614SOL     OW 5740   5.362   1.730   6.575
 1614SOL    HW1 5741   5.263   1.734   6.588
 1614SOL    HW2 5742   5.382   1.693   6.485
 1615SOL     OW 5743   6.410   5.455   0.230
 1615SOL    HW1 5744   6.364   5.535   0.191
 1615SOL    HW2 5745   6.370   5.372   0.192
 1616SOL     OW 5746   3.679   0.708   4.743
 1616SOL    HW1 5747   3.775   0.733   4.756
 1616SOL    HW2 5748   3.650   0.647   4.817
 1617SOL     OW 5749   5.604   6.129   2.994
 1617SOL    HW1 5750   5.671   6.130   2.920
 1617SOL    HW2 5751   5.648   6.096   3.078
 1618SOL     OW 5752   1.868   6.395   3.258
 1618SOL    HW1 5753   1.871   6.297   3.277
 1618SOL    HW2 5754   1.774   6.427   3.259
 1619SOL     OW 5755   0.431   4.332   1.478
 1619SOL    HW1 5756   0.356   4.384   1.519
 1619SOL    HW2 5757   0.404   4.236   1.468
 1620SOL     OW 5758   3.120   4.839   1.356
 1620SOL    HW1 5759   3.087   4.900   1.284
 1620SOL    HW2 5760   3.053   4.835   1.430
 1621SOL     OW 5761   6.396   1.148   0.654
 1621SOL    HW1 5762   6.317   1.120   0.709
 1621SOL    HW2 5763   6.470   1.178   0.714
 1622SOL     OW 5764   0.441   3.270   5.469
 1622SOL    HW1 5765   0.385   3.210   5.525
 1622SOL    HW2 5766   0.528   3.288   5.514
 1623SOL     OW 5767   0.747   2.793   5.002
 1623SOL    HW1 5768   0.760   2.707   5.053
 1623SOL    HW2 5769   0.835   2.822   4.964
 1624SOL     OW 5770   3.805   1.249   5.144
 1624SOL    HW1 5771   3.742   1.236   5.067
 1624SOL    HW2 5772   3.818   1.347   5.159
 1625SOL     OW 5773   1.236   4.695   0.375
 1625SOL    HW1 5774   1.287   4.749   0.308
 1625SOL    HW2 5775   1.299   4.629   0.418
 1626SOL     OW 5776   3.513   1.125   0.908
 1626SOL    HW1 5777   3.484   1.128   1.003
 1626SOL    HW2 5778   3.475   1.043   0.864
 1627SOL     OW 5779   5.797   3.405   4.141
 1627SOL    HW1 5780   5.879   3.362   4.103
 1627SOL    HW2 5781   5.802   3.504   4.127
 1628SOL     OW 5782   4.623   5.136   6.970
 1628SOL    HW1 5783   4.631   5.130   0.047
 1628SOL    HW2 5784   4.710   5.165   6.931
 1629SOL     OW 5785   2.922   1.047   3.826
 1629SOL    HW1 5786   3.010   1.057   3.778
 1629SOL    HW2 5787   2.896   0.951   3.827
 1630SOL     OW 5788   0.437   4.815   6.230
 1630SOL    HW1 5789   0.431   4.740   6.296
 1630SOL    HW2 5790   0.382   4.892   6.263
 1631SOL     OW 5791   1.074   2.500   0.673
 1631SOL    HW1 5792   1.162   2.546   0.685
 1631SOL    HW2 5793   1.086   2.419   0.616
 1632SOL     OW 5794   5.614   2.616   1.564
 1632SOL    HW1 5795   5.625   2.563   1.479
 1632SOL    HW2 5796   5.526   2.593   1.606
 1633SOL     OW 5797   4.825   3.920   4.478
 1633SOL    HW1 5798   4.746   3.875   4.520
 1633SOL    HW2 5799   4.816   3.917   4.379
 1634SOL     OW 5800   5.018   5.880   4.632
 1634SOL    HW1 5801   5.013   5.780   4.636
 1634SOL    HW2 5802   5.010   5.918   4.725
 1635SOL     OW 5803   0.723   5.324   6.796
 1635SOL    HW1 5804   0.814   5.295   6.768
 1635SOL    HW2 5805   0.707   5.418   6.766
 1636SOL     OW 5806   3.036   4.701   0.943
 1636SOL    HW1 5807   3.032   4.657   1.033
 1636SOL    HW2 5808   3.105   4.655   0.887
 1637SOL     OW 5809   6.836   0.391   3.703
 1637SOL    HW1 5810   6.800   0.484   3.713
 1637SOL    HW2 5811   6.804   0.335   3.779
 1638SOL     OW 5812   0.185   3.409   2.681
 1638SOL    HW1 5813   0.119   3.417   2.755
 1638SOL    HW2 5814   0.201   3.499   2.640
 1639SOL     OW 5815   5.417   5.423   1.382
 1639SOL    HW1 5816   5.488   5.493   1.387
 1639SOL    HW2 5817   5.423   5.375   1.295
 1640SOL     OW 5818   5.594   6.880   6.901
 1640SOL    HW1 5819   5.559   6.892   6.995
 1640SOL    HW2 5820   5.653   6.799   6.897
 1641SOL     OW 5821   5.002   2.105   2.626
 1641SOL    HW1 5822   5.046   2.019   2.652
 1641SOL    HW2 5823   4.975   2.154   2.709
 1642SOL     OW 5824   0.111   3.590   0.274
 1642SOL    HW1 5825   0.192   3.578   0.217
 1642SOL    HW2 5826   0.071   3.680   0.257
 1643SOL     OW 5827   2.858   4.822   4.454
 1643SOL    HW1 5828   2.918   4.844   4.531
 1643SOL    HW2 5829   2.791   4.754   4.482
 1644SOL     OW 5830   5.835   4.218   0.135
 1644SOL    HW1 5831   5.755   4.272   0.113
 1644SOL    HW2 5832   5.807   4.134   0.183
 1645SOL     OW 5833   2.914   5.388   6.350
 1645SOL    HW1 5834   2.878   5.366   6.441
 1645SOL    HW2 5835   2.839   5.390   6.284
 1646SOL     OW 5836   1.642   6.593   0.934
 1646SOL    HW1 5837   1.636   6.514   0.873
 1646SOL    HW2 5838   1.728   6.642   0.917
 1647SOL     OW 5839   5.907   3.213   4.610
 1647SOL    HW1 5840   5.946   3.285   4.552
 1647SOL    HW2 5841   5.915   3.125   4.563
 1648SOL     OW 5842   5.204   5.609   0.507
 1648SOL    HW1 5843   5.121   5.618   0.562
 1648SOL    HW2 5844   5.220   5.694   0.455
 1649SOL     OW 5845   3.534   1.366   4.433
 1649SOL    HW1 5846   3.589   1.291   4.398
 1649SOL    HW2 5847   3.593   1.442   4.458
 1650SOL     OW 5848   0.730   5.954   4.762
 1650SOL    HW1 5849   0.760   5.946   4.667
 1650SOL    HW2 5850   0.759   5.873   4.813
 1651SOL     OW 5851   0.306   2.104   1.907
 1651SOL    HW1 5852   0.386   2.152   1.872
 1651SOL    HW2 5853   0.280   2.031   1.844
 1652SOL     OW 5854   1.285   2.943   2.860
 1652SOL    HW1 5855   1.256   3.035   2.834
 1652SOL    HW2 5856   1.375   2.924   2.820
 1653SOL     OW 5857   0.690   6.250   0.001
 1653SOL    HW1 5858   0.715   6.247   6.926
 1653SOL    HW2 5859   0.710   6.161   0.043
 1654SOL     OW 5860   6.986   3.651   1.586
 1654SOL    HW1 5861   6.922   3.585   1.626
 1654SOL    HW2 5862   0.057   3.618   1.597
 1655SOL     OW 5863   0.198   2.456   4.725
 1655SOL    HW1 5864   0.203   2.405   4.639
 1655SOL    HW2 5865   0.155   2.545   4.709
 1656SOL     OW 5866   2.372   4.941   3.252
 1656SOL    HW1 5867   2.409   5.023   3.293
 1656SOL    HW2 5868   2.406   4.932   3.158
 1657SOL     OW 5869   5.725   1.328   4.211
 1657SOL    HW1 5870   5.745   1.233   4.233
 1657SOL    HW2 5871   5.762   1.388   4.282
 1658SOL     OW 5872   5.433   0.896   1.477
 1658SOL    HW1 5873   5.333   0.898   1.471
 1658SOL    HW2 5874   5.461   0.921   1.570
 1659SOL     OW 5875   3.123   0.497   6.731
 1659SOL    HW1 5876   3.091   0.408   6.699
 1659SOL    HW2 5877   3.057   0.568   6.703
 1660SOL     OW 5878   1.827   5.907   2.951
 1660SOL    HW1 5879   1.905   5.917   2.888
 1660SOL    HW2 5880   1.749   5.870   2.901
 1661SOL     OW 5881   2.242   6.524   1.043
 1661SOL    HW1 5882   2.266   6.520   0.946
 1661SOL    HW2 5883   2.153   6.479   1.056
 1662SOL     OW 5884   0.146   1.470   3.966
 1662SOL    HW1 5885   0.221   1.532   3.989
 1662SOL    HW2 5886   0.114   1.490   3.873
 1663SOL     OW 5887   4.269   5.864   2.988
 1663SOL    HW1 5888   4.298   5.788   2.930
 1663SOL    HW2 5889   4.267   5.948   2.934
 1664SOL     OW 5890   2.699   6.259   5.312
 1664SOL    HW1 5891   2.717   6.233   5.217
 1664SOL    HW2 5892   2.609   6.226   5.339
 1665SOL     OW 5893   6.300   2.874   2.425
 1665SOL    HW1 5894   6.271   2.845   2.334
 1665SOL    HW2 5895   6.222   2.871   2.488
 1666SOL     OW 5896   5.031   1.549   6.564
 1666SOL    HW1 5897   4.939   1.512   6.551
 1666SOL    HW2 5898   5.047   1.622   6.498
 1667SOL     OW 5899   0.111   6.871   1.025
 1667SOL    HW1 5900   0.113   6.804   1.099
 1667SOL    HW2 5901   0.033   6.852   0.965
 1668SOL     OW 5902   5.140   5.540   3.979
 1668SOL    HW1 5903   5.108   5.621   3.930
 1668SOL    HW2 5904   5.152   5.465   3.914
 1669SOL     OW 5905   6.401   4.592   5.818
 1669SOL    HW1 5906   6.482   4.648   5.836
 1669SOL    HW2 5907   6.320   4.638   5.853
 1670SOL     OW 5908   6.843   4.328   5.378
 1670SOL    HW1 5909   6.778   4.273   5.325
 1670SOL    HW2 5910   6.838   4.302   5.475
 1671SOL     OW 5911   5.233   1.843   3.146
 1671SOL    HW1 5912   5.187   1.902   3.080
 1671SOL    HW2 5913   5.278   1.767   3.098
 1672SOL     OW 5914   1.437   3.684   1.439
 1672SOL    HW1 5915   1.459   3.759   1.377
 1672SOL    HW2 5916   1.458   3.597   1.395
 1673SOL     OW 5917   1.092   1.594   5.128
 1673SOL    HW1 5918   1.047   1.676   5.164
 1673SOL    HW2 5919   1.109   1.530   5.204
 1674SOL     OW 5920   0.703   2.871   2.561
 1674SOL    HW1 5921   0.640   2.848   2.488
 1674SOL    HW2 5922   0.699   2.969   2.580
 1675SOL     OW 5923   4.804   0.180   0.303
 1675SOL    HW1 5924   4.769   0.106   0.360
 1675SOL    HW2 5925   4.893   0.154   0.266
 1676SOL     OW 5926   2.437   2.401   1.537
 1676SOL    HW1 5927   2.473   2.310   1.557
 1676SOL    HW2 5928   2.359   2.420   1.597
 1677SOL     OW 5929   3.011   3.136   3.924
 1677SOL    HW1 5930   2.957   3.220   3.924
 1677SOL    HW2 5931   3.024   3.105   4.018
 1678SOL     OW 5932   6.555   4.429   2.804
 1678SOL    HW1 5933   6.516   4.521   2.795
 1678SOL    HW2 5934   6.624   4.415   2.733
 1679SOL     OW 5935   2.342   2.206   4.784
 1679SOL    HW1 5936   2.302   2.129   4.734
 1679SOL    HW2 5937   2.336   2.288   4.728
 1680SOL     OW 5938   0.559   2.780   5.555
 1680SOL    HW1 5939   0.554   2.681   5.541
 1680SOL    HW2 5940   0.472   2.822   5.531
 1681SOL     OW 5941   0.537   4.807   0.063
 1681SOL    HW1 5942   0.572   4.858   7.006
 1681SOL    HW2 5943   0.447   4.770   0.041
 1682SOL     OW 5944   1.947   1.001   5.794
 1682SOL    HW1 5945   1.888   1.080   5.811
 1682SOL    HW2 5946   2.016   1.025   5.725
 1683SOL     OW 5947   5.672   5.267   2.568
 1683SOL    HW1 5948   5.757   5.259   2.620
 1683SOL    HW2 5949   5.693   5.299   2.475
 1684SOL     OW 5950   0.910   6.362   2.262
 1684SOL    HW1 5951   0.885   6.397   2.352
 1684SOL    HW2 5952   1.006   6.335   2.261
 1685SOL     OW 5953   1.778   1.288   5.695
 1685SOL    HW1 5954   1.803   1.311   5.601
 1685SOL    HW2 5955   1.839   1.336   5.758
 1686SOL     OW 5956   2.591   6.298   4.198
 1686SOL    HW1 5957   2.521   6.370   4.195
 1686SOL    HW2 5958   2.682   6.339   4.189
 1687SOL     OW 5959   1.366   3.094   1.774
 1687SOL    HW1 5960   1.464   3.113   1.784
 1687SOL    HW2 5961   1.319   3.117   1.859
 1688SOL     OW 5962   2.323   2.008   3.638
 1688SOL    HW1 5963   2.314   1.909   3.629
 1688SOL    HW2 5964   2.420   2.032   3.648
 1689SOL     OW 5965   6.250   0.619   3.109
 1689SOL    HW1 5966   6.223   0.675   3.031
 1689SOL    HW2 5967   6.188   0.635   3.185
 1690SOL     OW 5968   1.307   2.559   4.425
 1690SOL    HW1 5969   1.398   2.571   4.467
 1690SOL    HW2 5970   1.237   2.593   4.488
 1691SOL     OW 5971   5.127   3.063   3.415
 1691SOL    HW1 5972   5.068   2.993   3.454
 1691SOL    HW2 5973   5.105   3.152   3.454
 1692SOL     OW 5974   5.164   6.268   1.090
 1692SOL    HW1 5975   5.075   6.308   1.067
 1692SOL    HW2 5976   5.228   6.340   1.115
 1693SOL     OW 5977   6.082   1.871   2.761
 1693SOL    HW1 5978   6.097   1.888   2.664
 1693SOL    HW2 5979   6.143   1.798   2.792
 1694SOL     OW 5980   5.446   1.640   3.233
 1694SOL    HW1 5981   5.525   1.579   3.238
 1694SOL    HW2 5982   5.413   1.659   3.325
 1695SOL     OW 5983   4.183   0.605   6.217
 1695SOL    HW1 5984   4.265   0.618   6.273
 1695SOL    HW2 5985   4.146   0.694   6.191
 1696SOL     OW 5986   4.221   6.184   1.110
 1696SOL    HW1 5987   4.281   6.202   1.188
 1696SOL    HW2 5988   4.268   6.209   1.026
 1697SOL     OW 5989   6.195   1.472   0.614
 1697SOL    HW1 5990   6.170   1.445   0.706
 1697SOL    HW2 5991   6.274   1.533   0.617
 1698SOL     OW 5992   3.527   7.006   0.445
 1698SOL    HW1 5993   3.471   0.054   0.401
 1698SOL    HW2 5994   3.594   0.027   0.506
 1699SOL     OW 5995   2.202   1.183   6.863
 1699SOL    HW1 5996   2.287   1.139   6.834
 1699SOL    HW2 5997   2.157   1.127   6.932
 1700SOL     OW 5998   6.571   4.614   3.507
 1700SOL    HW1 5999   6.648   4.634   3.567
 1700SOL    HW2 6000   6.551   4.694   3.450
 1701SOL     OW 6001   5.709   4.796   6.061
 1701SOL    HW1 6002   5.612   4.807   6.036
 1701SOL    HW2 6003   5.765   4.858   6.006
 1702SOL     OW 6004   6.432   1.237   1.223
 1702SOL    HW1 6005   6.532   1.228   1.228
 1702SOL    HW2 6006   6.396   1.164   1.165
 1703SOL     OW 6007   3.383   1.564   0.312
 1703SOL    HW1 6008   3.455   1.597   0.373
 1703SOL    HW2 6009   3.306   1.628   0.314
 1704SOL     OW 6010   0.657   1.809   0.521
 1704SOL    HW1 6011   0.719   1.850   0.588
 1704SOL    HW2 6012   0.648   1.870   0.442
 1705SOL     OW 6013   3.011   2.091   2.204
 1705SOL    HW1 6014   3.066   2.028   2.149
 1705SOL    HW2 6015   2.981   2.167   2.147
 1706SOL     OW 6016   5.312   1.478   1.641
 1706SOL    HW1 6017   5.262   1.516   1.563
 1706SOL    HW2 6018   5.386   1.419   1.607
 1707SOL     OW 6019   4.235   2.237   2.561
 1707SOL    HW1 6020   4.145   2.216   2.522
 1707SOL    HW2 6021   4.265   2.326   2.526
 1708SOL     OW 6022   4.938   5.805   1.775
 1708SOL    HW1 6023   5.002   5.824   1.700
 1708SOL    HW2 6024   4.872   5.880   1.783
 1709SOL     OW 6025   3.339   6.638   2.997
 1709SOL    HW1 6026   3.261   6.618   2.938
 1709SOL    HW2 6027   3.340   6.576   3.075
 1710SOL     OW 6028   4.676   4.711   3.699
 1710SOL    HW1 6029   4.684   4.739   3.795
 1710SOL    HW2 6030   4.615   4.773   3.651
 1711SOL     OW 6031   1.919   4.975   4.804
 1711SOL    HW1 6032   1.890   4.942   4.894
 1711SOL    HW2 6033   1.864   4.931   4.733
 1712SOL     OW 6034   6.555   3.035   4.219
 1712SOL    HW1 6035   6.535   3.033   4.317
 1712SOL    HW2 6036   6.643   2.990   4.203
 1713SOL     OW 6037   4.702   2.535   1.956
 1713SOL    HW1 6038   4.791   2.506   1.920
 1713SOL    HW2 6039   4.644   2.454   1.968
 1714SOL     OW 6040   3.453   1.266   6.330
 1714SOL    HW1 6041   3.361   1.298   6.306
 1714SOL    HW2 6042   3.520   1.306   6.267
 1715SOL     OW 6043   2.346   5.276   3.205
 1715SOL    HW1 6044   2.291   5.232   3.135
 1715SOL    HW2 6045   2.306   5.365   3.229
 1716SOL     OW 6046   4.239   6.886   2.785
 1716SOL    HW1 6047   4.309   6.815   2.791
 1716SOL    HW2 6048   4.148   6.844   2.788
 1717SOL     OW 6049   2.999   5.655   5.092
 1717SOL    HW1 6050   3.096   5.668   5.071
 1717SOL    HW2 6051   2.972   5.717   5.166
 1718SOL     OW 6052   3.256   0.947   1.935
 1718SOL    HW1 6053   3.352   0.950   1.907
 1718SOL    HW2 6054   3.224   1.040   1.954
 1719SOL     OW 6055   2.002   2.740   1.069
 1719SOL    HW1 6056   1.979   2.801   0.994
 1719SOL    HW2 6057   1.956   2.770   1.153
 1720SOL     OW 6058   0.127   3.205   0.314
 1720SOL    HW1 6059   0.169   3.178   0.400
 1720SOL    HW2 6060   0.153   3.140   0.242
 1721SOL     OW 6061   1.767   6.413   1.520
 1721SOL    HW1 6062   1.677   6.368   1.516
 1721SOL    HW2 6063   1.800   6.410   1.614
 1722SOL     OW 6064   2.975   1.624   4.207
 1722SOL    HW1 6065   3.043   1.590   4.142
 1722SOL    HW2 6066   3.000   1.595   4.299
 1723SOL     OW 6067   6.445   2.331   0.415
 1723SOL    HW1 6068   6.446   2.249   0.358
 1723SOL    HW2 6069   6.510   2.321   0.490
 1724SOL     OW 6070   0.348   2.855   2.185
 1724SOL    HW1 6071   0.323   2.905   2.102
 1724SOL    HW2 6072   0.305   2.764   2.184
 1725SOL     OW 6073   1.946   4.692   6.157
 1725SOL    HW1 6074   1.881   4.748   6.106
 1725SOL    HW2 6075   2.038   4.705   6.120
 1726SOL     OW 6076   5.796   4.588   5.205
 1726SOL    HW1 6077   5.782   4.495   5.170
 1726SOL    HW2 6078   5.822   4.584   5.301
 1727SOL     OW 6079   3.647   2.938   3.594
 1727SOL    HW1 6080   3.706   2.913   3.671
 1727SOL    HW2 6081   3.553   2.912   3.615
 1728SOL     OW 6082   5.921   5.889   5.205
 1728SOL    HW1 6083   5.995   5.938   5.250
 1728SOL    HW2 6084   5.837   5.900   5.257
 1729SOL     OW 6085   2.161   3.869   3.454
 1729SOL    HW1 6086   2.063   3.882   3.469
 1729SOL    HW2 6087   2.180   3.771   3.441
 1730SOL     OW 6088   2.080   0.194   5.120
 1730SOL    HW1 6089   2.078   0.289   5.152
 1730SOL    HW2 6090   2.134   0.188   5.036
 1731SOL     OW 6091   0.653   4.200   4.065
 1731SOL    HW1 6092   0.637   4.181   3.968
 1731SOL    HW2 6093   0.737   4.253   4.075
 1732SOL     OW 6094   2.298   4.939   5.929
 1732SOL    HW1 6095   2.268   4.845   5.915
 1732SOL    HW2 6096   2.267   4.971   6.018
 1733SOL     OW 6097   1.662   4.100   1.502
 1733SOL    HW1 6098   1.685   4.197   1.515
 1733SOL    HW2 6099   1.736   4.055   1.453
 1734SOL     OW 6100   4.538   3.051   1.264
 1734SOL    HW1 6101   4.452   3.075   1.309
 1734SOL    HW2 6102   4.581   3.134   1.229
 1735SOL     OW 6103   4.458   5.518   6.328
 1735SOL    HW1 6104   4.490   5.472   6.246
 1735SOL    HW2 6105   4.456   5.617   6.313
 1736SOL     OW 6106   3.500   3.836   1.085
 1736SOL    HW1 6107   3.561   3.765   1.121
 1736SOL    HW2 6108   3.440   3.867   1.158
 1737SOL     OW 6109   4.788   0.853   4.812
 1737SOL    HW1 6110   4.716   0.784   4.815
 1737SOL    HW2 6111   4.813   0.872   4.717
 1738SOL     OW 6112   1.888   2.818   4.609
 1738SOL    HW1 6113   1.910   2.810   4.511
 1738SOL    HW2 6114   1.936   2.746   4.660
 1739SOL     OW 6115   0.189   1.882   5.243
 1739SOL    HW1 6116   0.132   1.934   5.307
 1739SOL    HW2 6117   0.279   1.924   5.236
 1740SOL     OW 6118   0.088   2.233   5.067
 1740SOL    HW1 6119   0.145   2.157   5.034
 1740SOL    HW2 6120   0.128   2.269   5.151
 1741SOL     OW 6121   2.495   0.206   4.414
 1741SOL    HW1 6122   2.444   0.198   4.329
 1741SOL    HW2 6123   2.436   0.243   4.486
 1742SOL     OW 6124   6.214   0.661   5.686
 1742SOL    HW1 6125   6.303   0.685   5.725
 1742SOL    HW2 6126   6.214   0.565   5.658
 1743SOL     OW 6127   0.765   2.162   2.247
 1743SOL    HW1 6128   0.806   2.164   2.338
 1743SOL    HW2 6129   0.743   2.067   2.222
 1744SOL     OW 6130   6.164   3.505   3.365
 1744SOL    HW1 6131   6.123   3.569   3.300
 1744SOL    HW2 6132   6.092   3.469   3.425
 1745SOL     OW 6133   5.420   5.818   2.350
 1745SOL    HW1 6134   5.436   5.721   2.369
 1745SOL    HW2 6135   5.421   5.869   2.436
 1746SOL     OW 6136   1.379   4.361   4.355
 1746SOL    HW1 6137   1.407   4.274   4.315
 1746SOL    HW2 6138   1.361   4.427   4.282
 1747SOL     OW 6139   4.391   1.640   2.483
 1747SOL    HW1 6140   4.375   1.568   2.551
 1747SOL    HW2 6141   4.331   1.718   2.502
 1748SOL     OW 6142   0.273   2.030   4.990
 1748SOL    HW1 6143   0.332   2.037   4.910
 1748SOL    HW2 6144   0.273   1.936   5.024
 1749SOL     OW 6145   2.298   6.920   5.639
 1749SOL    HW1 6146   2.315   6.891   5.545
 1749SOL    HW2 6147   2.258   7.012   5.640
 1750SOL     OW 6148   5.105   6.096   3.726
 1750SOL    HW1 6149   5.032   6.164   3.725
 1750SOL    HW2 6150   5.096   6.038   3.645
 1751SOL     OW 6151   3.987   1.532   4.351
 1751SOL    HW1 6152   3.943   1.557   4.265
 1751SOL    HW2 6153   4.028   1.613   4.392
 1752SOL     OW 6154   6.363   0.951   2.361
 1752SOL    HW1 6155   6.367   0.971   2.459
 1752SOL    HW2 6156   6.401   0.861   2.344
 1753SOL     OW 6157   0.031   0.811   1.423
 1753SOL    HW1 6158   0.108   0.832   1.483
 1753SOL    HW2 6159   7.018   0.896   1.383
 1754SOL     OW 6160   1.604   4.595   6.845
 1754SOL    HW1 6161   1.601   4.654   6.926
 1754SOL    HW2 6162   1.545   4.635   6.774
 1755SOL     OW 6163   0.132   5.631   0.228
 1755SOL    HW1 6164   0.215   5.687   0.229
 1755SOL    HW2 6165   0.127   5.580   0.142
 1756SOL     OW 6166   4.112   5.192   5.241
 1756SOL    HW1 6167   4.115   5.146   5.152
 1756SOL    HW2 6168   4.204   5.219   5.268
 1757SOL     OW 6169   2.842   5.268   5.045
 1757SOL    HW1 6170   2.755   5.222   5.026
 1757SOL    HW2 6171   2.825   5.350   5.099
 1758SOL     OW 6172   2.035   1.231   4.426
 1758SOL    HW1 6173   2.026   1.297   4.352
 1758SOL    HW2 6174   2.131   1.222   4.452
 1759SOL     OW 6175   2.758   5.984   5.859
 1759SOL    HW1 6176   2.721   5.935   5.781
 1759SOL    HW2 6177   2.858   5.978   5.859
 1760SOL     OW 6178   5.839   0.645   3.176
 1760SOL    HW1 6179   5.885   0.730   3.151
 1760SOL    HW2 6180   5.763   0.664   3.238
 1761SOL     OW 6181   0.359   0.915   1.509
 1761SOL    HW1 6182   0.294   0.931   1.584
 1761SOL    HW2 6183   0.451   0.942   1.538
 1762SOL     OW 6184   0.457   0.906   4.406
 1762SOL    HW1 6185   0.521   0.857   4.347
 1762SOL    HW2 6186   0.382   0.845   4.432
 1763SOL     OW 6187   0.718   4.639   4.612
 1763SOL    HW1 6188   0.708   4.576   4.688
 1763SOL    HW2 6189   0.629   4.676   4.587
 1764SOL     OW 6190   2.083   3.129   2.200
 1764SOL    HW1 6191   2.118   3.201   2.140
 1764SOL    HW2 6192   1.983   3.134   2.203
 1765SOL     OW 6193   4.330   0.548   1.594
 1765SOL    HW1 6194   4.269   0.607   1.542
 1765SOL    HW2 6195   4.423   0.585   1.589
 1766SOL     OW 6196   5.551   4.981   3.575
 1766SOL    HW1 6197   5.483   5.051   3.555
 1766SOL    HW2 6198   5.607   5.011   3.652
 1767SOL     OW 6199   0.893   4.368   2.921
 1767SOL    HW1 6200   0.982   4.394   2.884
 1767SOL    HW2 6201   0.835   4.449   2.928
 1768SOL     OW 6202   3.371   0.827   6.675
 1768SOL    HW1 6203   3.315   0.838   6.592
 1768SOL    HW2 6204   3.418   0.739   6.672
 1769SOL     OW 6205   5.425   1.259   6.861
 1769SOL    HW1 6206   5.428   1.358   6.850
 1769SOL    HW2 6207   5.382   1.218   6.781
 1770SOL     OW 6208   6.689   5.078   4.973
 1770SOL    HW1 6209   6.680   5.025   4.889
 1770SOL    HW2 6210   6.777   5.058   5.016
 1771SOL     OW 6211   1.564   4.819   0.634
 1771SOL    HW1 6212   1.526   4.911   0.626
 1771SOL    HW2 6213   1.663   4.823   0.627
 1772SOL     OW 6214   3.665   5.904   3.487
 1772SOL    HW1 6215   3.733   5.857   3.431
 1772SOL    HW2 6216   3.642   5.849   3.567
 1773SOL     OW 6217   2.766   2.639   5.832
 1773SOL    HW1 6218   2.672   2.637   5.798
 1773SOL    HW2 6219   2.765   2.655   5.930
 1774SOL     OW 6220   5.356   6.404   1.931
 1774SOL    HW1 6221   5.275   6.365   1.886
 1774SOL    HW2 6222   5.342   6.405   2.030
 1775SOL     OW 6223   1.835   4.991   5.819
 1775SOL    HW1 6224   1.747   5.003   5.771
 1775SOL    HW2 6225   1.898   5.063   5.790
 1776SOL     OW 6226   4.803   0.567   6.529
 1776SOL    HW1 6227   4.840   0.513   6.453
 1776SOL    HW2 6228   4.718   0.525   6.562
 1777SOL     OW 6229   3.203   6.759   6.496
 1777SOL    HW1 6230   3.201   6.786   6.400
 1777SOL    HW2 6231   3.171   6.836   6.552
 1778SOL     OW 6232   4.928   2.021   3.929
 1778SOL    HW1 6233   4.959   1.969   4.008
 1778SOL    HW2 6234   4.938   2.119   3.947
 1779SOL     OW 6235   5.263   1.265   5.477
 1779SOL    HW1 6236   5.320   1.263   5.395
 1779SOL    HW2 6237   5.171   1.298   5.453
 1780SOL     OW 6238   1.837   4.018   5.723
 1780SOL    HW1 6239   1.859   3.989   5.630
 1780SOL    HW2 6240   1.891   3.965   5.788
 1781SOL     OW 6241   5.811   6.000   4.426
 1781SOL    HW1 6242   5.783   5.933   4.356
 1781SOL    HW2 6243   5.814   6.091   4.385
 1782SOL     OW 6244   2.670   0.940   2.390
 1782SOL    HW1 6245   2.747   0.960   2.328
 1782SOL    HW2 6246   2.633   1.026   2.425
 1783SOL     OW 6247   2.750   3.036   6.191
 1783SOL    HW1 6248   2.651   3.054   6.199
 1783SOL    HW2 6249   2.767   2.978   6.112
 1784SOL     OW 6250   2.355   1.683   1.367
 1784SOL    HW1 6251   2.387   1.593   1.339
 1784SOL    HW2 6252   2.259   1.694   1.342
 1785SOL     OW 6253   5.801   6.373   3.618
 1785SOL    HW1 6254   5.719   6.421   3.647
 1785SOL    HW2 6255   5.798   6.359   3.519
 1786SOL     OW 6256   1.948   4.293   0.220
 1786SOL    HW1 6257   2.041   4.256   0.224
 1786SOL    HW2 6258   1.921   4.305   0.124
 1787SOL     OW 6259   2.542   2.015   5.748
 1787SOL    HW1 6260   2.520   1.971   5.835
 1787SOL    HW2 6261   2.641   2.012   5.734
 1788SOL     OW 6262   4.341   4.039   0.009
 1788SOL    HW1 6263   4.404   4.096   6.979
 1788SOL    HW2 6264   4.354   4.055   0.107
 1789SOL     OW 6265   5.758   2.844   2.191
 1789SOL    HW1 6266   5.770   2.754   2.150
 1789SOL    HW2 6267   5.702   2.901   2.131
 1790SOL     OW 6268   2.709   0.907   4.463
 1790SOL    HW1 6269   2.750   0.900   4.554
 1790SOL    HW2 6270   2.680   1.002   4.446
 1791SOL     OW 6271   6.263   1.816   3.795
 1791SOL    HW1 6272   6.362   1.820   3.802
 1791SOL    HW2 6273   6.236   1.744   3.732
 1792SOL     OW 6274   0.017   1.056   4.148
 1792SOL    HW1 6275   6.966   0.989   4.136
 1792SOL    HW2 6276   0.029   1.108   4.064
 1793SOL     OW 6277   6.028   1.605   4.477
 1793SOL    HW1 6278   5.989   1.674   4.416
 1793SOL    HW2 6279   5.984   1.517   4.459
 1794SOL     OW 6280   5.142   6.710   5.403
 1794SOL    HW1 6281   5.216   6.723   5.469
 1794SOL    HW2 6282   5.156   6.625   5.353
 1795SOL     OW 6283   6.736   5.474   2.203
 1795SOL    HW1 6284   6.774   5.475   2.111
 1795SOL    HW2 6285   6.699   5.564   2.226
 1796SOL     OW 6286   2.321   1.551   5.330
 1796SOL    HW1 6287   2.392   1.549   5.260
 1796SOL    HW2 6288   2.235   1.582   5.289
 1797SOL     OW 6289   1.368   0.051   5.558
 1797SOL    HW1 6290   1.339   0.049   5.463
 1797SOL    HW2 6291   1.465   0.028   5.564
 1798SOL     OW 6292   3.761   3.014   4.686
 1798SOL    HW1 6293   3.851   3.036   4.650
 1798SOL    HW2 6294   3.760   3.027   4.785
 1799SOL     OW 6295   5.576   3.119   6.465
 1799SOL    HW1 6296   5.603   3.037   6.415
 1799SOL    HW2 6297   5.611   3.113   6.559
 1800SOL     OW 6298   5.070   5.210   3.240
 1800SOL    HW1 6299   5.062   5.269   3.320
 1800SOL    HW2 6300   5.166   5.188   3.224
 1801SOL     OW 6301   1.481   1.347   2.911
 1801SOL    HW1 6302   1.562   1.393   2.873
 1801SOL    HW2 6303   1.508   1.294   2.992
 1802SOL     OW 6304   6.766   6.030   3.397
 1802SOL    HW1 6305   6.708   5.955   3.366
 1802SOL    HW2 6306   6.710   6.103   3.435
 1803SOL     OW 6307   6.935   6.944   1.849
 1803SOL    HW1 6308   6.846   6.976   1.816
 1803SOL    HW2 6309   6.992   0.001   1.872
 1804SOL     OW 6310   4.341   3.870   5.565
 1804SOL    HW1 6311   4.413   3.844   5.500
 1804SOL    HW2 6312   4.383   3.898   5.651
 1805SOL     OW 6313   0.723   5.235   5.873
 1805SOL    HW1 6314   0.774   5.284   5.944
 1805SOL    HW2 6315   0.762   5.257   5.784
 1806SOL     OW 6316   0.894   2.653   1.722
 1806SOL    HW1 6317   0.815   2.625   1.668
 1806SOL    HW2 6318   0.891   2.752   1.735
 1807SOL     OW 6319   6.425   2.500   6.744
 1807SOL    HW1 6320   6.435   2.403   6.767
 1807SOL    HW2 6321   6.381   2.508   6.655
 1808SOL     OW 6322   5.882   4.292   4.849
 1808SOL    HW1 6323   5.835   4.284   4.937
 1808SOL    HW2 6324   5.980   4.308   4.865
 1809SOL     OW 6325   2.571   2.139   5.046
 1809SOL    HW1 6326   2.587   2.202   4.970
 1809SOL    HW2 6327   2.658   2.116   5.090
 1810SOL     OW 6328   0.923   0.786   4.760
 1810SOL    HW1 6329   0.979   0.800   4.841
 1810SOL    HW2 6330   0.961   0.711   4.706
 1811SOL     OW 6331   5.183   4.727   2.794
 1811SOL    HW1 6332   5.107   4.744   2.856
 1811SOL    HW2 6333   5.243   4.807   2.791
 1812SOL     OW 6334   4.590   0.075   6.981
 1812SOL    HW1 6335   4.543   0.044   6.899
 1812SOL    HW2 6336   4.602   0.174   6.978
 1813SOL     OW 6337   5.127   5.478   2.084
 1813SOL    HW1 6338   5.081   5.566   2.083
 1813SOL    HW2 6339   5.059   5.405   2.093
 1814SOL     OW 6340   6.340   0.761   0.740
 1814SOL    HW1 6341   6.369   0.799   0.652
 1814SOL    HW2 6342   6.263   0.699   0.726
 1815SOL     OW 6343   6.444   0.429   3.164
 1815SOL    HW1 6344   6.523   0.490   3.156
 1815SOL    HW2 6345   6.360   0.479   3.146
 1816SOL     OW 6346   3.361   4.661   6.952
 1816SOL    HW1 6347   3.447   4.654   6.902
 1816SOL    HW2 6348   3.287   4.623   6.896
 1817SOL     OW 6349   3.896   0.305   2.835
 1817SOL    HW1 6350   3.990   0.298   2.802
 1817SOL    HW2 6351   3.833   0.289   2.758
 1818SOL     OW 6352   1.407   6.698   0.765
 1818SOL    HW1 6353   1.465   6.691   0.846
 1818SOL    HW2 6354   1.461   6.674   0.684
 1819SOL     OW 6355   1.188   5.901   1.789
 1819SOL    HW1 6356   1.251   5.843   1.842
 1819SOL    HW2 6357   1.136   5.844   1.726
 1820SOL     OW 6358   3.367   0.252   2.016
 1820SOL    HW1 6359   3.287   0.231   2.072
 1820SOL    HW2 6360   3.362   0.346   1.984
 1821SOL     OW 6361   2.957   0.641   1.686
 1821SOL    HW1 6362   2.958   0.741   1.692
 1821SOL    HW2 6363   3.022   0.612   1.616
 1822SOL     OW 6364   0.958   2.956   1.545
 1822SOL    HW1 6365   0.957   2.875   1.486
 1822SOL    HW2 6366   0.950   3.038   1.489
 1823SOL     OW 6367   2.813   6.266   2.912
 1823SOL    HW1 6368   2.821   6.299   3.006
 1823SOL    HW2 6369   2.894   6.293   2.860
 1824SOL     OW 6370   3.810   4.377   0.418
 1824SOL    HW1 6371   3.797   4.462   0.369
 1824SOL    HW2 6372   3.906   4.368   0.445
 1825SOL     OW 6373   0.486   2.687   4.444
 1825SOL    HW1 6374   0.394   2.675   4.409
 1825SOL    HW2 6375   0.527   2.598   4.463
 1826SOL     OW 6376   2.602   0.833   1.212
 1826SOL    HW1 6377   2.667   0.807   1.140
 1826SOL    HW2 6378   2.542   0.757   1.233
 1827SOL     OW 6379   6.218   5.212   1.171
 1827SOL    HW1 6380   6.179   5.123   1.146
 1827SOL    HW2 6381   6.314   5.200   1.196
 1828SOL     OW 6382   1.593   2.698   6.884
 1828SOL    HW1 6383   1.574   2.734   6.793
 1828SOL    HW2 6384   1.623   2.603   6.876
 1829SOL     OW 6385   3.624   6.740   3.366
 1829SOL    HW1 6386   3.619   6.831   3.323
 1829SOL    HW2 6387   3.603   6.748   3.463
 1830SOL     OW 6388   5.823   6.274   4.412
 1830SOL    HW1 6389   5.878   6.295   4.493
 1830SOL    HW2 6390   5.839   6.344   4.343
 1831SOL     OW 6391   5.426   6.370   2.778
 1831SOL    HW1 6392   5.352   6.431   2.751
 1831SOL    HW2 6393   5.388   6.293   2.830
 1832SOL     OW 6394   3.631   1.614   0.489
 1832SOL    HW1 6395   3.677   1.525   0.479
 1832SOL    HW2 6396   3.694   1.687   0.462
 1833SOL     OW 6397   5.741   0.605   1.694
 1833SOL    HW1 6398   5.745   0.568   1.601
 1833SOL    HW2 6399   5.652   0.583   1.735
 1834SOL     OW 6400   1.961   3.856   0.998
 1834SOL    HW1 6401   2.047   3.812   1.024
 1834SOL    HW2 6402   1.885   3.814   1.046
 1835SOL     OW 6403   0.959   4.555   1.863
 1835SOL    HW1 6404   1.013   4.602   1.793
 1835SOL    HW2 6405   0.866   4.540   1.829
 1836SOL     OW 6406   5.754   2.173   1.977
 1836SOL    HW1 6407   5.707   2.212   1.898
 1836SOL    HW2 6408   5.848   2.207   1.980
 1837SOL     OW 6409   1.242   6.883   5.832
 1837SOL    HW1 6410   1.286   6.969   5.806
 1837SOL    HW2 6411   1.213   6.834   5.749
 1838SOL     OW 6412   5.883   0.943   5.973
 1838SOL    HW1 6413   5.877   0.896   6.061
 1838SOL    HW2 6414   5.811   1.012   5.967
 1839SOL     OW 6415   0.063   1.132   5.722
 1839SOL    HW1 6416   0.127   1.063   5.687
 1839SOL    HW2 6417   0.087   1.221   5.683
 1840SOL     OW 6418   4.032   0.259   2.061
 1840SOL    HW1 6419   3.948   0.206   2.062
 1840SOL    HW2 6420   4.010   0.357   2.065
 1841SOL     OW 6421   2.366   0.129   2.802
 1841SOL    HW1 6422   2.369   0.037   2.840
 1841SOL    HW2 6423   2.274   0.167   2.813
 1842SOL     OW 6424   0.947   5.886   1.337
 1842SOL    HW1 6425   0.980   5.964   1.389
 1842SOL    HW2 6426   0.951   5.907   1.239
 1843SOL     OW 6427   5.706   0.357   4.203
 1843SOL    HW1 6428   5.794   0.340   4.247
 1843SOL    HW2 6429   5.719   0.418   4.125
 1844SOL     OW 6430   4.350   0.390   5.179
 1844SOL    HW1 6431   4.337   0.490   5.175
 1844SOL    HW2 6432   4.293   0.347   5.109
 1845SOL     OW 6433   2.983   6.712   4.348
 1845SOL    HW1 6434   3.029   6.749   4.267
 1845SOL    HW2 6435   2.916   6.779   4.381
 1846SOL     OW 6436   4.615   0.916   2.993
 1846SOL    HW1 6437   4.621   0.963   3.081
 1846SOL    HW2 6438   4.574   0.978   2.926
 1847SOL     OW 6439   1.624   0.029   5.600
 1847SOL    HW1 6440   1.628   6.990   5.679
 1847SOL    HW2 6441   1.695   0.099   5.609
 1848SOL     OW 6442   1.998   6.343   3.868
 1848SOL    HW1 6443   2.049   6.262   3.895
 1848SOL    HW2 6444   1.982   6.342   3.769
 1849SOL     OW 6445   4.494   2.784   1.234
 1849SOL    HW1 6446   4.501   2.884   1.239
 1849SOL    HW2 6447   4.544   2.743   1.311
 1850SOL     OW 6448   6.410   2.407   2.283
 1850SOL    HW1 6449   6.492   2.459   2.260
 1850SOL    HW2 6450   6.360   2.453   2.356
 1851SOL     OW 6451   1.088   3.321   0.188
 1851SOL    HW1 6452   1.043   3.232   0.192
 1851SOL    HW2 6453   1.176   3.313   0.141
 1852SOL     OW 6454   0.480   4.911   2.562
 1852SOL    HW1 6455   0.479   4.926   2.464
 1852SOL    HW2 6456   0.567   4.942   2.600
 1853SOL     OW 6457   6.975   2.633   3.224
 1853SOL    HW1 6458   6.923   2.705   3.180
 1853SOL    HW2 6459   0.050   2.656   3.223
 1854SOL     OW 6460   1.831   4.910   2.715
 1854SOL    HW1 6461   1.750   4.969   2.719
 1854SOL    HW2 6462   1.820   4.834   2.778
 1855SOL     OW 6463   5.111   3.541   5.416
 1855SOL    HW1 6464   5.052   3.610   5.375
 1855SOL    HW2 6465   5.056   3.461   5.441
 1856SOL     OW 6466   4.719   3.166   6.335
 1856SOL    HW1 6467   4.688   3.177   6.241
 1856SOL    HW2 6468   4.783   3.090   6.341
 1857SOL     OW 6469   4.095   1.381   0.342
 1857SOL    HW1 6470   4.100   1.325   0.425
 1857SOL    HW2 6471   4.010   1.432   0.342
 1858SOL     OW 6472   5.278   2.712   3.125
 1858SOL    HW1 6473   5.200   2.730   3.185
 1858SOL    HW2 6474   5.312   2.619   3.143
 1859SOL     OW 6475   4.585   1.553   3.551
 1859SOL    HW1 6476   4.646   1.631   3.565
 1859SOL    HW2 6477   4.510   1.556   3.618
 1860SOL     OW 6478   0.060   1.694   5.722
 1860SOL    HW1 6479   7.004   1.643   5.688
 1860SOL    HW2 6480   0.088   1.658   5.811
 1861SOL     OW 6481   4.941   0.784   2.654
 1861SOL    HW1 6482   4.879   0.717   2.693
 1861SOL    HW2 6483   4.942   0.866   2.711
 1862SOL     OW 6484   2.103   6.502   6.673
 1862SOL    HW1 6485   2.196   6.536   6.684
 1862SOL    HW2 6486   2.089   6.472   6.579
 1863SOL     OW 6487   6.882   2.352   2.252
 1863SOL    HW1 6488   6.804   2.290   2.259
 1863SOL    HW2 6489   6.864   2.422   2.183
 1864SOL     OW 6490   3.386   5.715   4.606
 1864SOL    HW1 6491   3.316   5.786   4.605
 1864SOL    HW2 6492   3.342   5.625   4.612
 1865SOL     OW 6493   3.122   1.041   0.625
 1865SOL    HW1 6494   3.126   0.984   0.542
 1865SOL    HW2 6495   3.162   1.131   0.605
 1866SOL     OW 6496   6.991   4.643   3.549
 1866SOL    HW1 6497   0.024   4.717   3.586
 1866SOL    HW2 6498   6.945   4.674   3.466
 1867SOL     OW 6499   2.089   3.524   1.710
 1867SOL    HW1 6500   2.019   3.455   1.729
 1867SOL    HW2 6501   2.155   3.525   1.785
 1868SOL     OW 6502   5.218   3.593   6.637
 1868SOL    HW1 6503   5.309   3.581   6.599
 1868SOL    HW2 6504   5.194   3.690   6.636
 1869SOL     OW 6505   6.154   3.454   4.543
 1869SOL    HW1 6506   6.167   3.458   4.444
 1869SOL    HW2 6507   6.082   3.519   4.569
 1870SOL     OW 6508   1.251   3.124   5.222
 1870SOL    HW1 6509   1.321   3.189   5.253
 1870SOL    HW2 6510   1.270   3.097   5.128
 1871SOL     OW 6511   6.257   0.270   0.556
 1871SOL    HW1 6512   6.344   0.298   0.596
 1871SOL    HW2 6513   6.196   0.237   0.628
 1872SOL     OW 6514   4.521   2.093   6.921
 1872SOL    HW1 6515   4.446   2.032   6.947
 1872SOL    HW2 6516   4.591   2.040   6.873
 1873SOL     OW 6517   7.009   0.182   5.369
 1873SOL    HW1 6518   0.045   0.240   5.313
 1873SOL    HW2 6519   6.989   0.229   5.455
 1874SOL     OW 6520   1.146   1.013   6.376
 1874SOL    HW1 6521   1.096   0.980   6.296
 1874SOL    HW2 6522   1.227   1.063   6.346
 1875SOL     OW 6523   6.532   0.099   0.625
 1875SOL    HW1 6524   6.495   0.068   0.712
 1875SOL    HW2 6525   6.557   0.020   0.569
 1876SOL     OW 6526   4.084   6.089   6.216
 1876SOL    HW1 6527   4.030   6.165   6.251
 1876SOL    HW2 6528   4.051   6.063   6.126
 1877SOL     OW 6529   0.908   1.776   3.039
 1877SOL    HW1 6530   1.000   1.804   3.014
 1877SOL    HW2 6531   0.901   1.767   3.138
 1878SOL     OW 6532   0.085   4.258   3.894
 1878SOL    HW1 6533   7.015   4.223   3.881
 1878SOL    HW2 6534   0.136   4.197   3.954
 1879SOL     OW 6535   2.631   5.992   4.012
 1879SOL    HW1 6536   2.548   6.031   3.973
 1879SOL    HW2 6537   2.607   5.930   4.087
 1880SOL     OW 6538   0.583   1.950   2.830
 1880SOL    HW1 6539   0.617   1.896   2.907
 1880SOL    HW2 6540   0.657   2.005   2.792
 1881SOL     OW 6541   1.357   1.684   3.680
 1881SOL    HW1 6542   1.291   1.755   3.652
 1881SOL    HW2 6543   1.450   1.715   3.658
 1882SOL     OW 6544   0.606   4.962   6.852
 1882SOL    HW1 6545   0.662   4.884   6.822
 1882SOL    HW2 6546   0.631   5.043   6.800
 1883SOL     OW 6547   0.818   3.515   4.155
 1883SOL    HW1 6548   0.840   3.545   4.247
 1883SOL    HW2 6549   0.885   3.552   4.090
 1884SOL     OW 6550   5.862   2.383   1.052
 1884SOL    HW1 6551   5.785   2.323   1.069
 1884SOL    HW2 6552   5.940   2.330   1.020
 1885SOL     OW 6553   0.222   2.008   1.227
 1885SOL    HW1 6554   0.164   1.951   1.170
 1885SOL    HW2 6555   0.202   2.104   1.209
 1886SOL     OW 6556   2.118   2.105   0.272
 1886SOL    HW1 6557   2.168   2.170   0.329
 1886SOL    HW2 6558   2.142   2.012   0.299
 1887SOL     OW 6559   0.254   4.528   5.576
 1887SOL    HW1 6560   0.184   4.477   5.626
 1887SOL    HW2 6561   0.259   4.621   5.613
 1888SOL     OW 6562   1.975   1.969   6.043
 1888SOL    HW1 6563   2.029   2.052   6.053
 1888SOL    HW2 6564   1.986   1.912   6.125
 1889SOL     OW 6565   4.994   3.100   6.525
 1889SOL    HW1 6566   5.073   3.040   6.534
 1889SOL    HW2 6567   5.025   3.194   6.507
 1890SOL     OW 6568   1.679   6.055   5.550
 1890SOL    HW1 6569   1.710   6.139   5.505
 1890SOL    HW2 6570   1.665   6.074   5.648
 1891SOL     OW 6571   5.375   3.760   4.182
 1891SOL    HW1 6572   5.330   3.682   4.139
 1891SOL    HW2 6573   5.353   3.763   4.280
 1892SOL     OW 6574   3.520   6.707   0.911
 1892SOL    HW1 6575   3.519   6.620   0.961
 1892SOL    HW2 6576   3.492   6.692   0.817
 1893SOL     OW 6577   3.461   1.793   5.620
 1893SOL    HW1 6578   3.430   1.873   5.570
 1893SOL    HW2 6579   3.529   1.744   5.565
 1894SOL     OW 6580   4.358   3.744   1.604
 1894SOL    HW1 6581   4.396   3.835   1.620
 1894SOL    HW2 6582   4.420   3.674   1.640
 1895SOL     OW 6583   5.646   0.614   2.575
 1895SOL    HW1 6584   5.627   0.666   2.491
 1895SOL    HW2 6585   5.678   0.676   2.646
 1896SOL     OW 6586   0.348   0.673   3.617
 1896SOL    HW1 6587   0.370   0.750   3.557
 1896SOL    HW2 6588   0.326   0.593   3.561
 1897SOL     OW 6589   0.086   4.907   2.852
 1897SOL    HW1 6590   0.067   4.955   2.937
 1897SOL    HW2 6591   0.175   4.935   2.816
 1898SOL     OW 6592   3.227   5.404   1.780
 1898SOL    HW1 6593   3.216   5.490   1.830
 1898SOL    HW2 6594   3.172   5.333   1.823
 1899SOL     OW 6595   0.993   2.548   2.855
 1899SOL    HW1 6596   0.956   2.566   2.946
 1899SOL    HW2 6597   1.090   2.525   2.862
 1900SOL     OW 6598   1.046   0.366   5.551
 1900SOL    HW1 6599   0.959   0.357   5.502
 1900SOL    HW2 6600   1.051   0.296   5.623
 1901SOL     OW 6601   2.239   1.745   1.695
 1901SOL    HW1 6602   2.289   1.831   1.709
 1901SOL    HW2 6603   2.172   1.758   1.622
 1902SOL     OW 6604   2.557   2.376   4.880
 1902SOL    HW1 6605   2.603   2.399   4.794
 1902SOL    HW2 6606   2.464   2.347   4.861
 1903SOL     OW 6607   0.101   4.277   3.622
 1903SOL    HW1 6608   0.013   4.305   3.583
 1903SOL    HW2 6609   0.092   4.270   3.722
 1904SOL     OW 6610   6.265   6.937   3.583
 1904SOL    HW1 6611   6.259   6.905   3.488
 1904SOL    HW2 6612   6.360   6.929   3.615
 1905SOL     OW 6613   0.816   2.134   4.072
 1905SOL    HW1 6614   0.869   2.203   4.121
 1905SOL    HW2 6615   0.866   2.105   3.990
 1906SOL     OW 6616   2.851   6.944   5.357
 1906SOL    HW1 6617   2.774   6.880   5.361
 1906SOL    HW2 6618   2.820   0.013   5.383
 1907SOL     OW 6619   3.120   6.443   3.374
 1907SOL    HW1 6620   3.053   6.444   3.448
 1907SOL    HW2 6621   3.206   6.482   3.407
 1908SOL     OW 6622   4.896   0.754   5.057
 1908SOL    HW1 6623   4.986   0.710   5.061
 1908SOL    HW2 6624   4.881   0.793   4.966
 1909SOL     OW 6625   1.477   3.958   3.239
 1909SOL    HW1 6626   1.471   4.016   3.158
 1909SOL    HW2 6627   1.409   3.988   3.306
 1910SOL     OW 6628   6.488   2.125   7.008
 1910SOL    HW1 6629   6.493   2.178   6.924
 1910SOL    HW2 6630   6.406   2.150   0.037
 1911SOL     OW 6631   6.048   1.975   5.640
 1911SOL    HW1 6632   6.037   2.063   5.685
 1911SOL    HW2 6633   5.961   1.946   5.601
 1912SOL     OW 6634   3.934   6.626   1.475
 1912SOL    HW1 6635   3.851   6.655   1.428
 1912SOL    HW2 6636   3.947   6.683   1.557
 1913SOL     OW 6637   2.105   6.124   5.543
 1913SOL    HW1 6638   2.134   6.141   5.448
 1913SOL    HW2 6639   2.111   6.026   5.562
 1914SOL     OW 6640   2.977   2.800   6.876
 1914SOL    HW1 6641   3.055   2.850   6.912
 1914SOL    HW2 6642   3.008   2.722   6.822
 1915SOL     OW 6643   4.214   1.085   5.176
 1915SOL    HW1 6644   4.269   1.094   5.093
 1915SOL    HW2 6645   4.274   1.081   5.256
 1916SOL     OW 6646   3.419   5.840   0.794
 1916SOL    HW1 6647   3.481   5.918   0.801
 1916SOL    HW2 6648   3.440   5.787   0.711
 1917SOL     OW 6649   3.989   3.174   4.647
 1917SOL    HW1 6650   4.067   3.233   4.665
 1917SOL    HW2 6651   3.911   3.229   4.616
 1918SOL     OW 6652   6.968   0.035   6.416
 1918SOL    HW1 6653   6.888   0.066   6.467
 1918SOL    HW2 6654   0.010   0.111   6.406
 1919SOL     OW 6655   2.229   6.425   1.431
 1919SOL    HW1 6656   2.312   6.457   1.384
 1919SOL    HW2 6657   2.181   6.360   1.372
 1920SOL     OW 6658   0.646   5.199   2.947
 1920SOL    HW1 6659   0.680   5.283   2.987
 1920SOL    HW2 6660   0.565   5.169   2.996
 1921SOL     OW 6661   1.100   4.187   6.856
 1921SOL    HW1 6662   1.110   4.179   6.757
 1921SOL    HW2 6663   1.162   4.257   6.891
 1922SOL     OW 6664   3.483   4.098   0.958
 1922SOL    HW1 6665   3.389   4.108   0.928
 1922SOL    HW2 6666   3.492   4.016   1.015
 1923SOL     OW 6667   3.425   1.059   6.141
 1923SOL    HW1 6668   3.434   1.128   6.213
 1923SOL    HW2 6669   3.444   1.101   6.052
 1924SOL     OW 6670   5.921   5.690   1.919
 1924SOL    HW1 6671   6.014   5.715   1.942
 1924SOL    HW2 6672   5.858   5.726   1.988
 1925SOL     OW 6673   3.036   3.858   2.317
 1925SOL    HW1 6674   3.029   3.833   2.414
 1925SOL    HW2 6675   3.102   3.933   2.306
 1926SOL     OW 6676   0.936   0.038   3.982
 1926SOL    HW1 6677   0.993   7.001   3.925
 1926SOL    HW2 6678   0.916   7.015   4.069
 1927SOL     OW 6679   3.517   5.080   6.085
 1927SOL    HW1 6680   3.611   5.082   6.119
 1927SOL    HW2 6681   3.495   4.988   6.053
 1928SOL     OW 6682   6.843   3.888   6.309
 1928SOL    HW1 6683   6.752   3.875   6.270
 1928SOL    HW2 6684   6.908   3.909   6.236
 1929SOL     OW 6685   0.980   5.918   1.067
 1929SOL    HW1 6686   0.924   5.837   1.050
 1929SOL    HW2 6687   1.046   5.930   0.992
 1930SOL     OW 6688   4.153   3.751   0.070
 1930SOL    HW1 6689   4.101   3.836   0.069
 1930SOL    HW2 6690   4.164   3.717   6.998
 1931SOL     OW 6691   0.208   2.405   3.341
 1931SOL    HW1 6692   0.248   2.495   3.353
 1931SOL    HW2 6693   0.171   2.397   3.248
 1932SOL     OW 6694   4.934   3.637   2.701
 1932SOL    HW1 6695   5.007   3.579   2.664
 1932SOL    HW2 6696   4.886   3.682   2.626
 1933SOL     OW 6697   2.806   4.238   0.771
 1933SOL    HW1 6698   2.732   4.173   0.788
 1933SOL    HW2 6699   2.864   4.203   0.697
 1934SOL     OW 6700   0.394   0.334   4.633
 1934SOL    HW1 6701   0.405   0.364   4.538
 1934SOL    HW2 6702   0.482   0.335   4.679
 1935SOL     OW 6703   3.418   0.336   4.608
 1935SOL    HW1 6704   3.397   0.370   4.700
 1935SOL    HW2 6705   3.514   0.354   4.587
 1936SOL     OW 6706   6.367   4.192   4.264
 1936SOL    HW1 6707   6.399   4.200   4.169
 1936SOL    HW2 6708   6.443   4.162   4.322
 1937SOL     OW 6709   5.235   6.714   0.616
 1937SOL    HW1 6710   5.234   6.680   0.710
 1937SOL    HW2 6711   5.322   6.689   0.572
 1938SOL     OW 6712   3.636   1.186   2.253
 1938SOL    HW1 6713   3.605   1.165   2.160
 1938SOL    HW2 6714   3.665   1.281   2.257
 1939SOL     OW 6715   0.753   6.932   4.933
 1939SOL    HW1 6716   0.839   6.945   4.883
 1939SOL    HW2 6717   0.761   6.851   4.991
 1940SOL     OW 6718   4.713   4.797   6.659
 1940SOL    HW1 6719   4.635   4.788   6.597
 1940SOL    HW2 6720   4.753   4.888   6.649
 1941SOL     OW 6721   0.399   4.083   3.211
 1941SOL    HW1 6722   0.363   4.105   3.302
 1941SOL    HW2 6723   0.403   3.984   3.200
 1942SOL     OW 6724   5.703   0.441   2.265
 1942SOL    HW1 6725   5.690   0.423   2.362
 1942SOL    HW2 6726   5.788   0.492   2.251
 1943SOL     OW 6727   2.650   6.099   2.110
 1943SOL    HW1 6728   2.674   6.194   2.093
 1943SOL    HW2 6729   2.605   6.060   2.030
 1944SOL     OW 6730   5.674   2.009   0.220
 1944SOL    HW1 6731   5.712   2.092   0.262
 1944SOL    HW2 6732   5.579   2.025   0.194
 1945SOL     OW 6733   3.668   6.007   2.389
 1945SOL    HW1 6734   3.682   6.014   2.488
 1945SOL    HW2 6735   3.589   6.063   2.363
 1946SOL     OW 6736   6.020   0.557   1.008
 1946SOL    HW1 6737   6.046   0.461   1.006
 1946SOL    HW2 6738   6.057   0.603   0.927
 1947SOL     OW 6739   4.851   6.500   4.300
 1947SOL    HW1 6740   4.926   6.458   4.248
 1947SOL    HW2 6741   4.869   6.597   4.313
 1948SOL     OW 6742   5.722   6.210   3.890
 1948SOL    HW1 6743   5.669   6.151   3.828
 1948SOL    HW2 6744   5.712   6.177   3.984
 1949SOL     OW 6745   4.029   4.152   6.188
 1949SOL    HW1 6746   4.105   4.145   6.252
 1949SOL    HW2 6747   4.059   4.201   6.106
 1950SOL     OW 6748   3.639   4.801   1.158
 1950SOL    HW1 6749   3.635   4.736   1.082
 1950SOL    HW2 6750   3.585   4.882   1.136
 1951SOL     OW 6751   6.293   3.981   0.348
 1951SOL    HW1 6752   6.320   3.905   0.288
 1951SOL    HW2 6753   6.366   4.048   0.353
 1952SOL     OW 6754   3.949   2.147   6.505
 1952SOL    HW1 6755   4.004   2.216   6.551
 1952SOL    HW2 6756   3.951   2.163   6.407
 1953SOL     OW 6757   6.086   3.384   6.903
 1953SOL    HW1 6758   6.014   3.315   6.913
 1953SOL    HW2 6759   6.165   3.359   6.957
 1954SOL     OW 6760   5.488   1.150   4.032
 1954SOL    HW1 6761   5.405   1.205   4.036
 1954SOL    HW2 6762   5.566   1.206   4.060
 1955SOL     OW 6763   1.576   0.783   2.625
 1955SOL    HW1 6764   1.501   0.765   2.561
 1955SOL    HW2 6765   1.663   0.764   2.580
 1956SOL     OW 6766   4.968   6.637   2.189
 1956SOL    HW1 6767   5.064   6.659   2.207
 1956SOL    HW2 6768   4.914   6.722   2.189
 1957SOL     OW 6769   6.246   5.995   5.127
 1957SOL    HW1 6770   6.266   5.954   5.038
 1957SOL    HW2 6771   6.296   5.947   5.199
 1958SOL     OW 6772   5.739   2.654   2.445
 1958SOL    HW1 6773   5.719   2.581   2.510
 1958SOL    HW2 6774   5.770   2.614   2.359
 1959SOL     OW 6775   0.669   1.085   5.258
 1959SOL    HW1 6776   0.734   1.039   5.318
 1959SOL    HW2 6777   0.648   1.176   5.294
 1960SOL     OW 6778   6.943   4.585   1.553
 1960SOL    HW1 6779   6.868   4.640   1.517
 1960SOL    HW2 6780   6.920   4.488   1.547
 1961SOL     OW 6781   5.672   4.595   4.327
 1961SOL    HW1 6782   5.683   4.504   4.287
 1961SOL    HW2 6783   5.739   4.609   4.400
 1962SOL     OW 6784   2.676   6.592   3.782
 1962SOL    HW1 6785   2.611   6.646   3.837
 1962SOL    HW2 6786   2.691   6.638   3.694
 1963SOL     OW 6787   0.952   1.075   1.766
 1963SOL    HW1 6788   0.935   1.021   1.849
 1963SOL    HW2 6789   0.972   1.170   1.793
 1964SOL     OW 6790   4.684   3.929   1.227
 1964SOL    HW1 6791   4.615   3.916   1.155
 1964SOL    HW2 6792   4.686   4.025   1.254
 1965SOL     OW 6793   1.069   3.500   4.663
 1965SOL    HW1 6794   1.128   3.577   4.640
 1965SOL    HW2 6795   1.042   3.453   4.579
 1966SOL     OW 6796   7.000   6.310   6.894
 1966SOL    HW1 6797   6.934   6.350   6.957
 1966SOL    HW2 6798   6.952   6.264   6.820
 1967SOL     OW 6799   4.415   2.483   4.566
 1967SOL    HW1 6800   4.407   2.458   4.662
 1967SOL    HW2 6801   4.495   2.542   4.553
 1968SOL     OW 6802   3.526   6.736   0.411
 1968SOL    HW1 6803   3.537   6.835   0.415
 1968SOL    HW2 6804   3.447   6.713   0.353
 1969SOL     OW 6805   0.933   1.527   1.656
 1969SOL    HW1 6806   1.022   1.517   1.613
 1969SOL    HW2 6807   0.872   1.578   1.594
 1970SOL     OW 6808   2.164   0.355   6.169
 1970SOL    HW1 6809   2.257   0.324   6.191
 1970SOL    HW2 6810   2.098   0.302   6.223
 1971SOL     OW 6811   0.200   0.231   5.845
 1971SOL    HW1 6812   0.249   0.278   5.772
 1971SOL    HW2 6813   0.118   0.188   5.807
 1972SOL     OW 6814   5.959   2.892   2.989
 1972SOL    HW1 6815   5.878   2.834   2.998
 1972SOL    HW2 6816   6.036   2.838   2.954
 1973SOL     OW 6817   2.459   2.761   0.561
 1973SOL    HW1 6818   2.501   2.835   0.614
 1973SOL    HW2 6819   2.438   2.684   0.621
 1974SOL     OW 6820   5.977   6.213   4.069
 1974SOL    HW1 6821   5.913   6.142   4.099
 1974SOL    HW2 6822   5.937   6.265   3.995
 1975SOL     OW 6823   2.343   1.746   3.574
 1975SOL    HW1 6824   2.366   1.739   3.477
 1975SOL    HW2 6825   2.304   1.660   3.605
 1976SOL     OW 6826   0.681   6.013   0.648
 1976SOL    HW1 6827   0.627   6.082   0.600
 1976SOL    HW2 6828   0.726   5.953   0.582
 1977SOL     OW 6829   0.896   3.367   3.845
 1977SOL    HW1 6830   0.831   3.297   3.872
 1977SOL    HW2 6831   0.988   3.329   3.844
 1978SOL     OW 6832   0.844   0.704   3.129
 1978SOL    HW1 6833   0.876   0.745   3.215
 1978SOL    HW2 6834   0.747   0.684   3.136
 1979SOL     OW 6835   6.034   4.615   5.625
 1979SOL    HW1 6836   6.058   4.684   5.693
 1979SOL    HW2 6837   6.100   4.540   5.628
 1980SOL     OW 6838   2.678   0.849   5.605
 1980SOL    HW1 6839   2.720   0.864   5.515
 1980SOL    HW2 6840   2.749   0.827   5.671
 1981SOL     OW 6841   6.236   2.166   2.497
 1981SOL    HW1 6842   6.180   2.171   2.415
 1981SOL    HW2 6843   6.230   2.251   2.548
 1982SOL     OW 6844   0.413   3.836   5.163
 1982SOL    HW1 6845   0.478   3.796   5.227
 1982SOL    HW2 6846   0.376   3.921   5.201
 1983SOL     OW 6847   0.903   0.914   2.656
 1983SOL    HW1 6848   0.972   0.964   2.603
 1983SOL    HW2 6849   0.904   0.946   2.751
 1984SOL     OW 6850   6.584   2.260   4.943
 1984SOL    HW1 6851   6.525   2.216   4.875
 1984SOL    HW2 6852   6.649   2.193   4.978
 1985SOL     OW 6853   1.121   6.398   2.773
 1985SOL    HW1 6854   1.069   6.474   2.811
 1985SOL    HW2 6855   1.195   6.433   2.716
 1986SOL     OW 6856   1.432   0.696   0.301
 1986SOL    HW1 6857   1.387   0.773   0.347
 1986SOL    HW2 6858   1.530   0.696   0.324
 1987SOL     OW 6859   1.570   2.632   1.502
 1987SOL    HW1 6860   1.578   2.608   1.405
 1987SOL    HW2 6861   1.554   2.549   1.556
 1988SOL     OW 6862   5.840   4.345   1.011
 1988SOL    HW1 6863   5.813   4.257   0.972
 1988SOL    HW2 6864   5.759   4.393   1.045
 1989SOL     OW 6865   2.559   6.640   4.422
 1989SOL    HW1 6866   2.611   6.577   4.479
 1989SOL    HW2 6867   2.520   6.590   4.344
 1990SOL     OW 6868   3.203   6.453   0.277
 1990SOL    HW1 6869   3.266   6.388   0.320
 1990SOL    HW2 6870   3.173   6.418   0.189
 1991SOL     OW 6871   4.073   4.468   6.277
 1991SOL    HW1 6872   4.008   4.455   6.202
 1991SOL    HW2 6873   4.160   4.499   6.240
 1992SOL     OW 6874   0.642   0.496   6.503
 1992SOL    HW1 6875   0.608   0.553   6.578
 1992SOL    HW2 6876   0.590   0.411   6.500
 1993SOL     OW 6877   4.132   3.588   4.482
 1993SOL    HW1 6878   4.109   3.615   4.575
 1993SOL    HW2 6879   4.219   3.630   4.456
 1994SOL     OW 6880   0.910   1.236   0.430
 1994SOL    HW1 6881   0.885   1.330   0.452
 1994SOL    HW2 6882   1.010   1.229   0.423
 1995SOL     OW 6883   5.527   2.475   2.927
 1995SOL    HW1 6884   5.477   2.396   2.893
 1995SOL    HW2 6885   5.561   2.456   3.019
 1996SOL     OW 6886   2.073   3.402   0.722
 1996SOL    HW1 6887   2.107   3.496   0.725
 1996SOL    HW2 6888   2.055   3.376   0.627
 1997SOL     OW 6889   4.433   0.816   5.014
 1997SOL    HW1 6890   4.473   0.827   4.923
 1997SOL    HW2 6891   4.334   0.829   5.009
 1998SOL     OW 6892   3.198   3.877   6.374
 1998SOL    HW1 6893   3.254   3.955   6.346
 1998SOL    HW2 6894   3.101   3.903   6.374
 1999SOL     OW 6895   3.456   6.293   1.552
 1999SOL    HW1 6896   3.552   6.320   1.562
 1999SOL    HW2 6897   3.404   6.326   1.630
 2000SOL     OW 6898   4.460   2.314   5.126
 2000SOL    HW1 6899   4.535   2.265   5.081
 2000SOL    HW2 6900   4.493   2.403   5.158
 2001SOL     OW 6901   2.892   1.109   1.562
 2001SOL    HW1 6902   2.922   1.203   1.545
 2001SOL    HW2 6903   2.851   1.071   1.479
 2002SOL     OW 6904   0.916   4.364   6.405
 2002SOL    HW1 6905   0.962   4.282   6.374
 2002SOL    HW2 6906   0.885   4.351   6.500
 2003SOL     OW 6907   6.060   6.339   3.221
 2003SOL    HW1 6908   6.140   6.396   3.241
 2003SOL    HW2 6909   6.043   6.338   3.123
 2004SOL     OW 6910   4.795   1.258   5.433
 2004SOL    HW1 6911   4.806   1.257   5.532
 2004SOL    HW2 6912   4.730   1.186   5.407
 2005SOL     OW 6913   0.920   4.619   0.005
 2005SOL    HW1 6914   0.850   4.563   0.048
 2005SOL    HW2 6915   0.930   4.594   6.931
 2006SOL     OW 6916   4.966   5.116   4.080
 2006SOL    HW1 6917   4.952   5.213   4.097
 2006SOL    HW2 6918   4.887   5.065   4.114
 2007SOL     OW 6919   4.454   4.958   1.051
 2007SOL    HW1 6920   4.404   5.009   0.981
 2007SOL    HW2 6921   4.400   4.953   1.134
 2008SOL     OW 6922   1.844   5.033   3.231
 2008SOL    HW1 6923   1.794   5.018   3.316
 2008SOL    HW2 6924   1.928   4.978   3.231
 2009SOL     OW 6925   6.237   0.326   2.239
 2009SOL    HW1 6926   6.167   0.328   2.167
 2009SOL    HW2 6927   6.223   0.246   2.297
 2010SOL     OW 6928   2.083   1.580   1.147
 2010SOL    HW1 6929   2.153   1.510   1.132
 2010SOL    HW2 6930   2.084   1.645   1.071
 2011SOL     OW 6931   6.661   1.560   4.518
 2011SOL    HW1 6932   6.650   1.461   4.503
 2011SOL    HW2 6933   6.592   1.591   4.583
 2012SOL     OW 6934   1.585   2.650   1.955
 2012SOL    HW1 6935   1.585   2.554   1.928
 2012SOL    HW2 6936   1.653   2.665   2.027
 2013SOL     OW 6937   6.336   2.016   3.369
 2013SOL    HW1 6938   6.313   2.002   3.465
 2013SOL    HW2 6939   6.374   2.107   3.356
 2014SOL     OW 6940   2.101   4.914   2.889
 2014SOL    HW1 6941   2.166   4.880   2.821
 2014SOL    HW2 6942   2.010   4.917   2.849
 2015SOL     OW 6943   1.991   1.451   0.345
 2015SOL    HW1 6944   1.923   1.396   0.395
 2015SOL    HW2 6945   2.028   1.521   0.406
 2016SOL     OW 6946   0.878   5.932   4.536
 2016SOL    HW1 6947   0.852   5.961   4.444
 2016SOL    HW2 6948   0.935   5.850   4.530
 2017SOL     OW 6949   2.592   6.829   4.733
 2017SOL    HW1 6950   2.690   6.838   4.748
 2017SOL    HW2 6951   2.576   6.786   4.644
 2018SOL     OW 6952   5.526   7.002   5.546
 2018SOL    HW1 6953   5.620   6.980   5.576
 2018SOL    HW2 6954   5.508   0.077   5.561
 2019SOL     OW 6955   5.006   2.147   1.814
 2019SOL    HW1 6956   5.064   2.130   1.894
 2019SOL    HW2 6957   4.990   2.246   1.806
 2020SOL     OW 6958   0.782   6.106   5.010
 2020SOL    HW1 6959   0.787   6.137   4.915
 2020SOL    HW2 6960   0.834   6.021   5.021
 2021SOL     OW 6961   2.145   5.470   3.314
 2021SOL    HW1 6962   2.184   5.431   3.397
 2021SOL    HW2 6963   2.073   5.536   3.339
 2022SOL     OW 6964   1.828   3.620   3.561
 2022SOL    HW1 6965   1.764   3.625   3.484
 2022SOL    HW2 6966   1.919   3.646   3.531
 2023SOL     OW 6967   6.278   0.626   6.203
 2023SOL    HW1 6968   6.239   0.613   6.111
 2023SOL    HW2 6969   6.377   0.638   6.195
 2024SOL     OW 6970   0.111   0.046   3.228
 2024SOL    HW1 6971   0.089   6.982   3.183
 2024SOL    HW2 6972   0.054   0.057   3.309
 2025SOL     OW 6973   2.838   2.304   2.810
 2025SOL    HW1 6974   2.893   2.309   2.893
 2025SOL    HW2 6975   2.760   2.367   2.817
 2026SOL     OW 6976   0.217   3.037   6.219
 2026SOL    HW1 6977   0.208   3.137   6.216
 2026SOL    HW2 6978   0.148   2.995   6.161
 2027SOL     OW 6979   0.745   0.541   0.059
 2027SOL    HW1 6980   0.815   0.512   0.124
 2027SOL    HW2 6981   0.665   0.481   0.068
 2028SOL     OW 6982   2.759   0.889   5.311
 2028SOL    HW1 6983   2.852   0.854   5.303
 2028SOL    HW2 6984   2.695   0.823   5.272
 2029SOL     OW 6985   6.173   0.413   1.303
 2029SOL    HW1 6986   6.163   0.405   1.203
 2029SOL    HW2 6987   6.206   0.505   1.325
 2030SOL     OW 6988   2.550   0.529   2.971
 2030SOL    HW1 6989   2.563   0.581   3.055
 2030SOL    HW2 6990   2.462   0.481   2.974
 2031SOL     OW 6991   6.485   6.139   2.013
 2031SOL    HW1 6992   6.551   6.165   1.943
 2031SOL    HW2 6993   6.525   6.152   2.104
 2032SOL     OW 6994   5.063   6.385   1.783
 2032SOL    HW1 6995   5.012   6.447   1.844
 2032SOL    HW2 6996   5.067   6.424   1.691
 2033SOL     OW 6997   3.922   3.924   6.998
 2033SOL    HW1 6998   3.885   3.887   6.913
 2033SOL    HW2 6999   3.976   4.006   6.978
 2034SOL     OW 7000   2.993   6.535   5.150
 2034SOL    HW1 7001   2.941   6.536   5.235
 2034SOL    HW2 7002   2.931   6.551   5.073
 2035SOL     OW 7003   6.871   0.524   1.675
 2035SOL    HW1 7004   6.957   0.574   1.659
 2035SOL    HW2 7005   6.801   0.558   1.613
 2036SOL     OW 7006   1.294   5.149   2.839
 2036SOL    HW1 7007   1.321   5.119   2.748
 2036SOL    HW2 7008   1.370   5.199   2.881
 2037SOL     OW 7009   6.859   3.259   5.523
 2037SOL    HW1 7010   6.841   3.163   5.547
 2037SOL    HW2 7011   6.883   3.265   5.426
 2038SOL     OW 7012   0.894   1.941   6.611
 2038SOL    HW1 7013   0.914   2.004   6.686
 2038SOL    HW2 7014   0.803   1.959   6.575
 2039SOL     OW 7015   1.032   5.478   3.033
 2039SOL    HW1 7016   0.987   5.567   3.029
 2039SOL    HW2 7017   0.986   5.420   3.101
 2040SOL     OW 7018   3.955   3.053   4.384
 2040SOL    HW1 7019   4.022   3.063   4.457
 2040SOL    HW2 7020   3.926   3.144   4.353
 2041SOL     OW 7021   0.420   6.034   5.697
 2041SOL    HW1 7022   0.468   6.015   5.611
 2041SOL    HW2 7023   0.483   6.075   5.763
 2042SOL     OW 7024   5.070   4.639   6.834
 2042SOL    HW1 7025   4.973   4.643   6.857
 2042SOL    HW2 7026   5.086   4.684   6.746
 2043SOL     OW 7027   6.045   3.682   3.207
 2043SOL    HW1 7028   6.039   3.782   3.203
 2043SOL    HW2 7029   6.020   3.643   3.119
 2044SOL     OW 7030   5.066   6.751   1.747
 2044SOL    HW1 7031   5.128   6.737   1.669
 2044SOL    HW2 7032   5.115   6.733   1.832
 2045SOL     OW 7033   3.305   4.891   3.797
 2045SOL    HW1 7034   3.301   4.973   3.855
 2045SOL    HW2 7035   3.400   4.863   3.787
 2046SOL     OW 7036   6.553   1.822   3.767
 2046SOL    HW1 7037   6.554   1.904   3.711
 2046SOL    HW2 7038   6.636   1.817   3.822
 2047SOL     OW 7039   5.805   2.516   0.009
 2047SOL    HW1 7040   5.796   2.615   0.005
 2047SOL    HW2 7041   5.867   2.491   0.083
 2048SOL     OW 7042   1.546   6.240   0.329
 2048SOL    HW1 7043   1.543   6.337   0.304
 2048SOL    HW2 7044   1.454   6.201   0.321
 2049SOL     OW 7045   5.329   2.149   6.155
 2049SOL    HW1 7046   5.337   2.051   6.138
 2049SOL    HW2 7047   5.405   2.180   6.211
 2050SOL     OW 7048   0.400   2.942   2.996
 2050SOL    HW1 7049   0.431   3.030   3.034
 2050SOL    HW2 7050   0.475   2.877   2.998
 2051SOL     OW 7051   1.156   5.590   0.910
 2051SOL    HW1 7052   1.156   5.517   0.842
 2051SOL    HW2 7053   1.197   5.557   0.995
 2052SOL     OW 7054   1.267   3.597   0.971
 2052SOL    HW1 7055   1.260   3.566   0.876
 2052SOL    HW2 7056   1.218   3.683   0.983
 2053SOL     OW 7057   5.909   6.695   4.981
 2053SOL    HW1 7058   5.922   6.752   5.062
 2053SOL    HW2 7059   5.864   6.609   5.008
 2054SOL     OW 7060   3.506   3.483   2.528
 2054SOL    HW1 7061   3.454   3.536   2.595
 2054SOL    HW2 7062   3.602   3.476   2.558
 2055SOL     OW 7063   5.803   3.650   3.362
 2055SOL    HW1 7064   5.899   3.661   3.337
 2055SOL    HW2 7065   5.748   3.717   3.311
 2056SOL     OW 7066   2.643   6.748   2.424
 2056SOL    HW1 7067   2.573   6.802   2.378
 2056SOL    HW2 7068   2.717   6.727   2.360
 2057SOL     OW 7069   5.640   3.555   4.746
 2057SOL    HW1 7070   5.542   3.575   4.756
 2057SOL    HW2 7071   5.675   3.516   4.831
 2058SOL     OW 7072   0.610   1.566   3.235
 2058SOL    HW1 7073   0.515   1.581   3.264
 2058SOL    HW2 7074   0.670   1.572   3.314
 2059SOL     OW 7075   2.282   5.955   6.559
 2059SOL    HW1 7076   2.268   6.053   6.575
 2059SOL    HW2 7077   2.331   5.942   6.473
 2060SOL     OW 7078   0.054   3.603   0.784
 2060SOL    HW1 7079   7.012   3.634   0.714
 2060SOL    HW2 7080   0.129   3.553   0.741
 2061SOL     OW 7081   6.837   1.633   3.768
 2061SOL    HW1 7082   6.879   1.617   3.857
 2061SOL    HW2 7083   6.889   1.702   3.719
 2062SOL     OW 7084   6.466   0.337   3.730
 2062SOL    HW1 7085   6.396   0.312   3.797
 2062SOL    HW2 7086   6.445   0.293   3.642
 2063SOL     OW 7087   1.924   6.703   6.074
 2063SOL    HW1 7088   1.912   6.785   6.019
 2063SOL    HW2 7089   2.019   6.671   6.067
 2064SOL     OW 7090   0.718   2.218   5.499
 2064SOL    HW1 7091   0.767   2.144   5.455
 2064SOL    HW2 7092   0.637   2.242   5.445
 2065SOL     OW 7093   6.867   2.649   4.822
 2065SOL    HW1 7094   6.836   2.650   4.727
 2065SOL    HW2 7095   6.917   2.564   4.840
 2066SOL     OW 7096   1.010   4.923   3.649
 2066SOL    HW1 7097   1.069   4.972   3.585
 2066SOL    HW2 7098   0.929   4.889   3.601
 2067SOL     OW 7099   6.654   5.304   0.974
 2067SOL    HW1 7100   6.578   5.239   0.974
 2067SOL    HW2 7101   6.741   5.255   0.968
 2068SOL     OW 7102   1.874   1.240   4.779
 2068SOL    HW1 7103   1.821   1.186   4.844
 2068SOL    HW2 7104   1.860   1.203   4.687
 2069SOL     OW 7105   0.566   3.083   3.397
 2069SOL    HW1 7106   0.574   3.024   3.477
 2069SOL    HW2 7107   0.599   3.034   3.316
 2070SOL     OW 7108   1.292   0.958   2.259
 2070SOL    HW1 7109   1.355   0.882   2.271
 2070SOL    HW2 7110   1.276   1.003   2.347
 2071SOL     OW 7111   6.412   6.083   5.882
 2071SOL    HW1 7112   6.416   6.183   5.888
 2071SOL    HW2 7113   6.328   6.055   5.836
 2072SOL     OW 7114   4.195   6.285   3.865
 2072SOL    HW1 7115   4.182   6.190   3.893
 2072SOL    HW2 7116   4.151   6.345   3.932
 2073SOL     OW 7117   4.384   0.416   4.490
 2073SOL    HW1 7118   4.406   0.326   4.528
 2073SOL    HW2 7119   4.315   0.407   4.419
 2074SOL     OW 7120   1.397   2.651   0.242
 2074SOL    HW1 7121   1.400   2.725   0.308
 2074SOL    HW2 7122   1.490   2.627   0.214
 2075SOL     OW 7123   5.670   3.121   1.836
 2075SOL    HW1 7124   5.718   3.036   1.815
 2075SOL    HW2 7125   5.727   3.178   1.896
 2076SOL     OW 7126   5.931   0.337   0.084
 2076SOL    HW1 7127   5.995   0.296   0.020
 2076SOL    HW2 7128   5.921   0.277   0.164
 2077SOL     OW 7129   5.037   2.838   2.617
 2077SOL    HW1 7130   5.107   2.793   2.672
 2077SOL    HW2 7131   4.960   2.864   2.675
 2078SOL     OW 7132   1.131   5.860   5.418
 2078SOL    HW1 7133   1.174   5.940   5.376
 2078SOL    HW2 7134   1.198   5.786   5.426
 2079SOL     OW 7135   5.238   2.044   3.930
 2079SOL    HW1 7136   5.200   1.986   3.859
 2079SOL    HW2 7137   5.320   2.090   3.896
 2080SOL     OW 7138   1.730   0.380   5.017
 2080SOL    HW1 7139   1.785   0.313   4.966
 2080SOL    HW2 7140   1.715   0.347   5.110
 2081SOL     OW 7141   1.566   5.380   4.378
 2081SOL    HW1 7142   1.549   5.319   4.301
 2081SOL    HW2 7143   1.481   5.393   4.430
 2082SOL     OW 7144   0.791   0.271   2.884
 2082SOL    HW1 7145   0.817   0.367   2.888
 2082SOL    HW2 7146   0.744   0.253   2.798
 2083SOL     OW 7147   6.534   5.288   6.285
 2083SOL    HW1 7148   6.564   5.213   6.343
 2083SOL    HW2 7149   6.612   5.327   6.237
 2084SOL     OW 7150   1.396   3.665   3.494
 2084SOL    HW1 7151   1.385   3.629   3.587
 2084SOL    HW2 7152   1.307   3.698   3.461
 2085SOL     OW 7153   4.419   0.675   6.965
 2085SOL    HW1 7154   4.509   0.717   6.953
 2085SOL    HW2 7155   4.349   0.737   6.930
 2086SOL     OW 7156   4.390   6.778   5.904
 2086SOL    HW1 7157   4.306   6.821   5.870
 2086SOL    HW2 7158   4.406   6.692   5.855
 2087SOL     OW 7159   5.339   0.262   0.895
 2087SOL    HW1 7160   5.291   0.291   0.977
 2087SOL    HW2 7161   5.275   0.262   0.818
 2088SOL     OW 7162   1.711   5.894   0.106
 2088SOL    HW1 7163   1.669   5.836   0.035
 2088SOL    HW2 7164   1.798   5.854   0.134
 2089SOL     OW 7165   5.247   2.121   6.680
 2089SOL    HW1 7166   5.213   2.039   6.726
 2089SOL    HW2 7167   5.218   2.119   6.584
 2090SOL     OW 7168   3.916   2.442   5.746
 2090SOL    HW1 7169   3.962   2.431   5.834
 2090SOL    HW2 7170   3.825   2.480   5.761
 2091SOL     OW 7171   0.137   5.493   0.011
 2091SOL    HW1 7172   0.174   5.400   0.012
 2091SOL    HW2 7173   0.113   5.518   6.940
 2092SOL     OW 7174   5.608   3.880   0.054
 2092SOL    HW1 7175   5.663   3.892   0.136
 2092SOL    HW2 7176   5.557   3.964   0.035
 2093SOL     OW 7177   2.494   1.904   1.461
 2093SOL    HW1 7178   2.432   1.836   1.422
 2093SOL    HW2 7179   2.458   1.935   1.549
 2094SOL     OW 7180   5.960   1.591   1.905
 2094SOL    HW1 7181   5.916   1.521   1.849
 2094SOL    HW2 7182   6.058   1.591   1.887
 2095SOL     OW 7183   5.597   0.396   5.509
 2095SOL    HW1 7184   5.531   0.350   5.569
 2095SOL    HW2 7185   5.587   0.363   5.416
 2096SOL     OW 7186   4.836   3.785   2.936
 2096SOL    HW1 7187   4.859   3.729   2.857
 2096SOL    HW2 7188   4.841   3.730   3.019
 2097SOL     OW 7189   3.087   3.382   6.706
 2097SOL    HW1 7190   3.118   3.327   6.784
 2097SOL    HW2 7191   3.166   3.423   6.661
 2098SOL     OW 7192   3.754   5.971   1.929
 2098SOL    HW1 7193   3.742   5.916   1.847
 2098SOL    HW2 7194   3.682   5.950   1.995
 2099SOL     OW 7195   3.365   2.674   6.171
 2099SOL    HW1 7196   3.322   2.632   6.091
 2099SOL    HW2 7197   3.412   2.758   6.143
 2100SOL     OW 7198   4.798   2.489   6.554
 2100SOL    HW1 7199   4.822   2.508   6.649
 2100SOL    HW2 7200   4.879   2.455   6.506
 2101SOL     OW 7201   1.217   6.245   2.178
 2101SOL    HW1 7202   1.197   6.158   2.132
 2101SOL    HW2 7203   1.188   6.240   2.273
 2102SOL     OW 7204   6.237   4.502   2.943
 2102SOL    HW1 7205   6.305   4.431   2.926
 2102SOL    HW2 7206   6.146   4.463   2.931
 2103SOL     OW 7207   4.054   4.364   5.693
 2103SOL    HW1 7208   3.962   4.373   5.654
 2103SOL    HW2 7209   4.103   4.290   5.647
 2104SOL     OW 7210   2.476   4.470   1.126
 2104SOL    HW1 7211   2.571   4.466   1.096
 2104SOL    HW2 7212   2.416   4.468   1.047
 2105SOL     OW 7213   4.998   6.442   5.190
 2105SOL    HW1 7214   5.001   6.394   5.278
 2105SOL    HW2 7215   4.945   6.527   5.201
 2106SOL     OW 7216   4.951   4.267   1.413
 2106SOL    HW1 7217   5.006   4.328   1.356
 2106SOL    HW2 7218   5.005   4.239   1.492
 2107SOL     OW 7219   4.765   2.916   5.547
 2107SOL    HW1 7220   4.675   2.937   5.585
 2107SOL    HW2 7221   4.818   2.866   5.616
 2108SOL     OW 7222   6.141   5.662   5.064
 2108SOL    HW1 7223   6.122   5.569   5.098
 2108SOL    HW2 7224   6.059   5.718   5.074
 2109SOL     OW 7225   4.240   6.289   2.391
 2109SOL    HW1 7226   4.156   6.262   2.343
 2109SOL    HW2 7227   4.221   6.369   2.448
 2110SOL     OW 7228   2.089   1.484   0.732
 2110SOL    HW1 7229   2.015   1.551   0.734
 2110SOL    HW2 7230   2.170   1.526   0.690
 2111SOL     OW 7231   1.553   2.497   6.676
 2111SOL    HW1 7232   1.464   2.542   6.682
 2111SOL    HW2 7233   1.564   2.433   6.753
 2112SOL     OW 7234   5.579   3.431   0.782
 2112SOL    HW1 7235   5.595   3.430   0.881
 2112SOL    HW2 7236   5.605   3.520   0.745
 2113SOL     OW 7237   2.396   2.293   5.190
 2113SOL    HW1 7238   2.459   2.238   5.135
 2113SOL    HW2 7239   2.346   2.356   5.131
 2114SOL     OW 7240   1.579   1.942   6.558
 2114SOL    HW1 7241   1.675   1.923   6.541
 2114SOL    HW2 7242   1.559   2.038   6.537
 2115SOL     OW 7243   2.057   3.671   2.984
 2115SOL    HW1 7244   1.971   3.692   3.030
 2115SOL    HW2 7245   2.066   3.571   2.975
 2116SOL     OW 7246   1.075   5.308   2.818
 2116SOL    HW1 7247   1.158   5.254   2.802
 2116SOL    HW2 7248   1.076   5.343   2.912
 2117SOL     OW 7249   6.940   5.292   1.505
 2117SOL    HW1 7250   0.012   5.266   1.527
 2117SOL    HW2 7251   6.927   5.389   1.526
 2118SOL     OW 7252   6.567   3.145   2.683
 2118SOL    HW1 7253   6.639   3.151   2.752
 2118SOL    HW2 7254   6.608   3.148   2.592
 2119SOL     OW 7255   1.385   0.114   1.189
 2119SOL    HW1 7256   1.424   0.179   1.123
 2119SOL    HW2 7257   1.457   0.085   1.252
 2120SOL     OW 7258   6.980   5.061   3.572
 2120SOL    HW1 7259   6.988   5.092   3.477
 2120SOL    HW2 7260   0.014   4.979   3.585
 2121SOL     OW 7261   1.503   4.231   5.893
 2121SOL    HW1 7262   1.583   4.282   5.862
 2121SOL    HW2 7263   1.517   4.134   5.875
 2122SOL     OW 7264   5.843   3.980   5.717
 2122SOL    HW1 7265   5.814   4.074   5.700
 2122SOL    HW2 7266   5.880   3.974   5.810
 2123SOL     OW 7267   0.032   5.921   2.537
 2123SOL    HW1 7268   0.102   5.904   2.469
 2123SOL    HW2 7269   7.005   5.836   2.557
 2124SOL     OW 7270   3.425   2.198   1.041
 2124SOL    HW1 7271   3.499   2.165   0.982
 2124SOL    HW2 7272   3.405   2.129   1.110
 2125SOL     OW 7273   2.153   0.673   2.251
 2125SOL    HW1 7274   2.244   0.647   2.220
 2125SOL    HW2 7275   2.094   0.693   2.173
 2126SOL     OW 7276   3.836   1.587   6.005
 2126SOL    HW1 7277   3.800   1.506   6.052
 2126SOL    HW2 7278   3.847   1.661   6.071
 2127SOL     OW 7279   0.652   2.908   5.251
 2127SOL    HW1 7280   0.662   3.005   5.229
 2127SOL    HW2 7281   0.672   2.853   5.170
 2128SOL     OW 7282   6.129   3.560   3.964
 2128SOL    HW1 7283   6.104   3.548   4.060
 2128SOL    HW2 7284   6.046   3.561   3.908
 2129SOL     OW 7285   4.452   3.254   5.491
 2129SOL    HW1 7286   4.394   3.225   5.415
 2129SOL    HW2 7287   4.415   3.338   5.531
 2130SOL     OW 7288   3.550   0.183   2.356
 2130SOL    HW1 7289   3.507   0.204   2.268
 2130SOL    HW2 7290   3.532   0.258   2.421
 2131SOL     OW 7291   5.189   1.200   0.623
 2131SOL    HW1 7292   5.116   1.214   0.557
 2131SOL    HW2 7293   5.270   1.251   0.594
 2132SOL     OW 7294   3.482   0.394   1.515
 2132SOL    HW1 7295   3.517   0.358   1.428
 2132SOL    HW2 7296   3.417   0.329   1.553
 2133SOL     OW 7297   3.199   2.782   0.069
 2133SOL    HW1 7298   3.171   2.875   0.043
 2133SOL    HW2 7299   3.169   2.764   0.163
 2134SOL     OW 7300   0.325   1.048   6.081
 2134SOL    HW1 7301   0.367   0.963   6.049
 2134SOL    HW2 7302   0.366   1.074   6.169
 2135SOL     OW 7303   1.453   3.550   5.265
 2135SOL    HW1 7304   1.427   3.465   5.311
 2135SOL    HW2 7305   1.510   3.529   5.186
 2136SOL     OW 7306   1.059   3.957   3.856
 2136SOL    HW1 7307   1.035   3.915   3.768
 2136SOL    HW2 7308   0.975   3.983   3.904
 2137SOL     OW 7309   2.979   5.194   4.795
 2137SOL    HW1 7310   2.900   5.141   4.764
 2137SOL    HW2 7311   2.958   5.240   4.881
 2138SOL     OW 7312   6.567   0.566   2.625
 2138SOL    HW1 7313   6.504   0.496   2.659
 2138SOL    HW2 7314   6.629   0.525   2.558
 2139SOL     OW 7315   3.592   0.735   3.249
 2139SOL    HW1 7316   3.540   0.814   3.217
 2139SOL    HW2 7317   3.666   0.766   3.308
 2140SOL     OW 7318   3.801   6.784   4.420
 2140SOL    HW1 7319   3.809   6.816   4.514
 2140SOL    HW2 7320   3.716   6.730   4.410
 2141SOL     OW 7321   6.358   3.842   2.274
 2141SOL    HW1 7322   6.325   3.862   2.181
 2141SOL    HW2 7323   6.379   3.928   2.321
 2142SOL     OW 7324   2.001   2.747   3.029
 2142SOL    HW1 7325   1.977   2.665   2.977
 2142SOL    HW2 7326   1.930   2.817   3.015
 2143SOL     OW 7327   2.666   4.482   1.400
 2143SOL    HW1 7328   2.600   4.408   1.402
 2143SOL    HW2 7329   2.618   4.569   1.392
 2144SOL     OW 7330   1.278   5.325   4.435
 2144SOL    HW1 7331   1.240   5.415   4.457
 2144SOL    HW2 7332   1.244   5.295   4.346
 2145SOL     OW 7333   4.701   6.257   4.270
 2145SOL    HW1 7334   4.733   6.332   4.328
 2145SOL    HW2 7335   4.741   6.265   4.179
 2146SOL     OW 7336   2.677   3.403   1.748
 2146SOL    HW1 7337   2.726   3.365   1.827
 2146SOL    HW2 7338   2.578   3.398   1.765
 2147SOL     OW 7339   6.190   1.698   6.217
 2147SOL    HW1 7340   6.255   1.645   6.272
 2147SOL    HW2 7341   6.150   1.639   6.147
 2148SOL     OW 7342   5.776   2.532   5.538
 2148SOL    HW1 7343   5.696   2.589   5.555
 2148SOL    HW2 7344   5.747   2.442   5.505
 2149SOL     OW 7345   3.773   2.066   1.164
 2149SOL    HW1 7346   3.683   2.023   1.170
 2149SOL    HW2 7347   3.788   2.122   1.245
 2150SOL     OW 7348   2.653   1.917   2.482
 2150SOL    HW1 7349   2.588   1.991   2.498
 2150SOL    HW2 7350   2.719   1.913   2.557
 2151SOL     OW 7351   1.482   0.162   4.806
 2151SOL    HW1 7352   1.534   0.151   4.891
 2151SOL    HW2 7353   1.487   0.078   4.753
 2152SOL     OW 7354   3.300   5.907   1.386
 2152SOL    HW1 7355   3.333   5.828   1.335
 2152SOL    HW2 7356   3.202   5.895   1.406
 2153SOL     OW 7357   3.821   0.903   2.813
 2153SOL    HW1 7358   3.824   0.915   2.912
 2153SOL    HW2 7359   3.743   0.954   2.776
 2154SOL     OW 7360   5.148   0.330   5.129
 2154SOL    HW1 7361   5.073   0.396   5.132
 2154SOL    HW2 7362   5.112   0.240   5.105
 2155SOL     OW 7363   2.755   5.552   0.124
 2155SOL    HW1 7364   2.736   5.580   0.030
 2155SOL    HW2 7365   2.801   5.463   0.123
 2156SOL     OW 7366   1.889   1.534   4.939
 2156SOL    HW1 7367   1.830   1.573   4.867
 2156SOL    HW2 7368   1.853   1.559   5.029
 2157SOL     OW 7369   6.207   0.893   3.246
 2157SOL    HW1 7370   6.135   0.833   3.211
 2157SOL    HW2 7371   6.174   0.987   3.251
 2158SOL     OW 7372   3.743   5.962   1.235
 2158SOL    HW1 7373   3.837   5.995   1.224
 2158SOL    HW2 7374   3.735   5.872   1.194
 2159SOL     OW 7375   1.551   6.430   4.892
 2159SOL    HW1 7376   1.595   6.482   4.819
 2159SOL    HW2 7377   1.621   6.390   4.952
 2160SOL     OW 7378   4.022   3.912   0.458
 2160SOL    HW1 7379   4.048   3.972   0.382
 2160SOL    HW2 7380   3.926   3.888   0.451
 2161SOL     OW 7381   5.366   5.230   2.973
 2161SOL    HW1 7382   5.431   5.239   3.048
 2161SOL    HW2 7383   5.283   5.281   2.995
 2162SOL     OW 7384   2.035   1.136   2.064
 2162SOL    HW1 7385   2.117   1.183   2.031
 2162SOL    HW2 7386   1.995   1.082   1.990
 2163SOL     OW 7387   1.093   4.434   5.951
 2163SOL    HW1 7388   1.166   4.467   6.011
 2163SOL    HW2 7389   1.052   4.510   5.902
 2164SOL     OW 7390   1.607   2.848   0.124
 2164SOL    HW1 7391   1.547   2.927   0.138
 2164SOL    HW2 7392   1.580   2.799   0.041
 2165SOL     OW 7393   0.802   2.091   2.769
 2165SOL    HW1 7394   0.888   2.042   2.785
 2165SOL    HW2 7395   0.814   2.188   2.787
 2166SOL     OW 7396   1.626   2.474   5.181
 2166SOL    HW1 7397   1.533   2.509   5.168
 2166SOL    HW2 7398   1.676   2.477   5.095
 2167SOL     OW 7399   2.159   1.651   3.817
 2167SOL    HW1 7400   2.063   1.664   3.792
 2167SOL    HW2 7401   2.211   1.621   3.737
 2168SOL     OW 7402   0.472   2.185   3.930
 2168SOL    HW1 7403   0.436   2.104   3.884
 2168SOL    HW2 7404   0.395   2.243   3.959
 2169SOL     OW 7405   5.341   0.997   6.947
 2169SOL    HW1 7406   5.371   0.950   0.008
 2169SOL    HW2 7407   5.392   1.083   6.938
 2170SOL     OW 7408   6.717   5.196   5.569
 2170SOL    HW1 7409   6.770   5.119   5.606
 2170SOL    HW2 7410   6.740   5.209   5.473
 2171SOL     OW 7411   0.345   4.661   1.717
 2171SOL    HW1 7412   0.339   4.564   1.740
 2171SOL    HW2 7413   0.403   4.673   1.636
 2172SOL     OW 7414   2.144   2.462   0.597
 2172SOL    HW1 7415   2.056   2.418   0.616
 2172SOL    HW2 7416   2.211   2.393   0.570
 2173SOL     OW 7417   3.706   0.784   5.498
 2173SOL    HW1 7418   3.738   0.719   5.429
 2173SOL    HW2 7419   3.780   0.849   5.518
 2174SOL     OW 7420   5.557   6.587   5.293
 2174SOL    HW1 7421   5.462   6.557   5.297
 2174SOL    HW2 7422   5.590   6.584   5.199
 2175SOL     OW 7423   2.454   2.644   4.386
 2175SOL    HW1 7424   2.382   2.706   4.355
 2175SOL    HW2 7425   2.499   2.682   4.466
 2176SOL     OW 7426   6.786   1.977   0.484
 2176SOL    HW1 7427   6.821   1.897   0.435
 2176SOL    HW2 7428   6.738   2.037   0.419
 2177SOL     OW 7429   5.976   2.008   3.165
 2177SOL    HW1 7430   6.045   1.937   3.176
 2177SOL    HW2 7431   5.885   1.971   3.185
 2178SOL     OW 7432   1.867   2.084   1.089
 2178SOL    HW1 7433   1.819   2.071   1.176
 2178SOL    HW2 7434   1.921   2.168   1.093
 2179SOL     OW 7435   2.273   5.253   5.058
 2179SOL    HW1 7436   2.318   5.164   5.068
 2179SOL    HW2 7437   2.185   5.241   5.014
 2180SOL     OW 7438   1.606   2.374   1.940
 2180SOL    HW1 7439   1.531   2.329   1.989
 2180SOL    HW2 7440   1.580   2.387   1.844
 2181SOL     OW 7441   4.286   4.770   4.357
 2181SOL    HW1 7442   4.297   4.761   4.258
 2181SOL    HW2 7443   4.256   4.863   4.379
 2182SOL     OW 7444   1.277   3.578   4.234
 2182SOL    HW1 7445   1.373   3.580   4.207
 2182SOL    HW2 7446   1.261   3.644   4.307
 2183SOL     OW 7447   2.793   4.034   6.039
 2183SOL    HW1 7448   2.812   3.981   5.956
 2183SOL    HW2 7449   2.701   4.073   6.033
 2184SOL     OW 7450   4.699   1.921   6.764
 2184SOL    HW1 7451   4.749   1.914   6.850
 2184SOL    HW2 7452   4.727   1.847   6.703
 2185SOL     OW 7453   0.855   1.835   0.696
 2185SOL    HW1 7454   0.881   1.856   0.790
 2185SOL    HW2 7455   0.865   1.737   0.680
 2186SOL     OW 7456   0.571   5.793   1.977
 2186SOL    HW1 7457   0.609   5.701   1.974
 2186SOL    HW2 7458   0.512   5.802   2.057
 2187SOL     OW 7459   6.741   0.496   3.108
 2187SOL    HW1 7460   6.724   0.590   3.078
 2187SOL    HW2 7461   6.828   0.464   3.071
 2188SOL     OW 7462   0.011   6.675   5.176
 2188SOL    HW1 7463   6.971   6.615   5.225
 2188SOL    HW2 7464   0.013   6.650   5.079
 2189SOL     OW 7465   1.478   6.977   0.930
 2189SOL    HW1 7466   1.461   0.047   0.964
 2189SOL    HW2 7467   1.495   6.916   1.008
 2190SOL     OW 7468   0.373   2.870   1.709
 2190SOL    HW1 7469   0.353   2.882   1.612
 2190SOL    HW2 7470   0.375   2.772   1.730
 2191SOL     OW 7471   3.025   2.189   6.735
 2191SOL    HW1 7472   2.993   2.105   6.692
 2191SOL    HW2 7473   3.033   2.261   6.666
 2192SOL     OW 7474   4.312   1.082   2.578
 2192SOL    HW1 7475   4.260   0.998   2.562
 2192SOL    HW2 7476   4.332   1.126   2.491
 2193SOL     OW 7477   6.010   5.892   6.371
 2193SOL    HW1 7478   5.963   5.905   6.459
 2193SOL    HW2 7479   5.984   5.966   6.309
 2194SOL     OW 7480   2.632   4.282   5.751
 2194SOL    HW1 7481   2.694   4.290   5.674
 2194SOL    HW2 7482   2.578   4.198   5.743
 2195SOL     OW 7483   0.429   0.517   4.348
 2195SOL    HW1 7484   0.392   0.495   4.258
 2195SOL    HW2 7485   0.501   0.586   4.339
 2196SOL     OW 7486   3.022   6.843   5.002
 2196SOL    HW1 7487   3.101   6.868   5.058
 2196SOL    HW2 7488   3.053   6.789   4.923
 2197SOL     OW 7489   3.228   3.374   0.985
 2197SOL    HW1 7490   3.281   3.290   0.968
 2197SOL    HW2 7491   3.166   3.390   0.909
 2198SOL     OW 7492   5.796   1.600   0.278
 2198SOL    HW1 7493   5.805   1.510   0.234
 2198SOL    HW2 7494   5.706   1.638   0.259
 2199SOL     OW 7495   5.530   1.022   3.299
 2199SOL    HW1 7496   5.518   0.976   3.387
 2199SOL    HW2 7497   5.575   0.960   3.235
 2200SOL     OW 7498   2.331   1.004   5.355
 2200SOL    HW1 7499   2.278   0.964   5.280
 2200SOL    HW2 7500   2.313   1.102   5.359
 2201SOL     OW 7501   6.586   2.811   3.338
 2201SOL    HW1 7502   6.509   2.781   3.282
 2201SOL    HW2 7503   6.590   2.911   3.339
 2202SOL     OW 7504   2.387   5.330   2.044
 2202SOL    HW1 7505   2.388   5.384   2.128
 2202SOL    HW2 7506   2.362   5.389   1.967
 2203SOL     OW 7507   1.835   2.107   1.532
 2203SOL    HW1 7508   1.920   2.054   1.528
 2203SOL    HW2 7509   1.812   2.125   1.628
 2204SOL     OW 7510   3.583   0.914   1.182
 2204SOL    HW1 7511   3.514   0.985   1.195
 2204SOL    HW2 7512   3.672   0.956   1.168
 2205SOL     OW 7513   1.004   0.454   6.092
 2205SOL    HW1 7514   0.936   0.384   6.069
 2205SOL    HW2 7515   0.967   0.516   6.161
 2206SOL     OW 7516   3.283   4.226   6.216
 2206SOL    HW1 7517   3.355   4.167   6.179
 2206SOL    HW2 7518   3.322   4.289   6.283
 2207SOL     OW 7519   3.066   4.043   6.885
 2207SOL    HW1 7520   3.023   4.082   6.804
 2207SOL    HW2 7521   3.142   4.102   6.913
 2208SOL     OW 7522   1.582   6.205   3.067
 2208SOL    HW1 7523   1.669   6.166   3.098
 2208SOL    HW2 7524   1.507   6.144   3.094
 2209SOL     OW 7525   1.731   6.314   5.439
 2209SOL    HW1 7526   1.635   6.327   5.414
 2209SOL    HW2 7527   1.745   6.344   5.533
 2210SOL     OW 7528   6.245   4.796   3.839
 2210SOL    HW1 7529   6.261   4.883   3.790
 2210SOL    HW2 7530   6.190   4.736   3.782
 2211SOL     OW 7531   5.508   0.587   0.550
 2211SOL    HW1 7532   5.531   0.497   0.513
 2211SOL    HW2 7533   5.572   0.610   0.624
 2212SOL     OW 7534   1.434   5.805   6.705
 2212SOL    HW1 7535   1.337   5.831   6.702
 2212SOL    HW2 7536   1.489   5.873   6.656
 2213SOL     OW 7537   3.568   2.576   5.316
 2213SOL    HW1 7538   3.614   2.643   5.257
 2213SOL    HW2 7539   3.470   2.597   5.319
 2214SOL     OW 7540   3.346   2.833   5.122
 2214SOL    HW1 7541   3.313   2.750   5.167
 2214SOL    HW2 7542   3.446   2.831   5.118
 2215SOL     OW 7543   6.052   1.387   0.414
 2215SOL    HW1 7544   6.095   1.427   0.495
 2215SOL    HW2 7545   5.955   1.372   0.432
 2216SOL     OW 7546   1.862   0.414   6.076
 2216SOL    HW1 7547   1.814   0.355   6.012
 2216SOL    HW2 7548   1.860   0.374   6.168
 2217SOL     OW 7549   4.110   6.691   1.268
 2217SOL    HW1 7550   4.111   6.790   1.287
 2217SOL    HW2 7551   4.061   6.645   1.342
 2218SOL     OW 7552   0.477   6.447   6.980
 2218SOL    HW1 7553   0.425   6.445   6.895
 2218SOL    HW2 7554   0.523   6.360   6.994
 2219SOL     OW 7555   5.584   1.604   1.662
 2219SOL    HW1 7556   5.565   1.603   1.761
 2219SOL    HW2 7557   5.536   1.682   1.620
 2220SOL     OW 7558   1.087   0.306   4.622
 2220SOL    HW1 7559   1.181   0.329   4.649
 2220SOL    HW2 7560   1.046   0.249   4.693
 2221SOL     OW 7561   5.861   1.177   5.136
 2221SOL    HW1 7562   5.829   1.128   5.216
 2221SOL    HW2 7563   5.813   1.143   5.055
 2222SOL     OW 7564   4.823   0.477   0.863
 2222SOL    HW1 7565   4.767   0.542   0.811
 2222SOL    HW2 7566   4.796   0.384   0.839
 2223SOL     OW 7567   6.103   1.544   5.011
 2223SOL    HW1 7568   6.191   1.554   4.965
 2223SOL    HW2 7569   6.030   1.542   4.943
 2224SOL     OW 7570   1.430   3.848   0.545
 2224SOL    HW1 7571   1.362   3.857   0.618
 2224SOL    HW2 7572   1.464   3.938   0.521
 2225SOL     OW 7573   6.686   6.667   2.900
 2225SOL    HW1 7574   6.631   6.586   2.921
 2225SOL    HW2 7575   6.668   6.738   2.968
 2226SOL     OW 7576   3.700   4.643   0.954
 2226SOL    HW1 7577   3.770   4.668   0.888
 2226SOL    HW2 7578   3.737   4.576   1.019
 2227SOL     OW 7579   5.514   3.199   0.635
 2227SOL    HW1 7580   5.554   3.259   0.704
 2227SOL    HW2 7581   5.460   3.253   0.571
 2228SOL     OW 7582   2.879   5.016   0.793
 2228SOL    HW1 7583   2.915   4.925   0.774
 2228SOL    HW2 7584   2.899   5.041   0.888
 2229SOL     OW 7585   4.121   1.772   4.434
 2229SOL    HW1 7586   4.183   1.812   4.367
 2229SOL    HW2 7587   4.072   1.845   4.482
 2230SOL     OW 7588   5.890   5.822   6.606
 2230SOL    HW1 7589   5.876   5.754   6.678
 2230SOL    HW2 7590   5.809   5.881   6.598
 2231SOL     OW 7591   0.289   0.538   2.232
 2231SOL    HW1 7592   0.240   0.492   2.158
 2231SOL    HW2 7593   0.232   0.538   2.315
 2232SOL     OW 7594   0.212   3.397   5.105
 2232SOL    HW1 7595   0.130   3.351   5.072
 2232SOL    HW2 7596   0.270   3.332   5.154
 2233SOL     OW 7597   2.661   3.332   0.711
 2233SOL    HW1 7598   2.611   3.303   0.631
 2233SOL    HW2 7599   2.642   3.429   0.730
 2234SOL     OW 7600   3.832   1.958   1.706
 2234SOL    HW1 7601   3.864   2.040   1.754
 2234SOL    HW2 7602   3.875   1.953   1.616
 2235SOL     OW 7603   2.681   0.216   1.433
 2235SOL    HW1 7604   2.588   0.209   1.469
 2235SOL    HW2 7605   2.744   0.242   1.507
 2236SOL     OW 7606   1.288   4.764   6.430
 2236SOL    HW1 7607   1.226   4.742   6.505
 2236SOL    HW2 7608   1.340   4.682   6.404
 2237SOL     OW 7609   5.977   4.827   4.345
 2237SOL    HW1 7610   5.978   4.922   4.377
 2237SOL    HW2 7611   5.922   4.772   4.408
 2238SOL     OW 7612   5.374   4.490   0.798
 2238SOL    HW1 7613   5.276   4.479   0.814
 2238SOL    HW2 7614   5.418   4.400   0.798
 2239SOL     OW 7615   3.939   4.850   3.263
 2239SOL    HW1 7616   3.851   4.890   3.239
 2239SOL    HW2 7617   4.006   4.871   3.191
 2240SOL     OW 7618   5.112   5.754   3.806
 2240SOL    HW1 7619   5.170   5.756   3.725
 2240SOL    HW2 7620   5.049   5.832   3.804
 2241SOL     OW 7621   0.368   6.570   3.118
 2241SOL    HW1 7622   0.299   6.561   3.047
 2241SOL    HW2 7623   0.427   6.649   3.097
 2242SOL     OW 7624   5.105   2.000   2.976
 2242SOL    HW1 7625   5.148   2.011   2.886
 2242SOL    HW2 7626   5.006   1.992   2.965
 2243SOL     OW 7627   2.621   6.413   6.036
 2243SOL    HW1 7628   2.698   6.370   6.083
 2243SOL    HW2 7629   2.592   6.494   6.087
 2244SOL     OW 7630   2.353   6.581   1.748
 2244SOL    HW1 7631   2.406   6.568   1.665
 2244SOL    HW2 7632   2.257   6.562   1.730
 2245SOL     OW 7633   0.472   1.866   1.450
 2245SOL    HW1 7634   0.514   1.919   1.523
 2245SOL    HW2 7635   0.534   1.793   1.422
 2246SOL     OW 7636   0.795   1.877   5.640
 2246SOL    HW1 7637   0.888   1.843   5.654
 2246SOL    HW2 7638   0.784   1.907   5.545
 2247SOL     OW 7639   3.557   3.307   4.784
 2247SOL    HW1 7640   3.578   3.219   4.826
 2247SOL    HW2 7641   3.482   3.350   4.833
 2248SOL     OW 7642   4.656   4.163   5.926
 2248SOL    HW1 7643   4.621   4.109   6.002
 2248SOL    HW2 7644   4.753   4.184   5.941
 2249SOL     OW 7645   6.361   6.235   3.014
 2249SOL    HW1 7646   6.386   6.263   2.921
 2249SOL    HW2 7647   6.431   6.173   3.051
 2250SOL     OW 7648   4.205   3.579   6.410
 2250SOL    HW1 7649   4.186   3.489   6.449
 2250SOL    HW2 7650   4.293   3.612   6.444
 2251SOL     OW 7651   5.057   1.020   7.019
 2251SOL    HW1 7652   5.039   0.982   6.928
 2251SOL    HW2 7653   5.146   1.066   7.018
 2252SOL     OW 7654   5.036   2.746   2.346
 2252SOL    HW1 7655   4.968   2.803   2.297
 2252SOL    HW2 7656   5.035   2.770   2.443
 2253SOL     OW 7657   0.917   3.177   6.690
 2253SOL    HW1 7658   0.908   3.204   6.594
 2253SOL    HW2 7659   0.878   3.249   6.748
 2254SOL     OW 7660   3.937   3.161   4.931
 2254SOL    HW1 7661   3.975   3.247   4.899
 2254SOL    HW2 7662   3.952   3.090   4.862
 2255SOL     OW 7663   4.795   2.442   6.878
 2255SOL    HW1 7664   4.822   2.396   6.963
 2255SOL    HW2 7665   4.876   2.457   6.821
 2256SOL     OW 7666   5.555   5.928   1.370
 2256SOL    HW1 7667   5.538   5.831   1.389
 2256SOL    HW2 7668   5.554   5.943   1.271
 2257SOL     OW 7669   0.040   2.487   4.039
 2257SOL    HW1 7670   0.114   2.505   3.974
 2257SOL    HW2 7671   6.988   2.439   3.992
 2258SOL     OW 7672   1.330   5.669   5.517
 2258SOL    HW1 7673   1.352   5.641   5.423
 2258SOL    HW2 7674   1.407   5.720   5.555
 2259SOL     OW 7675   5.432   3.534   0.187
 2259SOL    HW1 7676   5.338   3.511   0.212
 2259SOL    HW2 7677   5.455   3.492   0.099
 2260SOL     OW 7678   6.082   4.777   2.534
 2260SOL    HW1 7679   6.108   4.746   2.626
 2260SOL    HW2 7680   5.984   4.800   2.534
 2261SOL     OW 7681   6.841   6.146   6.720
 2261SOL    HW1 7682   6.876   6.073   6.660
 2261SOL    HW2 7683   6.741   6.141   6.723
 2262SOL     OW 7684   5.715   1.672   2.303
 2262SOL    HW1 7685   5.713   1.575   2.326
 2262SOL    HW2 7686   5.745   1.724   2.383
 2263SOL     OW 7687   3.295   6.061   6.823
 2263SOL    HW1 7688   3.308   6.123   6.745
 2263SOL    HW2 7689   3.240   6.106   6.893
 2264SOL     OW 7690   3.503   3.911   0.652
 2264SOL    HW1 7691   3.513   3.840   0.721
 2264SOL    HW2 7692   3.430   3.886   0.588
 2265SOL     OW 7693   0.545   1.462   4.747
 2265SOL    HW1 7694   0.598   1.377   4.748
 2265SOL    HW2 7695   0.457   1.446   4.703
 2266SOL     OW 7696   5.856   2.067   0.775
 2266SOL    HW1 7697   5.924   2.000   0.745
 2266SOL    HW2 7698   5.771   2.019   0.799
 2267SOL     OW 7699   4.783   2.506   4.707
 2267SOL    HW1 7700   4.735   2.546   4.785
 2267SOL    HW2 7701   4.842   2.432   4.738
 2268SOL     OW 7702   6.550   3.733   6.619
 2268SOL    HW1 7703   6.497   3.659   6.576
 2268SOL    HW2 7704   6.643   3.734   6.583
 2269SOL     OW 7705   5.624   5.858   4.766
 2269SOL    HW1 7706   5.559   5.934   4.770
 2269SOL    HW2 7707   5.695   5.871   4.836
 2270SOL     OW 7708   3.243   2.172   6.190
 2270SOL    HW1 7709   3.175   2.235   6.154
 2270SOL    HW2 7710   3.307   2.221   6.249
 2271SOL     OW 7711   6.137   4.245   0.401
 2271SOL    HW1 7712   6.163   4.157   0.360
 2271SOL    HW2 7713   6.192   4.318   0.360
 2272SOL     OW 7714   6.115   1.971   6.303
 2272SOL    HW1 7715   6.112   1.876   6.271
 2272SOL    HW2 7716   6.049   2.025   6.252
 2273SOL     OW 7717   2.035   0.123   2.295
 2273SOL    HW1 7718   1.961   0.181   2.261
 2273SOL    HW2 7719   1.997   0.036   2.327
 2274SOL     OW 7720   0.303   3.328   6.739
 2274SOL    HW1 7721   0.305   3.320   6.639
 2274SOL    HW2 7722   0.215   3.294   6.772
 2275SOL     OW 7723   6.079   0.751   4.019
 2275SOL    HW1 7724   6.148   0.807   3.974
 2275SOL    HW2 7725   6.123   0.689   4.084
 2276SOL     OW 7726   2.199   5.348   0.876
 2276SOL    HW1 7727   2.290   5.326   0.841
 2276SOL    HW2 7728   2.185   5.302   0.963
 2277SOL     OW 7729   4.238   3.569   5.436
 2277SOL    HW1 7730   4.269   3.512   5.512
 2277SOL    HW2 7731   4.268   3.663   5.450
 2278SOL     OW 7732   6.590   4.950   3.628
 2278SOL    HW1 7733   6.594   4.878   3.697
 2278SOL    HW2 7734   6.656   5.021   3.652
 2279SOL     OW 7735   4.934   6.018   4.889
 2279SOL    HW1 7736   4.881   6.092   4.930
 2279SOL    HW2 7737   4.967   5.957   4.961
 2280SOL     OW 7738   0.431   6.370   4.154
 2280SOL    HW1 7739   0.476   6.435   4.093
 2280SOL    HW2 7740   0.446   6.398   4.249
 2281SOL     OW 7741   3.128   1.173   1.905
 2281SOL    HW1 7742   3.158   1.244   1.842
 2281SOL    HW2 7743   3.029   1.176   1.915
 2282SOL     OW 7744   4.582   6.991   5.119
 2282SOL    HW1 7745   4.606   7.003   5.023
 2282SOL    HW2 7746   4.567   6.894   5.139
 2283SOL     OW 7747   0.368   4.546   2.067
 2283SOL    HW1 7748   0.432   4.570   2.139
 2283SOL    HW2 7749   0.370   4.616   1.995
 2284SOL     OW 7750   1.564   2.320   0.247
 2284SOL    HW1 7751   1.656   2.346   0.218
 2284SOL    HW2 7752   1.570   2.263   0.329
 2285SOL     OW 7753   2.198   1.983   1.178
 2285SOL    HW1 7754   2.169   2.073   1.212
 2285SOL    HW2 7755   2.296   1.984   1.160
 2286SOL     OW 7756   6.888   0.636   4.061
 2286SOL    HW1 7757   6.808   0.647   4.003
 2286SOL    HW2 7758   6.884   0.547   4.106
 2287SOL     OW 7759   1.706   1.286   3.618
 2287SOL    HW1 7760   1.773   1.297   3.544
 2287SOL    HW2 7761   1.615   1.306   3.583
 2288SOL     OW 7762   6.509   5.588   4.716
 2288SOL    HW1 7763   6.510   5.512   4.650
 2288SOL    HW2 7764   6.418   5.594   4.757
 2289SOL     OW 7765   0.360   4.313   2.759
 2289SOL    HW1 7766   0.322   4.381   2.821
 2289SOL    HW2 7767   0.328   4.331   2.666
 2290SOL     OW 7768   1.478   4.101   1.904
 2290SOL    HW1 7769   1.492   4.052   1.818
 2290SOL    HW2 7770   1.557   4.158   1.924
 2291SOL     OW 7771   2.220   2.319   6.370
 2291SOL    HW1 7772   2.235   2.232   6.417
 2291SOL    HW2 7773   2.122   2.330   6.351
 2292SOL     OW 7774   5.770   2.535   4.479
 2292SOL    HW1 7775   5.675   2.551   4.506
 2292SOL    HW2 7776   5.801   2.448   4.518
 2293SOL     OW 7777   5.163   6.886   1.186
 2293SOL    HW1 7778   5.222   6.848   1.257
 2293SOL    HW2 7779   5.217   6.939   1.121
 2294SOL     OW 7780   3.159   1.183   6.575
 2294SOL    HW1 7781   3.250   1.149   6.599
 2294SOL    HW2 7782   3.162   1.223   6.483
 2295SOL     OW 7783   0.544   1.582   2.630
 2295SOL    HW1 7784   0.543   1.627   2.541
 2295SOL    HW2 7785   0.638   1.569   2.660
 2296SOL     OW 7786   3.566   6.264   1.879
 2296SOL    HW1 7787   3.471   6.292   1.863
 2296SOL    HW2 7788   3.569   6.198   1.955
 2297SOL     OW 7789   4.550   4.619   5.423
 2297SOL    HW1 7790   4.639   4.597   5.385
 2297SOL    HW2 7791   4.491   4.538   5.420
 2298SOL     OW 7792   4.214   3.361   1.909
 2298SOL    HW1 7793   4.202   3.320   2.000
 2298SOL    HW2 7794   4.153   3.316   1.844
 2299SOL     OW 7795   4.920   5.000   4.741
 2299SOL    HW1 7796   5.000   5.060   4.739
 2299SOL    HW2 7797   4.950   4.905   4.742
 2300SOL     OW 7798   2.243   5.835   1.770
 2300SOL    HW1 7799   2.310   5.804   1.703
 2300SOL    HW2 7800   2.252   5.933   1.784
 2301SOL     OW 7801   3.448   2.901   2.802
 2301SOL    HW1 7802   3.396   2.894   2.887
 2301SOL    HW2 7803   3.536   2.855   2.813
 2302SOL     OW 7804   3.412   6.879   1.076
 2302SOL    HW1 7805   3.384   6.965   1.032
 2302SOL    HW2 7806   3.479   6.833   1.019
 2303SOL     OW 7807   2.089   3.422   6.486
 2303SOL    HW1 7808   2.011   3.367   6.514
 2303SOL    HW2 7809   2.172   3.388   6.532
 2304SOL     OW 7810   5.156   6.751   4.233
 2304SOL    HW1 7811   5.220   6.722   4.304
 2304SOL    HW2 7812   5.062   6.732   4.263
 2305SOL     OW 7813   2.414   6.916   2.341
 2305SOL    HW1 7814   2.423   6.915   2.441
 2305SOL    HW2 7815   2.329   6.869   2.315
 2306SOL     OW 7816   2.264   5.217   1.627
 2306SOL    HW1 7817   2.352   5.263   1.616
 2306SOL    HW2 7818   2.256   5.182   1.720
 2307SOL     OW 7819   6.553   3.562   3.954
 2307SOL    HW1 7820   6.538   3.469   3.987
 2307SOL    HW2 7821   6.482   3.585   3.888
 2308SOL     OW 7822   1.664   4.713   1.607
 2308SOL    HW1 7823   1.613   4.724   1.692
 2308SOL    HW2 7824   1.759   4.689   1.628
 2309SOL     OW 7825   1.430   0.744   6.329
 2309SOL    HW1 7826   1.338   0.771   6.359
 2309SOL    HW2 7827   1.437   0.752   6.230
 2310SOL     OW 7828   5.743   5.869   0.380
 2310SOL    HW1 7829   5.706   5.884   0.472
 2310SOL    HW2 7830   5.684   5.915   0.313
 2311SOL     OW 7831   2.103   6.688   1.380
 2311SOL    HW1 7832   2.110   6.589   1.389
 2311SOL    HW2 7833   2.189   6.730   1.408
 2312SOL     OW 7834   4.151   5.972   2.684
 2312SOL    HW1 7835   4.194   6.037   2.746
 2312SOL    HW2 7836   4.070   6.013   2.643
 2313SOL     OW 7837   5.988   5.832   1.286
 2313SOL    HW1 7838   6.073   5.862   1.329
 2313SOL    HW2 7839   5.985   5.864   1.191
 2314SOL     OW 7840   5.605   6.545   3.686
 2314SOL    HW1 7841   5.672   6.573   3.755
 2314SOL    HW2 7842   5.595   6.618   3.618
 2315SOL     OW 7843   5.054   3.131   6.235
 2315SOL    HW1 7844   5.030   3.125   6.331
 2315SOL    HW2 7845   5.140   3.181   6.225
 2316SOL     OW 7846   3.597   1.328   4.005
 2316SOL    HW1 7847   3.688   1.337   4.045
 2316SOL    HW2 7848   3.587   1.392   3.929
 2317SOL     OW 7849   0.797   6.593   2.768
 2317SOL    HW1 7850   0.860   6.608   2.692
 2317SOL    HW2 7851   0.703   6.593   2.734
 2318SOL     OW 7852   1.889   2.565   3.820
 2318SOL    HW1 7853   1.927   2.625   3.750
 2318SOL    HW2 7854   1.895   2.610   3.909
 2319SOL     OW 7855   2.024   4.917   3.794
 2319SOL    HW1 7856   2.096   4.875   3.850
 2319SOL    HW2 7857   2.001   4.856   3.718
 2320SOL     OW 7858   0.934   2.043   4.989
 2320SOL    HW1 7859   0.964   2.121   5.044
 2320SOL    HW2 7860   0.986   2.041   4.903
 2321SOL     OW 7861   2.699   0.512   6.914
 2321SOL    HW1 7862   2.756   0.560   6.980
 2321SOL    HW2 7863   2.685   0.569   6.833
 2322SOL     OW 7864   3.485   1.286   4.739
 2322SOL    HW1 7865   3.503   1.325   4.649
 2322SOL    HW2 7866   3.429   1.203   4.728
 2323SOL     OW 7867   2.776   5.104   1.623
 2323SOL    HW1 7868   2.711   5.037   1.589
 2323SOL    HW2 7869   2.851   5.057   1.670
 2324SOL     OW 7870   6.189   6.238   1.385
 2324SOL    HW1 7871   6.185   6.297   1.305
 2324SOL    HW2 7872   6.139   6.282   1.461
 2325SOL     OW 7873   1.083   4.739   2.384
 2325SOL    HW1 7874   1.083   4.644   2.415
 2325SOL    HW2 7875   1.158   4.753   2.319
 2326SOL     OW 7876   3.557   5.938   5.755
 2326SOL    HW1 7877   3.561   6.024   5.805
 2326SOL    HW2 7878   3.638   5.883   5.776
 2327SOL     OW 7879   6.085   2.982   4.490
 2327SOL    HW1 7880   6.021   3.009   4.418
 2327SOL    HW2 7881   6.165   2.938   4.449
 2328SOL     OW 7882   2.964   1.712   2.481
 2328SOL    HW1 7883   3.005   1.803   2.491
 2328SOL    HW2 7884   2.962   1.687   2.384
 2329SOL     OW 7885   1.582   4.000   4.981
 2329SOL    HW1 7886   1.640   4.076   5.009
 2329SOL    HW2 7887   1.631   3.914   4.993
 2330SOL     OW 7888   0.924   3.676   2.152
 2330SOL    HW1 7889   0.979   3.760   2.160
 2330SOL    HW2 7890   0.929   3.641   2.059
 2331SOL     OW 7891   5.949   4.753   1.408
 2331SOL    HW1 7892   5.859   4.794   1.422
 2331SOL    HW2 7893   5.940   4.672   1.350
 2332SOL     OW 7894   4.322   1.640   5.154
 2332SOL    HW1 7895   4.298   1.556   5.105
 2332SOL    HW2 7896   4.399   1.684   5.109
 2333SOL     OW 7897   0.452   5.641   2.792
 2333SOL    HW1 7898   0.510   5.671   2.868
 2333SOL    HW2 7899   0.456   5.708   2.718
 2334SOL     OW 7900   2.456   0.182   6.822
 2334SOL    HW1 7901   2.502   0.152   6.906
 2334SOL    HW2 7902   2.462   0.110   6.754
 2335SOL     OW 7903   6.114   1.424   3.012
 2335SOL    HW1 7904   6.077   1.463   3.096
 2335SOL    HW2 7905   6.180   1.352   3.035
 2336SOL     OW 7906   4.360   1.559   4.795
 2336SOL    HW1 7907   4.424   1.632   4.818
 2336SOL    HW2 7908   4.336   1.509   4.879
 2337SOL     OW 7909   4.430   1.218   3.309
 2337SOL    HW1 7910   4.515   1.242   3.358
 2337SOL    HW2 7911   4.453   1.189   3.216
 2338SOL     OW 7912   1.209   1.437   5.911
 2338SOL    HW1 7913   1.203   1.377   5.831
 2338SOL    HW2 7914   1.220   1.382   5.993
 2339SOL     OW 7915   3.852   3.938   4.967
 2339SOL    HW1 7916   3.772   3.903   5.016
 2339SOL    HW2 7917   3.863   4.036   4.987
 2340SOL     OW 7918   4.997   4.668   0.111
 2340SOL    HW1 7919   5.077   4.621   0.148
 2340SOL    HW2 7920   4.949   4.607   0.049
 2341SOL     OW 7921   5.714   4.145   0.860
 2341SOL    HW1 7922   5.710   4.065   0.919
 2341SOL    HW2 7923   5.779   4.128   0.785
 2342SOL     OW 7924   0.580   6.330   5.291
 2342SOL    HW1 7925   0.497   6.279   5.315
 2342SOL    HW2 7926   0.660   6.284   5.329
 2343SOL     OW 7927   1.696   6.165   2.218
 2343SOL    HW1 7928   1.748   6.096   2.269
 2343SOL    HW2 7929   1.617   6.120   2.174
 2344SOL     OW 7930   1.695   0.964   1.323
 2344SOL    HW1 7931   1.769   0.912   1.364
 2344SOL    HW2 7932   1.689   0.941   1.225
 2345SOL     OW 7933   2.963   5.310   5.722
 2345SOL    HW1 7934   2.997   5.264   5.805
 2345SOL    HW2 7935   2.968   5.409   5.734
 2346SOL     OW 7936   4.776   2.890   4.529
 2346SOL    HW1 7937   4.868   2.852   4.521
 2346SOL    HW2 7938   4.760   2.917   4.624
 2347SOL     OW 7939   2.358   3.187   1.746
 2347SOL    HW1 7940   2.366   3.276   1.789
 2347SOL    HW2 7941   2.448   3.158   1.712
 2348SOL     OW 7942   3.655   6.186   3.534
 2348SOL    HW1 7943   3.676   6.093   3.504
 2348SOL    HW2 7944   3.736   6.244   3.520
 2349SOL     OW 7945   0.379   4.857   5.884
 2349SOL    HW1 7946   0.396   4.761   5.907
 2349SOL    HW2 7947   0.453   4.914   5.920
 2350SOL     OW 7948   5.166   0.092   6.430
 2350SOL    HW1 7949   5.137   0.172   6.482
 2350SOL    HW2 7950   5.129   0.097   6.337
 2351SOL     OW 7951   3.475   5.261   2.053
 2351SOL    HW1 7952   3.550   5.298   2.108
 2351SOL    HW2 7953   3.467   5.314   1.968
 2352SOL     OW 7954   1.072   3.368   2.357
 2352SOL    HW1 7955   1.093   3.333   2.448
 2352SOL    HW2 7956   0.975   3.355   2.338
 2353SOL     OW 7957   3.123   4.637   5.315
 2353SOL    HW1 7958   3.055   4.607   5.249
 2353SOL    HW2 7959   3.081   4.646   5.406
 2354SOL     OW 7960   3.153   1.810   6.069
 2354SOL    HW1 7961   3.246   1.848   6.070
 2354SOL    HW2 7962   3.115   1.818   5.977
 2355SOL     OW 7963   1.452   5.436   6.484
 2355SOL    HW1 7964   1.542   5.472   6.508
 2355SOL    HW2 7965   1.441   5.436   6.385
 2356SOL     OW 7966   2.485   4.043   0.076
 2356SOL    HW1 7967   2.555   3.994   0.126
 2356SOL    HW2 7968   2.505   4.040   7.000
 2357SOL     OW 7969   4.344   5.259   3.748
 2357SOL    HW1 7970   4.355   5.189   3.679
 2357SOL    HW2 7971   4.271   5.233   3.812
 2358SOL     OW 7972   2.607   5.236   5.347
 2358SOL    HW1 7973   2.636   5.213   5.440
 2358SOL    HW2 7974   2.651   5.174   5.282
 2359SOL     OW 7975   0.237   0.939   5.587
 2359SOL    HW1 7976   0.202   0.962   5.496
 2359SOL    HW2 7977   0.336   0.953   5.589
 2360SOL     OW 7978   5.378   6.155   5.911
 2360SOL    HW1 7979   5.324   6.236   5.890
 2360SOL    HW2 7980   5.375   6.137   6.009
 2361SOL     OW 7981   3.106   0.466   5.036
 2361SOL    HW1 7982   3.132   0.543   4.978
 2361SOL    HW2 7983   3.131   0.485   5.131
 2362SOL     OW 7984   3.048   0.309   5.424
 2362SOL    HW1 7985   3.060   0.211   5.408
 2362SOL    HW2 7986   2.991   0.322   5.505
 2363SOL     OW 7987   4.044   2.554   5.536
 2363SOL    HW1 7988   4.127   2.575   5.588
 2363SOL    HW2 7989   3.977   2.512   5.596
 2364SOL     OW 7990   0.449   2.285   3.273
 2364SOL    HW1 7991   0.460   2.275   3.174
 2364SOL    HW2 7992   0.359   2.325   3.292
 2365SOL     OW 7993   6.268   2.368   6.367
 2365SOL    HW1 7994   6.341   2.305   6.394
 2365SOL    HW2 7995   6.182   2.339   6.408
 2366SOL     OW 7996   1.335   4.657   5.619
 2366SOL    HW1 7997   1.318   4.744   5.574
 2366SOL    HW2 7998   1.283   4.652   5.704
 2367SOL     OW 7999   3.619   3.623   7.010
 2367SOL    HW1 8000   3.716   3.602   0.000
 2367SOL    HW2 8001   3.598   3.712   0.029
 2368SOL     OW 8002   4.735   0.038   3.601
 2368SOL    HW1 8003   4.707   7.002   3.524
 2368SOL    HW2 8004   4.786   0.117   3.566
 2369SOL     OW 8005   1.666   2.221   5.158
 2369SOL    HW1 8006   1.757   2.189   5.188
 2369SOL    HW2 8007   1.662   2.321   5.169
 2370SOL     OW 8008   4.926   3.751   6.695
 2370SOL    HW1 8009   4.952   3.727   6.602
 2370SOL    HW2 8010   4.899   3.667   6.744
 2371SOL     OW 8011   1.230   6.130   1.652
 2371SOL    HW1 8012   1.221   6.041   1.697
 2371SOL    HW2 8013   1.306   6.127   1.588
 2372SOL     OW 8014   0.594   2.478   1.302
 2372SOL    HW1 8015   0.637   2.414   1.239
 2372SOL    HW2 8016   0.516   2.434   1.347
 2373SOL     OW 8017   6.599   0.015   0.223
 2373SOL    HW1 8018   6.633   6.982   0.299
 2373SOL    HW2 8019   6.500   0.000   0.212
 2374SOL     OW 8020   6.246   1.046   4.289
 2374SOL    HW1 8021   6.273   0.957   4.251
 2374SOL    HW2 8022   6.327   1.100   4.308
 2375SOL     OW 8023   1.960   6.670   4.265
 2375SOL    HW1 8024   1.880   6.638   4.316
 2375SOL    HW2 8025   2.043   6.635   4.308
 2376SOL     OW 8026   5.791   2.770   4.355
 2376SOL    HW1 8027   5.859   2.740   4.289
 2376SOL    HW2 8028   5.758   2.692   4.409
 2377SOL     OW 8029   3.567   3.986   3.731
 2377SOL    HW1 8030   3.564   3.919   3.657
 2377SOL    HW2 8031   3.477   4.029   3.742
 2378SOL     OW 8032   5.483   2.410   6.503
 2378SOL    HW1 8033   5.555   2.421   6.571
 2378SOL    HW2 8034   5.395   2.396   6.550
 2379SOL     OW 8035   6.597   1.546   6.636
 2379SOL    HW1 8036   6.522   1.607   6.612
 2379SOL    HW2 8037   6.590   1.522   6.733
 2380SOL     OW 8038   6.288   6.357   6.329
 2380SOL    HW1 8039   6.291   6.439   6.271
 2380SOL    HW2 8040   6.254   6.280   6.276
 2381SOL     OW 8041   2.194   4.096   3.955
 2381SOL    HW1 8042   2.183   4.033   3.878
 2381SOL    HW2 8043   2.252   4.172   3.926
 2382SOL     OW 8044   2.590   4.914   3.043
 2382SOL    HW1 8045   2.603   4.954   3.133
 2382SOL    HW2 8046   2.622   4.978   2.973
 2383SOL     OW 8047   5.098   5.784   0.005
 2383SOL    HW1 8048   5.138   5.692   0.008
 2383SOL    HW2 8049   5.061   5.801   6.936
 2384SOL     OW 8050   0.579   6.770   2.199
 2384SOL    HW1 8051   0.601   6.836   2.270
 2384SOL    HW2 8052   0.654   6.704   2.191
 2385SOL     OW 8053   6.120   6.805   1.276
 2385SOL    HW1 8054   6.185   6.845   1.341
 2385SOL    HW2 8055   6.049   6.873   1.254
 2386SOL     OW 8056   5.197   4.399   4.014
 2386SOL    HW1 8057   5.254   4.440   3.943
 2386SOL    HW2 8058   5.234   4.422   4.104
 2387SOL     OW 8059   6.904   1.915   3.596
 2387SOL    HW1 8060   6.956   1.942   3.677
 2387SOL    HW2 8061   6.910   1.988   3.527
 2388SOL     OW 8062   0.994   1.961   4.206
 2388SOL    HW1 8063   1.014   1.873   4.162
 2388SOL    HW2 8064   0.904   1.992   4.178
 2389SOL     OW 8065   5.248   3.826   3.794
 2389SOL    HW1 8066   5.310   3.755   3.762
 2389SOL    HW2 8067   5.289   3.916   3.778
 2390SOL     OW 8068   3.241   3.461   4.452
 2390SOL    HW1 8069   3.175   3.489   4.522
 2390SOL    HW2 8070   3.305   3.395   4.492
 2391SOL     OW 8071   4.529   4.607   5.692
 2391SOL    HW1 8072   4.607   4.646   5.741
 2391SOL    HW2 8073   4.546   4.608   5.594
 2392SOL     OW 8074   3.766   6.186   5.526
 2392SOL    HW1 8075   3.863   6.200   5.544
 2392SOL    HW2 8076   3.721   6.275   5.515
 2393SOL     OW 8077   3.928   5.235   0.602
 2393SOL    HW1 8078   3.850   5.218   0.541
 2393SOL    HW2 8079   4.011   5.195   0.562
 2394SOL     OW 8080   1.904   3.276   5.154
 2394SOL    HW1 8081   1.998   3.288   5.185
 2394SOL    HW2 8082   1.858   3.208   5.212
 2395SOL     OW 8083   6.325   2.714   6.940
 2395SOL    HW1 8084   6.392   2.784   6.965
 2395SOL    HW2 8085   6.371   2.640   6.889
 2396SOL     OW 8086   4.669   6.069   0.047
 2396SOL    HW1 8087   4.710   6.087   0.136
 2396SOL    HW2 8088   4.740   6.038   7.006
 2397SOL     OW 8089   0.168   3.488   0.518
 2397SOL    HW1 8090   0.152   3.529   0.428
 2397SOL    HW2 8091   0.244   3.535   0.563
 2398SOL     OW 8092   3.025   4.557   6.060
 2398SOL    HW1 8093   2.963   4.597   5.992
 2398SOL    HW2 8094   3.035   4.459   6.042
 2399SOL     OW 8095   4.649   1.336   2.507
 2399SOL    HW1 8096   4.722   1.404   2.499
 2399SOL    HW2 8097   4.603   1.326   2.419
 2400SOL     OW 8098   4.057   4.839   0.418
 2400SOL    HW1 8099   4.029   4.763   0.477
 2400SOL    HW2 8100   4.134   4.887   0.460
 2401SOL     OW 8101   4.013   0.835   6.089
 2401SOL    HW1 8102   3.939   0.866   6.029
 2401SOL    HW2 8103   4.010   0.887   6.174
 2402SOL     OW 8104   0.314   2.738   4.130
 2402SOL    HW1 8105   0.287   2.768   4.039
 2402SOL    HW2 8106   0.236   2.742   4.192
 2403SOL     OW 8107   2.894   2.914   0.161
 2403SOL    HW1 8108   2.840   2.970   0.099
 2403SOL    HW2 8109   2.845   2.828   0.180
 2404SOL     OW 8110   5.736   1.287   2.573
 2404SOL    HW1 8111   5.807   1.304   2.641
 2404SOL    HW2 8112   5.743   1.193   2.540
 2405SOL     OW 8113   3.165   3.599   3.837
 2405SOL    HW1 8114   3.249   3.549   3.815
 2405SOL    HW2 8115   3.162   3.617   3.935
 2406SOL     OW 8116   1.854   0.596   3.750
 2406SOL    HW1 8117   1.758   0.587   3.724
 2406SOL    HW2 8118   1.903   0.645   3.678
 2407SOL     OW 8119   4.834   2.895   2.786
 2407SOL    HW1 8120   4.844   2.926   2.881
 2407SOL    HW2 8121   4.782   2.809   2.784
 2408SOL     OW 8122   3.091   5.393   2.251
 2408SOL    HW1 8123   3.180   5.351   2.271
 2408SOL    HW2 8124   3.033   5.326   2.204
 2409SOL     OW 8125   1.687   2.431   2.240
 2409SOL    HW1 8126   1.763   2.475   2.288
 2409SOL    HW2 8127   1.718   2.396   2.152
 2410SOL     OW 8128   5.713   2.992   6.178
 2410SOL    HW1 8129   5.668   2.951   6.099
 2410SOL    HW2 8130   5.707   2.930   6.257
 2411SOL     OW 8131   4.366   5.238   5.497
 2411SOL    HW1 8132   4.391   5.209   5.589
 2411SOL    HW2 8133   4.438   5.214   5.433
 2412SOL     OW 8134   2.876   3.930   0.059
 2412SOL    HW1 8135   2.820   4.013   0.073
 2412SOL    HW2 8136   2.951   3.951   7.019
 2413SOL     OW 8137   6.558   2.803   7.000
 2413SOL    HW1 8138   6.610   2.756   6.929
 2413SOL    HW2 8139   6.591   2.774   0.068
 2414SOL     OW 8140   5.872   4.257   2.026
 2414SOL    HW1 8141   5.933   4.178   2.032
 2414SOL    HW2 8142   5.897   4.324   2.095
 2415SOL     OW 8143   0.367   7.021   1.096
 2415SOL    HW1 8144   0.458   6.990   1.068
 2415SOL    HW2 8145   0.297   6.961   1.055
 2416SOL     OW 8146   3.288   1.871   5.224
 2416SOL    HW1 8147   3.236   1.945   5.181
 2416SOL    HW2 8148   3.226   1.813   5.276
 2417SOL     OW 8149   4.211   2.638   6.987
 2417SOL    HW1 8150   4.274   2.709   7.018
 2417SOL    HW2 8151   4.257   2.549   6.987
 2418SOL     OW 8152   3.148   3.772   3.565
 2418SOL    HW1 8153   3.095   3.815   3.638
 2418SOL    HW2 8154   3.244   3.766   3.593
 2419SOL     OW 8155   0.788   6.355   3.587
 2419SOL    HW1 8156   0.792   6.453   3.604
 2419SOL    HW2 8157   0.699   6.331   3.550
 2420SOL     OW 8158   4.034   0.407   2.369
 2420SOL    HW1 8159   4.025   0.455   2.282
 2420SOL    HW2 8160   4.057   0.472   2.441
 2421SOL     OW 8161   2.464   0.873   5.067
 2421SOL    HW1 8162   2.495   0.914   5.152
 2421SOL    HW2 8163   2.489   0.933   4.990
 2422SOL     OW 8164   5.935   0.061   1.756
 2422SOL    HW1 8165   5.920   0.039   1.660
 2422SOL    HW2 8166   5.863   0.123   1.787
 2423SOL     OW 8167   1.566   5.957   3.713
 2423SOL    HW1 8168   1.655   5.964   3.757
 2423SOL    HW2 8169   1.547   5.861   3.689
 2424SOL     OW 8170   5.685   6.130   5.968
 2424SOL    HW1 8171   5.590   6.161   5.961
 2424SOL    HW2 8172   5.746   6.207   5.951
 2425SOL     OW 8173   5.965   0.326   4.276
 2425SOL    HW1 8174   6.054   0.362   4.302
 2425SOL    HW2 8175   5.975   0.268   4.196
 2426SOL     OW 8176   0.883   4.358   4.092
 2426SOL    HW1 8177   0.910   4.444   4.133
 2426SOL    HW2 8178   0.962   4.314   4.050
 2427SOL     OW 8179   6.137   5.682   6.656
 2427SOL    HW1 8180   6.101   5.589   6.658
 2427SOL    HW2 8181   6.077   5.740   6.601
 2428SOL     OW 8182   0.354   0.166   3.210
 2428SOL    HW1 8183   0.263   0.129   3.232
 2428SOL    HW2 8184   0.423   0.121   3.266
 2429SOL     OW 8185   6.421   6.050   4.280
 2429SOL    HW1 8186   6.410   5.950   4.274
 2429SOL    HW2 8187   6.378   6.083   4.364
 2430SOL     OW 8188   5.858   2.453   1.613
 2430SOL    HW1 8189   5.950   2.486   1.637
 2430SOL    HW2 8190   5.815   2.519   1.551
 2431SOL     OW 8191   3.892   0.092   1.554
 2431SOL    HW1 8192   3.976   0.140   1.578
 2431SOL    HW2 8193   3.814   0.135   1.599
 2432SOL     OW 8194   4.203   6.518   2.880
 2432SOL    HW1 8195   4.284   6.574   2.869
 2432SOL    HW2 8196   4.209   6.466   2.965
 2433SOL     OW 8197   3.087   6.552   1.045
 2433SOL    HW1 8198   3.139   6.485   1.096
 2433SOL    HW2 8199   3.135   6.640   1.046
 2434SOL     OW 8200   4.259   1.366   3.500
 2434SOL    HW1 8201   4.270   1.459   3.467
 2434SOL    HW2 8202   4.311   1.303   3.442
 2435SOL     OW 8203   4.621   5.697   5.928
 2435SOL    HW1 8204   4.701   5.696   5.868
 2435SOL    HW2 8205   4.541   5.666   5.877
 2436SOL     OW 8206   1.552   6.964   0.659
 2436SOL    HW1 8207   1.583   6.957   0.754
 2436SOL    HW2 8208   1.452   6.952   0.656
 2437SOL     OW 8209   4.232   5.400   0.572
 2437SOL    HW1 8210   4.310   5.338   0.583
 2437SOL    HW2 8211   4.255   5.471   0.506
 2438SOL     OW 8212   3.814   1.387   5.450
 2438SOL    HW1 8213   3.866   1.318   5.401
 2438SOL    HW2 8214   3.877   1.447   5.500
 2439SOL     OW 8215   1.439   4.243   0.134
 2439SOL    HW1 8216   1.527   4.290   0.119
 2439SOL    HW2 8217   1.456   4.146   0.149
 2440SOL     OW 8218   3.672   6.366   5.038
 2440SOL    HW1 8219   3.646   6.309   5.116
 2440SOL    HW2 8220   3.692   6.308   4.959
 2441SOL     OW 8221   5.991   0.744   0.189
 2441SOL    HW1 8222   5.994   0.702   0.098
 2441SOL    HW2 8223   6.017   0.676   0.258
 2442SOL     OW 8224   6.890   5.756   3.954
 2442SOL    HW1 8225   6.990   5.760   3.959
 2442SOL    HW2 8226   6.852   5.848   3.960
 2443SOL     OW 8227   3.477   6.973   6.501
 2443SOL    HW1 8228   3.407   0.016   6.530
 2443SOL    HW2 8229   3.460   6.885   6.544
 2444SOL     OW 8230   3.669   4.239   6.208
 2444SOL    HW1 8231   3.745   4.259   6.269
 2444SOL    HW2 8232   3.636   4.146   6.226
 2445SOL     OW 8233   6.981   1.096   2.514
 2445SOL    HW1 8234   0.016   1.059   2.588
 2445SOL    HW2 8235   6.950   1.021   2.456
 2446SOL     OW 8236   0.414   2.997   4.374
 2446SOL    HW1 8237   0.459   3.065   4.433
 2446SOL    HW2 8238   0.479   2.924   4.353
 2447SOL     OW 8239   2.291   1.102   0.890
 2447SOL    HW1 8240   2.306   1.070   0.984
 2447SOL    HW2 8241   2.247   1.029   0.837
 2448SOL     OW 8242   0.786   0.546   4.402
 2448SOL    HW1 8243   0.727   0.466   4.413
 2448SOL    HW2 8244   0.792   0.570   4.305
 2449SOL     OW 8245   6.911   3.989   2.443
 2449SOL    HW1 8246   6.902   3.987   2.543
 2449SOL    HW2 8247   6.991   4.044   2.418
 2450SOL     OW 8248   2.748   5.042   4.751
 2450SOL    HW1 8249   2.786   4.954   4.721
 2450SOL    HW2 8250   2.668   5.025   4.808
 2451SOL     OW 8251   0.479   6.898   3.921
 2451SOL    HW1 8252   0.416   6.971   3.895
 2451SOL    HW2 8253   0.550   6.935   3.981
 2452SOL     OW 8254   2.637   2.134   3.366
 2452SOL    HW1 8255   2.641   2.138   3.466
 2452SOL    HW2 8256   2.674   2.047   3.335
 2453SOL     OW 8257   6.732   3.494   0.566
 2453SOL    HW1 8258   6.663   3.462   0.632
 2453SOL    HW2 8259   6.755   3.420   0.503
 2454SOL     OW 8260   3.138   0.855   6.842
 2454SOL    HW1 8261   3.207   0.831   6.774
 2454SOL    HW2 8262   3.055   0.801   6.826
 2455SOL     OW 8263   5.142   0.629   1.097
 2455SOL    HW1 8264   5.188   0.561   1.040
 2455SOL    HW2 8265   5.150   0.602   1.193
 2456SOL     OW 8266   5.847   1.283   6.947
 2456SOL    HW1 8267   5.865   1.331   6.861
 2456SOL    HW2 8268   5.832   1.186   6.929
 2457SOL     OW 8269   6.235   6.152   6.706
 2457SOL    HW1 8270   6.201   6.133   6.798
 2457SOL    HW2 8271   6.289   6.074   6.674
 2458SOL     OW 8272   2.331   5.808   4.048
 2458SOL    HW1 8273   2.418   5.776   4.085
 2458SOL    HW2 8274   2.334   5.807   3.948
 2459SOL     OW 8275   2.665   6.412   7.008
 2459SOL    HW1 8276   2.744   6.421   6.948
 2459SOL    HW2 8277   2.695   6.385   0.077
 2460SOL     OW 8278   1.741   1.689   1.922
 2460SOL    HW1 8279   1.656   1.639   1.938
 2460SOL    HW2 8280   1.819   1.631   1.947
 2461SOL     OW 8281   4.510   0.305   2.676
 2461SOL    HW1 8282   4.522   0.268   2.768
 2461SOL    HW2 8283   4.581   0.270   2.616
 2462SOL     OW 8284   2.520   5.382   0.308
 2462SOL    HW1 8285   2.547   5.477   0.296
 2462SOL    HW2 8286   2.547   5.329   0.228
 2463SOL     OW 8287   6.188   2.564   4.357
 2463SOL    HW1 8288   6.269   2.545   4.303
 2463SOL    HW2 8289   6.197   2.521   4.447
 2464SOL     OW 8290   1.695   3.847   1.926
 2464SOL    HW1 8291   1.613   3.799   1.957
 2464SOL    HW2 8292   1.676   3.945   1.922
 2465SOL     OW 8293   0.991   6.947   1.897
 2465SOL    HW1 8294   0.926   6.987   1.962
 2465SOL    HW2 8295   1.083   6.979   1.919
 2466SOL     OW 8296   3.040   1.515   1.748
 2466SOL    HW1 8297   3.005   1.451   1.679
 2466SOL    HW2 8298   3.035   1.609   1.712
 2467SOL     OW 8299   5.580   1.653   4.929
 2467SOL    HW1 8300   5.641   1.657   4.850
 2467SOL    HW2 8301   5.633   1.668   5.012
 2468SOL     OW 8302   5.665   6.110   2.435
 2468SOL    HW1 8303   5.756   6.111   2.393
 2468SOL    HW2 8304   5.638   6.204   2.457
 2469SOL     OW 8305   4.023   4.343   5.273
 2469SOL    HW1 8306   3.956   4.416   5.287
 2469SOL    HW2 8307   4.113   4.382   5.258
 2470SOL     OW 8308   3.752   4.711   5.891
 2470SOL    HW1 8309   3.801   4.668   5.815
 2470SOL    HW2 8310   3.817   4.763   5.947
 2471SOL     OW 8311   2.403   6.377   0.679
 2471SOL    HW1 8312   2.382   6.385   0.582
 2471SOL    HW2 8313   2.464   6.299   0.693
 2472SOL     OW 8314   4.322   2.014   4.027
 2472SOL    HW1 8315   4.294   2.106   4.057
 2472SOL    HW2 8316   4.421   2.010   4.018
 2473SOL     OW 8317   2.105   3.951   5.224
 2473SOL    HW1 8318   2.181   3.983   5.167
 2473SOL    HW2 8319   2.073   3.862   5.190
 2474SOL     OW 8320   0.747   5.874   0.424
 2474SOL    HW1 8321   0.826   5.917   0.381
 2474SOL    HW2 8322   0.701   5.815   0.358
 2475SOL     OW 8323   4.992   0.852   1.102
 2475SOL    HW1 8324   4.903   0.851   1.147
 2475SOL    HW2 8325   5.026   0.759   1.093
 2476SOL     OW 8326   0.545   2.561   3.761
 2476SOL    HW1 8327   0.571   2.580   3.856
 2476SOL    HW2 8328   0.494   2.639   3.725
 2477SOL     OW 8329   5.474   1.017   2.546
 2477SOL    HW1 8330   5.413   1.079   2.597
 2477SOL    HW2 8331   5.427   0.985   2.464
 2478SOL     OW 8332   5.957   0.533   2.282
 2478SOL    HW1 8333   6.002   0.493   2.362
 2478SOL    HW2 8334   6.022   0.590   2.232
 2479SOL     OW 8335   1.250   3.962   1.355
 2479SOL    HW1 8336   1.348   3.951   1.372
 2479SOL    HW2 8337   1.202   3.880   1.386
 2480SOL     OW 8338   6.056   4.467   1.075
 2480SOL    HW1 8339   5.971   4.431   1.036
 2480SOL    HW2 8340   6.082   4.413   1.154
 2481SOL     OW 8341   2.668   0.215   0.273
 2481SOL    HW1 8342   2.650   0.197   0.176
 2481SOL    HW2 8343   2.738   0.285   0.282
 2482SOL     OW 8344   4.860   3.157   5.870
 2482SOL    HW1 8345   4.821   3.066   5.868
 2482SOL    HW2 8346   4.805   3.219   5.813
 2483SOL     OW 8347   2.300   1.551   6.728
 2483SOL    HW1 8348   2.229   1.528   6.794
 2483SOL    HW2 8349   2.388   1.560   6.774
 2484SOL     OW 8350   2.207   0.384   0.083
 2484SOL    HW1 8351   2.297   0.403   0.044
 2484SOL    HW2 8352   2.210   0.296   0.131
 2485SOL     OW 8353   4.986   4.281   2.150
 2485SOL    HW1 8354   4.949   4.188   2.152
 2485SOL    HW2 8355   5.081   4.280   2.182
 2486SOL     OW 8356   3.134   5.167   3.470
 2486SOL    HW1 8357   3.059   5.154   3.534
 2486SOL    HW2 8358   3.191   5.085   3.468
 2487SOL     OW 8359   3.840   5.694   6.926
 2487SOL    HW1 8360   3.780   5.726   6.852
 2487SOL    HW2 8361   3.922   5.653   6.886
 2488SOL     OW 8362   2.148   4.394   2.622
 2488SOL    HW1 8363   2.174   4.454   2.698
 2488SOL    HW2 8364   2.060   4.352   2.641
 2489SOL     OW 8365   2.349   5.809   3.757
 2489SOL    HW1 8366   2.419   5.749   3.719
 2489SOL    HW2 8367   2.298   5.852   3.683
 2490SOL     OW 8368   6.512   5.625   1.063
 2490SOL    HW1 8369   6.466   5.706   1.026
 2490SOL    HW2 8370   6.593   5.605   1.008
 2491SOL     OW 8371   2.319   5.677   1.159
 2491SOL    HW1 8372   2.404   5.709   1.115
 2491SOL    HW2 8373   2.249   5.666   1.089
 2492SOL     OW 8374   4.460   2.990   6.721
 2492SOL    HW1 8375   4.476   3.086   6.744
 2492SOL    HW2 8376   4.363   2.978   6.698
 2493SOL     OW 8377   5.660   0.326   2.866
 2493SOL    HW1 8378   5.718   0.367   2.936
 2493SOL    HW2 8379   5.569   0.367   2.870
 2494SOL     OW 8380   5.906   3.872   2.515
 2494SOL    HW1 8381   5.849   3.854   2.435
 2494SOL    HW2 8382   5.949   3.787   2.544
 2495SOL     OW 8383   5.339   0.620   5.041
 2495SOL    HW1 8384   5.392   0.673   4.975
 2495SOL    HW2 8385   5.245   0.611   5.009
 2496SOL     OW 8386   0.165   4.500   6.026
 2496SOL    HW1 8387   0.238   4.568   6.026
 2496SOL    HW2 8388   0.157   4.459   5.935
 2497SOL     OW 8389   0.306   1.069   1.166
 2497SOL    HW1 8390   0.323   1.115   1.253
 2497SOL    HW2 8391   0.359   0.984   1.162
 2498SOL     OW 8392   3.448   2.071   3.654
 2498SOL    HW1 8393   3.517   2.038   3.718
 2498SOL    HW2 8394   3.381   2.127   3.703
 2499SOL     OW 8395   4.604   2.016   4.021
 2499SOL    HW1 8396   4.612   2.086   4.092
 2499SOL    HW2 8397   4.693   2.005   3.976
 2500SOL     OW 8398   4.382   3.165   5.808
 2500SOL    HW1 8399   4.407   3.260   5.788
 2500SOL    HW2 8400   4.305   3.164   5.873
 2501SOL     OW 8401   0.101   6.068   6.911
 2501SOL    HW1 8402   0.069   6.022   6.993
 2501SOL    HW2 8403   0.061   6.160   6.907
 2502SOL     OW 8404   2.339   6.069   3.147
 2502SOL    HW1 8405   2.255   6.019   3.167
 2502SOL    HW2 8406   2.325   6.167   3.160
 2503SOL     OW 8407   3.531   5.678   6.005
 2503SOL    HW1 8408   3.547   5.625   5.921
 2503SOL    HW2 8409   3.495   5.768   5.981
 2504SOL     OW 8410   3.077   5.311   5.460
 2504SOL    HW1 8411   3.012   5.313   5.535
 2504SOL    HW2 8412   3.046   5.248   5.389
 2505SOL     OW 8413   1.716   6.536   4.327
 2505SOL    HW1 8414   1.695   6.477   4.405
 2505SOL    HW2 8415   1.737   6.478   4.248
 2506SOL     OW 8416   5.769   3.503   6.101
 2506SOL    HW1 8417   5.741   3.414   6.139
 2506SOL    HW2 8418   5.845   3.539   6.155
 2507SOL     OW 8419   0.201   3.977   0.711
 2507SOL    HW1 8420   0.246   3.922   0.641
 2507SOL    HW2 8421   0.106   3.949   0.720
 2508SOL     OW 8422   2.620   1.300   2.240
 2508SOL    HW1 8423   2.669   1.387   2.231
 2508SOL    HW2 8424   2.614   1.274   2.336
 2509SOL     OW 8425   6.090   3.030   3.205
 2509SOL    HW1 8426   6.046   2.964   3.144
 2509SOL    HW2 8427   6.069   3.006   3.300
 2510SOL     OW 8428   3.520   4.443   1.218
 2510SOL    HW1 8429   3.536   4.352   1.256
 2510SOL    HW2 8430   3.607   4.491   1.207
 2511SOL     OW 8431   2.322   2.083   4.401
 2511SOL    HW1 8432   2.228   2.117   4.403
 2511SOL    HW2 8433   2.340   2.040   4.313
 2512SOL     OW 8434   5.163   5.626   5.354
 2512SOL    HW1 8435   5.174   5.701   5.419
 2512SOL    HW2 8436   5.079   5.639   5.302
 2513SOL     OW 8437   1.159   3.211   5.647
 2513SOL    HW1 8438   1.126   3.156   5.570
 2513SOL    HW2 8439   1.236   3.164   5.690
 2514SOL     OW 8440   6.529   4.088   4.458
 2514SOL    HW1 8441   6.544   3.998   4.499
 2514SOL    HW2 8442   6.520   4.157   4.530
 2515SOL     OW 8443   1.226   0.124   0.600
 2515SOL    HW1 8444   1.204   0.158   0.691
 2515SOL    HW2 8445   1.202   0.027   0.594
 2516SOL     OW 8446   5.583   6.961   2.771
 2516SOL    HW1 8447   5.658   7.020   2.800
 2516SOL    HW2 8448   5.504   7.017   2.746
 2517SOL     OW 8449   1.967   5.751   5.359
 2517SOL    HW1 8450   2.008   5.794   5.278
 2517SOL    HW2 8451   1.935   5.659   5.335
 2518SOL     OW 8452   2.456   2.932   6.831
 2518SOL    HW1 8453   2.545   2.910   6.791
 2518SOL    HW2 8454   2.383   2.900   6.771
 2519SOL     OW 8455   5.037   5.510   4.369
 2519SOL    HW1 8456   5.016   5.499   4.466
 2519SOL    HW2 8457   5.094   5.434   4.338
 2520SOL     OW 8458   1.270   2.520   0.977
 2520SOL    HW1 8459   1.227   2.597   0.930
 2520SOL    HW2 8460   1.324   2.467   0.911
 2521SOL     OW 8461   0.850   6.604   5.613
 2521SOL    HW1 8462   0.901   6.621   5.697
 2521SOL    HW2 8463   0.805   6.515   5.618
 2522SOL     OW 8464   0.553   3.203   5.855
 2522SOL    HW1 8465   0.642   3.228   5.893
 2522SOL    HW2 8466   0.493   3.282   5.855
 2523SOL     OW 8467   0.246   3.365   1.232
 2523SOL    HW1 8468   0.150   3.338   1.225
 2523SOL    HW2 8469   0.287   3.364   1.141
 2524SOL     OW 8470   0.713   5.843   4.136
 2524SOL    HW1 8471   0.684   5.926   4.088
 2524SOL    HW2 8472   0.685   5.762   4.084
 2525SOL     OW 8473   1.132   2.271   4.985
 2525SOL    HW1 8474   1.173   2.313   5.066
 2525SOL    HW2 8475   1.034   2.291   4.984
 2526SOL     OW 8476   1.282   3.917   6.120
 2526SOL    HW1 8477   1.248   3.989   6.060
 2526SOL    HW2 8478   1.321   3.843   6.066
 2527SOL     OW 8479   4.980   0.179   4.874
 2527SOL    HW1 8480   4.941   0.106   4.817
 2527SOL    HW2 8481   4.966   0.157   4.971
 2528SOL     OW 8482   6.301   4.579   1.063
 2528SOL    HW1 8483   6.202   4.582   1.068
 2528SOL    HW2 8484   6.329   4.525   0.984
 2529SOL     OW 8485   6.374   5.629   6.058
 2529SOL    HW1 8486   6.331   5.561   6.117
 2529SOL    HW2 8487   6.322   5.638   5.973
 2530SOL     OW 8488   1.025   6.148   4.700
 2530SOL    HW1 8489   1.045   6.199   4.783
 2530SOL    HW2 8490   0.976   6.064   4.723
 2531SOL     OW 8491   5.685   5.778   4.308
 2531SOL    HW1 8492   5.592   5.811   4.296
 2531SOL    HW2 8493   5.693   5.735   4.398
 2532SOL     OW 8494   0.877   6.095   0.832
 2532SOL    HW1 8495   0.793   6.099   0.776
 2532SOL    HW2 8496   0.938   6.026   0.793
 2533SOL     OW 8497   4.665   6.397   3.753
 2533SOL    HW1 8498   4.688   6.493   3.769
 2533SOL    HW2 8499   4.586   6.372   3.808
 2534SOL     OW 8500   2.113   6.936   3.408
 2534SOL    HW1 8501   2.171   6.898   3.335
 2534SOL    HW2 8502   2.055   7.008   3.370
 2535SOL     OW 8503   2.280   2.605   6.600
 2535SOL    HW1 8504   2.369   2.562   6.603
 2535SOL    HW2 8505   2.227   2.580   6.682
 2536SOL     OW 8506   0.679   1.963   3.440
 2536SOL    HW1 8507   0.607   1.942   3.375
 2536SOL    HW2 8508   0.697   2.062   3.440
 2537SOL     OW 8509   5.455   5.978   6.467
 2537SOL    HW1 8510   5.523   5.924   6.417
 2537SOL    HW2 8511   5.371   5.986   6.412
 2538SOL     OW 8512   1.466   4.377   4.610
 2538SOL    HW1 8513   1.514   4.463   4.628
 2538SOL    HW2 8514   1.447   4.369   4.512
 2539SOL     OW 8515   4.385   0.136   5.824
 2539SOL    HW1 8516   4.454   0.123   5.895
 2539SOL    HW2 8517   4.295   0.112   5.861
 2540SOL     OW 8518   4.694   1.478   1.433
 2540SOL    HW1 8519   4.657   1.426   1.510
 2540SOL    HW2 8520   4.794   1.483   1.441
 2541SOL     OW 8521   1.628   0.487   5.873
 2541SOL    HW1 8522   1.711   0.530   5.908
 2541SOL    HW2 8523   1.610   0.403   5.923
 2542SOL     OW 8524   4.347   1.546   5.467
 2542SOL    HW1 8525   4.392   1.624   5.421
 2542SOL    HW2 8526   4.354   1.557   5.566
 2543SOL     OW 8527   2.078   0.978   3.230
 2543SOL    HW1 8528   2.113   0.903   3.173
 2543SOL    HW2 8529   2.127   0.977   3.318
 2544SOL     OW 8530   0.615   5.259   2.436
 2544SOL    HW1 8531   0.653   5.289   2.523
 2544SOL    HW2 8532   0.516   5.276   2.435
 2545SOL     OW 8533   1.544   0.524   1.427
 2545SOL    HW1 8534   1.490   0.560   1.503
 2545SOL    HW2 8535   1.598   0.446   1.458
 2546SOL     OW 8536   6.863   2.905   1.700
 2546SOL    HW1 8537   6.819   2.818   1.723
 2546SOL    HW2 8538   6.808   2.980   1.736
 2547SOL     OW 8539   5.631   5.208   6.731
 2547SOL    HW1 8540   5.634   5.280   6.661
 2547SOL    HW2 8541   5.722   5.197   6.771
 2548SOL     OW 8542   2.741   0.412   5.210
 2548SOL    HW1 8543   2.680   0.491   5.207
 2548SOL    HW2 8544   2.827   0.437   5.255
 2549SOL     OW 8545   2.163   2.044   2.254
 2549SOL    HW1 8546   2.231   2.073   2.322
 2549SOL    HW2 8547   2.073   2.075   2.282
 2550SOL     OW 8548   6.529   0.388   6.417
 2550SOL    HW1 8549   6.440   0.394   6.462
 2550SOL    HW2 8550   6.593   0.453   6.459
 2551SOL     OW 8551   3.271   5.212   0.133
 2551SOL    HW1 8552   3.313   5.276   0.197
 2551SOL    HW2 8553   3.309   5.121   0.147
 2552SOL     OW 8554   1.519   5.817   5.655
 2552SOL    HW1 8555   1.607   5.798   5.611
 2552SOL    HW2 8556   1.534   5.832   5.753
 2553SOL     OW 8557   2.756   3.616   6.869
 2553SOL    HW1 8558   2.765   3.523   6.831
 2553SOL    HW2 8559   2.790   3.682   6.803
 2554SOL     OW 8560   1.316   5.776   6.292
 2554SOL    HW1 8561   1.238   5.731   6.248
 2554SOL    HW2 8562   1.296   5.789   6.389
 2555SOL     OW 8563   6.013   6.388   6.412
 2555SOL    HW1 8564   5.992   6.442   6.494
 2555SOL    HW2 8565   6.110   6.362   6.413
 2556SOL     OW 8566   3.992   5.912   0.791
 2556SOL    HW1 8567   4.083   5.906   0.749
 2556SOL    HW2 8568   3.939   5.984   0.746
 2557SOL     OW 8569   2.294   1.860   6.261
 2557SOL    HW1 8570   2.359   1.933   6.279
 2557SOL    HW2 8571   2.207   1.881   6.306
 2558SOL     OW 8572   3.622   3.312   6.047
 2558SOL    HW1 8573   3.537   3.335   6.092
 2558SOL    HW2 8574   3.604   3.290   5.951
 2559SOL     OW 8575   6.452   3.394   4.429
 2559SOL    HW1 8576   6.507   3.327   4.477
 2559SOL    HW2 8577   6.366   3.352   4.400
 2560SOL     OW 8578   4.851   3.513   4.231
 2560SOL    HW1 8579   4.858   3.476   4.138
 2560SOL    HW2 8580   4.850   3.437   4.297
 2561SOL     OW 8581   3.786   0.531   3.108
 2561SOL    HW1 8582   3.826   0.567   3.024
 2561SOL    HW2 8583   3.697   0.573   3.123
 2562SOL     OW 8584   2.274   5.292   2.549
 2562SOL    HW1 8585   2.192   5.281   2.604
 2562SOL    HW2 8586   2.348   5.328   2.606
 2563SOL     OW 8587   3.837   1.648   6.671
 2563SOL    HW1 8588   3.857   1.745   6.666
 2563SOL    HW2 8589   3.772   1.631   6.745
 2564SOL     OW 8590   0.816   6.882   6.352
 2564SOL    HW1 8591   0.802   6.922   6.261
 2564SOL    HW2 8592   0.862   6.949   6.411
 2565SOL     OW 8593   0.166   0.599   0.982
 2565SOL    HW1 8594   0.139   0.693   1.001
 2565SOL    HW2 8595   0.245   0.599   0.920
 2566SOL     OW 8596   1.045   6.639   0.568
 2566SOL    HW1 8597   0.968   6.636   0.504
 2566SOL    HW2 8598   1.105   6.715   0.544
 2567SOL     OW 8599   1.513   1.123   2.169
 2567SOL    HW1 8600   1.418   1.102   2.194
 2567SOL    HW2 8601   1.574   1.059   2.215
 2568SOL     OW 8602   2.573   0.551   0.373
 2568SOL    HW1 8603   2.544   0.601   0.291
 2568SOL    HW2 8604   2.654   0.496   0.351
 2569SOL     OW 8605   2.254   1.449   2.650
 2569SOL    HW1 8606   2.206   1.471   2.565
 2569SOL    HW2 8607   2.334   1.393   2.629
 2570SOL     OW 8608   5.764   0.205   6.737
 2570SOL    HW1 8609   5.792   0.111   6.718
 2570SOL    HW2 8610   5.749   0.216   6.835
 2571SOL     OW 8611   2.929   3.298   4.433
 2571SOL    HW1 8612   2.844   3.257   4.401
 2571SOL    HW2 8613   2.989   3.227   4.471
 2572SOL     OW 8614   1.547   6.739   1.615
 2572SOL    HW1 8615   1.516   6.657   1.662
 2572SOL    HW2 8616   1.605   6.714   1.538
 2573SOL     OW 8617   6.736   1.236   2.479
 2573SOL    HW1 8618   6.827   1.195   2.489
 2573SOL    HW2 8619   6.741   1.312   2.414
 2574SOL     OW 8620   0.187   2.999   0.138
 2574SOL    HW1 8621   0.286   3.003   0.127
 2574SOL    HW2 8622   0.145   2.968   0.052
 2575SOL     OW 8623   5.044   4.123   0.735
 2575SOL    HW1 8624   4.949   4.122   0.704
 2575SOL    HW2 8625   5.054   4.061   0.814
 2576SOL     OW 8626   3.886   0.099   3.652
 2576SOL    HW1 8627   3.867   0.067   3.559
 2576SOL    HW2 8628   3.802   0.100   3.705
 2577SOL     OW 8629   4.398   6.694   2.883
 2577SOL    HW1 8630   4.417   6.754   2.961
 2577SOL    HW2 8631   4.469   6.707   2.813
 2578SOL     OW 8632   4.762   2.775   5.102
 2578SOL    HW1 8633   4.753   2.874   5.106
 2578SOL    HW2 8634   4.797   2.741   5.190
 2579SOL     OW 8635   1.120   1.329   3.922
 2579SOL    HW1 8636   1.141   1.426   3.935
 2579SOL    HW2 8637   1.086   1.291   4.008
 2580SOL     OW 8638   1.921   3.074   6.384
 2580SOL    HW1 8639   1.905   3.159   6.433
 2580SOL    HW2 8640   1.894   2.996   6.442
 2581SOL     OW 8641   6.308   4.951   1.720
 2581SOL    HW1 8642   6.397   4.930   1.761
 2581SOL    HW2 8643   6.255   4.867   1.710
 2582SOL     OW 8644   1.416   4.095   2.609
 2582SOL    HW1 8645   1.407   4.018   2.546
 2582SOL    HW2 8646   1.334   4.152   2.605
 2583SOL     OW 8647   0.740   1.607   1.143
 2583SOL    HW1 8648   0.641   1.594   1.140
 2583SOL    HW2 8649   0.778   1.560   1.222
 2584SOL     OW 8650   3.331   5.703   0.412
 2584SOL    HW1 8651   3.397   5.669   0.479
 2584SOL    HW2 8652   3.259   5.634   0.398
 2585SOL     OW 8653   3.477   0.707   0.207
 2585SOL    HW1 8654   3.548   0.763   0.250
 2585SOL    HW2 8655   3.400   0.764   0.182
 2586SOL     OW 8656   4.787   1.979   3.635
 2586SOL    HW1 8657   4.855   2.009   3.701
 2586SOL    HW2 8658   4.749   2.059   3.587
 2587SOL     OW 8659   6.481   1.200   4.295
 2587SOL    HW1 8660   6.575   1.233   4.301
 2587SOL    HW2 8661   6.417   1.276   4.306
 2588SOL     OW 8662   4.645   0.038   0.489
 2588SOL    HW1 8663   4.594   6.979   0.517
 2588SOL    HW2 8664   4.639   0.108   0.561
 2589SOL     OW 8665   0.464   5.944   4.786
 2589SOL    HW1 8666   0.424   5.988   4.866
 2589SOL    HW2 8667   0.563   5.960   4.785
 2590SOL     OW 8668   3.321   6.402   2.296
 2590SOL    HW1 8669   3.268   6.472   2.344
 2590SOL    HW2 8670   3.268   6.369   2.218
 2591SOL     OW 8671   6.225   6.113   2.382
 2591SOL    HW1 8672   6.179   6.174   2.446
 2591SOL    HW2 8673   6.212   6.146   2.288
 2592SOL     OW 8674   2.344   6.780   1.444
 2592SOL    HW1 8675   2.429   6.749   1.403
 2592SOL    HW2 8676   2.327   6.875   1.418
 2593SOL     OW 8677   3.033   6.374   1.421
 2593SOL    HW1 8678   3.006   6.364   1.325
 2593SOL    HW2 8679   3.013   6.467   1.451
 2594SOL     OW 8680   0.145   6.250   5.957
 2594SOL    HW1 8681   0.090   6.306   5.896
 2594SOL    HW2 8682   0.090   6.223   6.036
 2595SOL     OW 8683   6.436   1.345   5.324
 2595SOL    HW1 8684   6.412   1.400   5.244
 2595SOL    HW2 8685   6.362   1.350   5.391
 2596SOL     OW 8686   3.908   2.201   1.811
 2596SOL    HW1 8687   3.958   2.187   1.896
 2596SOL    HW2 8688   3.819   2.242   1.831
 2597SOL     OW 8689   1.744   3.767   6.777
 2597SOL    HW1 8690   1.843   3.751   6.782
 2597SOL    HW2 8691   1.707   3.769   6.870
 2598SOL     OW 8692   6.249   0.922   4.615
 2598SOL    HW1 8693   6.205   0.995   4.666
 2598SOL    HW2 8694   6.314   0.961   4.550
 2599SOL     OW 8695   2.734   0.638   0.632
 2599SOL    HW1 8696   2.706   0.711   0.693
 2599SOL    HW2 8697   2.795   0.674   0.562
 2600SOL     OW 8698   4.961   3.610   4.630
 2600SOL    HW1 8699   4.961   3.532   4.692
 2600SOL    HW2 8700   4.988   3.580   4.539
 2601SOL     OW 8701   2.707   1.766   6.775
 2601SOL    HW1 8702   2.669   1.680   6.809
 2601SOL    HW2 8703   2.654   1.796   6.696
 2602SOL     OW 8704   6.901   4.776   3.780
 2602SOL    HW1 8705   6.980   4.781   3.841
 2602SOL    HW2 8706   6.925   4.726   3.697
 2603SOL     OW 8707   2.108   2.054   1.921
 2603SOL    HW1 8708   2.194   2.064   1.971
 2603SOL    HW2 8709   2.127   2.055   1.822
 2604SOL     OW 8710   4.990   1.291   3.005
 2604SOL    HW1 8711   4.979   1.375   3.058
 2604SOL    HW2 8712   4.988   1.314   2.907
 2605SOL     OW 8713   2.928   4.836   3.274
 2605SOL    HW1 8714   2.906   4.892   3.354
 2605SOL    HW2 8715   3.028   4.832   3.262
 2606SOL     OW 8716   0.386   4.395   1.059
 2606SOL    HW1 8717   0.328   4.373   1.138
 2606SOL    HW2 8718   0.393   4.494   1.049
 2607SOL     OW 8719   0.752   1.247   5.775
 2607SOL    HW1 8720   0.768   1.184   5.851
 2607SOL    HW2 8721   0.752   1.341   5.809
 2608SOL     OW 8722   4.093   5.344   2.384
 2608SOL    HW1 8723   4.117   5.412   2.452
 2608SOL    HW2 8724   4.097   5.253   2.425
 2609SOL     OW 8725   0.485   2.221   2.134
 2609SOL    HW1 8726   0.467   2.262   2.223
 2609SOL    HW2 8727   0.412   2.156   2.112
 2610SOL     OW 8728   6.922   4.963   4.212
 2610SOL    HW1 8729   6.864   4.892   4.252
 2610SOL    HW2 8730   6.992   4.989   4.279
 2611SOL     OW 8731   5.227   6.643   1.548
 2611SOL    HW1 8732   5.243   6.550   1.516
 2611SOL    HW2 8733   5.214   6.703   1.469
 2612SOL     OW 8734   6.408   6.595   6.174
 2612SOL    HW1 8735   6.494   6.606   6.124
 2612SOL    HW2 8736   6.411   6.648   6.259
 2613SOL     OW 8737   2.808   6.592   1.199
 2613SOL    HW1 8738   2.762   6.507   1.223
 2613SOL    HW2 8739   2.884   6.573   1.137
 2614SOL     OW 8740   6.597   0.031   5.936
 2614SOL    HW1 8741   6.503   0.052   5.909
 2614SOL    HW2 8742   6.660   0.092   5.888
 2615SOL     OW 8743   6.178   3.842   2.770
 2615SOL    HW1 8744   6.227   3.910   2.716
 2615SOL    HW2 8745   6.187   3.753   2.725
 2616SOL     OW 8746   3.948   3.522   3.998
 2616SOL    HW1 8747   3.908   3.608   3.969
 2616SOL    HW2 8748   3.884   3.474   4.058
 2617SOL     OW 8749   3.911   6.305   1.118
 2617SOL    HW1 8750   3.913   6.205   1.113
 2617SOL    HW2 8751   3.867   6.333   1.203
 2618SOL     OW 8752   6.964   6.872   4.178
 2618SOL    HW1 8753   0.039   6.888   4.197
 2618SOL    HW2 8754   6.914   6.869   4.265
 2619SOL     OW 8755   3.573   1.276   3.261
 2619SOL    HW1 8756   3.642   1.204   3.260
 2619SOL    HW2 8757   3.531   1.283   3.170
 2620SOL     OW 8758   0.675   6.507   3.273
 2620SOL    HW1 8759   0.749   6.566   3.242
 2620SOL    HW2 8760   0.707   6.452   3.350
 2621SOL     OW 8761   1.586   5.543   2.419
 2621SOL    HW1 8762   1.631   5.542   2.330
 2621SOL    HW2 8763   1.620   5.621   2.472
 2622SOL     OW 8764   2.138   2.362   6.091
 2622SOL    HW1 8765   2.085   2.340   6.173
 2622SOL    HW2 8766   2.191   2.282   6.064
 2623SOL     OW 8767   3.618   1.605   5.446
 2623SOL    HW1 8768   3.656   1.516   5.470
 2623SOL    HW2 8769   3.566   1.597   5.361
 2624SOL     OW 8770   6.380   2.803   5.219
 2624SOL    HW1 8771   6.446   2.778   5.290
 2624SOL    HW2 8772   6.323   2.879   5.251
 2625SOL     OW 8773   3.341   2.187   5.937
 2625SOL    HW1 8774   3.298   2.189   6.028
 2625SOL    HW2 8775   3.289   2.246   5.875
 2626SOL     OW 8776   0.120   0.788   5.147
 2626SOL    HW1 8777   0.130   0.765   5.244
 2626SOL    HW2 8778   0.181   0.730   5.093
 2627SOL     OW 8779   1.051   0.895   4.990
 2627SOL    HW1 8780   1.000   0.961   5.045
 2627SOL    HW2 8781   1.141   0.880   5.031
 2628SOL     OW 8782   2.072   4.535   6.671
 2628SOL    HW1 8783   1.976   4.561   6.680
 2628SOL    HW2 8784   2.117   4.539   6.760
 2629SOL     OW 8785   3.367   4.182   1.899
 2629SOL    HW1 8786   3.298   4.206   1.831
 2629SOL    HW2 8787   3.334   4.106   1.955
 2630SOL     OW 8788   3.396   1.730   3.888
 2630SOL    HW1 8789   3.474   1.790   3.875
 2630SOL    HW2 8790   3.348   1.754   3.972
 2631SOL     OW 8791   5.268   0.495   4.117
 2631SOL    HW1 8792   5.217   0.495   4.030
 2631SOL    HW2 8793   5.333   0.420   4.116
 2632SOL     OW 8794   2.885   2.226   6.360
 2632SOL    HW1 8795   2.815   2.211   6.430
 2632SOL    HW2 8796   2.950   2.295   6.393
 2633SOL     OW 8797   6.749   1.463   5.286
 2633SOL    HW1 8798   6.773   1.397   5.215
 2633SOL    HW2 8799   6.669   1.430   5.336
 2634SOL     OW 8800   1.428   4.166   3.069
 2634SOL    HW1 8801   1.372   4.234   3.117
 2634SOL    HW2 8802   1.370   4.109   3.011
 2635SOL     OW 8803   6.057   6.145   5.251
 2635SOL    HW1 8804   6.109   6.215   5.300
 2635SOL    HW2 8805   6.116   6.100   5.185
 2636SOL     OW 8806   4.972   0.213   5.612
 2636SOL    HW1 8807   5.061   0.258   5.607
 2636SOL    HW2 8808   4.910   0.256   5.545
 2637SOL     OW 8809   5.634   1.907   3.864
 2637SOL    HW1 8810   5.674   1.945   3.781
 2637SOL    HW2 8811   5.592   1.980   3.917
 2638SOL     OW 8812   6.618   0.333   2.907
 2638SOL    HW1 8813   6.642   0.388   2.987
 2638SOL    HW2 8814   6.686   0.348   2.835
 2639SOL     OW 8815   0.858   0.336   2.063
 2639SOL    HW1 8816   0.902   0.320   1.975
 2639SOL    HW2 8817   0.925   0.324   2.136
 2640SOL     OW 8818   0.169   6.189   4.658
 2640SOL    HW1 8819   0.267   6.209   4.666
 2640SOL    HW2 8820   0.157   6.103   4.609
 2641SOL     OW 8821   4.892   2.817   1.919
 2641SOL    HW1 8822   4.836   2.886   1.964
 2641SOL    HW2 8823   4.903   2.841   1.823
 2642SOL     OW 8824   4.309   6.926   4.373
 2642SOL    HW1 8825   4.224   6.876   4.360
 2642SOL    HW2 8826   4.382   6.881   4.321
 2643SOL     OW 8827   0.727   3.875   2.478
 2643SOL    HW1 8828   0.790   3.948   2.451
 2643SOL    HW2 8829   0.713   3.877   2.577
 2644SOL     OW 8830   6.384   5.911   6.136
 2644SOL    HW1 8831   6.434   5.831   6.103
 2644SOL    HW2 8832   6.411   5.991   6.082
 2645SOL     OW 8833   4.712   5.841   4.144
 2645SOL    HW1 8834   4.655   5.911   4.187
 2645SOL    HW2 8835   4.738   5.773   4.211
 2646SOL     OW 8836   5.899   7.008   6.941
 2646SOL    HW1 8837   5.880   6.992   0.015
 2646SOL    HW2 8838   5.830   6.962   6.885
 2647SOL     OW 8839   6.687   0.808   2.197
 2647SOL    HW1 8840   6.618   0.795   2.268
 2647SOL    HW2 8841   6.724   0.720   2.170
 2648SOL     OW 8842   0.243   6.955   3.514
 2648SOL    HW1 8843   0.265   6.872   3.464
 2648SOL    HW2 8844   0.208   6.932   3.605
 2649SOL     OW 8845   5.734   3.401   6.588
 2649SOL    HW1 8846   5.776   3.312   6.574
 2649SOL    HW2 8847   5.793   3.473   6.551
 2650SOL     OW 8848   0.506   3.623   4.515
 2650SOL    HW1 8849   0.419   3.576   4.497
 2650SOL    HW2 8850   0.548   3.650   4.429
 2651SOL     OW 8851   0.269   2.013   0.023
 2651SOL    HW1 8852   0.186   1.994   6.994
 2651SOL    HW2 8853   0.264   1.969   0.113
 2652SOL     OW 8854   3.481   3.776   3.909
 2652SOL    HW1 8855   3.473   3.702   3.842
 2652SOL    HW2 8856   3.538   3.849   3.871
 2653SOL     OW 8857   5.442   0.235   5.671
 2653SOL    HW1 8858   5.344   0.244   5.690
 2653SOL    HW2 8859   5.493   0.237   5.758
 2654SOL     OW 8860   5.236   5.087   0.986
 2654SOL    HW1 8861   5.224   5.051   1.078
 2654SOL    HW2 8862   5.307   5.035   0.938
 2655SOL     OW 8863   4.767   4.960   4.258
 2655SOL    HW1 8864   4.774   5.019   4.338
 2655SOL    HW2 8865   4.702   4.887   4.276
 2656SOL     OW 8866   3.655   4.989   4.067
 2656SOL    HW1 8867   3.655   5.086   4.043
 2656SOL    HW2 8868   3.693   4.936   3.991
 2657SOL     OW 8869   2.040   4.126   6.598
 2657SOL    HW1 8870   2.006   4.215   6.567
 2657SOL    HW2 8871   2.090   4.137   6.684
 2658SOL     OW 8872   4.791   4.627   0.346
 2658SOL    HW1 8873   4.746   4.589   0.266
 2658SOL    HW2 8874   4.862   4.691   0.317
 2659SOL     OW 8875   6.209   3.112   4.996
 2659SOL    HW1 8876   6.125   3.164   4.984
 2659SOL    HW2 8877   6.240   3.077   4.907
 2660SOL     OW 8878   0.800   1.611   0.870
 2660SOL    HW1 8879   0.782   1.635   0.965
 2660SOL    HW2 8880   0.763   1.521   0.851
 2661SOL     OW 8881   2.232   6.548   0.741
 2661SOL    HW1 8882   2.251   6.640   0.706
 2661SOL    HW2 8883   2.301   6.484   0.707
 2662SOL     OW 8884   4.377   0.364   5.651
 2662SOL    HW1 8885   4.383   0.266   5.672
 2662SOL    HW2 8886   4.324   0.377   5.567
 2663SOL     OW 8887   2.539   3.952   0.938
 2663SOL    HW1 8888   2.464   3.900   0.897
 2663SOL    HW2 8889   2.582   3.896   1.009
 2664SOL     OW 8890   4.198   3.568   5.063
 2664SOL    HW1 8891   4.269   3.586   5.131
 2664SOL    HW2 8892   4.169   3.472   5.070
 2665SOL     OW 8893   2.591   2.548   5.096
 2665SOL    HW1 8894   2.604   2.485   5.020
 2665SOL    HW2 8895   2.661   2.531   5.166
 2666SOL     OW 8896   5.384   4.055   1.250
 2666SOL    HW1 8897   5.464   4.032   1.304
 2666SOL    HW2 8898   5.301   4.039   1.304
 2667SOL     OW 8899   1.661   5.915   4.235
 2667SOL    HW1 8900   1.740   5.855   4.248
 2667SOL    HW2 8901   1.685   6.008   4.262
 2668SOL     OW 8902   5.951   3.616   4.631
 2668SOL    HW1 8903   5.860   3.590   4.665
 2668SOL    HW2 8904   5.940   3.680   4.555
 2669SOL     OW 8905   2.812   4.728   5.305
 2669SOL    HW1 8906   2.713   4.712   5.309
 2669SOL    HW2 8907   2.858   4.647   5.270
 2670SOL     OW 8908   5.651   2.395   6.710
 2670SOL    HW1 8909   5.637   2.296   6.708
 2670SOL    HW2 8910   5.739   2.415   6.753
 2671SOL     OW 8911   3.632   4.937   6.640
 2671SOL    HW1 8912   3.631   4.962   6.737
 2671SOL    HW2 8913   3.595   5.012   6.586
 2672SOL     OW 8914   0.301   5.027   0.730
 2672SOL    HW1 8915   0.352   4.944   0.707
 2672SOL    HW2 8916   0.244   5.053   0.652
 2673SOL     OW 8917   5.897   1.349   4.489
 2673SOL    HW1 8918   5.934   1.307   4.572
 2673SOL    HW2 8919   5.949   1.317   4.410
 2674SOL     OW 8920   1.239   4.178   3.835
 2674SOL    HW1 8921   1.295   4.106   3.792
 2674SOL    HW2 8922   1.144   4.148   3.839
 2675SOL     OW 8923   6.190   5.475   4.361
 2675SOL    HW1 8924   6.241   5.390   4.377
 2675SOL    HW2 8925   6.245   5.553   4.390
 2676SOL     OW 8926   4.180   1.711   1.044
 2676SOL    HW1 8927   4.274   1.676   1.039
 2676SOL    HW2 8928   4.118   1.642   1.007
 2677SOL     OW 8929   3.114   4.011   0.331
 2677SOL    HW1 8930   3.023   3.969   0.327
 2677SOL    HW2 8931   3.110   4.102   0.291
 2678SOL     OW 8932   6.640   3.286   1.428
 2678SOL    HW1 8933   6.574   3.357   1.453
 2678SOL    HW2 8934   6.727   3.329   1.404
 2679SOL     OW 8935   3.442   5.274   0.934
 2679SOL    HW1 8936   3.374   5.347   0.934
 2679SOL    HW2 8937   3.396   5.185   0.937
 2680SOL     OW 8938   0.561   1.546   0.486
 2680SOL    HW1 8939   0.586   1.638   0.514
 2680SOL    HW2 8940   0.493   1.551   0.413
 2681SOL     OW 8941   1.142   2.372   4.734
 2681SOL    HW1 8942   1.136   2.329   4.824
 2681SOL    HW2 8943   1.151   2.471   4.745
 2682SOL     OW 8944   5.679   4.275   2.416
 2682SOL    HW1 8945   5.632   4.333   2.482
 2682SOL    HW2 8946   5.734   4.207   2.465
 2683SOL     OW 8947   2.643   3.606   0.710
 2683SOL    HW1 8948   2.739   3.625   0.731
 2683SOL    HW2 8949   2.632   3.597   0.611
 2684SOL     OW 8950   4.721   5.700   1.200
 2684SOL    HW1 8951   4.638   5.753   1.184
 2684SOL    HW2 8952   4.714   5.611   1.155
 2685SOL     OW 8953   6.230   6.057   0.129
 2685SOL    HW1 8954   6.156   6.114   0.093
 2685SOL    HW2 8955   6.239   5.975   0.072
 2686SOL     OW 8956   1.558   1.514   5.564
 2686SOL    HW1 8957   1.650   1.537   5.595
 2686SOL    HW2 8958   1.491   1.551   5.628
 2687SOL     OW 8959   4.564   4.455   2.206
 2687SOL    HW1 8960   4.631   4.524   2.179
 2687SOL    HW2 8961   4.555   4.388   2.132
 2688SOL     OW 8962   4.411   4.871   0.118
 2688SOL    HW1 8963   4.354   4.848   0.039
 2688SOL    HW2 8964   4.377   4.955   0.159
 2689SOL     OW 8965   1.325   3.555   3.722
 2689SOL    HW1 8966   1.322   3.455   3.724
 2689SOL    HW2 8967   1.250   3.591   3.777
 2690SOL     OW 8968   3.351   3.606   4.261
 2690SOL    HW1 8969   3.300   3.564   4.336
 2690SOL    HW2 8970   3.409   3.538   4.216
 2691SOL     OW 8971   1.528   5.318   2.197
 2691SOL    HW1 8972   1.483   5.375   2.266
 2691SOL    HW2 8973   1.618   5.355   2.176
 2692SOL     OW 8974   3.418   4.901   3.041
 2692SOL    HW1 8975   3.319   4.898   3.055
 2692SOL    HW2 8976   3.437   4.909   2.943
 2693SOL     OW 8977   1.203   4.312   2.608
 2693SOL    HW1 8978   1.200   4.309   2.707
 2693SOL    HW2 8979   1.125   4.364   2.573
 2694SOL     OW 8980   4.695   6.560   2.920
 2694SOL    HW1 8981   4.750   6.636   2.953
 2694SOL    HW2 8982   4.623   6.538   2.986
 2695SOL     OW 8983   4.628   0.904   2.547
 2695SOL    HW1 8984   4.670   0.979   2.599
 2695SOL    HW2 8985   4.580   0.844   2.611
 2696SOL     OW 8986   3.818   3.517   5.446
 2696SOL    HW1 8987   3.865   3.526   5.534
 2696SOL    HW2 8988   3.884   3.493   5.375
 2697SOL     OW 8989   3.158   1.729   2.735
 2697SOL    HW1 8990   3.241   1.783   2.723
 2697SOL    HW2 8991   3.090   1.756   2.667
 2698SOL     OW 8992   1.909   6.003   0.328
 2698SOL    HW1 8993   1.974   5.929   0.312
 2698SOL    HW2 8994   1.833   5.969   0.383
 2699SOL     OW 8995   3.274   6.722   0.293
 2699SOL    HW1 8996   3.223   6.770   0.365
 2699SOL    HW2 8997   3.233   6.632   0.277
 2700SOL     OW 8998   1.933   3.720   0.486
 2700SOL    HW1 8999   1.843   3.760   0.466
 2700SOL    HW2 9000   1.930   3.676   0.576
 2701SOL     OW 9001   4.508   0.772   6.397
 2701SOL    HW1 9002   4.547   0.766   6.305
 2701SOL    HW2 9003   4.569   0.826   6.456
 2702SOL     OW 9004   0.392   3.056   3.972
 2702SOL    HW1 9005   0.471   3.067   4.032
 2702SOL    HW2 9006   0.421   3.069   3.877
 2703SOL     OW 9007   2.175   0.516   2.654
 2703SOL    HW1 9008   2.079   0.496   2.639
 2703SOL    HW2 9009   2.228   0.488   2.575
 2704SOL     OW 9010   6.944   6.441   1.071
 2704SOL    HW1 9011   6.898   6.354   1.092
 2704SOL    HW2 9012   0.021   6.426   1.069
 2705SOL     OW 9013   0.876   4.872   4.061
 2705SOL    HW1 9014   0.936   4.932   4.008
 2705SOL    HW2 9015   0.913   4.861   4.153
 2706SOL     OW 9016   0.795   0.675   1.589
 2706SOL    HW1 9017   0.857   0.597   1.583
 2706SOL    HW2 9018   0.706   0.650   1.552
 2707SOL     OW 9019   2.728   0.751   4.887
 2707SOL    HW1 9020   2.697   0.762   4.981
 2707SOL    HW2 9021   2.684   0.671   4.846
 2708SOL     OW 9022   0.669   2.427   0.414
 2708SOL    HW1 9023   0.573   2.409   0.393
 2708SOL    HW2 9024   0.721   2.438   0.329
 2709SOL     OW 9025   5.843   6.211   0.302
 2709SOL    HW1 9026   5.822   6.170   0.390
 2709SOL    HW2 9027   5.931   6.257   0.306
 2710SOL     OW 9028   0.853   2.811   3.704
 2710SOL    HW1 9029   0.940   2.843   3.667
 2710SOL    HW2 9030   0.852   2.824   3.803
 2711SOL     OW 9031   2.729   1.502   4.189
 2711SOL    HW1 9032   2.821   1.540   4.184
 2711SOL    HW2 9033   2.695   1.484   4.097
 2712SOL     OW 9034   3.194   4.723   0.583
 2712SOL    HW1 9035   3.193   4.654   0.511
 2712SOL    HW2 9036   3.249   4.689   0.660
 2713SOL     OW 9037   1.897   2.148   5.263
 2713SOL    HW1 9038   1.938   2.072   5.213
 2713SOL    HW2 9039   1.952   2.230   5.251
 2714SOL     OW 9040   4.543   2.232   0.327
 2714SOL    HW1 9041   4.573   2.176   0.403
 2714SOL    HW2 9042   4.452   2.270   0.346
 2715SOL     OW 9043   4.967   1.549   0.613
 2715SOL    HW1 9044   4.988   1.491   0.534
 2715SOL    HW2 9045   4.882   1.598   0.597
 2716SOL     OW 9046   5.277   4.450   2.797
 2716SOL    HW1 9047   5.356   4.443   2.736
 2716SOL    HW2 9048   5.244   4.544   2.798
 2717SOL     OW 9049   2.332   4.634   1.827
 2717SOL    HW1 9050   2.267   4.560   1.843
 2717SOL    HW2 9051   2.417   4.597   1.791
 2718SOL     OW 9052   1.440   3.468   5.898
 2718SOL    HW1 9053   1.500   3.470   5.818
 2718SOL    HW2 9054   1.469   3.394   5.960
 2719SOL     OW 9055   6.775   5.933   0.992
 2719SOL    HW1 9056   6.827   5.873   1.052
 2719SOL    HW2 9057   6.734   5.880   0.918
 2720SOL     OW 9058   2.136   5.932   2.367
 2720SOL    HW1 9059   2.218   5.937   2.310
 2720SOL    HW2 9060   2.109   6.024   2.395
 2721SOL     OW 9061   3.148   0.592   4.077
 2721SOL    HW1 9062   3.091   0.510   4.078
 2721SOL    HW2 9063   3.092   0.671   4.054
 2722SOL     OW 9064   6.478   5.858   1.627
 2722SOL    HW1 9065   6.574   5.858   1.599
 2722SOL    HW2 9066   6.434   5.942   1.595
 2723SOL     OW 9067   0.651   6.882   5.645
 2723SOL    HW1 9068   0.698   6.866   5.558
 2723SOL    HW2 9069   0.611   6.796   5.677
 2724SOL     OW 9070   2.664   6.982   6.606
 2724SOL    HW1 9071   2.733   6.949   6.670
 2724SOL    HW2 9072   2.574   6.950   6.635
 2725SOL     OW 9073   5.547   5.231   4.349
 2725SOL    HW1 9074   5.515   5.151   4.299
 2725SOL    HW2 9075   5.639   5.255   4.318
 2726SOL     OW 9076   0.049   3.256   0.912
 2726SOL    HW1 9077   0.128   3.199   0.889
 2726SOL    HW2 9078   7.020   3.277   0.829
 2727SOL     OW 9079   0.486   5.217   3.955
 2727SOL    HW1 9080   0.480   5.298   4.014
 2727SOL    HW2 9081   0.574   5.172   3.969
 2728SOL     OW 9082   3.794   6.533   5.615
 2728SOL    HW1 9083   3.731   6.606   5.590
 2728SOL    HW2 9084   3.783   6.511   5.712
 2729SOL     OW 9085   6.726   5.765   1.235
 2729SOL    HW1 9086   6.725   5.668   1.211
 2729SOL    HW2 9087   6.654   5.813   1.185
 2730SOL     OW 9088   2.053   4.995   1.217
 2730SOL    HW1 9089   1.963   5.021   1.251
 2730SOL    HW2 9090   2.044   4.954   1.127
 2731SOL     OW 9091   3.718   3.625   2.131
 2731SOL    HW1 9092   3.778   3.590   2.059
 2731SOL    HW2 9093   3.772   3.658   2.207
 2732SOL     OW 9094   5.438   2.361   1.852
 2732SOL    HW1 9095   5.456   2.391   1.946
 2732SOL    HW2 9096   5.525   2.338   1.808
 2733SOL     OW 9097   0.569   6.962   4.716
 2733SOL    HW1 9098   0.622   6.963   4.631
 2733SOL    HW2 9099   0.631   6.960   4.794
 2734SOL     OW 9100   1.992   5.546   1.486
 2734SOL    HW1 9101   2.028   5.489   1.413
 2734SOL    HW2 9102   2.060   5.615   1.511
 2735SOL     OW 9103   0.977   3.169   2.981
 2735SOL    HW1 9104   0.936   3.093   3.031
 2735SOL    HW2 9105   0.906   3.231   2.949
 2736SOL     OW 9106   4.275   6.818   4.841
 2736SOL    HW1 9107   4.198   6.814   4.777
 2736SOL    HW2 9108   4.300   6.914   4.857
 2737SOL     OW 9109   3.565   3.581   5.809
 2737SOL    HW1 9110   3.528   3.496   5.847
 2737SOL    HW2 9111   3.635   3.559   5.741
 2738SOL     OW 9112   5.525   4.840   3.988
 2738SOL    HW1 9113   5.521   4.912   4.057
 2738SOL    HW2 9114   5.601   4.778   4.008
 2739SOL     OW 9115   0.077   4.749   1.017
 2739SOL    HW1 9116   7.001   4.739   1.035
 2739SOL    HW2 9117   0.112   4.828   1.068
 2740SOL     OW 9118   6.212   3.588   2.685
 2740SOL    HW1 9119   6.273   3.514   2.713
 2740SOL    HW2 9120   6.222   3.605   2.587
 2741SOL     OW 9121   6.546   0.488   5.672
 2741SOL    HW1 9122   6.618   0.556   5.684
 2741SOL    HW2 9123   6.569   0.428   5.595
 2742SOL     OW 9124   2.552   5.117   6.675
 2742SOL    HW1 9125   2.545   5.034   6.619
 2742SOL    HW2 9126   2.528   5.196   6.619
 2743SOL     OW 9127   0.037   5.474   2.566
 2743SOL    HW1 9128   0.102   5.460   2.641
 2743SOL    HW2 9129   0.046   5.401   2.499
 2744SOL     OW 9130   5.130   1.478   6.824
 2744SOL    HW1 9131   5.104   1.473   6.728
 2744SOL    HW2 9132   5.096   1.398   6.873
 2745SOL     OW 9133   0.780   0.079   6.544
 2745SOL    HW1 9134   0.784   0.034   6.633
 2745SOL    HW2 9135   0.688   0.114   6.529
 2746SOL     OW 9136   2.011   2.244   3.972
 2746SOL    HW1 9137   2.021   2.286   3.882
 2746SOL    HW2 9138   2.053   2.303   4.041
 2747SOL     OW 9139   5.984   3.586   5.707
 2747SOL    HW1 9140   6.052   3.646   5.666
 2747SOL    HW2 9141   5.892   3.620   5.686
 2748SOL     OW 9142   4.494   2.352   0.817
 2748SOL    HW1 9143   4.503   2.370   0.719
 2748SOL    HW2 9144   4.506   2.437   0.868
 2749SOL     OW 9145   6.418   4.592   3.125
 2749SOL    HW1 9146   6.482   4.656   3.081
 2749SOL    HW2 9147   6.347   4.567   3.060
 2750SOL     OW 9148   0.993   4.703   1.215
 2750SOL    HW1 9149   0.950   4.613   1.219
 2750SOL    HW2 9150   1.013   4.726   1.119
 2751SOL     OW 9151   0.265   6.477   0.898
 2751SOL    HW1 9152   0.205   6.449   0.823
 2751SOL    HW2 9153   0.325   6.401   0.923
 2752SOL     OW 9154   4.796   4.939   5.506
 2752SOL    HW1 9155   4.863   4.906   5.573
 2752SOL    HW2 9156   4.713   4.967   5.553
 2753SOL     OW 9157   0.636   7.022   5.860
 2753SOL    HW1 9158   0.655   0.094   5.830
 2753SOL    HW2 9159   0.631   6.962   5.780
 2754SOL     OW 9160   6.970   0.699   3.547
 2754SOL    HW1 9161   6.896   0.655   3.496
 2754SOL    HW2 9162   6.931   0.752   3.623
 2755SOL     OW 9163   2.529   0.061   3.930
 2755SOL    HW1 9164   2.519   7.000   3.984
 2755SOL    HW2 9165   2.600   0.119   3.971
 2756SOL     OW 9166   5.710   4.243   5.678
 2756SOL    HW1 9167   5.692   4.281   5.588
 2756SOL    HW2 9168   5.722   4.317   5.744
 2757SOL     OW 9169   2.429   1.908   5.977
 2757SOL    HW1 9170   2.380   1.891   6.063
 2757SOL    HW2 9171   2.513   1.854   5.976
 2758SOL     OW 9172   4.944   6.354   3.074
 2758SOL    HW1 9173   4.904   6.362   2.983
 2758SOL    HW2 9174   4.882   6.302   3.134
 2759SOL     OW 9175   4.441   5.699   5.494
 2759SOL    HW1 9176   4.360   5.666   5.446
 2759SOL    HW2 9177   4.520   5.693   5.433
 2760SOL     OW 9178   0.456   5.858   2.655
 2760SOL    HW1 9179   0.547   5.890   2.681
 2760SOL    HW2 9180   0.410   5.929   2.601
 2761SOL     OW 9181   1.797   4.560   4.753
 2761SOL    HW1 9182   1.896   4.570   4.742
 2761SOL    HW2 9183   1.776   4.542   4.849
 2762SOL     OW 9184   2.197   1.834   6.622
 2762SOL    HW1 9185   2.211   1.741   6.657
 2762SOL    HW2 9186   2.111   1.838   6.572
 2763SOL     OW 9187   4.656   1.686   4.861
 2763SOL    HW1 9188   4.672   1.695   4.959
 2763SOL    HW2 9189   4.658   1.777   4.818
 2764SOL     OW 9190   0.201   0.490   1.951
 2764SOL    HW1 9191   0.150   0.417   1.906
 2764SOL    HW2 9192   0.272   0.524   1.889
 2765SOL     OW 9193   6.524   6.891   1.195
 2765SOL    HW1 9194   6.497   6.805   1.238
 2765SOL    HW2 9195   6.443   6.939   1.161
 2766SOL     OW 9196   4.381   2.428   6.981
 2766SOL    HW1 9197   4.469   2.461   7.013
 2766SOL    HW2 9198   4.388   2.401   6.885
 2767SOL     OW 9199   6.592   5.482   6.770
 2767SOL    HW1 9200   6.578   5.538   6.688
 2767SOL    HW2 9201   6.504   5.455   6.807
 2768SOL     OW 9202   4.905   0.515   1.612
 2768SOL    HW1 9203   4.866   0.487   1.524
 2768SOL    HW2 9204   4.833   0.554   1.669
 2769SOL     OW 9205   2.400   4.261   6.643
 2769SOL    HW1 9206   2.374   4.357   6.639
 2769SOL    HW2 9207   2.422   4.228   6.551
 2770SOL     OW 9208   4.925   5.775   5.290
 2770SOL    HW1 9209   4.963   5.848   5.346
 2770SOL    HW2 9210   4.827   5.791   5.275
 2771SOL     OW 9211   5.362   1.478   4.414
 2771SOL    HW1 9212   5.313   1.417   4.477
 2771SOL    HW2 9213   5.459   1.483   4.441
 2772SOL     OW 9214   2.882   1.050   1.141
 2772SOL    HW1 9215   2.842   0.975   1.089
 2772SOL    HW2 9216   2.837   1.136   1.115
 2773SOL     OW 9217   6.353   2.921   4.064
 2773SOL    HW1 9218   6.409   2.965   4.134
 2773SOL    HW2 9219   6.397   2.837   4.033
 2774SOL     OW 9220   5.396   3.322   2.865
 2774SOL    HW1 9221   5.408   3.407   2.815
 2774SOL    HW2 9222   5.442   3.247   2.816
 2775SOL     OW 9223   6.371   3.617   5.470
 2775SOL    HW1 9224   6.448   3.676   5.446
 2775SOL    HW2 9225   6.356   3.551   5.397
 2776SOL     OW 9226   4.920   4.212   5.973
 2776SOL    HW1 9227   4.971   4.154   5.909
 2776SOL    HW2 9228   4.980   4.283   6.009
 2777SOL     OW 9229   3.068   2.000   1.374
 2777SOL    HW1 9230   3.123   2.083   1.362
 2777SOL    HW2 9231   2.988   2.004   1.313
 2778SOL     OW 9232   1.031   6.350   5.991
 2778SOL    HW1 9233   1.115   6.390   6.027
 2778SOL    HW2 9234   0.989   6.292   6.061
 2779SOL     OW 9235   5.627   6.705   2.158
 2779SOL    HW1 9236   5.564   6.755   2.099
 2779SOL    HW2 9237   5.700   6.665   2.103
 2780SOL     OW 9238   0.434   0.048   5.607
 2780SOL    HW1 9239   0.499   6.996   5.621
 2780SOL    HW2 9240   0.342   0.018   5.633
 2781SOL     OW 9241   5.885   0.465   2.556
 2781SOL    HW1 9242   5.886   0.366   2.542
 2781SOL    HW2 9243   5.791   0.498   2.555
 2782SOL     OW 9244   4.499   1.331   5.302
 2782SOL    HW1 9245   4.413   1.375   5.328
 2782SOL    HW2 9246   4.497   1.235   5.331
 2783SOL     OW 9247   6.409   4.073   2.394
 2783SOL    HW1 9248   6.323   4.083   2.444
 2783SOL    HW2 9249   6.436   4.161   2.355
 2784SOL     OW 9250   3.297   1.289   2.325
 2784SOL    HW1 9251   3.314   1.366   2.387
 2784SOL    HW2 9252   3.339   1.308   2.236
 2785SOL     OW 9253   5.462   2.364   0.746
 2785SOL    HW1 9254   5.381   2.313   0.716
 2785SOL    HW2 9255   5.439   2.419   0.826
 2786SOL     OW 9256   6.201   7.005   1.823
 2786SOL    HW1 9257   6.112   0.027   1.816
 2786SOL    HW2 9258   6.263   0.041   1.875
 2787SOL     OW 9259   5.840   6.757   5.454
 2787SOL    HW1 9260   5.814   6.829   5.519
 2787SOL    HW2 9261   5.863   6.798   5.366
 2788SOL     OW 9262   2.678   6.715   5.714
 2788SOL    HW1 9263   2.689   6.755   5.624
 2788SOL    HW2 9264   2.593   6.746   5.755
 2789SOL     OW 9265   1.915   2.014   3.788
 2789SOL    HW1 9266   1.973   2.050   3.861
 2789SOL    HW2 9267   1.965   2.018   3.701
 2790SOL     OW 9268   3.258   5.455   1.511
 2790SOL    HW1 9269   3.219   5.431   1.600
 2790SOL    HW2 9270   3.290   5.372   1.465
 2791SOL     OW 9271   0.839   2.998   2.269
 2791SOL    HW1 9272   0.817   2.962   2.178
 2791SOL    HW2 9273   0.874   3.091   2.260
 2792SOL     OW 9274   2.578   0.528   4.132
 2792SOL    HW1 9275   2.504   0.547   4.197
 2792SOL    HW2 9276   2.548   0.457   4.068
 2793SOL     OW 9277   5.052   3.606   1.667
 2793SOL    HW1 9278   5.128   3.588   1.605
 2793SOL    HW2 9279   5.069   3.561   1.755
 2794SOL     OW 9280   6.380   1.881   6.132
 2794SOL    HW1 9281   6.363   1.911   6.038
 2794SOL    HW2 9282   6.312   1.814   6.159
 2795SOL     OW 9283   1.151   3.399   1.132
 2795SOL    HW1 9284   1.203   3.463   1.076
 2795SOL    HW2 9285   1.213   3.336   1.178
 2796SOL     OW 9286   0.175   6.141   3.269
 2796SOL    HW1 9287   0.127   6.060   3.302
 2796SOL    HW2 9288   0.228   6.181   3.343
 2797SOL     OW 9289   5.169   5.522   5.066
 2797SOL    HW1 9290   5.216   5.534   5.153
 2797SOL    HW2 9291   5.093   5.587   5.060
 2798SOL     OW 9292   6.469   5.849   2.822
 2798SOL    HW1 9293   6.400   5.781   2.798
 2798SOL    HW2 9294   6.478   5.915   2.747
 2799SOL     OW 9295   5.587   5.883   5.612
 2799SOL    HW1 9296   5.526   5.901   5.535
 2799SOL    HW2 9297   5.674   5.929   5.596
 2800SOL     OW 9298   5.653   6.601   5.914
 2800SOL    HW1 9299   5.628   6.510   5.947
 2800SOL    HW2 9300   5.577   6.639   5.860
 2801SOL     OW 9301   0.503   5.695   5.699
 2801SOL    HW1 9302   0.428   5.710   5.634
 2801SOL    HW2 9303   0.469   5.642   5.777
 2802SOL     OW 9304   5.511   6.538   5.620
 2802SOL    HW1 9305   5.514   6.638   5.620
 2802SOL    HW2 9306   5.600   6.502   5.592
 2803SOL     OW 9307   3.932   5.069   5.428
 2803SOL    HW1 9308   3.995   5.109   5.361
 2803SOL    HW2 9309   3.838   5.080   5.396
 2804SOL     OW 9310   0.984   3.881   5.026
 2804SOL    HW1 9311   0.891   3.908   5.049
 2804SOL    HW2 9312   1.032   3.958   4.985
 2805SOL     OW 9313   5.938   3.242   2.825
 2805SOL    HW1 9314   5.863   3.179   2.844
 2805SOL    HW2 9315   6.021   3.210   2.868
 2806SOL     OW 9316   1.908   3.870   5.934
 2806SOL    HW1 9317   1.983   3.840   5.994
 2806SOL    HW2 9318   1.838   3.914   5.989
 2807SOL     OW 9319   4.965   6.918   3.729
 2807SOL    HW1 9320   4.932   6.878   3.814
 2807SOL    HW2 9321   4.886   6.944   3.672
 2808SOL     OW 9322   6.648   5.468   1.780
 2808SOL    HW1 9323   6.614   5.463   1.686
 2808SOL    HW2 9324   6.685   5.379   1.808
 2809SOL     OW 9325   4.878   2.878   0.976
 2809SOL    HW1 9326   4.841   2.968   0.999
 2809SOL    HW2 9327   4.978   2.881   0.980
 2810SOL     OW 9328   2.506   5.993   2.654
 2810SOL    HW1 9329   2.454   6.036   2.729
 2810SOL    HW2 9330   2.588   6.047   2.635
 2811SOL     OW 9331   1.593   1.676   3.230
 2811SOL    HW1 9332   1.593   1.749   3.298
 2811SOL    HW2 9333   1.600   1.716   3.139
 2812SOL     OW 9334   6.113   3.382   0.648
 2812SOL    HW1 9335   6.160   3.342   0.570
 2812SOL    HW2 9336   6.027   3.334   0.663
 2813SOL     OW 9337   0.423   1.726   6.990
 2813SOL    HW1 9338   0.365   1.772   6.923
 2813SOL    HW2 9339   0.519   1.736   6.963
 2814SOL     OW 9340   3.086   3.957   5.723
 2814SOL    HW1 9341   3.038   3.966   5.635
 2814SOL    HW2 9342   3.176   3.916   5.708
 2815SOL     OW 9343   6.762   4.911   6.380
 2815SOL    HW1 9344   6.829   4.878   6.446
 2815SOL    HW2 9345   6.742   4.838   6.315
 2816SOL     OW 9346   6.654   6.132   4.159
 2816SOL    HW1 9347   6.575   6.090   4.204
 2816SOL    HW2 9348   6.624   6.178   4.076
 2817SOL     OW 9349   3.403   0.415   2.357
 2817SOL    HW1 9350   3.404   0.460   2.447
 2817SOL    HW2 9351   3.364   0.477   2.290
 2818SOL     OW 9352   0.251   1.036   2.266
 2818SOL    HW1 9353   0.205   1.118   2.299
 2818SOL    HW2 9354   0.340   1.027   2.310
 2819SOL     OW 9355   2.053   6.958   1.982
 2819SOL    HW1 9356   2.110   7.014   1.922
 2819SOL    HW2 9357   1.991   7.016   2.034
 2820SOL     OW 9358   1.768   1.972   2.998
 2820SOL    HW1 9359   1.716   1.904   2.947
 2820SOL    HW2 9360   1.713   2.056   3.007
 2821SOL     OW 9361   3.185   4.853   5.929
 2821SOL    HW1 9362   3.268   4.799   5.924
 2821SOL    HW2 9363   3.135   4.845   5.842
 2822SOL     OW 9364   4.446   1.897   0.450
 2822SOL    HW1 9365   4.541   1.923   0.471
 2822SOL    HW2 9366   4.407   1.848   0.529
 2823SOL     OW 9367   5.678   1.336   0.148
 2823SOL    HW1 9368   5.582   1.323   0.121
 2823SOL    HW2 9369   5.737   1.312   0.071
 2824SOL     OW 9370   1.803   1.927   5.413
 2824SOL    HW1 9371   1.886   1.872   5.424
 2824SOL    HW2 9372   1.824   2.007   5.356
 2825SOL     OW 9373   5.595   0.219   5.914
 2825SOL    HW1 9374   5.620   0.303   5.960
 2825SOL    HW2 9375   5.637   0.141   5.960
 2826SOL     OW 9376   3.972   2.868   6.647
 2826SOL    HW1 9377   3.955   2.956   6.603
 2826SOL    HW2 9378   3.981   2.797   6.578
 2827SOL     OW 9379   0.001   0.336   6.454
 2827SOL    HW1 9380   6.988   0.347   6.361
 2827SOL    HW2 9381   6.956   0.368   6.520
 2828SOL     OW 9382   1.980   2.573   0.839
 2828SOL    HW1 9383   1.978   2.474   0.856
 2828SOL    HW2 9384   1.994   2.621   0.925
 2829SOL     OW 9385   3.273   3.203   3.430
 2829SOL    HW1 9386   3.336   3.251   3.370
 2829SOL    HW2 9387   3.311   3.114   3.455
 2830SOL     OW 9388   3.065   3.994   5.213
 2830SOL    HW1 9389   3.018   4.081   5.200
 2830SOL    HW2 9390   3.088   3.955   5.124
 2831SOL     OW 9391   0.997   3.469   3.126
 2831SOL    HW1 9392   1.000   3.569   3.135
 2831SOL    HW2 9393   1.050   3.427   3.199
 2832SOL     OW 9394   0.822   3.226   1.651
 2832SOL    HW1 9395   0.881   3.171   1.710
 2832SOL    HW2 9396   0.746   3.261   1.704
 2833SOL     OW 9397   3.096   1.167   2.203
 2833SOL    HW1 9398   3.106   1.192   2.107
 2833SOL    HW2 9399   3.182   1.182   2.251
 2834SOL     OW 9400   3.571   6.356   5.398
 2834SOL    HW1 9401   3.499   6.327   5.461
 2834SOL    HW2 9402   3.561   6.454   5.380
 2835SOL     OW 9403   0.698   6.765   1.272
 2835SOL    HW1 9404   0.606   6.733   1.291
 2835SOL    HW2 9405   0.740   6.797   1.357
 2836SOL     OW 9406   1.211   6.535   1.491
 2836SOL    HW1 9407   1.121   6.559   1.526
 2836SOL    HW2 9408   1.224   6.574   1.399
 2837SOL     OW 9409   5.375   4.576   2.564
 2837SOL    HW1 9410   5.367   4.668   2.524
 2837SOL    HW2 9411   5.469   4.544   2.556
 2838SOL     OW 9412   4.228   3.479   1.082
 2838SOL    HW1 9413   4.280   3.522   1.155
 2838SOL    HW2 9414   4.155   3.423   1.122
 2839SOL     OW 9415   0.121   2.471   2.564
 2839SOL    HW1 9416   0.207   2.476   2.614
 2839SOL    HW2 9417   0.080   2.562   2.559
 2840SOL     OW 9418   1.668   5.921   1.862
 2840SOL    HW1 9419   1.653   5.905   1.764
 2840SOL    HW2 9420   1.581   5.940   1.907
 2841SOL     OW 9421   5.993   2.282   6.451
 2841SOL    HW1 9422   5.965   2.215   6.382
 2841SOL    HW2 9423   6.029   2.234   6.531
 2842SOL     OW 9424   0.463   5.328   4.425
 2842SOL    HW1 9425   0.491   5.235   4.401
 2842SOL    HW2 9426   0.511   5.357   4.508
 2843SOL     OW 9427   2.804   1.596   2.671
 2843SOL    HW1 9428   2.767   1.649   2.749
 2843SOL    HW2 9429   2.853   1.658   2.610
 2844SOL     OW 9430   6.156   5.236   0.683
 2844SOL    HW1 9431   6.170   5.154   0.627
 2844SOL    HW2 9432   6.218   5.308   0.653
 2845SOL     OW 9433   5.185   3.034   2.143
 2845SOL    HW1 9434   5.214   2.939   2.135
 2845SOL    HW2 9435   5.188   3.062   2.239
 2846SOL     OW 9436   3.877   0.591   0.605
 2846SOL    HW1 9437   3.891   0.680   0.560
 2846SOL    HW2 9438   3.779   0.577   0.622
 2847SOL     OW 9439   5.177   4.013   3.507
 2847SOL    HW1 9440   5.150   4.068   3.428
 2847SOL    HW2 9441   5.144   4.058   3.591
 2848SOL     OW 9442   2.285   2.701   5.879
 2848SOL    HW1 9443   2.199   2.703   5.829
 2848SOL    HW2 9444   2.309   2.794   5.908
 2849SOL     OW 9445   3.233   0.495   1.006
 2849SOL    HW1 9446   3.300   0.515   1.078
 2849SOL    HW2 9447   3.164   0.432   1.041
 2850SOL     OW 9448   2.031   0.242   2.930
 2850SOL    HW1 9449   1.977   0.178   2.985
 2850SOL    HW2 9450   2.024   0.216   2.834
 2851SOL     OW 9451   5.215   2.949   6.470
 2851SOL    HW1 9452   5.246   2.899   6.550
 2851SOL    HW2 9453   5.285   2.945   6.398
 2852SOL     OW 9454   6.155   4.267   6.860
 2852SOL    HW1 9455   6.120   4.351   6.819
 2852SOL    HW2 9456   6.248   4.251   6.828
 2853SOL     OW 9457   1.299   2.619   6.732
 2853SOL    HW1 9458   1.201   2.628   6.714
 2853SOL    HW2 9459   1.312   2.590   6.827
 2854SOL     OW 9460   4.174   0.500   5.780
 2854SOL    HW1 9461   4.239   0.459   5.716
 2854SOL    HW2 9462   4.081   0.473   5.753
 2855SOL     OW 9463   1.332   1.869   5.519
 2855SOL    HW1 9464   1.419   1.844   5.563
 2855SOL    HW2 9465   1.323   1.821   5.432
 2856SOL     OW 9466   0.704   3.371   4.405
 2856SOL    HW1 9467   0.762   3.317   4.344
 2856SOL    HW2 9468   0.612   3.375   4.368
 2857SOL     OW 9469   0.744   2.594   1.489
 2857SOL    HW1 9470   0.774   2.666   1.427
 2857SOL    HW2 9471   0.676   2.537   1.444
 2858SOL     OW 9472   4.529   4.991   2.412
 2858SOL    HW1 9473   4.486   5.013   2.324
 2858SOL    HW2 9474   4.589   5.066   2.439
 2859SOL     OW 9475   6.404   7.016   6.876
 2859SOL    HW1 9476   6.433   0.060   6.945
 2859SOL    HW2 9477   6.448   6.928   6.894
 2860SOL     OW 9478   2.559   0.555   2.517
 2860SOL    HW1 9479   2.594   0.618   2.448
 2860SOL    HW2 9480   2.526   0.607   2.596
 2861SOL     OW 9481   3.334   5.324   5.403
 2861SOL    HW1 9482   3.341   5.265   5.322
 2861SOL    HW2 9483   3.238   5.328   5.433
 2862SOL     OW 9484   4.169   2.449   1.728
 2862SOL    HW1 9485   4.076   2.473   1.701
 2862SOL    HW2 9486   4.213   2.398   1.654
 2863SOL     OW 9487   5.000   1.724   6.111
 2863SOL    HW1 9488   4.978   1.776   6.028
 2863SOL    HW2 9489   5.015   1.628   6.087
 2864SOL     OW 9490   4.600   2.425   0.574
 2864SOL    HW1 9491   4.697   2.445   0.564
 2864SOL    HW2 9492   4.561   2.401   0.484
 2865SOL     OW 9493   4.087   6.655   4.099
 2865SOL    HW1 9494   3.998   6.695   4.077
 2865SOL    HW2 9495   4.079   6.556   4.107
 2866SOL     OW 9496   5.577   4.281   0.184
 2866SOL    HW1 9497   5.519   4.232   0.119
 2866SOL    HW2 9498   5.594   4.223   0.264
 2867SOL     OW 9499   6.123   6.035   3.034
 2867SOL    HW1 9500   6.078   6.029   3.123
 2867SOL    HW2 9501   6.196   6.104   3.038
 2868SOL     OW 9502   1.333   0.976   5.551
 2868SOL    HW1 9503   1.248   1.011   5.512
 2868SOL    HW2 9504   1.382   1.050   5.597
 2869SOL     OW 9505   6.623   0.747   3.063
 2869SOL    HW1 9506   6.641   0.802   3.144
 2869SOL    HW2 9507   6.545   0.786   3.013
 2870SOL     OW 9508   0.740   2.041   6.114
 2870SOL    HW1 9509   0.748   1.952   6.158
 2870SOL    HW2 9510   0.821   2.096   6.133
 2871SOL     OW 9511   5.886   0.908   0.782
 2871SOL    HW1 9512   5.864   0.960   0.700
 2871SOL    HW2 9513   5.908   0.971   0.857
 2872SOL     OW 9514   2.444   1.893   1.138
 2872SOL    HW1 9515   2.455   1.794   1.143
 2872SOL    HW2 9516   2.490   1.935   1.216
 2873SOL     OW 9517   6.788   0.134   2.543
 2873SOL    HW1 9518   6.726   0.155   2.468
 2873SOL    HW2 9519   6.752   0.056   2.595
 2874SOL     OW 9520   4.026   6.397   2.701
 2874SOL    HW1 9521   4.101   6.441   2.751
 2874SOL    HW2 9522   3.939   6.433   2.734
 2875SOL     OW 9523   4.360   0.133   1.657
 2875SOL    HW1 9524   4.339   0.039   1.633
 2875SOL    HW2 9525   4.459   0.147   1.656
 2876SOL     OW 9526   1.957   0.391   3.195
 2876SOL    HW1 9527   1.864   0.412   3.165
 2876SOL    HW2 9528   2.011   0.360   3.117
 2877SOL     OW 9529   2.436   1.152   6.226
 2877SOL    HW1 9530   2.443   1.068   6.172
 2877SOL    HW2 9531   2.500   1.220   6.190
 2878SOL     OW 9532   2.901   3.745   5.262
 2878SOL    HW1 9533   2.967   3.814   5.292
 2878SOL    HW2 9534   2.911   3.731   5.163
 2879SOL     OW 9535   5.669   5.629   5.709
 2879SOL    HW1 9536   5.665   5.716   5.659
 2879SOL    HW2 9537   5.743   5.631   5.775
 2880SOL     OW 9538   0.695   1.374   3.054
 2880SOL    HW1 9539   0.657   1.450   3.106
 2880SOL    HW2 9540   0.791   1.392   3.033
 2881SOL     OW 9541   4.155   5.890   0.449
 2881SOL    HW1 9542   4.068   5.844   0.466
 2881SOL    HW2 9543   4.186   5.870   0.356
 2882SOL     OW 9544   6.991   5.825   1.223
 2882SOL    HW1 9545   6.895   5.805   1.241
 2882SOL    HW2 9546   0.011   5.748   1.175
 2883SOL     OW 9547   5.838   0.151   3.721
 2883SOL    HW1 9548   5.901   0.180   3.649
 2883SOL    HW2 9549   5.745   0.180   3.698
 2884SOL     OW 9550   0.953   6.693   2.539
 2884SOL    HW1 9551   0.973   6.702   2.441
 2884SOL    HW2 9552   1.016   6.750   2.591
 2885SOL     OW 9553   1.563   2.628   4.526
 2885SOL    HW1 9554   1.650   2.626   4.476
 2885SOL    HW2 9555   1.560   2.553   4.592
 2886SOL     OW 9556   1.831   3.326   6.511
 2886SOL    HW1 9557   1.740   3.363   6.493
 2886SOL    HW2 9558   1.826   3.258   6.584
 2887SOL     OW 9559   1.128   6.681   5.123
 2887SOL    HW1 9560   1.133   6.582   5.113
 2887SOL    HW2 9561   1.159   6.725   5.038
 2888SOL     OW 9562   0.289   4.657   0.413
 2888SOL    HW1 9563   0.235   4.590   0.463
 2888SOL    HW2 9564   0.379   4.666   0.455
 2889SOL     OW 9565   2.775   6.065   2.623
 2889SOL    HW1 9566   2.840   6.027   2.689
 2889SOL    HW2 9567   2.787   6.021   2.534
 2890SOL     OW 9568   1.505   6.149   0.624
 2890SOL    HW1 9569   1.413   6.147   0.583
 2890SOL    HW2 9570   1.527   6.242   0.651
 2891SOL     OW 9571   0.787   3.899   3.287
 2891SOL    HW1 9572   0.724   3.840   3.339
 2891SOL    HW2 9573   0.781   3.992   3.322
 2892SOL     OW 9574   5.918   2.895   1.483
 2892SOL    HW1 9575   5.919   2.801   1.518
 2892SOL    HW2 9576   6.010   2.922   1.457
 2893SOL     OW 9577   0.930   4.802   4.353
 2893SOL    HW1 9578   0.993   4.829   4.425
 2893SOL    HW2 9579   0.914   4.703   4.358
 2894SOL     OW 9580   1.111   3.570   1.718
 2894SOL    HW1 9581   1.112   3.523   1.806
 2894SOL    HW2 9582   1.022   3.556   1.674
 2895SOL     OW 9583   5.761   1.366   5.556
 2895SOL    HW1 9584   5.662   1.372   5.553
 2895SOL    HW2 9585   5.788   1.277   5.594
 2896SOL     OW 9586   4.056   6.878   5.497
 2896SOL    HW1 9587   4.078   6.817   5.421
 2896SOL    HW2 9588   4.109   6.963   5.488
 2897SOL     OW 9589   3.811   5.138   2.351
 2897SOL    HW1 9590   3.745   5.063   2.344
 2897SOL    HW2 9591   3.889   5.119   2.292
 2898SOL     OW 9592   4.331   4.810   4.105
 2898SOL    HW1 9593   4.378   4.893   4.076
 2898SOL    HW2 9594   4.340   4.741   4.033
 2899SOL     OW 9595   0.412   1.455   0.944
 2899SOL    HW1 9596   0.426   1.458   1.043
 2899SOL    HW2 9597   0.463   1.379   0.906
 2900SOL     OW 9598   3.772   4.674   6.884
 2900SOL    HW1 9599   3.740   4.685   6.979
 2900SOL    HW2 9600   3.700   4.702   6.821
 2901SOL     OW 9601   2.308   4.630   3.324
 2901SOL    HW1 9602   2.259   4.620   3.238
 2901SOL    HW2 9603   2.338   4.725   3.334
 2902SOL     OW 9604   6.711   4.998   3.153
 2902SOL    HW1 9605   6.726   5.091   3.188
 2902SOL    HW2 9606   6.675   4.940   3.227
 2903SOL     OW 9607   4.098   6.434   0.444
 2903SOL    HW1 9608   4.001   6.417   0.429
 2903SOL    HW2 9609   4.146   6.437   0.356
 2904SOL     OW 9610   3.001   5.103   5.271
 2904SOL    HW1 9611   2.998   5.007   5.245
 2904SOL    HW2 9612   2.975   5.160   5.193
 2905SOL     OW 9613   1.557   3.952   4.032
 2905SOL    HW1 9614   1.582   4.033   3.978
 2905SOL    HW2 9615   1.465   3.922   4.006
 2906SOL     OW 9616   4.811   5.703   2.881
 2906SOL    HW1 9617   4.741   5.747   2.938
 2906SOL    HW2 9618   4.781   5.705   2.785
 2907SOL     OW 9619   0.741   1.619   3.511
 2907SOL    HW1 9620   0.836   1.613   3.540
 2907SOL    HW2 9621   0.707   1.711   3.530
 2908SOL     OW 9622   4.935   0.200   3.498
 2908SOL    HW1 9623   5.020   0.149   3.489
 2908SOL    HW2 9624   4.886   0.200   3.411
 2909SOL     OW 9625   2.399   5.593   4.346
 2909SOL    HW1 9626   2.407   5.559   4.440
 2909SOL    HW2 9627   2.343   5.677   4.346
 2910SOL     OW 9628   5.624   0.251   3.937
 2910SOL    HW1 9629   5.675   0.336   3.923
 2910SOL    HW2 9630   5.687   0.173   3.930
 2911SOL     OW 9631   1.998   5.448   3.841
 2911SOL    HW1 9632   2.017   5.486   3.932
 2911SOL    HW2 9633   1.988   5.348   3.849
 2912SOL     OW 9634   6.290   6.850   0.560
 2912SOL    HW1 9635   6.277   6.881   0.654
 2912SOL    HW2 9636   6.237   6.910   0.499
 2913SOL     OW 9637   3.662   5.095   1.863
 2913SOL    HW1 9638   3.596   5.153   1.910
 2913SOL    HW2 9639   3.687   5.019   1.923
 2914SOL     OW 9640   6.200   5.872   6.858
 2914SOL    HW1 9641   6.117   5.900   6.906
 2914SOL    HW2 9642   6.177   5.804   6.789
 2915SOL     OW 9643   3.219   1.996   3.470
 2915SOL    HW1 9644   3.255   1.902   3.465
 2915SOL    HW2 9645   3.249   2.038   3.556
 2916SOL     OW 9646   1.219   5.725   0.515
 2916SOL    HW1 9647   1.233   5.633   0.480
 2916SOL    HW2 9648   1.230   5.725   0.614
 2917SOL     OW 9649   3.096   0.133   4.067
 2917SOL    HW1 9650   3.071   0.225   4.097
 2917SOL    HW2 9651   3.186   0.136   4.023
 2918SOL     OW 9652   6.197   4.382   5.588
 2918SOL    HW1 9653   6.154   4.333   5.513
 2918SOL    HW2 9654   6.291   4.406   5.563
 2919SOL     OW 9655   5.957   0.610   2.859
 2919SOL    HW1 9656   5.868   0.656   2.850
 2919SOL    HW2 9657   5.958   0.528   2.803
 2920SOL     OW 9658   2.765   0.706   1.013
 2920SOL    HW1 9659   2.701   0.654   0.956
 2920SOL    HW2 9660   2.813   0.773   0.956
 2921SOL     OW 9661   0.948   0.388   5.153
 2921SOL    HW1 9662   0.966   0.309   5.094
 2921SOL    HW2 9663   1.022   0.454   5.143
 2922SOL     OW 9664   4.964   6.422   1.509
 2922SOL    HW1 9665   4.939   6.330   1.478
 2922SOL    HW2 9666   4.881   6.477   1.519
 2923SOL     OW 9667   6.312   5.908   3.848
 2923SOL    HW1 9668   6.238   5.928   3.783
 2923SOL    HW2 9669   6.317   5.981   3.916
 2924SOL     OW 9670   6.777   2.472   5.486
 2924SOL    HW1 9671   6.815   2.386   5.451
 2924SOL    HW2 9672   6.847   2.543   5.479
 2925SOL     OW 9673   6.033   2.413   0.437
 2925SOL    HW1 9674   6.072   2.325   0.411
 2925SOL    HW2 9675   6.042   2.426   0.536
 2926SOL     OW 9676   5.600   2.128   6.756
 2926SOL    HW1 9677   5.567   2.074   6.679
 2926SOL    HW2 9678   5.643   2.068   6.823
 2927SOL     OW 9679   1.732   3.426   1.184
 2927SOL    HW1 9680   1.773   3.425   1.093
 2927SOL    HW2 9681   1.757   3.510   1.232
 2928SOL     OW 9682   6.738   0.730   6.637
 2928SOL    HW1 9683   6.650   0.710   6.594
 2928SOL    HW2 9684   6.774   0.647   6.679
 2929SOL     OW 9685   1.170   2.918   6.197
 2929SOL    HW1 9686   1.263   2.885   6.214
 2929SOL    HW2 9687   1.137   2.969   6.276
 2930SOL     OW 9688   5.316   6.826   5.577
 2930SOL    HW1 9689   5.236   6.885   5.584
 2930SOL    HW2 9690   5.399   6.882   5.577
 2931SOL     OW 9691   4.904   5.188   0.122
 2931SOL    HW1 9692   4.937   5.281   0.108
 2931SOL    HW2 9693   4.839   5.187   0.198
 2932SOL     OW 9694   0.744   5.593   1.959
 2932SOL    HW1 9695   0.761   5.541   2.043
 2932SOL    HW2 9696   0.807   5.561   1.887
 2933SOL     OW 9697   1.782   6.420   2.312
 2933SOL    HW1 9698   1.762   6.335   2.264
 2933SOL    HW2 9699   1.699   6.475   2.317
 2934SOL     OW 9700   5.449   2.565   6.818
 2934SOL    HW1 9701   5.511   2.495   6.781
 2934SOL    HW2 9702   5.388   2.523   6.885
 2935SOL     OW 9703   6.716   3.322   6.321
 2935SOL    HW1 9704   6.630   3.336   6.273
 2935SOL    HW2 9705   6.777   3.399   6.303
 2936SOL     OW 9706   4.542   5.893   0.347
 2936SOL    HW1 9707   4.554   5.942   0.260
 2936SOL    HW2 9708   4.620   5.911   0.407
 2937SOL     OW 9709   5.527   5.130   1.366
 2937SOL    HW1 9710   5.525   5.211   1.424
 2937SOL    HW2 9711   5.473   5.057   1.409
 2938SOL     OW 9712   5.471   4.551   0.059
 2938SOL    HW1 9713   5.496   4.470   0.112
 2938SOL    HW2 9714   5.390   4.593   0.099
 2939SOL     OW 9715   2.423   0.461   2.170
 2939SOL    HW1 9716   2.352   0.401   2.133
 2939SOL    HW2 9717   2.511   0.439   2.127
 2940SOL     OW 9718   5.418   5.004   5.509
 2940SOL    HW1 9719   5.459   4.930   5.456
 2940SOL    HW2 9720   5.326   5.023   5.475
 2941SOL     OW 9721   1.310   2.315   4.247
 2941SOL    HW1 9722   1.397   2.321   4.198
 2941SOL    HW2 9723   1.301   2.393   4.309
 2942SOL     OW 9724   3.919   1.664   0.738
 2942SOL    HW1 9725   4.000   1.722   0.724
 2942SOL    HW2 9726   3.853   1.712   0.795
 2943SOL     OW 9727   5.980   4.152   3.831
 2943SOL    HW1 9728   6.038   4.216   3.880
 2943SOL    HW2 9729   5.994   4.162   3.733
 2944SOL     OW 9730   2.863   6.034   4.343
 2944SOL    HW1 9731   2.824   6.047   4.434
 2944SOL    HW2 9732   2.906   6.118   4.312
 2945SOL     OW 9733   4.019   3.258   1.722
 2945SOL    HW1 9734   4.004   3.161   1.743
 2945SOL    HW2 9735   3.932   3.300   1.696
 2946SOL     OW 9736   1.875   4.466   6.288
 2946SOL    HW1 9737   1.907   4.546   6.237
 2946SOL    HW2 9738   1.833   4.402   6.225
 2947SOL     OW 9739   0.930   5.805   1.670
 2947SOL    HW1 9740   0.919   5.860   1.587
 2947SOL    HW2 9741   0.912   5.863   1.750
 2948SOL     OW 9742   0.250   4.380   4.694
 2948SOL    HW1 9743   0.245   4.427   4.606
 2948SOL    HW2 9744   0.276   4.284   4.680
 2949SOL     OW 9745   1.153   5.539   1.351
 2949SOL    HW1 9746   1.087   5.510   1.282
 2949SOL    HW2 9747   1.210   5.461   1.377
 2950SOL     OW 9748   6.012   5.825   4.540
 2950SOL    HW1 9749   6.005   5.885   4.460
 2950SOL    HW2 9750   6.060   5.873   4.613
 2951SOL     OW 9751   5.586   1.891   2.213
 2951SOL    HW1 9752   5.523   1.894   2.135
 2951SOL    HW2 9753   5.630   1.801   2.216
 2952SOL     OW 9754   0.307   6.153   5.376
 2952SOL    HW1 9755   0.242   6.210   5.327
 2952SOL    HW2 9756   0.259   6.103   5.449
 2953SOL     OW 9757   6.297   3.903   3.027
 2953SOL    HW1 9758   6.266   3.870   2.938
 2953SOL    HW2 9759   6.218   3.917   3.087
 2954SOL     OW 9760   1.094   5.088   2.050
 2954SOL    HW1 9761   1.148   5.090   1.966
 2954SOL    HW2 9762   1.015   5.147   2.041
 2955SOL     OW 9763   0.962   4.198   1.349
 2955SOL    HW1 9764   0.874   4.151   1.348
 2955SOL    HW2 9765   1.015   4.170   1.429
 2956SOL     OW 9766   5.551   5.859   3.153
 2956SOL    HW1 9767   5.580   5.779   3.205
 2956SOL    HW2 9768   5.595   5.941   3.190
 2957SOL     OW 9769   5.220   4.251   1.555
 2957SOL    HW1 9770   5.290   4.315   1.525
 2957SOL    HW2 9771   5.226   4.167   1.501
 2958SOL     OW 9772   2.226   4.313   3.714
 2958SOL    HW1 9773   2.275   4.378   3.656
 2958SOL    HW2 9774   2.143   4.282   3.667
 2959SOL     OW 9775   4.984   3.194   1.739
 2959SOL    HW1 9776   4.998   3.241   1.652
 2959SOL    HW2 9777   5.064   3.207   1.797
 2960SOL     OW 9778   3.130   0.272   0.298
 2960SOL    HW1 9779   3.089   0.192   0.342
 2960SOL    HW2 9780   3.094   0.281   0.205
 2961SOL     OW 9781   5.940   4.787   3.250
 2961SOL    HW1 9782   5.988   4.699   3.248
 2961SOL    HW2 9783   5.870   4.785   3.322
 2962SOL     OW 9784   4.443   5.964   3.683
 2962SOL    HW1 9785   4.539   5.989   3.693
 2962SOL    HW2 9786   4.403   6.015   3.607
 2963SOL     OW 9787   1.217   0.925   6.950
 2963SOL    HW1 9788   1.260   1.010   6.981
 2963SOL    HW2 9789   1.231   0.853   7.019
 2964SOL     OW 9790   0.021   1.682   5.133
 2964SOL    HW1 9791   6.948   1.710   5.148
 2964SOL    HW2 9792   0.082   1.748   5.176
 2965SOL     OW 9793   0.667   0.721   4.621
 2965SOL    HW1 9794   0.682   0.666   4.539
 2965SOL    HW2 9795   0.753   0.764   4.648
 2966SOL     OW 9796   4.781   5.055   3.082
 2966SOL    HW1 9797   4.779   5.149   3.115
 2966SOL    HW2 9798   4.868   5.012   3.108
 2967SOL     OW 9799   5.980   0.850   5.724
 2967SOL    HW1 9800   5.948   0.877   5.815
 2967SOL    HW2 9801   6.044   0.773   5.732
 2968SOL     OW 9802   1.014   2.729   0.541
 2968SOL    HW1 9803   1.074   2.804   0.570
 2968SOL    HW2 9804   1.030   2.649   0.599
 2969SOL     OW 9805   4.615   2.205   4.200
 2969SOL    HW1 9806   4.525   2.189   4.240
 2969SOL    HW2 9807   4.679   2.235   4.271
 2970SOL     OW 9808   2.722   3.152   5.282
 2970SOL    HW1 9809   2.634   3.123   5.244
 2970SOL    HW2 9810   2.764   3.074   5.330
 2971SOL     OW 9811   5.062   3.997   0.981
 2971SOL    HW1 9812   5.143   3.938   0.979
 2971SOL    HW2 9813   4.984   3.944   1.013
 2972SOL     OW 9814   6.165   4.992   6.386
 2972SOL    HW1 9815   6.067   4.985   6.365
 2972SOL    HW2 9816   6.218   4.961   6.307
 2973SOL     OW 9817   5.249   6.002   1.979
 2973SOL    HW1 9818   5.211   6.031   1.891
 2973SOL    HW2 9819   5.183   6.021   2.052
 2974SOL     OW 9820   0.339   4.575   3.916
 2974SOL    HW1 9821   0.247   4.585   3.879
 2974SOL    HW2 9822   0.339   4.506   3.988
 2975SOL     OW 9823   5.129   4.140   4.041
 2975SOL    HW1 9824   5.037   4.136   4.081
 2975SOL    HW2 9825   5.158   4.235   4.034
 2976SOL     OW 9826   4.313   1.981   2.532
 2976SOL    HW1 9827   4.290   2.077   2.551
 2976SOL    HW2 9828   4.272   1.953   2.446
 2977SOL     OW 9829   1.191   0.684   2.871
 2977SOL    HW1 9830   1.218   0.763   2.927
 2977SOL    HW2 9831   1.262   0.615   2.874
 2978SOL     OW 9832   3.653   4.838   0.085
 2978SOL    HW1 9833   3.728   4.778   0.113
 2978SOL    HW2 9834   3.576   4.827   0.148
 2979SOL     OW 9835   3.608   1.549   3.867
 2979SOL    HW1 9836   3.527   1.606   3.850
 2979SOL    HW2 9837   3.663   1.544   3.783
 2980SOL     OW 9838   1.780   5.809   5.543
 2980SOL    HW1 9839   1.742   5.902   5.533
 2980SOL    HW2 9840   1.860   5.800   5.484
 2981SOL     OW 9841   2.532   0.850   6.653
 2981SOL    HW1 9842   2.508   0.856   6.556
 2981SOL    HW2 9843   2.576   0.934   6.681
 2982SOL     OW 9844   2.544   5.741   1.030
 2982SOL    HW1 9845   2.587   5.735   0.940
 2982SOL    HW2 9846   2.590   5.811   1.084
 2983SOL     OW 9847   6.242   2.252   1.824
 2983SOL    HW1 9848   6.309   2.307   1.873
 2983SOL    HW2 9849   6.266   2.250   1.727
 2984SOL     OW 9850   6.231   4.811   0.079
 2984SOL    HW1 9851   6.171   4.843   0.152
 2984SOL    HW2 9852   6.326   4.836   0.101
 2985SOL     OW 9853   1.845   2.352   4.749
 2985SOL    HW1 9854   1.930   2.401   4.728
 2985SOL    HW2 9855   1.829   2.283   4.678
 2986SOL     OW 9856   3.633   4.127   2.846
 2986SOL    HW1 9857   3.710   4.139   2.909
 2986SOL    HW2 9858   3.626   4.031   2.820
 2987SOL     OW 9859   1.283   1.585   4.087
 2987SOL    HW1 9860   1.332   1.531   4.019
 2987SOL    HW2 9861   1.342   1.597   4.168
 2988SOL     OW 9862   1.813   6.499   2.584
 2988SOL    HW1 9863   1.722   6.539   2.582
 2988SOL    HW2 9864   1.840   6.472   2.492
 2989SOL     OW 9865   4.952   4.943   6.100
 2989SOL    HW1 9866   4.954   4.974   6.195
 2989SOL    HW2 9867   5.045   4.943   6.063
 2990SOL     OW 9868   3.688   1.562   4.240
 2990SOL    HW1 9869   3.751   1.507   4.185
 2990SOL    HW2 9870   3.733   1.647   4.267
 2991SOL     OW 9871   6.133   3.180   5.798
 2991SOL    HW1 9872   6.143   3.247   5.723
 2991SOL    HW2 9873   6.082   3.222   5.873
 2992SOL     OW 9874   1.260   5.177   4.875
 2992SOL    HW1 9875   1.237   5.107   4.943
 2992SOL    HW2 9876   1.252   5.267   4.917
 2993SOL     OW 9877   0.610   4.960   1.522
 2993SOL    HW1 9878   0.709   4.972   1.525
 2993SOL    HW2 9879   0.565   5.046   1.544
 2994SOL     OW 9880   4.173   6.459   0.175
 2994SOL    HW1 9881   4.203   6.544   0.133
 2994SOL    HW2 9882   4.187   6.383   0.111
 2995SOL     OW 9883   3.869   1.196   6.509
 2995SOL    HW1 9884   3.881   1.214   6.606
 2995SOL    HW2 9885   3.780   1.151   6.494
 2996SOL     OW 9886   0.551   1.094   5.013
 2996SOL    HW1 9887   0.521   1.003   4.984
 2996SOL    HW2 9888   0.605   1.086   5.097
 2997SOL     OW 9889   4.834   0.205   3.233
 2997SOL    HW1 9890   4.735   0.211   3.240
 2997SOL    HW2 9891   4.859   0.122   3.183
 2998SOL     OW 9892   5.401   6.788   3.768
 2998SOL    HW1 9893   5.456   6.767   3.849
 2998SOL    HW2 9894   5.445   6.748   3.688
 2999SOL     OW 9895   2.357   5.212   5.577
 2999SOL    HW1 9896   2.422   5.265   5.522
 2999SOL    HW2 9897   2.270   5.205   5.528
 3000SOL     OW 9898   3.040   4.251   6.053
 3000SOL    HW1 9899   2.964   4.208   6.102
 3000SOL    HW2 9900   3.124   4.243   6.108
 3001SOL     OW 9901   6.747   1.327   6.808
 3001SOL    HW1 9902   6.738   1.228   6.795
 3001SOL    HW2 9903   6.743   1.373   6.720
 3002SOL     OW 9904   3.544   2.178   7.020
 3002SOL    HW1 9905   3.626   2.122   7.009
 3002SOL    HW2 9906   3.468   2.121   0.027
 3003SOL     OW 9907   0.679   6.936   1.029
 3003SOL    HW1 9908   0.711   0.008   1.029
 3003SOL    HW2 9909   0.703   6.893   1.117
 3004SOL     OW 9910   0.894   4.141   2.402
 3004SOL    HW1 9911   0.846   4.191   2.475
 3004SOL    HW2 9912   0.872   4.182   2.314
 3005SOL     OW 9913   1.296   2.631   7.006
 3005SOL    HW1 9914   1.196   2.628   7.007
 3005SOL    HW2 9915   1.330   2.609   0.075
 3006SOL     OW 9916   5.552   2.591   4.617
 3006SOL    HW1 9917   5.582   2.572   4.710
 3006SOL    HW2 9918   5.455   2.568   4.608
 3007SOL     OW 9919   5.466   4.239   0.879
 3007SOL    HW1 9920   5.437   4.246   0.975
 3007SOL    HW2 9921   5.564   4.220   0.876
 3008SOL     OW 9922   3.120   2.680   6.330
 3008SOL    HW1 9923   3.037   2.692   6.275
 3008SOL    HW2 9924   3.200   2.675   6.271
 3009SOL     OW 9925   6.454   2.636   2.941
 3009SOL    HW1 9926   6.545   2.677   2.930
 3009SOL    HW2 9927   6.463   2.541   2.971
 3010SOL     OW 9928   2.918   5.883   3.307
 3010SOL    HW1 9929   2.867   5.797   3.307
 3010SOL    HW2 9930   2.923   5.919   3.214
 3011SOL     OW 9931   5.676   1.075   2.959
 3011SOL    HW1 9932   5.645   1.006   3.024
 3011SOL    HW2 9933   5.726   1.030   2.884
 3012SOL     OW 9934   2.653   3.163   6.606
 3012SOL    HW1 9935   2.626   3.070   6.584
 3012SOL    HW2 9936   2.668   3.215   6.522
 3013SOL     OW 9937   5.567   5.387   3.995
 3013SOL    HW1 9938   5.537   5.299   3.958
 3013SOL    HW2 9939   5.491   5.429   4.046
 3014SOL     OW 9940   4.880   2.147   5.382
 3014SOL    HW1 9941   4.879   2.228   5.324
 3014SOL    HW2 9942   4.807   2.084   5.354
 3015SOL     OW 9943   1.924   1.810   0.217
 3015SOL    HW1 9944   1.915   1.741   0.145
 3015SOL    HW2 9945   1.919   1.901   0.176
 3016SOL     OW 9946   3.259   6.231   4.340
 3016SOL    HW1 9947   3.294   6.141   4.316
 3016SOL    HW2 9948   3.302   6.263   4.424
 3017SOL     OW 9949   6.262   5.715   2.442
 3017SOL    HW1 9950   6.259   5.629   2.392
 3017SOL    HW2 9951   6.289   5.698   2.537
 3018SOL     OW 9952   2.954   0.311   6.571
 3018SOL    HW1 9953   2.977   0.252   6.493
 3018SOL    HW2 9954   2.873   0.365   6.549
 3019SOL     OW 9955   0.691   0.033   7.011
 3019SOL    HW1 9956   0.783   0.066   6.992
 3019SOL    HW2 9957   0.690   6.955   7.011
 3020SOL     OW 9958   4.025   3.052   0.995
 3020SOL    HW1 9959   4.018   3.066   0.896
 3020SOL    HW2 9960   4.110   3.003   1.016
 3021SOL     OW 9961   3.226   7.020   4.977
 3021SOL    HW1 9962   3.171   0.074   5.010
 3021SOL    HW2 9963   3.277   0.025   4.896
 3022SOL     OW 9964   4.266   5.042   4.403
 3022SOL    HW1 9965   4.172   5.060   4.434
 3022SOL    HW2 9966   4.294   5.115   4.341
 3023SOL     OW 9967   4.128   6.240   3.057
 3023SOL    HW1 9968   4.207   6.225   3.116
 3023SOL    HW2 9969   4.095   6.334   3.069
 3024SOL     OW 9970   5.502   6.917   4.508
 3024SOL    HW1 9971   5.416   6.966   4.515
 3024SOL    HW2 9972   5.523   6.873   4.596
 3025SOL     OW 9973   4.211   6.017   1.487
 3025SOL    HW1 9974   4.226   6.114   1.472
 3025SOL    HW2 9975   4.155   6.003   1.568
 3026SOL     OW 9976   0.311   1.292   5.937
 3026SOL    HW1 9977   0.296   1.211   5.993
 3026SOL    HW2 9978   0.379   1.273   5.867
 3027SOL     OW 9979   3.961   1.506   2.981
 3027SOL    HW1 9980   3.881   1.457   2.947
 3027SOL    HW2 9981   3.939   1.551   3.068
 3028SOL     OW 9982   1.215   3.311   5.980
 3028SOL    HW1 9983   1.312   3.300   5.959
 3028SOL    HW2 9984   1.166   3.226   5.959
 3029SOL     OW 9985   1.012   3.150   5.011
 3029SOL    HW1 9986   0.971   3.215   4.948
 3029SOL    HW2 9987   1.107   3.174   5.028
 3030SOL     OW 9988   1.131   2.966   0.662
 3030SOL    HW1 9989   1.225   2.995   0.682
 3030SOL    HW2 9990   1.085   3.038   0.610
 3031SOL     OW 9991   0.240   5.101   1.351
 3031SOL    HW1 9992   0.273   5.018   1.396
 3031SOL    HW2 9993   0.318   5.150   1.312
 3032SOL     OW 9994   1.914   6.795   1.544
 3032SOL    HW1 9995   1.922   6.794   1.644
 3032SOL    HW2 9996   1.972   6.723   1.506
 3033SOL     OW 9997   5.335   1.022   2.265
 3033SOL    HW1 9998   5.370   0.965   2.191
 3033SOL    HW2 9999   5.264   0.972   2.315
 3034SOL     OW10000   1.073   0.328   3.103
 3034SOL    HW110001   1.063   0.420   3.067
 3034SOL    HW210002   0.983   0.290   3.126
 3035SOL     OW10003   0.477   2.984   6.071
 3035SOL    HW110004   0.396   3.035   6.101
 3035SOL    HW210005   0.498   3.008   5.977
 3036SOL     OW10006   1.532   2.223   5.554
 3036SOL    HW110007   1.630   2.206   5.555
 3036SOL    HW210008   1.486   2.159   5.616
 3037SOL     OW10009   6.285   5.239   6.149
 3037SOL    HW110010   6.378   5.265   6.172
 3037SOL    HW210011   6.222   5.279   6.216
 3038SOL     OW10012   5.010   5.157   5.645
 3038SOL    HW110013   5.059   5.206   5.717
 3038SOL    HW210014   4.914   5.186   5.646
 3039SOL     OW10015   0.798   3.009   1.195
 3039SOL    HW110016   0.705   3.026   1.228
 3039SOL    HW210017   0.857   3.085   1.224
 3040SOL     OW10018   3.517   4.002   6.211
 3040SOL    HW110019   3.544   3.909   6.237
 3040SOL    HW210020   3.462   3.998   6.127
 3041SOL     OW10021   2.264   4.147   5.696
 3041SOL    HW110022   2.353   4.111   5.667
 3041SOL    HW210023   2.209   4.167   5.615
 3042SOL     OW10024   6.490   6.492   2.979
 3042SOL    HW110025   6.484   6.460   2.884
 3042SOL    HW210026   6.410   6.461   3.030
 3043SOL     OW10027   3.087   3.957   1.717
 3043SOL    HW110028   3.079   3.930   1.813
 3043SOL    HW210029   3.048   4.048   1.704
 3044SOL     OW10030   3.849   5.906   5.885
 3044SOL    HW110031   3.884   5.849   5.959
 3044SOL    HW210032   3.885   5.999   5.895
 3045SOL     OW10033   5.137   6.865   3.059
 3045SOL    HW110034   5.195   6.942   3.033
 3045SOL    HW210035   5.188   6.804   3.119
 3046SOL     OW10036   3.634   0.874   6.272
 3046SOL    HW110037   3.644   0.954   6.332
 3046SOL    HW210038   3.538   0.864   6.247
 3047SOL     OW10039   6.043   0.702   1.633
 3047SOL    HW110040   6.071   0.684   1.727
 3047SOL    HW210041   5.948   0.672   1.621
 3048SOL     OW10042   4.077   2.556   1.257
 3048SOL    HW110043   4.007   2.511   1.202
 3048SOL    HW210044   4.056   2.545   1.354
 3049SOL     OW10045   1.713   6.998   3.509
 3049SOL    HW110046   1.619   6.965   3.500
 3049SOL    HW210047   1.712   0.067   3.551
 3050SOL     OW10048   3.048   1.829   1.862
 3050SOL    HW110049   2.950   1.832   1.883
 3050SOL    HW210050   3.061   1.820   1.763
 3051SOL     OW10051   2.071   6.869   6.518
 3051SOL    HW110052   1.989   6.925   6.533
 3051SOL    HW210053   2.048   6.791   6.460
 3052SOL     OW10054   4.940   5.407   1.711
 3052SOL    HW110055   4.990   5.364   1.636
 3052SOL    HW210056   4.954   5.506   1.708
 3053SOL     OW10057   6.576   3.216   0.946
 3053SOL    HW110058   6.659   3.264   0.919
 3053SOL    HW210059   6.564   3.222   1.045
 3054SOL     OW10060   5.880   2.180   1.345
 3054SOL    HW110061   5.872   2.273   1.308
 3054SOL    HW210062   5.923   2.122   1.276
 3055SOL     OW10063   5.374   0.317   4.964
 3055SOL    HW110064   5.292   0.330   5.019
 3055SOL    HW210065   5.383   0.392   4.898
 3056SOL     OW10066   6.025   1.198   5.988
 3056SOL    HW110067   6.052   1.210   6.084
 3056SOL    HW210068   5.985   1.107   5.976
 3057SOL     OW10069   4.417   5.467   4.079
 3057SOL    HW110070   4.489   5.405   4.051
 3057SOL    HW210071   4.333   5.447   4.028
 3058SOL     OW10072   0.383   4.665   0.981
 3058SOL    HW110073   0.441   4.743   0.954
 3058SOL    HW210074   0.287   4.688   0.965
 3059SOL     OW10075   2.677   1.804   4.254
 3059SOL    HW110076   2.745   1.867   4.290
 3059SOL    HW210077   2.683   1.717   4.302
 3060SOL     OW10078   1.701   5.476   6.869
 3060SOL    HW110079   1.794   5.479   6.907
 3060SOL    HW210080   1.647   5.408   6.918
 3061SOL     OW10081   6.688   6.051   5.897
 3061SOL    HW110082   6.589   6.038   5.882
 3061SOL    HW210083   6.718   6.135   5.853
 3062SOL     OW10084   2.021   0.175   1.047
 3062SOL    HW110085   1.947   0.171   1.114
 3062SOL    HW210086   2.010   0.256   0.990
 3063SOL     OW10087   2.027   4.402   1.415
 3063SOL    HW110088   1.993   4.345   1.341
 3063SOL    HW210089   2.020   4.499   1.389
 3064SOL     OW10090   4.896   3.439   0.623
 3064SOL    HW110091   4.866   3.410   0.714
 3064SOL    HW210092   4.975   3.385   0.595
 3065SOL     OW10093   1.336   2.748   6.478
 3065SOL    HW110094   1.327   2.695   6.562
 3065SOL    HW210095   1.251   2.741   6.425
 3066SOL     OW10096   5.099   4.705   0.627
 3066SOL    HW110097   5.174   4.754   0.673
 3066SOL    HW210098   5.042   4.770   0.577
 3067SOL     OW10099   3.890   1.122   6.211
 3067SOL    HW110100   3.905   1.057   6.285
 3067SOL    HW210101   3.819   1.187   6.237
 3068SOL     OW10102   0.045   6.502   1.369
 3068SOL    HW110103   0.082   6.519   1.460
 3068SOL    HW210104   0.079   6.572   1.305
 3069SOL     OW10105   6.879   6.559   2.376
 3069SOL    HW110106   6.920   6.554   2.285
 3069SOL    HW210107   6.858   6.654   2.398
 3070SOL     OW10108   2.710   1.028   6.730
 3070SOL    HW110109   2.680   1.102   6.670
 3070SOL    HW210110   2.777   1.063   6.796
 3071SOL     OW10111   6.615   6.519   4.339
 3071SOL    HW110112   6.594   6.438   4.393
 3071SOL    HW210113   6.599   6.601   4.394
 3072SOL     OW10114   2.487   5.547   6.329
 3072SOL    HW110115   2.495   5.565   6.231
 3072SOL    HW210116   2.414   5.604   6.367
 3073SOL     OW10117   0.257   3.753   3.471
 3073SOL    HW110118   0.176   3.760   3.413
 3073SOL    HW210119   0.336   3.794   3.424
 3074SOL     OW10120   0.007   4.083   1.277
 3074SOL    HW110121   7.016   4.098   1.179
 3074SOL    HW210122   6.977   4.152   1.328
 3075SOL     OW10123   2.401   5.527   2.700
 3075SOL    HW110124   2.307   5.563   2.702
 3075SOL    HW210125   2.463   5.599   2.669
 3076SOL     OW10126   6.249   1.278   3.658
 3076SOL    HW110127   6.298   1.246   3.577
 3076SOL    HW210128   6.305   1.347   3.705
 3077SOL     OW10129   5.452   4.571   1.698
 3077SOL    HW110130   5.433   4.507   1.772
 3077SOL    HW210131   5.510   4.645   1.732
 3078SOL     OW10132   7.006   3.460   2.901
 3078SOL    HW110133   0.005   3.556   2.915
 3078SOL    HW210134   6.911   3.449   2.873
 3079SOL     OW10135   2.857   2.240   3.083
 3079SOL    HW110136   2.907   2.245   3.169
 3079SOL    HW210137   2.759   2.231   3.102
 3080SOL     OW10138   6.510   4.938   2.563
 3080SOL    HW110139   6.417   4.919   2.532
 3080SOL    HW210140   6.522   5.037   2.574
 3081SOL     OW10141   1.085   3.859   6.295
 3081SOL    HW110142   1.127   3.783   6.343
 3081SOL    HW210143   1.143   3.887   6.219
 3082SOL     OW10144   1.914   5.826   4.290
 3082SOL    HW110145   1.959   5.854   4.205
 3082SOL    HW210146   1.982   5.784   4.351
 3083SOL     OW10147   3.175   6.079   3.650
 3083SOL    HW110148   3.085   6.063   3.610
 3083SOL    HW210149   3.206   5.998   3.699
 3084SOL     OW10150   6.533   3.884   3.651
 3084SOL    HW110151   6.562   3.970   3.610
 3084SOL    HW210152   6.591   3.865   3.731
 3085SOL     OW10153   6.577   4.132   0.532
 3085SOL    HW110154   6.513   4.206   0.512
 3085SOL    HW210155   6.654   4.168   0.584
 3086SOL     OW10156   5.202   1.689   0.593
 3086SOL    HW110157   5.110   1.649   0.589
 3086SOL    HW210158   5.195   1.788   0.588
 3087SOL     OW10159   2.331   6.636   3.658
 3087SOL    HW110160   2.238   6.664   3.636
 3087SOL    HW210161   2.338   6.536   3.652
 3088SOL     OW10162   2.328   4.239   4.706
 3088SOL    HW110163   2.423   4.263   4.684
 3088SOL    HW210164   2.324   4.144   4.735
 3089SOL     OW10165   3.411   1.684   4.503
 3089SOL    HW110166   3.510   1.682   4.489
 3089SOL    HW210167   3.366   1.637   4.427
 3090SOL     OW10168   2.197   1.549   1.883
 3090SOL    HW110169   2.216   1.613   1.808
 3090SOL    HW210170   2.100   1.554   1.908
 3091SOL     OW10171   1.499   1.104   0.654
 3091SOL    HW110172   1.499   1.201   0.630
 3091SOL    HW210173   1.508   1.093   0.753
 3092SOL     OW10174   5.570   0.030   0.783
 3092SOL    HW110175   5.546   6.960   0.812
 3092SOL    HW210176   5.605   0.082   0.861
 3093SOL     OW10177   5.330   5.735   6.716
 3093SOL    HW110178   5.348   5.698   6.625
 3093SOL    HW210179   5.231   5.739   6.731
 3094SOL     OW10180   2.407   0.396   3.975
 3094SOL    HW110181   2.406   0.382   3.876
 3094SOL    HW210182   2.314   0.394   4.010
 3095SOL     OW10183   2.452   4.132   5.364
 3095SOL    HW110184   2.406   4.213   5.329
 3095SOL    HW210185   2.484   4.076   5.288
 3096SOL     OW10186   0.846   5.202   5.450
 3096SOL    HW110187   0.879   5.117   5.492
 3096SOL    HW210188   0.865   5.200   5.351
 3097SOL     OW10189   5.601   3.683   6.877
 3097SOL    HW110190   5.602   3.736   6.961
 3097SOL    HW210191   5.689   3.636   6.866
 3098SOL     OW10192   1.648   3.156   1.716
 3098SOL    HW110193   1.678   3.074   1.667
 3098SOL    HW210194   1.664   3.237   1.659
 3099SOL     OW10195   1.234   6.185   3.963
 3099SOL    HW110196   1.189   6.270   3.935
 3099SOL    HW210197   1.164   6.117   3.983
 3100SOL     OW10198   6.583   5.936   3.800
 3100SOL    HW110199   6.623   5.888   3.722
 3100SOL    HW210200   6.490   5.902   3.815
 3101SOL     OW10201   6.401   5.890   6.636
 3101SOL    HW110202   6.321   5.896   6.696
 3101SOL    HW210203   6.372   5.864   6.544
 3102SOL     OW10204   6.174   0.367   1.710
 3102SOL    HW110205   6.228   0.342   1.629
 3102SOL    HW210206   6.081   0.331   1.700
 3103SOL     OW10207   4.122   1.317   1.783
 3103SOL    HW110208   4.030   1.338   1.750
 3103SOL    HW210209   4.133   1.353   1.875
 3104SOL     OW10210   4.406   0.506   6.400
 3104SOL    HW110211   4.435   0.452   6.321
 3104SOL    HW210212   4.466   0.585   6.410
 3105SOL     OW10213   6.155   4.276   1.245
 3105SOL    HW110214   6.146   4.205   1.315
 3105SOL    HW210215   6.162   4.234   1.155
 3106SOL     OW10216   4.553   6.981   4.504
 3106SOL    HW110217   4.602   0.035   4.461
 3106SOL    HW210218   4.465   6.969   4.459
 3107SOL     OW10219   3.610   0.668   4.488
 3107SOL    HW110220   3.631   0.677   4.585
 3107SOL    HW210221   3.569   0.753   4.455
 3108SOL     OW10222   2.572   5.670   5.070
 3108SOL    HW110223   2.596   5.668   4.973
 3108SOL    HW210224   2.545   5.579   5.100
 3109SOL     OW10225   5.642   6.794   3.544
 3109SOL    HW110226   5.686   6.841   3.621
 3109SOL    HW210227   5.656   6.846   3.460
 3110SOL     OW10228   1.370   3.718   3.088
 3110SOL    HW110229   1.360   3.798   3.029
 3110SOL    HW210230   1.350   3.744   3.183
 3111SOL     OW10231   0.012   5.005   3.141
 3111SOL    HW110232   0.029   5.082   3.203
 3111SOL    HW210233   6.936   4.998   3.122
 3112SOL     OW10234   3.463   2.949   0.038
 3112SOL    HW110235   3.413   2.942   6.974
 3112SOL    HW210236   3.431   3.028   0.089
 3113SOL     OW10237   3.157   5.009   3.103
 3113SOL    HW110238   3.171   5.106   3.122
 3113SOL    HW210239   3.063   4.994   3.071
 3114SOL     OW10240   3.486   1.677   0.058
 3114SOL    HW110241   3.437   1.759   0.032
 3114SOL    HW210242   3.463   1.653   0.152
 3115SOL     OW10243   3.873   4.469   6.059
 3115SOL    HW110244   3.831   4.395   6.006
 3115SOL    HW210245   3.810   4.546   6.065
 3116SOL     OW10246   6.808   2.058   6.743
 3116SOL    HW110247   6.759   2.027   6.825
 3116SOL    HW210248   6.753   2.038   6.662
 3117SOL     OW10249   4.559   4.143   5.403
 3117SOL    HW110250   4.512   4.230   5.393
 3117SOL    HW210251   4.516   4.075   5.343
 3118SOL     OW10252   0.918   4.785   2.028
 3118SOL    HW110253   0.925   4.697   1.982
 3118SOL    HW210254   1.003   4.804   2.078
 3119SOL     OW10255   2.383   2.708   0.020
 3119SOL    HW110256   2.463   2.695   6.984
 3119SOL    HW210257   2.352   2.619   0.053
 3120SOL     OW10258   2.860   0.434   6.153
 3120SOL    HW110259   2.899   0.508   6.099
 3120SOL    HW210260   2.760   0.440   6.151
 3121SOL     OW10261   6.284   1.551   4.548
 3121SOL    HW110262   6.194   1.585   4.521
 3121SOL    HW210263   6.346   1.628   4.562
 3122SOL     OW10264   4.831   5.703   5.770
 3122SOL    HW110265   4.896   5.743   5.834
 3122SOL    HW210266   4.881   5.659   5.695
 3123SOL     OW10267   2.442   1.563   2.412
 3123SOL    HW110268   2.490   1.559   2.324
 3123SOL    HW210269   2.365   1.626   2.406
 3124SOL     OW10270   4.974   0.150   4.496
 3124SOL    HW110271   5.012   0.215   4.562
 3124SOL    HW210272   5.042   0.131   4.424
 3125SOL     OW10273   1.071   3.468   5.648
 3125SOL    HW110274   1.129   3.387   5.657
 3125SOL    HW210275   1.034   3.472   5.555
 3126SOL     OW10276   5.980   4.019   5.466
 3126SOL    HW110277   5.944   4.060   5.382
 3126SOL    HW210278   5.907   3.971   5.513
 3127SOL     OW10279   1.966   2.259   6.813
 3127SOL    HW110280   1.885   2.316   6.831
 3127SOL    HW210281   1.948   2.166   6.843
 3128SOL     OW10282   3.193   1.342   6.281
 3128SOL    HW110283   3.220   1.436   6.260
 3128SOL    HW210284   3.109   1.319   6.231
 3129SOL     OW10285   6.420   3.734   6.956
 3129SOL    HW110286   6.352   3.769   6.892
 3129SOL    HW210287   6.456   3.647   6.922
 3130SOL     OW10288   2.091   4.439   2.143
 3130SOL    HW110289   2.066   4.380   2.066
 3130SOL    HW210290   2.023   4.430   2.215
 3131SOL     OW10291   0.520   3.198   1.490
 3131SOL    HW110292   0.535   3.168   1.585
 3131SOL    HW210293   0.427   3.233   1.481
 3132SOL     OW10294   5.032   5.376   6.423
 3132SOL    HW110295   4.987   5.287   6.408
 3132SOL    HW210296   5.131   5.362   6.432
 3133SOL     OW10297   3.195   0.921   2.960
 3133SOL    HW110298   3.107   0.967   2.949
 3133SOL    HW210299   3.262   0.986   2.996
 3134SOL     OW10300   4.164   4.255   1.122
 3134SOL    HW110301   4.180   4.261   1.024
 3134SOL    HW210302   4.228   4.316   1.170
 3135SOL     OW10303   4.920   0.310   5.856
 3135SOL    HW110304   4.990   0.369   5.895
 3135SOL    HW210305   4.941   0.292   5.760
 3136SOL     OW10306   5.123   0.081   2.518
 3136SOL    HW110307   5.048   0.072   2.583
 3136SOL    HW210308   5.086   0.084   2.425
 3137SOL     OW10309   6.371   0.391   2.701
 3137SOL    HW110310   6.444   0.346   2.753
 3137SOL    HW210311   6.282   0.352   2.728
 3138SOL     OW10312   0.168   6.130   3.589
 3138SOL    HW110313   0.134   6.041   3.619
 3138SOL    HW210314   0.142   6.200   3.655
 3139SOL     OW10315   4.155   5.399   0.150
 3139SOL    HW110316   4.134   5.344   0.069
 3139SOL    HW210317   4.098   5.481   0.150
 3140SOL     OW10318   6.587   6.099   6.626
 3140SOL    HW110319   6.542   6.010   6.638
 3140SOL    HW210320   6.572   6.131   6.533
 3141SOL     OW10321   1.086   0.804   6.553
 3141SOL    HW110322   1.027   0.725   6.533
 3141SOL    HW210323   1.089   0.864   6.473
 3142SOL     OW10324   2.892   7.003   2.489
 3142SOL    HW110325   2.849   0.048   2.429
 3142SOL    HW210326   2.827   6.973   2.558
 3143SOL     OW10327   6.384   1.850   0.219
 3143SOL    HW110328   6.428   1.823   0.133
 3143SOL    HW210329   6.289   1.875   0.201
 3144SOL     OW10330   4.114   3.869   0.917
 3144SOL    HW110331   4.137   3.780   0.878
 3144SOL    HW210332   4.100   3.935   0.844
 3145SOL     OW10333   2.412   6.332   2.185
 3145SOL    HW110334   2.347   6.268   2.227
 3145SOL    HW210335   2.470   6.372   2.256
 3146SOL     OW10336   0.425   1.693   4.336
 3146SOL    HW110337   0.497   1.626   4.354
 3146SOL    HW210338   0.461   1.785   4.352
 3147SOL     OW10339   2.984   5.245   0.455
 3147SOL    HW110340   3.056   5.246   0.525
 3147SOL    HW210341   2.904   5.294   0.488
 3148SOL     OW10342   6.714   6.946   3.424
 3148SOL    HW110343   6.793   6.894   3.454
 3148SOL    HW210344   6.744   0.006   3.376
 3149SOL     OW10345   3.331   0.793   6.216
 3149SOL    HW110346   3.293   0.731   6.148
 3149SOL    HW210347   3.345   0.884   6.175
 3150SOL     OW10348   6.443   5.707   5.439
 3150SOL    HW110349   6.352   5.749   5.435
 3150SOL    HW210350   6.462   5.660   5.353
 3151SOL     OW10351   0.658   1.217   4.785
 3151SOL    HW110352   0.651   1.167   4.872
 3151SOL    HW210353   0.644   1.154   4.709
 3152SOL     OW10354   0.765   5.285   0.802
 3152SOL    HW110355   0.678   5.309   0.845
 3152SOL    HW210356   0.750   5.263   0.706
 3153SOL     OW10357   6.330   5.442   0.636
 3153SOL    HW110358   6.409   5.452   0.697
 3153SOL    HW210359   6.328   5.517   0.570
 3154SOL     OW10360   0.148   2.022   6.620
 3154SOL    HW110361   0.064   2.039   6.568
 3154SOL    HW210362   0.225   2.014   6.557
 3155SOL     OW10363   6.758   4.483   0.480
 3155SOL    HW110364   6.660   4.494   0.466
 3155SOL    HW210365   6.806   4.502   0.394
 3156SOL     OW10366   3.079   2.974   2.260
 3156SOL    HW110367   3.167   2.926   2.262
 3156SOL    HW210368   3.009   2.917   2.304
 3157SOL     OW10369   2.261   1.543   5.643
 3157SOL    HW110370   2.293   1.592   5.562
 3157SOL    HW210371   2.280   1.598   5.725
 3158SOL     OW10372   3.399   1.610   4.171
 3158SOL    HW110373   3.491   1.572   4.176
 3158SOL    HW210374   3.400   1.704   4.204
 3159SOL     OW10375   5.653   0.518   0.088
 3159SOL    HW110376   5.638   0.424   0.118
 3159SOL    HW210377   5.738   0.553   0.128
 3160SOL     OW10378   0.892   5.970   5.505
 3160SOL    HW110379   0.986   5.939   5.491
 3160SOL    HW210380   0.886   6.067   5.483
 3161SOL     OW10381   2.264   2.858   2.935
 3161SOL    HW110382   2.171   2.823   2.941
 3161SOL    HW210383   2.263   2.958   2.943
 3162SOL     OW10384   1.465   5.397   1.781
 3162SOL    HW110385   1.447   5.453   1.700
 3162SOL    HW210386   1.548   5.342   1.767
 3163SOL     OW10387   4.295   3.556   6.703
 3163SOL    HW110388   4.238   3.629   6.740
 3163SOL    HW210389   4.241   3.472   6.693
 3164SOL     OW10390   3.975   5.474   1.243
 3164SOL    HW110391   4.051   5.540   1.240
 3164SOL    HW210392   4.001   5.397   1.302
 3165SOL     OW10393   0.830   6.864   1.476
 3165SOL    HW110394   0.870   6.773   1.467
 3165SOL    HW210395   0.897   6.927   1.516
 3166SOL     OW10396   4.176   1.710   3.640
 3166SOL    HW110397   4.253   1.671   3.589
 3166SOL    HW210398   4.094   1.704   3.584
 3167SOL     OW10399   6.012   4.162   0.743
 3167SOL    HW110400   6.025   4.070   0.706
 3167SOL    HW210401   5.943   4.210   0.689
 3168SOL     OW10402   4.965   2.808   0.314
 3168SOL    HW110403   4.891   2.855   0.361
 3168SOL    HW210404   4.928   2.758   0.235
 3169SOL     OW10405   2.356   4.359   4.148
 3169SOL    HW110406   2.391   4.304   4.223
 3169SOL    HW210407   2.282   4.418   4.181
 3170SOL     OW10408   3.852   5.855   1.679
 3170SOL    HW110409   3.833   5.942   1.633
 3170SOL    HW210410   3.781   5.789   1.655
 3171SOL     OW10411   0.069   1.336   2.363
 3171SOL    HW110412   0.033   1.292   2.446
 3171SOL    HW210413   0.012   1.414   2.338
 3172SOL     OW10414   0.081   5.930   0.146
 3172SOL    HW110415   0.157   5.877   0.184
 3172SOL    HW210416   0.091   6.026   0.173
 3173SOL     OW10417   3.367   2.514   0.277
 3173SOL    HW110418   3.404   2.422   0.290
 3173SOL    HW210419   3.437   2.573   0.237
 3174SOL     OW10420   3.116   2.428   0.837
 3174SOL    HW110421   3.044   2.459   0.900
 3174SOL    HW210422   3.125   2.492   0.761
 3175SOL     OW10423   6.019   0.967   1.719
 3175SOL    HW110424   6.116   0.994   1.717
 3175SOL    HW210425   6.012   0.868   1.714
 3176SOL     OW10426   1.013   4.407   5.529
 3176SOL    HW110427   0.982   4.320   5.489
 3176SOL    HW210428   1.109   4.400   5.554
 3177SOL     OW10429   4.854   4.186   3.552
 3177SOL    HW110430   4.919   4.262   3.552
 3177SOL    HW210431   4.764   4.220   3.580
 3178SOL     OW10432   6.453   1.980   1.050
 3178SOL    HW110433   6.527   1.916   1.029
 3178SOL    HW210434   6.486   2.074   1.039
 3179SOL     OW10435   1.123   2.622   2.053
 3179SOL    HW110436   1.139   2.544   1.993
 3179SOL    HW210437   1.093   2.588   2.143
 3180SOL     OW10438   6.046   0.561   0.395
 3180SOL    HW110439   6.130   0.515   0.367
 3180SOL    HW210440   6.069   0.640   0.453
 3181SOL     OW10441   0.183   1.932   2.567
 3181SOL    HW110442   0.265   1.891   2.606
 3181SOL    HW210443   0.113   1.862   2.554
 3182SOL     OW10444   2.742   0.515   6.455
 3182SOL    HW110445   2.667   0.479   6.401
 3182SOL    HW210446   2.779   0.597   6.412
 3183SOL     OW10447   5.022   3.989   2.274
 3183SOL    HW110448   5.055   3.896   2.291
 3183SOL    HW210449   4.946   4.009   2.337
 3184SOL     OW10450   0.792   2.989   2.885
 3184SOL    HW110451   0.761   3.071   2.838
 3184SOL    HW210452   0.870   2.950   2.836
 3185SOL     OW10453   5.082   5.693   6.754
 3185SOL    HW110454   5.060   5.599   6.728
 3185SOL    HW210455   5.070   5.753   6.675
 3186SOL     OW10456   3.266   2.213   1.326
 3186SOL    HW110457   3.224   2.291   1.279
 3186SOL    HW210458   3.326   2.246   1.399
 3187SOL     OW10459   4.580   5.015   0.695
 3187SOL    HW110460   4.569   4.921   0.726
 3187SOL    HW210461   4.587   5.076   0.774
 3188SOL     OW10462   1.031   6.706   4.176
 3188SOL    HW110463   1.130   6.720   4.182
 3188SOL    HW210464   1.005   6.697   4.080
 3189SOL     OW10465   1.049   1.764   1.217
 3189SOL    HW110466   1.117   1.810   1.160
 3189SOL    HW210467   1.064   1.665   1.213
 3190SOL     OW10468   0.836   5.383   0.138
 3190SOL    HW110469   0.861   5.457   0.076
 3190SOL    HW210470   0.767   5.325   0.095
 3191SOL     OW10471   5.160   5.842   0.767
 3191SOL    HW110472   5.219   5.785   0.710
 3191SOL    HW210473   5.208   5.862   0.853
 3192SOL     OW10474   6.932   3.252   1.442
 3192SOL    HW110475   7.000   3.205   1.498
 3192SOL    HW210476   6.968   3.263   1.349
 3193SOL     OW10477   4.234   1.126   6.630
 3193SOL    HW110478   4.208   1.196   6.563
 3193SOL    HW210479   4.256   1.041   6.582
 3194SOL     OW10480   1.298   1.617   6.603
 3194SOL    HW110481   1.297   1.676   6.522
 3194SOL    HW210482   1.273   1.523   6.577
 3195SOL     OW10483   2.732   1.287   3.662
 3195SOL    HW110484   2.799   1.285   3.587
 3195SOL    HW210485   2.687   1.198   3.668
 3196SOL     OW10486   0.347   0.488   6.763
 3196SOL    HW110487   0.315   0.485   6.668
 3196SOL    HW210488   0.447   0.482   6.765
 3197SOL     OW10489   3.119   6.802   4.118
 3197SOL    HW110490   3.135   6.875   4.184
 3197SOL    HW210491   3.041   6.826   4.060
 3198SOL     OW10492   6.031   3.281   4.044
 3198SOL    HW110493   6.031   3.181   4.054
 3198SOL    HW210494   6.116   3.310   4.001
 3199SOL     OW10495   5.129   4.105   2.961
 3199SOL    HW110496   5.048   4.163   2.962
 3199SOL    HW210497   5.195   4.142   2.895
 3200SOL     OW10498   5.922   3.598   2.551
 3200SOL    HW110499   5.915   3.576   2.648
 3200SOL    HW210500   5.909   3.515   2.497
 3201SOL     OW10501   6.357   4.680   4.041
 3201SOL    HW110502   6.312   4.745   3.980
 3201SOL    HW210503   6.380   4.597   3.990
 3202SOL     OW10504   1.119   4.696   1.686
 3202SOL    HW110505   1.087   4.663   1.597
 3202SOL    HW210506   1.154   4.789   1.677
 3203SOL     OW10507   6.412   2.274   0.724
 3203SOL    HW110508   6.503   2.268   0.683
 3203SOL    HW210509   6.420   2.295   0.821
 3204SOL     OW10510   4.802   6.250   3.294
 3204SOL    HW110511   4.739   6.318   3.330
 3204SOL    HW210512   4.759   6.159   3.300
 3205SOL     OW10513   5.750   2.601   5.995
 3205SOL    HW110514   5.691   2.680   5.976
 3205SOL    HW210515   5.841   2.618   5.957
 3206SOL     OW10516   2.166   4.603   0.124
 3206SOL    HW110517   2.200   4.566   0.211
 3206SOL    HW210518   2.241   4.646   0.075
 3207SOL     OW10519   1.052   0.982   5.849
 3207SOL    HW110520   0.985   1.036   5.900
 3207SOL    HW210521   1.143   1.023   5.858
 3208SOL     OW10522   4.684   6.484   6.056
 3208SOL    HW110523   4.636   6.526   5.979
 3208SOL    HW210524   4.619   6.436   6.115
 3209SOL     OW10525   4.108   5.260   3.489
 3209SOL    HW110526   4.193   5.223   3.527
 3209SOL    HW210527   4.097   5.226   3.395
 3210SOL     OW10528   0.913   4.081   0.825
 3210SOL    HW110529   0.861   4.056   0.907
 3210SOL    HW210530   1.005   4.042   0.831
 3211SOL     OW10531   2.171   3.215   0.350
 3211SOL    HW110532   2.182   3.129   0.299
 3211SOL    HW210533   2.074   3.230   0.368
 3212SOL     OW10534   3.056   0.001   1.456
 3212SOL    HW110535   2.969   6.984   1.485
 3212SOL    HW210536   3.120   0.001   1.534
 3213SOL     OW10537   1.016   6.931   0.716
 3213SOL    HW110538   1.019   6.939   0.816
 3213SOL    HW210539   1.108   6.916   0.680
 3214SOL     OW10540   4.256   5.686   0.950
 3214SOL    HW110541   4.193   5.640   0.888
 3214SOL    HW210542   4.259   5.638   1.037
 3215SOL     OW10543   6.998   3.317   1.163
 3215SOL    HW110544   6.935   3.394   1.175
 3215SOL    HW210545   0.003   3.311   1.067
 3216SOL     OW10546   6.357   5.426   6.890
 3216SOL    HW110547   6.262   5.412   6.864
 3216SOL    HW210548   6.371   5.521   6.917
 3217SOL     OW10549   0.139   5.282   2.183
 3217SOL    HW110550   0.170   5.194   2.148
 3217SOL    HW210551   0.145   5.351   2.111
 3218SOL     OW10552   4.475   2.158   3.659
 3218SOL    HW110553   4.573   2.162   3.638
 3218SOL    HW210554   4.434   2.080   3.611
 3219SOL     OW10555   0.371   2.013   3.732
 3219SOL    HW110556   0.275   2.008   3.703
 3219SOL    HW210557   0.423   1.940   3.688
 3220SOL     OW10558   0.247   5.576   6.483
 3220SOL    HW110559   0.318   5.615   6.425
 3220SOL    HW210560   0.206   5.649   6.538
 3221SOL     OW10561   4.470   0.570   1.311
 3221SOL    HW110562   4.451   0.579   1.214
 3221SOL    HW210563   4.505   0.478   1.331
 3222SOL     OW10564   3.124   1.241   2.685
 3222SOL    HW110565   3.069   1.279   2.610
 3222SOL    HW210566   3.137   1.311   2.755
 3223SOL     OW10567   2.493   6.563   6.553
 3223SOL    HW110568   2.416   6.585   6.492
 3223SOL    HW210569   2.484   6.469   6.585
 3224SOL     OW10570   4.768   3.906   6.005
 3224SOL    HW110571   4.778   3.928   6.102
 3224SOL    HW210572   4.807   3.816   5.986
 3225SOL     OW10573   5.351   3.093   6.182
 3225SOL    HW110574   5.314   3.134   6.099
 3225SOL    HW210575   5.318   2.999   6.191
 3226SOL     OW10576   2.278   1.659   2.820
 3226SOL    HW110577   2.240   1.585   2.764
 3226SOL    HW210578   2.230   1.744   2.800
 3227SOL     OW10579   3.501   2.800   6.803
 3227SOL    HW110580   3.457   2.806   6.713
 3227SOL    HW210581   3.600   2.792   6.790
 3228SOL     OW10582   6.916   4.090   1.947
 3228SOL    HW110583   6.924   4.153   2.024
 3228SOL    HW210584   6.948   4.000   1.975
 3229SOL     OW10585   4.218   0.514   4.690
 3229SOL    HW110586   4.157   0.436   4.707
 3229SOL    HW210587   4.278   0.492   4.613
 3230SOL     OW10588   2.499   4.074   5.619
 3230SOL    HW110589   2.465   4.100   5.529
 3230SOL    HW210590   2.571   4.006   5.609
 3231SOL     OW10591   2.574   7.008   1.235
 3231SOL    HW110592   2.533   0.045   1.304
 3231SOL    HW210593   2.660   0.026   1.203
 3232SOL     OW10594   4.855   6.835   5.012
 3232SOL    HW110595   4.860   6.799   5.106
 3232SOL    HW210596   4.823   6.930   5.015
 3233SOL     OW10597   0.881   2.298   1.545
 3233SOL    HW110598   0.938   2.278   1.625
 3233SOL    HW210599   0.876   2.397   1.532
 3234SOL     OW10600   0.406   2.100   6.822
 3234SOL    HW110601   0.489   2.052   6.794
 3234SOL    HW210602   0.360   2.048   6.894
 3235SOL     OW10603   6.215   0.634   2.692
 3235SOL    HW110604   6.143   0.651   2.759
 3235SOL    HW210605   6.261   0.548   2.715
 3236SOL     OW10606   1.641   2.909   0.637
 3236SOL    HW110607   1.664   2.872   0.727
 3236SOL    HW210608   1.721   2.905   0.578
 3237SOL     OW10609   5.476   1.465   3.485
 3237SOL    HW110610   5.546   1.430   3.547
 3237SOL    HW210611   5.461   1.562   3.503
 3238SOL     OW10612   6.785   5.626   0.594
 3238SOL    HW110613   6.728   5.575   0.531
 3238SOL    HW210614   6.859   5.671   0.544
 3239SOL     OW10615   6.755   1.566   2.440
 3239SOL    HW110616   6.846   1.557   2.401
 3239SOL    HW210617   6.758   1.541   2.537
 3240SOL     OW10618   6.781   6.663   6.286
 3240SOL    HW110619   6.823   6.585   6.239
 3240SOL    HW210620   6.785   6.744   6.227
 3241SOL     OW10621   4.555   1.172   4.686
 3241SOL    HW110622   4.629   1.198   4.748
 3241SOL    HW210623   4.518   1.255   4.643
 3242SOL     OW10624   4.132   3.757   6.805
 3242SOL    HW110625   4.181   3.832   6.760
 3242SOL    HW210626   4.034   3.778   6.807
 3243SOL     OW10627   4.315   4.007   0.694
 3243SOL    HW110628   4.354   3.917   0.715
 3243SOL    HW210629   4.216   3.999   0.684
 3244SOL     OW10630   4.550   5.812   6.979
 3244SOL    HW110631   4.568   5.890   0.016
 3244SOL    HW210632   4.624   5.803   6.912
 3245SOL     OW10633   5.307   3.586   4.818
 3245SOL    HW110634   5.239   3.517   4.843
 3245SOL    HW210635   5.274   3.638   4.739
 3246SOL     OW10636   5.549   0.188   2.572
 3246SOL    HW110637   5.634   0.181   2.624
 3246SOL    HW210638   5.525   0.285   2.562
 3247SOL     OW10639   6.646   4.517   2.527
 3247SOL    HW110640   6.654   4.490   2.430
 3247SOL    HW210641   6.736   4.510   2.570
 3248SOL     OW10642   6.374   3.698   1.471
 3248SOL    HW110643   6.335   3.615   1.513
 3248SOL    HW210644   6.411   3.675   1.381
 3249SOL     OW10645   4.093   3.389   4.201
 3249SOL    HW110646   4.059   3.483   4.193
 3249SOL    HW210647   4.130   3.375   4.293
 3250SOL     OW10648   5.673   0.140   2.163
 3250SOL    HW110649   5.595   0.105   2.215
 3250SOL    HW210650   5.691   0.234   2.190
 3251SOL     OW10651   3.161   1.090   3.672
 3251SOL    HW110652   3.146   1.025   3.597
 3251SOL    HW210653   3.143   1.183   3.639
 3252SOL     OW10654   2.177   0.973   2.920
 3252SOL    HW110655   2.208   1.032   2.995
 3252SOL    HW210656   2.217   0.882   2.931
 3253SOL     OW10657   4.813   4.308   1.913
 3253SOL    HW110658   4.894   4.303   1.972
 3253SOL    HW210659   4.731   4.301   1.969
 3254SOL     OW10660   5.114   6.061   5.700
 3254SOL    HW110661   5.172   6.122   5.646
 3254SOL    HW210662   5.031   6.040   5.648
 3255SOL     OW10663   5.258   6.411   0.330
 3255SOL    HW110664   5.182   6.383   0.389
 3255SOL    HW210665   5.342   6.367   0.362
 3256SOL     OW10666   3.168   0.870   0.428
 3256SOL    HW110667   3.173   0.860   0.329
 3256SOL    HW210668   3.211   0.791   0.472
 3257SOL     OW10669   1.466   1.782   2.159
 3257SOL    HW110670   1.398   1.791   2.232
 3257SOL    HW210671   1.535   1.854   2.168
 3258SOL     OW10672   4.670   5.207   2.471
 3258SOL    HW110673   4.599   5.273   2.448
 3258SOL    HW210674   4.720   5.237   2.552
 3259SOL     OW10675   5.222   5.342   4.256
 3259SOL    HW110676   5.245   5.247   4.233
 3259SOL    HW210677   5.268   5.404   4.192
 3260SOL     OW10678   0.784   1.892   1.280
 3260SOL    HW110679   0.825   1.982   1.294
 3260SOL    HW210680   0.848   1.833   1.230
 3261SOL     OW10681   5.830   0.539   1.450
 3261SOL    HW110682   5.892   0.464   1.429
 3261SOL    HW210683   5.829   0.604   1.373
 3262SOL     OW10684   3.002   2.121   2.716
 3262SOL    HW110685   2.939   2.193   2.745
 3262SOL    HW210686   2.990   2.102   2.619
 3263SOL     OW10687   2.610   1.001   3.338
 3263SOL    HW110688   2.609   1.048   3.250
 3263SOL    HW210689   2.573   0.909   3.327
 3264SOL     OW10690   1.157   3.848   1.004
 3264SOL    HW110691   1.151   3.934   1.054
 3264SOL    HW210692   1.215   3.861   0.923
 3265SOL     OW10693   5.382   0.794   6.578
 3265SOL    HW110694   5.370   0.776   6.675
 3265SOL    HW210695   5.294   0.789   6.532
 3266SOL     OW10696   1.748   4.079   0.216
 3266SOL    HW110697   1.789   4.167   0.240
 3266SOL    HW210698   1.811   4.027   0.159
 3267SOL     OW10699   3.508   6.402   0.891
 3267SOL    HW110700   3.475   6.342   0.964
 3267SOL    HW210701   3.434   6.421   0.827
 3268SOL     OW10702   1.382   3.572   1.678
 3268SOL    HW110703   1.285   3.566   1.702
 3268SOL    HW210704   1.392   3.615   1.588
 3269SOL     OW10705   4.994   5.708   2.047
 3269SOL    HW110706   4.972   5.741   1.956
 3269SOL    HW210707   5.041   5.780   2.098
 3270SOL     OW10708   1.010   4.220   6.067
 3270SOL    HW110709   0.966   4.158   6.002
 3270SOL    HW210710   1.047   4.298   6.017
 3271SOL     OW10711   5.676   3.582   2.351
 3271SOL    HW110712   5.600   3.537   2.398
 3271SOL    HW210713   5.738   3.513   2.314
 3272SOL     OW10714   3.486   4.619   6.080
 3272SOL    HW110715   3.522   4.678   6.008
 3272SOL    HW210716   3.386   4.615   6.072
 3273SOL     OW10717   0.156   6.113   0.715
 3273SOL    HW110718   0.118   6.107   0.808
 3273SOL    HW210719   0.183   6.022   0.684
 3274SOL     OW10720   5.010   0.949   0.783
 3274SOL    HW110721   5.009   0.877   0.852
 3274SOL    HW210722   5.103   0.985   0.773
 3275SOL     OW10723   6.008   1.620   6.873
 3275SOL    HW110724   6.099   1.590   6.846
 3275SOL    HW210725   6.011   1.658   6.966
 3276SOL     OW10726   2.621   5.891   0.077
 3276SOL    HW110727   2.664   5.880   7.009
 3276SOL    HW210728   2.611   5.802   0.120
 3277SOL     OW10729   3.681   0.117   6.613
 3277SOL    HW110730   3.618   0.051   6.574
 3277SOL    HW210731   3.775   0.082   6.608
 3278SOL     OW10732   0.751   0.947   5.505
 3278SOL    HW110733   0.721   0.880   5.437
 3278SOL    HW210734   0.831   0.911   5.554
 3279SOL     OW10735   5.161   0.270   0.635
 3279SOL    HW110736   5.229   0.239   0.569
 3279SOL    HW210737   5.075   0.289   0.587
 3280SOL     OW10738   4.042   4.817   4.097
 3280SOL    HW110739   4.018   4.807   4.001
 3280SOL    HW210740   4.134   4.782   4.113
 3281SOL     OW10741   1.972   4.863   1.836
 3281SOL    HW110742   1.958   4.784   1.896
 3281SOL    HW210743   1.885   4.911   1.824
 3282SOL     OW10744   6.933   5.017   5.706
 3282SOL    HW110745   6.963   4.974   5.621
 3282SOL    HW210746   7.013   5.042   5.760
 3283SOL     OW10747   3.638   0.225   1.032
 3283SOL    HW110748   3.628   0.148   1.094
 3283SOL    HW210749   3.732   0.258   1.034
 3284SOL     OW10750   0.192   4.956   0.009
 3284SOL    HW110751   0.230   4.910   6.951
 3284SOL    HW210752   0.173   4.888   0.080
 3285SOL     OW10753   4.103   2.021   3.554
 3285SOL    HW110754   4.141   2.096   3.501
 3285SOL    HW210755   4.052   1.960   3.494
 3286SOL     OW10756   3.325   2.874   2.304
 3286SOL    HW110757   3.415   2.917   2.313
 3286SOL    HW210758   3.328   2.807   2.230
 3287SOL     OW10759   0.666   0.802   0.048
 3287SOL    HW110760   0.683   0.703   0.052
 3287SOL    HW210761   0.750   0.849   0.019
 3288SOL     OW10762   0.755   5.587   5.686
 3288SOL    HW110763   0.660   5.602   5.661
 3288SOL    HW210764   0.769   5.610   5.782
 3289SOL     OW10765   2.774   0.176   5.437
 3289SOL    HW110766   2.703   0.172   5.508
 3289SOL    HW210767   2.759   0.258   5.381
 3290SOL     OW10768   0.205   6.894   1.428
 3290SOL    HW110769   0.141   6.932   1.495
 3290SOL    HW210770   0.287   6.952   1.426
 3291SOL     OW10771   1.262   6.861   0.587
 3291SOL    HW110772   1.312   6.800   0.648
 3291SOL    HW210773   1.306   6.862   0.497
 3292SOL     OW10774   0.344   1.402   0.331
 3292SOL    HW110775   0.251   1.367   0.316
 3292SOL    HW210776   0.407   1.360   0.266
 3293SOL     OW10777   0.007   3.878   2.050
 3293SOL    HW110778   0.055   3.796   2.018
 3293SOL    HW210779   6.994   3.861   2.142
 3294SOL     OW10780   5.945   1.979   6.768
 3294SOL    HW110781   5.903   1.939   6.687
 3294SOL    HW210782   5.878   1.985   6.842
 3295SOL     OW10783   1.362   2.761   2.082
 3295SOL    HW110784   1.283   2.706   2.058
 3295SOL    HW210785   1.441   2.732   2.029
 3296SOL     OW10786   1.137   6.844   2.718
 3296SOL    HW110787   1.099   6.924   2.672
 3296SOL    HW210788   1.230   6.863   2.748
 3297SOL     OW10789   2.991   0.763   5.287
 3297SOL    HW110790   3.054   0.736   5.360
 3297SOL    HW210791   3.042   0.808   5.214
 3298SOL     OW10792   6.031   1.769   5.421
 3298SOL    HW110793   5.957   1.805   5.364
 3298SOL    HW210794   6.095   1.717   5.363
 3299SOL     OW10795   3.085   5.856   2.967
 3299SOL    HW110796   3.169   5.886   3.011
 3299SOL    HW210797   3.087   5.880   2.870
 3300SOL     OW10798   6.697   0.821   5.091
 3300SOL    HW110799   6.717   0.788   5.183
 3300SOL    HW210800   6.600   0.812   5.072
 3301SOL     OW10801   1.354   2.974   3.585
 3301SOL    HW110802   1.291   3.049   3.563
 3301SOL    HW210803   1.390   2.935   3.501
 3302SOL     OW10804   0.847   4.816   5.397
 3302SOL    HW110805   0.869   4.886   5.465
 3302SOL    HW210806   0.805   4.858   5.317
 3303SOL     OW10807   3.526   4.089   1.614
 3303SOL    HW110808   3.446   4.051   1.568
 3303SOL    HW210809   3.499   4.126   1.703
 3304SOL     OW10810   1.112   5.538   4.211
 3304SOL    HW110811   1.098   5.594   4.129
 3304SOL    HW210812   1.159   5.593   4.280
 3305SOL     OW10813   2.018   0.972   2.429
 3305SOL    HW110814   2.114   0.947   2.413
 3305SOL    HW210815   1.993   1.048   2.370
 3306SOL     OW10816   2.140   5.315   5.317
 3306SOL    HW110817   2.157   5.273   5.228
 3306SOL    HW210818   2.110   5.245   5.382
 3307SOL     OW10819   0.306   5.416   6.707
 3307SOL    HW110820   0.294   5.487   6.637
 3307SOL    HW210821   0.216   5.385   6.737
 3308SOL     OW10822   2.554   6.516   0.920
 3308SOL    HW110823   2.537   6.518   0.822
 3308SOL    HW210824   2.521   6.601   0.961
 3309SOL     OW10825   0.225   6.014   3.028
 3309SOL    HW110826   0.141   6.030   2.976
 3309SOL    HW210827   0.217   6.057   3.118
 3310SOL     OW10828   0.018   3.429   6.472
 3310SOL    HW110829   6.974   3.421   6.547
 3310SOL    HW210830   0.063   3.518   6.478
 3311SOL     OW10831   2.424   4.019   1.421
 3311SOL    HW110832   2.435   3.964   1.339
 3311SOL    HW210833   2.462   3.970   1.500
 3312SOL     OW10834   4.011   4.649   5.803
 3312SOL    HW110835   4.077   4.680   5.872
 3312SOL    HW210836   4.033   4.556   5.775
 3313SOL     OW10837   0.922   5.748   3.551
 3313SOL    HW110838   0.920   5.693   3.635
 3313SOL    HW210839   0.924   5.687   3.471
 3314SOL     OW10840   2.551   1.469   2.642
 3314SOL    HW110841   2.530   1.516   2.556
 3314SOL    HW210842   2.645   1.489   2.668
 3315SOL     OW10843   6.473   3.767   4.130
 3315SOL    HW110844   6.553   3.825   4.136
 3315SOL    HW210845   6.495   3.684   4.079
 3316SOL     OW10846   4.968   1.443   5.628
 3316SOL    HW110847   4.912   1.371   5.669
 3316SOL    HW210848   4.910   1.504   5.575
 3317SOL     OW10849   4.390   2.983   1.699
 3317SOL    HW110850   4.386   2.895   1.651
 3317SOL    HW210851   4.462   2.980   1.768
 3318SOL     OW10852   1.778   1.218   1.255
 3318SOL    HW110853   1.715   1.147   1.285
 3318SOL    HW210854   1.729   1.305   1.247
 3319SOL     OW10855   6.711   1.542   4.247
 3319SOL    HW110856   6.698   1.551   4.346
 3319SOL    HW210857   6.736   1.448   4.224
 3320SOL     OW10858   6.348   0.362   4.992
 3320SOL    HW110859   6.418   0.308   5.037
 3320SOL    HW210860   6.262   0.357   5.044
 3321SOL     OW10861   4.514   1.463   0.325
 3321SOL    HW110862   4.573   1.538   0.298
 3321SOL    HW210863   4.537   1.434   0.418
 3322SOL     OW10864   6.284   3.075   0.999
 3322SOL    HW110865   6.352   3.145   1.019
 3322SOL    HW210866   6.327   2.999   0.952
 3323SOL     OW10867   3.162   2.757   0.409
 3323SOL    HW110868   3.069   2.782   0.434
 3323SOL    HW210869   3.186   2.669   0.451
 3324SOL     OW10870   3.936   5.412   6.673
 3324SOL    HW110871   3.842   5.404   6.706
 3324SOL    HW210872   3.978   5.495   6.710
 3325SOL     OW10873   0.926   3.102   0.212
 3325SOL    HW110874   0.875   3.049   0.280
 3325SOL    HW210875   0.871   3.111   0.129
 3326SOL     OW10876   4.757   1.911   1.474
 3326SOL    HW110877   4.686   1.870   1.417
 3326SOL    HW210878   4.762   1.863   1.562
 3327SOL     OW10879   2.597   5.621   1.777
 3327SOL    HW110880   2.593   5.674   1.862
 3327SOL    HW210881   2.625   5.528   1.797
 3328SOL     OW10882   4.321   2.388   0.436
 3328SOL    HW110883   4.291   2.295   0.458
 3328SOL    HW210884   4.291   2.451   0.507
 3329SOL     OW10885   4.680   0.620   5.187
 3329SOL    HW110886   4.667   0.527   5.152
 3329SOL    HW210887   4.743   0.670   5.128
 3330SOL     OW10888   6.333   4.955   1.298
 3330SOL    HW110889   6.275   4.940   1.219
 3330SOL    HW210890   6.401   5.026   1.277
 3331SOL     OW10891   2.037   2.861   1.377
 3331SOL    HW110892   1.939   2.875   1.390
 3331SOL    HW210893   2.088   2.907   1.450
 3332SOL     OW10894   6.009   5.428   6.685
 3332SOL    HW110895   6.049   5.342   6.651
 3332SOL    HW210896   5.982   5.417   6.781
 3333SOL     OW10897   4.233   4.116   6.359
 3333SOL    HW110898   4.226   4.211   6.388
 3333SOL    HW210899   4.310   4.072   6.406
 3334SOL     OW10900   2.938   3.769   1.561
 3334SOL    HW110901   2.917   3.772   1.463
 3334SOL    HW210902   3.022   3.821   1.579
 3335SOL     OW10903   4.998   0.117   5.148
 3335SOL    HW110904   5.062   0.048   5.182
 3335SOL    HW210905   4.914   0.114   5.203
 3336SOL     OW10906   2.324   6.363   4.727
 3336SOL    HW110907   2.336   6.273   4.769
 3336SOL    HW210908   2.332   6.434   4.796
 3337SOL     OW10909   3.251   4.098   2.554
 3337SOL    HW110910   3.158   4.062   2.565
 3337SOL    HW210911   3.265   4.126   2.459
 3338SOL     OW10912   5.434   3.286   1.821
 3338SOL    HW110913   5.525   3.247   1.804
 3338SOL    HW210914   5.422   3.369   1.766
 3339SOL     OW10915   6.861   0.466   6.668
 3339SOL    HW110916   6.822   0.378   6.640
 3339SOL    HW210917   6.926   0.452   6.743
 3340SOL     OW10918   3.373   1.768   2.424
 3340SOL    HW110919   3.454   1.799   2.475
 3340SOL    HW210920   3.397   1.754   2.328
 3341SOL     OW10921   1.574   5.501   3.338
 3341SOL    HW110922   1.662   5.461   3.316
 3341SOL    HW210923   1.519   5.511   3.255
 3342SOL     OW10924   2.321   6.983   4.313
 3342SOL    HW110925   2.223   6.962   4.317
 3342SOL    HW210926   2.334   0.053   4.277
 3343SOL     OW10927   5.867   3.248   0.677
 3343SOL    HW110928   5.849   3.227   0.773
 3343SOL    HW210929   5.782   3.279   0.633
 3344SOL     OW10930   5.416   3.330   4.218
 3344SOL    HW110931   5.459   3.359   4.132
 3344SOL    HW210932   5.320   3.306   4.201
 3345SOL     OW10933   1.490   3.783   5.634
 3345SOL    HW110934   1.397   3.747   5.648
 3345SOL    HW210935   1.538   3.727   5.566
 3346SOL     OW10936   1.685   0.833   1.064
 3346SOL    HW110937   1.672   0.912   1.003
 3346SOL    HW210938   1.597   0.805   1.101
 3347SOL     OW10939   0.962   3.496   5.414
 3347SOL    HW110940   0.879   3.501   5.358
 3347SOL    HW210941   1.043   3.505   5.355
 3348SOL     OW10942   3.305   3.810   4.101
 3348SOL    HW110943   3.358   3.801   4.016
 3348SOL    HW210944   3.340   3.745   4.168
 3349SOL     OW10945   0.804   6.260   2.712
 3349SOL    HW110946   0.885   6.218   2.752
 3349SOL    HW210947   0.756   6.313   2.782
 3350SOL     OW10948   0.758   2.485   6.408
 3350SOL    HW110949   0.751   2.562   6.472
 3350SOL    HW210950   0.743   2.517   6.315
 3351SOL     OW10951   4.895   1.291   1.996
 3351SOL    HW110952   4.798   1.309   2.014
 3351SOL    HW210953   4.950   1.370   2.022
 3352SOL     OW10954   6.667   2.276   0.556
 3352SOL    HW110955   6.721   2.296   0.473
 3352SOL    HW210956   6.712   2.204   0.608
 3353SOL     OW10957   1.856   5.861   1.485
 3353SOL    HW110958   1.858   5.953   1.446
 3353SOL    HW210959   1.950   5.832   1.505
 3354SOL     OW10960   4.677   2.512   5.348
 3354SOL    HW110961   4.748   2.578   5.371
 3354SOL    HW210962   4.605   2.558   5.297
 3355SOL     OW10963   2.138   1.817   6.962
 3355SOL    HW110964   2.235   1.837   6.947
 3355SOL    HW210965   2.119   1.722   6.935
 3356SOL     OW10966   0.770   4.520   5.882
 3356SOL    HW110967   0.671   4.518   5.893
 3356SOL    HW210968   0.799   4.611   5.853
 3357SOL     OW10969   2.470   4.319   1.684
 3357SOL    HW110970   2.403   4.295   1.613
 3357SOL    HW210971   2.498   4.414   1.672
 3358SOL     OW10972   4.550   1.279   0.970
 3358SOL    HW110973   4.505   1.231   0.896
 3358SOL    HW210974   4.649   1.260   0.968
 3359SOL     OW10975   0.403   0.454   3.115
 3359SOL    HW110976   0.482   0.515   3.124
 3359SOL    HW210977   0.432   0.360   3.132
 3360SOL     OW10978   0.888   1.287   6.815
 3360SOL    HW110979   0.900   1.208   6.755
 3360SOL    HW210980   0.852   1.256   6.903
 3361SOL     OW10981   1.125   4.756   4.138
 3361SOL    HW110982   1.073   4.794   4.214
 3361SOL    HW210983   1.123   4.818   4.060
 3362SOL     OW10984   3.389   1.246   2.721
 3362SOL    HW110985   3.427   1.297   2.644
 3362SOL    HW210986   3.310   1.193   2.690
 3363SOL     OW10987   6.163   6.851   1.602
 3363SOL    HW110988   6.148   6.895   1.691
 3363SOL    HW210989   6.209   6.915   1.541
 3364SOL     OW10990   1.396   4.630   3.913
 3364SOL    HW110991   1.398   4.727   3.936
 3364SOL    HW210992   1.369   4.619   3.817
 3365SOL     OW10993   6.451   2.007   5.185
 3365SOL    HW110994   6.514   2.074   5.224
 3365SOL    HW210995   6.379   2.054   5.133
 3366SOL     OW10996   5.849   6.381   4.986
 3366SOL    HW110997   5.833   6.351   5.080
 3366SOL    HW210998   5.786   6.334   4.924
 3367SOL     OW10999   3.737   2.715   1.743
 3367SOL    HW111000   3.694   2.777   1.678
 3367SOL    HW211001   3.702   2.733   1.835
 3368SOL     OW11002   0.603   4.857   5.664
 3368SOL    HW111003   0.636   4.912   5.740
 3368SOL    HW211004   0.528   4.799   5.694
 3369SOL     OW11005   3.947   2.596   6.544
 3369SOL    HW111006   3.862   2.550   6.569
 3369SOL    HW211007   3.980   2.559   6.458
 3370SOL     OW11008   0.055   5.783   6.613
 3370SOL    HW111009   6.978   5.791   6.616
 3370SOL    HW211010   0.096   5.874   6.610
 3371SOL     OW11011   2.106   2.839   2.112
 3371SOL    HW111012   2.095   2.927   2.158
 3371SOL    HW211013   2.164   2.850   2.032
 3372SOL     OW11014   0.634   1.936   0.906
 3372SOL    HW111015   0.584   1.899   0.984
 3372SOL    HW211016   0.664   1.861   0.847
 3373SOL     OW11017   6.967   1.734   3.057
 3373SOL    HW111018   6.930   1.757   2.967
 3373SOL    HW211019   0.042   1.757   3.060
 3374SOL     OW11020   1.298   6.513   4.812
 3374SOL    HW111021   1.382   6.474   4.848
 3374SOL    HW211022   1.275   6.468   4.726
 3375SOL     OW11023   0.031   5.467   6.331
 3375SOL    HW111024   0.107   5.493   6.390
 3375SOL    HW211025   6.993   5.403   6.379
 3376SOL     OW11026   3.986   3.024   3.464
 3376SOL    HW111027   4.020   3.060   3.377
 3376SOL    HW211028   4.021   3.078   3.540
 3377SOL     OW11029   6.527   6.345   5.936
 3377SOL    HW111030   6.575   6.432   5.937
 3377SOL    HW211031   6.564   6.285   6.007
 3378SOL     OW11032   0.514   1.316   0.141
 3378SOL    HW111033   0.596   1.373   0.152
 3378SOL    HW211034   0.538   1.220   0.157
 3379SOL     OW11035   6.449   6.819   6.401
 3379SOL    HW111036   6.478   6.913   6.382
 3379SOL    HW211037   6.369   6.821   6.461
 3380SOL     OW11038   5.939   6.853   5.220
 3380SOL    HW111039   6.036   6.853   5.195
 3380SOL    HW211040   5.896   6.936   5.187
 3381SOL     OW11041   0.945   2.764   1.352
 3381SOL    HW111042   0.991   2.676   1.336
 3381SOL    HW211043   0.918   2.804   1.265
 3382SOL     OW11044   0.484   2.386   0.642
 3382SOL    HW111045   0.397   2.420   0.607
 3382SOL    HW211046   0.487   2.287   0.633
 3383SOL     OW11047   4.564   5.830   1.685
 3383SOL    HW111048   4.558   5.873   1.595
 3383SOL    HW211049   4.640   5.870   1.736
 3384SOL     OW11050   2.680   3.443   6.176
 3384SOL    HW111051   2.678   3.376   6.102
 3384SOL    HW211052   2.593   3.493   6.178
 3385SOL     OW11053   6.556   3.261   4.051
 3385SOL    HW111054   6.463   3.280   4.019
 3385SOL    HW211055   6.554   3.193   4.124
 3386SOL     OW11056   5.687   4.555   6.899
 3386SOL    HW111057   5.616   4.561   6.969
 3386SOL    HW211058   5.688   4.463   6.859
 3387SOL     OW11059   3.333   0.542   3.246
 3387SOL    HW111060   3.245   0.580   3.218
 3387SOL    HW211061   3.404   0.570   3.180
 3388SOL     OW11062   5.205   3.168   1.888
 3388SOL    HW111063   5.295   3.202   1.858
 3388SOL    HW211064   5.211   3.138   1.983
 3389SOL     OW11065   5.426   5.100   6.159
 3389SOL    HW111066   5.456   5.194   6.178
 3389SOL    HW211067   5.474   5.037   6.219
 3390SOL     OW11068   5.074   5.826   6.526
 3390SOL    HW111069   5.095   5.922   6.506
 3390SOL    HW211070   5.085   5.771   6.443
 3391SOL     OW11071   4.929   3.312   5.398
 3391SOL    HW111072   4.834   3.280   5.391
 3391SOL    HW211073   4.988   3.234   5.419
 3392SOL     OW11074   2.752   6.725   3.551
 3392SOL    HW111075   2.825   6.792   3.555
 3392SOL    HW211076   2.719   6.716   3.456
 3393SOL     OW11077   0.161   6.511   6.903
 3393SOL    HW111078   0.088   6.443   6.915
 3393SOL    HW211079   0.124   6.592   6.856
 3394SOL     OW11080   5.316   3.654   1.824
 3394SOL    HW111081   5.253   3.582   1.852
 3394SOL    HW211082   5.381   3.617   1.758
 3395SOL     OW11083   5.264   3.067   3.160
 3395SOL    HW111084   5.333   2.994   3.167
 3395SOL    HW211085   5.207   3.066   3.242
 3396SOL     OW11086   4.390   1.905   3.587
 3396SOL    HW111087   4.447   1.885   3.666
 3396SOL    HW211088   4.294   1.899   3.613
 3397SOL     OW11089   2.654   0.427   5.699
 3397SOL    HW111090   2.675   0.483   5.778
 3397SOL    HW211091   2.731   0.429   5.635
 3398SOL     OW11092   0.644   6.585   4.809
 3398SOL    HW111093   0.617   6.555   4.901
 3398SOL    HW211094   0.564   6.615   4.758
 3399SOL     OW11095   5.757   4.215   3.701
 3399SOL    HW111096   5.823   4.175   3.763
 3399SOL    HW211097   5.668   4.172   3.714
 3400SOL     OW11098   4.713   3.322   5.677
 3400SOL    HW111099   4.742   3.408   5.635
 3400SOL    HW211100   4.636   3.284   5.626
 3401SOL     OW11101   7.020   2.943   0.957
 3401SOL    HW111102   0.005   3.042   0.953
 3401SOL    HW211103   6.961   2.916   1.034
 3402SOL     OW11104   4.039   6.021   6.818
 3402SOL    HW111105   3.952   6.038   6.865
 3402SOL    HW211106   4.105   5.983   6.884
 3403SOL     OW11107   3.683   5.476   4.843
 3403SOL    HW111108   3.687   5.390   4.895
 3403SOL    HW211109   3.729   5.465   4.755
 3404SOL     OW11110   4.949   1.331   6.951
 3404SOL    HW111111   4.935   1.250   6.895
 3404SOL    HW211112   4.864   1.383   6.956
 3405SOL     OW11113   6.705   4.051   4.673
 3405SOL    HW111114   6.743   4.032   4.582
 3405SOL    HW211115   6.714   3.970   4.730
 3406SOL     OW11116   0.874   4.300   1.667
 3406SOL    HW111117   0.928   4.236   1.612
 3406SOL    HW211118   0.889   4.393   1.633
 3407SOL     OW11119   1.504   5.025   5.965
 3407SOL    HW111120   1.539   4.957   6.029
 3407SOL    HW211121   1.526   4.998   5.871
 3408SOL     OW11122   4.770   3.914   5.188
 3408SOL    HW111123   4.862   3.951   5.177
 3408SOL    HW211124   4.771   3.816   5.169
 3409SOL     OW11125   3.452   6.719   6.608
 3409SOL    HW111126   3.474   6.649   6.675
 3409SOL    HW211127   3.366   6.695   6.561
 3410SOL     OW11128   6.669   6.581   1.114
 3410SOL    HW111129   6.755   6.537   1.089
 3410SOL    HW211130   6.630   6.626   1.033
 3411SOL     OW11131   0.625   2.764   1.781
 3411SOL    HW111132   0.565   2.688   1.753
 3411SOL    HW211133   0.619   2.837   1.713
 3412SOL     OW11134   4.433   2.621   0.347
 3412SOL    HW111135   4.393   2.530   0.361
 3412SOL    HW211136   4.506   2.615   0.280
 3413SOL     OW11137   5.682   1.394   0.929
 3413SOL    HW111138   5.773   1.429   0.949
 3413SOL    HW211139   5.620   1.417   1.004
 3414SOL     OW11140   3.200   0.752   5.459
 3414SOL    HW111141   3.232   0.684   5.525
 3414SOL    HW211142   3.277   0.809   5.430
 3415SOL     OW11143   1.794   3.767   4.695
 3415SOL    HW111144   1.798   3.726   4.604
 3415SOL    HW211145   1.886   3.779   4.730
 3416SOL     OW11146   0.069   5.761   0.722
 3416SOL    HW111147   0.048   5.735   0.627
 3416SOL    HW211148   0.158   5.806   0.726
 3417SOL     OW11149   0.665   6.375   2.948
 3417SOL    HW111150   0.592   6.371   3.016
 3417SOL    HW211151   0.751   6.402   2.992
 3418SOL     OW11152   3.655   0.369   3.840
 3418SOL    HW111153   3.708   0.398   3.920
 3418SOL    HW211154   3.667   0.271   3.826
 3419SOL     OW11155   2.715   5.920   5.007
 3419SOL    HW111156   2.783   5.918   5.080
 3419SOL    HW211157   2.673   5.830   4.997
 3420SOL     OW11158   5.642   3.207   4.355
 3420SOL    HW111159   5.661   3.290   4.407
 3420SOL    HW211160   5.563   3.222   4.296
 3421SOL     OW11161   5.420   1.176   5.285
 3421SOL    HW111162   5.481   1.222   5.220
 3421SOL    HW211163   5.401   1.083   5.253
 3422SOL     OW11164   2.178   0.514   0.711
 3422SOL    HW111165   2.254   0.496   0.774
 3422SOL    HW211166   2.178   0.444   0.639
 3423SOL     OW11167   0.465   4.553   6.693
 3423SOL    HW111168   0.446   4.454   6.696
 3423SOL    HW211169   0.393   4.602   6.742
 3424SOL     OW11170   2.958   6.644   1.440
 3424SOL    HW111171   2.925   6.717   1.500
 3424SOL    HW211172   2.916   6.655   1.349
 3425SOL     OW11173   5.842   4.808   2.791
 3425SOL    HW111174   5.886   4.806   2.881
 3425SOL    HW211175   5.831   4.903   2.761
 3426SOL     OW11176   4.085   2.956   0.625
 3426SOL    HW111177   3.986   2.943   0.613
 3426SOL    HW211178   4.113   3.040   0.578
 3427SOL     OW11179   6.681   0.246   0.469
 3427SOL    HW111180   6.636   0.254   0.380
 3427SOL    HW211181   6.618   0.205   0.535
 3428SOL     OW11182   2.018   5.221   0.183
 3428SOL    HW111183   2.025   5.249   0.279
 3428SOL    HW211184   2.078   5.142   0.167
 3429SOL     OW11185   0.620   1.916   0.270
 3429SOL    HW111186   0.665   2.004   0.257
 3429SOL    HW211187   0.521   1.927   0.265
 3430SOL     OW11188   1.417   6.911   5.114
 3430SOL    HW111189   1.353   6.955   5.178
 3430SOL    HW211190   1.457   6.980   5.054
 3431SOL     OW11191   0.930   6.920   1.208
 3431SOL    HW111192   0.870   6.841   1.195
 3431SOL    HW211193   0.962   6.923   1.303
 3432SOL     OW11194   2.026   2.600   6.922
 3432SOL    HW111195   2.021   2.683   6.866
 3432SOL    HW211196   1.989   2.619   7.013
 3433SOL     OW11197   1.248   0.366   5.873
 3433SOL    HW111198   1.270   0.395   5.967
 3433SOL    HW211199   1.316   0.403   5.810
 3434SOL     OW11200   4.355   1.316   1.138
 3434SOL    HW111201   4.425   1.264   1.088
 3434SOL    HW211202   4.352   1.410   1.104
 3435SOL     OW11203   0.256   1.550   0.757
 3435SOL    HW111204   0.267   1.468   0.700
 3435SOL    HW211205   0.312   1.541   0.840
 3436SOL     OW11206   3.818   6.284   6.472
 3436SOL    HW111207   3.762   6.312   6.550
 3436SOL    HW211208   3.914   6.284   6.499
 3437SOL     OW11209   2.393   0.972   6.035
 3437SOL    HW111210   2.440   0.976   5.947
 3437SOL    HW211211   2.300   1.007   6.025
 3438SOL     OW11212   1.142   2.929   0.102
 3438SOL    HW111213   1.134   2.932   0.003
 3438SOL    HW211214   1.053   2.947   0.143
 3439SOL     OW11215   1.963   6.151   4.791
 3439SOL    HW111216   1.978   6.162   4.889
 3439SOL    HW211217   2.043   6.107   4.749
 3440SOL     OW11218   3.144   3.563   1.206
 3440SOL    HW111219   3.169   3.530   1.297
 3440SOL    HW211220   3.168   3.494   1.138
 3441SOL     OW11221   5.114   6.802   4.982
 3441SOL    HW111222   5.152   6.827   5.071
 3441SOL    HW211223   5.014   6.808   4.986
 3442SOL     OW11224   2.585   4.927   1.856
 3442SOL    HW111225   2.557   5.002   1.796
 3442SOL    HW211226   2.519   4.916   1.929
 3443SOL     OW11227   5.224   6.382   1.468
 3443SOL    HW111228   5.263   6.291   1.455
 3443SOL    HW211229   5.124   6.375   1.472
 3444SOL     OW11230   4.649   5.165   0.232
 3444SOL    HW111231   4.653   5.249   0.287
 3444SOL    HW211232   4.652   5.085   0.292
 3445SOL     OW11233   6.634   5.374   3.688
 3445SOL    HW111234   6.689   5.292   3.706
 3445SOL    HW211235   6.689   5.440   3.637
 3446SOL     OW11236   6.084   1.014   2.596
 3446SOL    HW111237   6.051   1.076   2.524
 3446SOL    HW211238   6.046   0.923   2.580
 3447SOL     OW11239   5.987   5.349   0.871
 3447SOL    HW111240   5.913   5.283   0.866
 3447SOL    HW211241   6.056   5.327   0.802
 3448SOL     OW11242   3.590   0.567   0.656
 3448SOL    HW111243   3.559   0.525   0.571
 3448SOL    HW211244   3.542   0.524   0.733
 3449SOL     OW11245   5.979   6.574   3.964
 3449SOL    HW111246   6.020   6.527   3.886
 3449SOL    HW211247   5.885   6.541   3.977
 3450SOL     OW11248   6.723   2.574   6.420
 3450SOL    HW111249   6.667   2.583   6.338
 3450SOL    HW211250   6.716   2.657   6.476
 3451SOL     OW11251   2.043   5.664   1.072
 3451SOL    HW111252   2.053   5.577   1.121
 3451SOL    HW211253   2.010   5.646   0.980
 3452SOL     OW11254   6.538   0.640   6.159
 3452SOL    HW111255   6.618   0.611   6.210
 3452SOL    HW211256   6.518   0.573   6.088
 3453SOL     OW11257   6.782   5.831   6.605
 3453SOL    HW111258   6.712   5.761   6.593
 3453SOL    HW211259   6.772   5.901   6.534
 3454SOL     OW11260   1.066   2.091   5.711
 3454SOL    HW111261   0.979   2.044   5.729
 3454SOL    HW211262   1.138   2.050   5.768
 3455SOL     OW11263   2.834   2.251   4.614
 3455SOL    HW111264   2.800   2.157   4.618
 3455SOL    HW211265   2.760   2.313   4.591
 3456SOL     OW11266   5.746   5.706   2.769
 3456SOL    HW111267   5.687   5.749   2.838
 3456SOL    HW211268   5.741   5.758   2.684
 3457SOL     OW11269   2.686   4.675   3.271
 3457SOL    HW111270   2.768   4.731   3.261
 3457SOL    HW211271   2.660   4.670   3.368
 3458SOL     OW11272   5.022   0.375   1.936
 3458SOL    HW111273   5.038   0.386   1.838
 3458SOL    HW211274   4.970   0.453   1.970
 3459SOL     OW11275   5.357   3.417   3.143
 3459SOL    HW111276   5.420   3.380   3.210
 3459SOL    HW211277   5.362   3.363   3.059
 3460SOL     OW11278   2.449   3.242   6.804
 3460SOL    HW111279   2.389   3.176   6.850
 3460SOL    HW211280   2.503   3.195   6.734
 3461SOL     OW11281   4.603   5.456   4.786
 3461SOL    HW111282   4.512   5.468   4.745
 3461SOL    HW211283   4.600   5.382   4.853
 3462SOL     OW11284   0.034   3.737   2.666
 3462SOL    HW111285   0.008   3.832   2.677
 3462SOL    HW211286   6.975   3.683   2.643
 3463SOL     OW11287   0.739   3.615   2.417
 3463SOL    HW111288   0.757   3.705   2.458
 3463SOL    HW211289   0.676   3.626   2.340
 3464SOL     OW11290   6.007   3.717   6.681
 3464SOL    HW111291   6.098   3.724   6.723
 3464SOL    HW211292   5.975   3.808   6.655
 3465SOL     OW11293   1.594   2.196   2.353
 3465SOL    HW111294   1.659   2.187   2.428
 3465SOL    HW211295   1.597   2.289   2.316
 3466SOL     OW11296   0.553   4.685   0.450
 3466SOL    HW111297   0.589   4.685   0.543
 3466SOL    HW211298   0.580   4.770   0.403
 3467SOL     OW11299   1.775   2.537   0.385
 3467SOL    HW111300   1.832   2.564   0.463
 3467SOL    HW211301   1.703   2.475   0.417
 3468SOL     OW11302   5.051   6.608   2.928
 3468SOL    HW111303   5.016   6.697   2.958
 3468SOL    HW211304   5.017   6.537   2.989
 3469SOL     OW11305   5.125   0.376   2.400
 3469SOL    HW111306   5.144   0.450   2.465
 3469SOL    HW211307   5.138   0.288   2.445
 3470SOL     OW11308   6.002   3.368   1.563
 3470SOL    HW111309   6.046   3.450   1.600
 3470SOL    HW211310   6.072   3.303   1.535
 3471SOL     OW11311   4.153   5.122   3.925
 3471SOL    HW111312   4.089   5.141   3.850
 3471SOL    HW211313   4.101   5.098   4.008
 3472SOL     OW11314   2.648   0.825   2.869
 3472SOL    HW111315   2.577   0.770   2.825
 3472SOL    HW211316   2.677   0.781   2.954
 3473SOL     OW11317   0.030   2.059   1.572
 3473SOL    HW111318   0.004   2.155   1.580
 3473SOL    HW211319   0.058   2.040   1.478
 3474SOL     OW11320   1.413   4.382   1.635
 3474SOL    HW111321   1.411   4.315   1.561
 3474SOL    HW211322   1.324   4.428   1.641
 3475SOL     OW11323   1.480   4.772   4.343
 3475SOL    HW111324   1.439   4.821   4.419
 3475SOL    HW211325   1.502   4.678   4.370
 3476SOL     OW11326   2.903   1.297   3.451
 3476SOL    HW111327   2.977   1.314   3.515
 3476SOL    HW211328   2.918   1.349   3.367
 3477SOL     OW11329   2.057   5.150   0.730
 3477SOL    HW111330   2.100   5.230   0.772
 3477SOL    HW211331   2.104   5.128   0.644
 3478SOL     OW11332   2.678   5.601   5.420
 3478SOL    HW111333   2.625   5.684   5.403
 3478SOL    HW211334   2.627   5.541   5.482
 3479SOL     OW11335   1.373   0.571   3.237
 3479SOL    HW111336   1.330   0.486   3.268
 3479SOL    HW211337   1.328   0.649   3.281
 3480SOL     OW11338   0.807   6.737   5.151
 3480SOL    HW111339   0.766   6.708   5.238
 3480SOL    HW211340   0.903   6.710   5.149
 3481SOL     OW11341   4.446   0.306   0.381
 3481SOL    HW111342   4.472   0.304   0.477
 3481SOL    HW211343   4.411   0.217   0.354
 3482SOL     OW11344   5.294   1.168   1.806
 3482SOL    HW111345   5.222   1.211   1.751
 3482SOL    HW211346   5.351   1.239   1.847
 3483SOL     OW11347   4.668   2.176   1.557
 3483SOL    HW111348   4.597   2.235   1.520
 3483SOL    HW211349   4.695   2.108   1.488
 3484SOL     OW11350   0.906   3.435   0.025
 3484SOL    HW111351   0.952   3.486   6.975
 3484SOL    HW211352   0.974   3.390   0.082
 3485SOL     OW11353   1.882   1.532   4.503
 3485SOL    HW111354   1.831   1.456   4.544
 3485SOL    HW211355   1.971   1.540   4.547
 3486SOL     OW11356   2.861   0.697   3.352
 3486SOL    HW111357   2.934   0.638   3.386
 3486SOL    HW211358   2.846   0.771   3.417
 3487SOL     OW11359   5.457   2.618   5.332
 3487SOL    HW111360   5.474   2.654   5.423
 3487SOL    HW211361   5.383   2.550   5.336
 3488SOL     OW11362   5.839   1.758   4.313
 3488SOL    HW111363   5.847   1.773   4.214
 3488SOL    HW211364   5.757   1.704   4.332
 3489SOL     OW11365   3.967   0.067   1.156
 3489SOL    HW111366   4.047   0.017   1.189
 3489SOL    HW211367   3.939   0.032   1.067
 3490SOL     OW11368   4.345   4.141   0.254
 3490SOL    HW111369   4.360   4.221   0.194
 3490SOL    HW211370   4.398   4.152   0.338
 3491SOL     OW11371   4.603   2.670   4.886
 3491SOL    HW111372   4.606   2.760   4.843
 3491SOL    HW211373   4.658   2.672   4.970
 3492SOL     OW11374   0.443   5.278   1.225
 3492SOL    HW111375   0.461   5.184   1.256
 3492SOL    HW211376   0.531   5.324   1.209
 3493SOL     OW11377   5.659   4.314   6.817
 3493SOL    HW111378   5.687   4.324   6.722
 3493SOL    HW211379   5.680   4.221   6.847
 3494SOL     OW11380   3.684   0.678   1.074
 3494SOL    HW111381   3.729   0.610   1.132
 3494SOL    HW211382   3.652   0.754   1.130
 3495SOL     OW11383   5.424   5.262   2.369
 3495SOL    HW111384   5.367   5.339   2.341
 3495SOL    HW211385   5.516   5.296   2.391
 3496SOL     OW11386   6.370   4.321   0.529
 3496SOL    HW111387   6.293   4.266   0.497
 3496SOL    HW211388   6.417   4.361   0.450
 3497SOL     OW11389   3.625   0.992   3.853
 3497SOL    HW111390   3.645   1.027   3.761
 3497SOL    HW211391   3.527   0.998   3.870
 3498SOL     OW11392   2.705   2.460   0.510
 3498SOL    HW111393   2.707   2.500   0.418
 3498SOL    HW211394   2.736   2.528   0.577
 3499SOL     OW11395   4.840   3.286   4.385
 3499SOL    HW111396   4.902   3.251   4.456
 3499SOL    HW211397   4.779   3.213   4.356
 3500SOL     OW11398   1.805   3.474   4.706
 3500SOL    HW111399   1.804   3.573   4.691
 3500SOL    HW211400   1.767   3.428   4.625
 3501SOL     OW11401   1.929   5.832   4.775
 3501SOL    HW111402   1.891   5.896   4.708
 3501SOL    HW211403   1.929   5.740   4.737
 3502SOL     OW11404   6.420   2.704   2.628
 3502SOL    HW111405   6.387   2.732   2.718
 3502SOL    HW211406   6.397   2.775   2.561
 3503SOL     OW11407   6.444   6.462   4.610
 3503SOL    HW111408   6.355   6.482   4.569
 3503SOL    HW211409   6.444   6.368   4.644
 3504SOL     OW11410   1.788   1.725   1.557
 3504SOL    HW111411   1.712   1.789   1.564
 3504SOL    HW211412   1.865   1.757   1.614
 3505SOL     OW11413   5.429   4.954   4.950
 3505SOL    HW111414   5.401   4.877   5.007
 3505SOL    HW211415   5.355   4.978   4.888
 3506SOL     OW11416   4.788   5.345   5.607
 3506SOL    HW111417   4.844   5.426   5.591
 3506SOL    HW211418   4.698   5.373   5.642
 3507SOL     OW11419   1.708   1.370   0.002
 3507SOL    HW111420   1.674   1.459   6.995
 3507SOL    HW211421   1.659   1.297   6.976
 3508SOL     OW11422   3.081   2.391   6.141
 3508SOL    HW111423   3.133   2.468   6.104
 3508SOL    HW211424   2.998   2.425   6.186
 3509SOL     OW11425   6.431   0.448   5.965
 3509SOL    HW111426   6.336   0.479   5.971
 3509SOL    HW211427   6.461   0.452   5.870
 3510SOL     OW11428   1.713   2.744   1.718
 3510SOL    HW111429   1.667   2.724   1.631
 3510SOL    HW211430   1.646   2.777   1.784
 3511SOL     OW11431   3.048   5.389   0.204
 3511SOL    HW111432   3.022   5.340   0.287
 3511SOL    HW211433   3.147   5.379   0.189
 3512SOL     OW11434   0.510   4.885   0.912
 3512SOL    HW111435   0.604   4.883   0.877
 3512SOL    HW211436   0.479   4.980   0.917
 3513SOL     OW11437   6.221   3.000   0.310
 3513SOL    HW111438   6.320   3.013   0.312
 3513SOL    HW211439   6.198   2.912   0.351
 3514SOL     OW11440   0.972   1.336   1.826
 3514SOL    HW111441   0.961   1.402   1.752
 3514SOL    HW211442   0.911   1.359   1.901
 3515SOL     OW11443   5.059   5.951   3.485
 3515SOL    HW111444   5.056   6.048   3.462
 3515SOL    HW211445   5.115   5.903   3.417
 3516SOL     OW11446   4.792   0.183   0.783
 3516SOL    HW111447   4.793   0.163   0.881
 3516SOL    HW211448   4.843   0.112   0.735
 3517SOL     OW11449   1.228   1.874   0.734
 3517SOL    HW111450   1.315   1.852   0.779
 3517SOL    HW211451   1.157   1.814   0.769
 3518SOL     OW11452   5.469   3.512   4.411
 3518SOL    HW111453   5.449   3.433   4.353
 3518SOL    HW211454   5.568   3.529   4.409
 3519SOL     OW11455   1.276   0.833   6.093
 3519SOL    HW111456   1.311   0.759   6.035
 3519SOL    HW211457   1.256   0.913   6.037
 3520SOL     OW11458   3.191   4.975   6.193
 3520SOL    HW111459   3.126   5.051   6.200
 3520SOL    HW211460   3.196   4.943   6.098
 3521SOL     OW11461   4.821   3.141   6.715
 3521SOL    HW111462   4.898   3.137   6.652
 3521SOL    HW211463   4.781   3.050   6.724
 3522SOL     OW11464   6.806   4.464   1.928
 3522SOL    HW111465   6.786   4.561   1.940
 3522SOL    HW211466   6.836   4.447   1.834
 3523SOL     OW11467   2.976   5.150   6.223
 3523SOL    HW111468   2.942   5.218   6.287
 3523SOL    HW211469   2.908   5.077   6.213
 3524SOL     OW11470   3.724   1.279   1.360
 3524SOL    HW111471   3.779   1.277   1.277
 3524SOL    HW211472   3.667   1.361   1.361
 3525SOL     OW11473   1.133   3.966   2.293
 3525SOL    HW111474   1.082   4.052   2.292
 3525SOL    HW211475   1.169   3.948   2.202
 3526SOL     OW11476   2.170   6.148   3.990
 3526SOL    HW111477   2.126   6.147   4.079
 3526SOL    HW211478   2.260   6.191   3.997
 3527SOL     OW11479   6.014   2.685   5.970
 3527SOL    HW111480   6.091   2.649   6.023
 3527SOL    HW211481   5.988   2.775   6.004
 3528SOL     OW11482   0.406   4.807   4.061
 3528SOL    HW111483   0.384   4.890   4.009
 3528SOL    HW211484   0.364   4.728   4.018
 3529SOL     OW11485   4.090   0.348   0.253
 3529SOL    HW111486   4.130   0.420   0.309
 3529SOL    HW211487   4.147   0.332   0.173
 3530SOL     OW11488   1.502   5.100   3.404
 3530SOL    HW111489   1.485   5.077   3.500
 3530SOL    HW211490   1.414   5.118   3.359
 3531SOL     OW11491   4.829   3.119   0.574
 3531SOL    HW111492   4.915   3.163   0.550
 3531SOL    HW211493   4.790   3.163   0.655
 3532SOL     OW11494   2.899   0.615   1.255
 3532SOL    HW111495   2.883   0.631   1.353
 3532SOL    HW211496   2.853   0.685   1.201
 3533SOL     OW11497   1.586   1.671   2.566
 3533SOL    HW111498   1.631   1.640   2.483
 3533SOL    HW211499   1.511   1.733   2.543
 3534SOL     OW11500   5.881   1.136   5.656
 3534SOL    HW111501   5.807   1.075   5.686
 3534SOL    HW211502   5.944   1.085   5.597
 3535SOL     OW11503   0.930   5.118   0.429
 3535SOL    HW111504   0.993   5.180   0.384
 3535SOL    HW211505   0.980   5.039   0.463
 3536SOL     OW11506   2.293   2.201   3.836
 3536SOL    HW111507   2.199   2.222   3.863
 3536SOL    HW211508   2.292   2.131   3.765
 3537SOL     OW11509   3.016   5.390   1.102
 3537SOL    HW111510   3.066   5.341   1.173
 3537SOL    HW211511   2.952   5.454   1.144
 3538SOL     OW11512   1.468   0.665   5.980
 3538SOL    HW111513   1.403   0.608   6.030
 3538SOL    HW211514   1.536   0.607   5.935
 3539SOL     OW11515   5.977   3.759   6.246
 3539SOL    HW111516   6.045   3.826   6.277
 3539SOL    HW211517   5.982   3.750   6.147
 3540SOL     OW11518   1.694   2.753   6.241
 3540SOL    HW111519   1.725   2.697   6.164
 3540SOL    HW211520   1.717   2.707   6.327
 3541SOL     OW11521   1.852   2.882   6.573
 3541SOL    HW111522   1.756   2.864   6.593
 3541SOL    HW211523   1.908   2.863   6.654
 3542SOL     OW11524   1.421   4.417   1.905
 3542SOL    HW111525   1.351   4.488   1.905
 3542SOL    HW211526   1.431   4.379   1.813
 3543SOL     OW11527   1.053   3.103   5.407
 3543SOL    HW111528   1.128   3.124   5.344
 3543SOL    HW211529   0.986   3.044   5.361
 3544SOL     OW11530   2.901   4.438   6.663
 3544SOL    HW111531   2.802   4.450   6.651
 3544SOL    HW211532   2.939   4.519   6.706
 3545SOL     OW11533   4.106   5.224   6.976
 3545SOL    HW111534   4.038   5.154   6.999
 3545SOL    HW211535   4.196   5.181   6.966
 3546SOL     OW11536   0.496   4.797   2.872
 3546SOL    HW111537   0.577   4.834   2.825
 3546SOL    HW211538   0.435   4.755   2.805
 3547SOL     OW11539   6.453   5.274   5.299
 3547SOL    HW111540   6.539   5.292   5.252
 3547SOL    HW211541   6.468   5.276   5.398
 3548SOL     OW11542   5.364   0.612   5.975
 3548SOL    HW111543   5.288   0.598   6.038
 3548SOL    HW211544   5.444   0.646   6.025
 3549SOL     OW11545   6.995   5.245   5.988
 3549SOL    HW111546   0.018   5.187   5.921
 3549SOL    HW211547   6.909   5.279   5.950
 3550SOL     OW11548   5.803   2.836   3.596
 3550SOL    HW111549   5.716   2.806   3.558
 3550SOL    HW211550   5.793   2.928   3.634
 3551SOL     OW11551   3.314   2.021   3.085
 3551SOL    HW111552   3.258   2.052   3.008
 3551SOL    HW211553   3.345   2.100   3.138
 3552SOL     OW11554   6.471   6.485   1.763
 3552SOL    HW111555   6.379   6.457   1.788
 3552SOL    HW211556   6.538   6.429   1.811
 3553SOL     OW11557   4.196   5.424   0.838
 3553SOL    HW111558   4.122   5.359   0.848
 3553SOL    HW211559   4.222   5.431   0.742
 3554SOL     OW11560   4.432   1.547   1.023
 3554SOL    HW111561   4.507   1.556   1.088
 3554SOL    HW211562   4.456   1.479   0.954
 3555SOL     OW11563   0.574   4.029   4.288
 3555SOL    HW111564   0.606   4.089   4.215
 3555SOL    HW211565   0.646   4.021   4.358
 3556SOL     OW11566   3.927   1.407   4.577
 3556SOL    HW111567   4.014   1.416   4.625
 3556SOL    HW211568   3.936   1.441   4.483
 3557SOL     OW11569   0.771   0.921   4.359
 3557SOL    HW111570   0.712   0.942   4.437
 3557SOL    HW211571   0.865   0.946   4.381
 3558SOL     OW11572   1.889   5.821   2.390
 3558SOL    HW111573   1.894   5.721   2.379
 3558SOL    HW211574   1.979   5.861   2.375
 3559SOL     OW11575   0.615   6.608   5.359
 3559SOL    HW111576   0.612   6.514   5.326
 3559SOL    HW211577   0.674   6.613   5.439
 3560SOL     OW11578   1.624   5.333   2.641
 3560SOL    HW111579   1.639   5.405   2.573
 3560SOL    HW211580   1.711   5.296   2.672
 3561SOL     OW11581   4.570   4.604   5.063
 3561SOL    HW111582   4.478   4.572   5.038
 3561SOL    HW211583   4.570   4.703   5.069
 3562SOL     OW11584   3.673   1.413   2.853
 3562SOL    HW111585   3.601   1.464   2.804
 3562SOL    HW211586   3.702   1.466   2.933
 3563SOL     OW11587   6.212   1.887   0.743
 3563SOL    HW111588   6.195   1.934   0.829
 3563SOL    HW211589   6.238   1.954   0.673
 3564SOL     OW11590   1.203   4.387   2.896
 3564SOL    HW111591   1.238   4.348   2.981
 3564SOL    HW211592   1.212   4.487   2.898
 3565SOL     OW11593   3.152   6.297   5.013
 3565SOL    HW111594   3.206   6.344   5.083
 3565SOL    HW211595   3.109   6.365   4.953
 3566SOL     OW11596   6.752   3.850   6.051
 3566SOL    HW111597   6.824   3.783   6.066
 3566SOL    HW211598   6.696   3.822   5.973
 3567SOL     OW11599   0.049   2.232   6.127
 3567SOL    HW111600   6.993   2.284   6.160
 3567SOL    HW211601   0.107   2.291   6.072
 3568SOL     OW11602   4.618   4.326   3.603
 3568SOL    HW111603   4.536   4.338   3.548
 3568SOL    HW211604   4.597   4.344   3.699
 3569SOL     OW11605   2.921   1.548   6.150
 3569SOL    HW111606   2.874   1.633   6.176
 3569SOL    HW211607   3.004   1.570   6.099
 3570SOL     OW11608   5.664   0.971   5.714
 3570SOL    HW111609   5.676   0.875   5.736
 3570SOL    HW211610   5.573   0.985   5.674
 3571SOL     OW11611   0.842   5.405   4.614
 3571SOL    HW111612   0.744   5.387   4.618
 3571SOL    HW211613   0.891   5.322   4.587
 3572SOL     OW11614   5.705   3.444   3.008
 3572SOL    HW111615   5.767   3.407   2.939
 3572SOL    HW211616   5.620   3.473   2.965
 3573SOL     OW11617   0.516   5.876   3.239
 3573SOL    HW111618   0.416   5.863   3.240
 3573SOL    HW211619   0.548   5.898   3.331
 3574SOL     OW11620   0.711   3.432   0.291
 3574SOL    HW111621   0.731   3.383   0.206
 3574SOL    HW211622   0.629   3.395   0.333
 3575SOL     OW11623   5.338   5.144   1.948
 3575SOL    HW111624   5.341   5.223   1.886
 3575SOL    HW211625   5.342   5.060   1.895
 3576SOL     OW11626   6.919   2.060   6.436
 3576SOL    HW111627   6.820   2.046   6.434
 3576SOL    HW211628   6.960   2.014   6.357
 3577SOL     OW11629   1.593   1.822   6.172
 3577SOL    HW111630   1.522   1.760   6.140
 3577SOL    HW211631   1.619   1.884   6.098
 3578SOL     OW11632   3.736   2.145   0.432
 3578SOL    HW111633   3.742   2.244   0.418
 3578SOL    HW211634   3.810   2.100   0.382
 3579SOL     OW11635   6.336   2.484   3.813
 3579SOL    HW111636   6.404   2.440   3.753
 3579SOL    HW211637   6.250   2.496   3.763
 3580SOL     OW11638   5.636   3.209   1.575
 3580SOL    HW111639   5.660   3.187   1.670
 3580SOL    HW211640   5.561   3.149   1.545
 3581SOL     OW11641   1.646   5.713   3.588
 3581SOL    HW111642   1.628   5.658   3.506
 3581SOL    HW211643   1.667   5.653   3.664
 3582SOL     OW11644   0.341   3.764   6.269
 3582SOL    HW111645   0.334   3.794   6.364
 3582SOL    HW211646   0.338   3.664   6.266
 3583SOL     OW11647   0.721   4.133   6.345
 3583SOL    HW111648   0.654   4.158   6.414
 3583SOL    HW211649   0.686   4.058   6.289
 3584SOL     OW11650   5.554   5.490   6.595
 3584SOL    HW111651   5.482   5.541   6.547
 3584SOL    HW211652   5.522   5.466   6.686
 3585SOL     OW11653   3.250   0.649   4.638
 3585SOL    HW111654   3.188   0.717   4.599
 3585SOL    HW211655   3.283   0.589   4.565
 3586SOL     OW11656   6.830   2.112   4.965
 3586SOL    HW111657   6.787   2.022   4.970
 3586SOL    HW211658   6.923   2.107   5.003
 3587SOL     OW11659   2.405   4.469   6.046
 3587SOL    HW111660   2.482   4.532   6.038
 3587SOL    HW211661   2.353   4.469   5.961
 3588SOL     OW11662   1.005   2.721   6.122
 3588SOL    HW111663   1.068   2.796   6.143
 3588SOL    HW211664   0.922   2.759   6.081
 3589SOL     OW11665   4.398   1.371   4.578
 3589SOL    HW111666   4.486   1.404   4.544
 3589SOL    HW211667   4.380   1.411   4.668
 3590SOL     OW11668   0.590   2.658   0.586
 3590SOL    HW111669   0.558   2.593   0.655
 3590SOL    HW211670   0.614   2.610   0.502
 3591SOL     OW11671   5.137   3.926   6.731
 3591SOL    HW111672   5.052   3.873   6.727
 3591SOL    HW211673   5.195   3.890   6.803
 3592SOL     OW11674   0.577   5.076   1.856
 3592SOL    HW111675   0.670   5.039   1.851
 3592SOL    HW211676   0.563   5.120   1.945
 3593SOL     OW11677   0.532   5.654   4.822
 3593SOL    HW111678   0.474   5.664   4.903
 3593SOL    HW211679   0.625   5.684   4.843
 3594SOL     OW11680   4.609   6.373   3.435
 3594SOL    HW111681   4.630   6.404   3.528
 3594SOL    HW211682   4.518   6.405   3.409
 3595SOL     OW11683   3.762   5.870   6.680
 3595SOL    HW111684   3.795   5.946   6.736
 3595SOL    HW211685   3.776   5.891   6.583
 3596SOL     OW11686   6.306   3.188   3.273
 3596SOL    HW111687   6.222   3.141   3.245
 3596SOL    HW211688   6.282   3.271   3.323
 3597SOL     OW11689   2.094   2.537   5.468
 3597SOL    HW111690   2.150   2.574   5.395
 3597SOL    HW211691   1.999   2.527   5.436
 3598SOL     OW11692   1.418   5.296   6.244
 3598SOL    HW111693   1.497   5.311   6.184
 3598SOL    HW211694   1.426   5.208   6.289
 3599SOL     OW11695   6.652   2.344   6.601
 3599SOL    HW111696   6.723   2.275   6.597
 3599SOL    HW211697   6.658   2.404   6.522
 3600SOL     OW11698   0.543   3.020   1.304
 3600SOL    HW111699   0.505   2.930   1.326
 3600SOL    HW211700   0.536   3.080   1.384
 3601SOL     OW11701   5.349   3.865   6.888
 3601SOL    HW111702   5.429   3.825   6.845
 3601SOL    HW211703   5.355   3.854   6.987
 3602SOL     OW11704   1.717   2.472   0.690
 3602SOL    HW111705   1.773   2.552   0.670
 3602SOL    HW211706   1.774   2.390   0.686
 3603SOL     OW11707   3.582   1.079   4.143
 3603SOL    HW111708   3.563   1.169   4.104
 3603SOL    HW211709   3.626   1.022   4.075
 3604SOL     OW11710   6.566   5.585   3.077
 3604SOL    HW111711   6.541   5.546   2.988
 3604SOL    HW211712   6.660   5.559   3.100
 3605SOL     OW11713   6.756   3.810   4.942
 3605SOL    HW111714   6.705   3.826   5.026
 3605SOL    HW211715   6.850   3.783   4.965
 3606SOL     OW11716   0.202   0.518   4.684
 3606SOL    HW111717   0.126   0.523   4.619
 3606SOL    HW211718   0.261   0.440   4.659
 3607SOL     OW11719   6.138   4.985   1.956
 3607SOL    HW111720   6.127   4.971   2.054
 3607SOL    HW211721   6.234   4.973   1.931
 3608SOL     OW11722   5.010   2.686   4.164
 3608SOL    HW111723   5.030   2.703   4.068
 3608SOL    HW211724   4.915   2.710   4.183
 3609SOL     OW11725   1.309   6.741   4.201
 3609SOL    HW111726   1.290   6.796   4.119
 3609SOL    HW211727   1.407   6.742   4.219
 3610SOL     OW11728   2.095   0.052   5.994
 3610SOL    HW111729   2.083   0.068   6.092
 3610SOL    HW211730   2.191   0.034   5.974
 3611SOL     OW11731   4.373   5.202   4.749
 3611SOL    HW111732   4.455   5.202   4.807
 3611SOL    HW211733   4.397   5.167   4.658
 3612SOL     OW11734   6.638   6.889   0.505
 3612SOL    HW111735   6.685   6.901   0.593
 3612SOL    HW211736   6.612   6.793   0.494
 3613SOL     OW11737   4.510   4.486   1.805
 3613SOL    HW111738   4.423   4.518   1.842
 3613SOL    HW211739   4.513   4.386   1.807
 3614SOL     OW11740   3.853   3.569   1.465
 3614SOL    HW111741   3.948   3.546   1.490
 3614SOL    HW211742   3.835   3.664   1.492
 3615SOL     OW11743   5.172   4.751   6.312
 3615SOL    HW111744   5.202   4.846   6.314
 3615SOL    HW211745   5.146   4.726   6.219
 3616SOL     OW11746   0.251   1.794   6.742
 3616SOL    HW111747   0.276   1.712   6.689
 3616SOL    HW211748   0.200   1.857   6.684
 3617SOL     OW11749   3.925   1.308   6.775
 3617SOL    HW111750   3.965   1.384   6.724
 3617SOL    HW211751   3.960   1.309   6.869
 3618SOL     OW11752   2.518   2.929   5.546
 3618SOL    HW111753   2.519   2.868   5.467
 3618SOL    HW211754   2.477   3.017   5.519
 3619SOL     OW11755   5.302   2.924   4.809
 3619SOL    HW111756   5.383   2.883   4.852
 3619SOL    HW211757   5.302   2.903   4.711
 3620SOL     OW11758   5.837   6.791   5.833
 3620SOL    HW111759   5.765   6.724   5.852
 3620SOL    HW211760   5.926   6.751   5.853
 3621SOL     OW11761   3.264   2.699   5.585
 3621SOL    HW111762   3.177   2.695   5.634
 3621SOL    HW211763   3.279   2.792   5.550
 3622SOL     OW11764   0.844   1.201   5.483
 3622SOL    HW111765   0.804   1.111   5.493
 3622SOL    HW211766   0.863   1.240   5.573
 3623SOL     OW11767   6.732   6.168   4.431
 3623SOL    HW111768   6.719   6.173   4.331
 3623SOL    HW211769   6.783   6.085   4.453
 3624SOL     OW11770   1.591   6.698   2.549
 3624SOL    HW111771   1.659   6.771   2.549
 3624SOL    HW211772   1.556   6.686   2.456
 3625SOL     OW11773   6.748   2.786   6.581
 3625SOL    HW111774   6.745   2.885   6.579
 3625SOL    HW211775   6.759   2.754   6.676
 3626SOL     OW11776   1.296   2.049   6.161
 3626SOL    HW111777   1.340   1.977   6.215
 3626SOL    HW211778   1.324   2.138   6.196
 3627SOL     OW11779   3.086   3.467   2.454
 3627SOL    HW111780   3.100   3.497   2.359
 3627SOL    HW211781   3.160   3.404   2.479
 3628SOL     OW11782   1.738   1.184   2.002
 3628SOL    HW111783   1.639   1.186   2.013
 3628SOL    HW211784   1.782   1.215   2.086
 3629SOL     OW11785   6.643   0.894   5.546
 3629SOL    HW111786   6.563   0.926   5.597
 3629SOL    HW211787   6.723   0.895   5.606
 3630SOL     OW11788   5.016   2.244   4.065
 3630SOL    HW111789   4.997   2.289   4.152
 3630SOL    HW211790   5.075   2.303   4.009
 3631SOL     OW11791   2.518   1.531   3.270
 3631SOL    HW111792   2.521   1.443   3.319
 3631SOL    HW211793   2.487   1.516   3.176
 3632SOL     OW11794   5.391   4.942   1.464
 3632SOL    HW111795   5.342   4.894   1.391
 3632SOL    HW211796   5.355   4.912   1.552
 3633SOL     OW11797   4.352   1.999   5.483
 3633SOL    HW111798   4.291   2.078   5.475
 3633SOL    HW211799   4.345   1.961   5.575
 3634SOL     OW11800   1.697   5.076   5.248
 3634SOL    HW111801   1.744   5.163   5.232
 3634SOL    HW211802   1.745   5.024   5.319
 3635SOL     OW11803   3.230   6.967   0.714
 3635SOL    HW111804   3.253   0.036   0.682
 3635SOL    HW211805   3.241   6.962   0.813
 3636SOL     OW11806   0.129   5.454   0.765
 3636SOL    HW111807   0.134   5.465   0.666
 3636SOL    HW211808   0.033   5.457   0.794
 3637SOL     OW11809   0.223   2.098   2.309
 3637SOL    HW111810   0.151   2.110   2.377
 3637SOL    HW211811   0.287   2.028   2.340
 3638SOL     OW11812   0.567   4.730   3.126
 3638SOL    HW111813   0.535   4.761   3.036
 3638SOL    HW211814   0.537   4.636   3.142
 3639SOL     OW11815   3.774   5.480   0.680
 3639SOL    HW111816   3.801   5.405   0.620
 3639SOL    HW211817   3.753   5.445   0.771
 3640SOL     OW11818   4.126   0.909   0.192
 3640SOL    HW111819   4.155   0.869   0.105
 3640SOL    HW211820   4.046   0.860   0.226
 3641SOL     OW11821   5.918   3.805   2.053
 3641SOL    HW111822   5.884   3.839   2.140
 3641SOL    HW211823   5.931   3.706   2.057
 3642SOL     OW11824   5.091   1.933   0.556
 3642SOL    HW111825   5.120   2.028   0.538
 3642SOL    HW211826   5.043   1.898   0.475
 3643SOL     OW11827   3.342   5.644   4.148
 3643SOL    HW111828   3.281   5.661   4.071
 3643SOL    HW211829   3.431   5.613   4.114
 3644SOL     OW11830   0.531   1.017   1.788
 3644SOL    HW111831   0.472   1.026   1.868
 3644SOL    HW211832   0.603   0.951   1.807
 3645SOL     OW11833   1.328   2.651   4.165
 3645SOL    HW111834   1.337   2.750   4.177
 3645SOL    HW211835   1.317   2.608   4.254
 3646SOL     OW11836   1.650   4.032   6.364
 3646SOL    HW111837   1.716   3.969   6.406
 3646SOL    HW211838   1.666   4.124   6.398
 3647SOL     OW11839   2.470   6.278   6.669
 3647SOL    HW111840   2.522   6.239   6.744
 3647SOL    HW211841   2.373   6.256   6.679
 3648SOL     OW11842   4.498   5.340   1.992
 3648SOL    HW111843   4.429   5.372   2.057
 3648SOL    HW211844   4.508   5.407   1.918
 3649SOL     OW11845   6.190   2.794   1.098
 3649SOL    HW111846   6.257   2.784   1.024
 3649SOL    HW211847   6.199   2.884   1.140
 3650SOL     OW11848   6.725   5.711   1.901
 3650SOL    HW111849   6.697   5.633   1.845
 3650SOL    HW211850   6.793   5.680   1.969
 3651SOL     OW11851   0.386   0.076   4.565
 3651SOL    HW111852   0.368   0.171   4.589
 3651SOL    HW211853   0.439   0.033   4.638
 3652SOL     OW11854   6.291   0.374   3.461
 3652SOL    HW111855   6.284   0.473   3.465
 3652SOL    HW211856   6.385   0.347   3.441
 3653SOL     OW11857   0.981   1.676   3.614
 3653SOL    HW111858   0.955   1.651   3.707
 3653SOL    HW211859   1.075   1.709   3.614
 3654SOL     OW11860   3.496   4.588   0.471
 3654SOL    HW111861   3.513   4.490   0.480
 3654SOL    HW211862   3.509   4.632   0.560
 3655SOL     OW11863   3.446   6.995   3.968
 3655SOL    HW111864   3.389   6.928   3.921
 3655SOL    HW211865   3.399   0.061   3.968
 3656SOL     OW11866   0.658   4.614   1.323
 3656SOL    HW111867   0.644   4.670   1.241
 3656SOL    HW211868   0.715   4.535   1.300
 3657SOL     OW11869   5.421   5.933   5.400
 3657SOL    HW111870   5.355   5.859   5.416
 3657SOL    HW211871   5.372   6.020   5.394
 3658SOL     OW11872   2.123   4.804   6.490
 3658SOL    HW111873   2.126   4.712   6.529
 3658SOL    HW211874   2.050   4.809   6.422
 3659SOL     OW11875   2.018   3.264   5.521
 3659SOL    HW111876   1.973   3.298   5.603
 3659SOL    HW211877   2.015   3.164   5.520
 3660SOL     OW11878   5.849   5.792   4.071
 3660SOL    HW111879   5.817   5.752   4.156
 3660SOL    HW211880   5.905   5.725   4.021
 3661SOL     OW11881   6.646   0.671   5.373
 3661SOL    HW111882   6.631   0.762   5.412
 3661SOL    HW211883   6.558   0.631   5.348
 3662SOL     OW11884   3.968   0.868   4.157
 3662SOL    HW111885   3.898   0.806   4.193
 3662SOL    HW211886   3.956   0.877   4.058
 3663SOL     OW11887   1.893   2.085   0.474
 3663SOL    HW111888   1.970   2.049   0.525
 3663SOL    HW211889   1.845   2.010   0.428
 3664SOL     OW11890   4.595   2.356   1.134
 3664SOL    HW111891   4.575   2.272   1.083
 3664SOL    HW211892   4.535   2.430   1.102
 3665SOL     OW11893   0.857   6.322   5.138
 3665SOL    HW111894   0.840   6.237   5.088
 3665SOL    HW211895   0.827   6.400   5.083
 3666SOL     OW11896   0.875   3.434   2.898
 3666SOL    HW111897   0.789   3.482   2.915
 3666SOL    HW211898   0.936   3.446   2.976
 3667SOL     OW11899   0.421   1.421   3.802
 3667SOL    HW111900   0.400   1.326   3.778
 3667SOL    HW211901   0.512   1.426   3.843
 3668SOL     OW11902   1.405   1.403   1.153
 3668SOL    HW111903   1.395   1.305   1.133
 3668SOL    HW211904   1.496   1.421   1.189
 3669SOL     OW11905   5.432   1.466   3.780
 3669SOL    HW111906   5.456   1.375   3.747
 3669SOL    HW211907   5.332   1.475   3.782
 3670SOL     OW11908   1.707   5.531   6.559
 3670SOL    HW111909   1.802   5.561   6.567
 3670SOL    HW211910   1.681   5.481   6.642
 3671SOL     OW11911   0.041   1.856   3.918
 3671SOL    HW111912   0.074   1.861   4.012
 3671SOL    HW211913   0.077   1.773   3.874
 3672SOL     OW11914   4.673   2.061   2.074
 3672SOL    HW111915   4.766   2.094   2.092
 3672SOL    HW211916   4.646   2.088   1.982
 3673SOL     OW11917   4.241   6.259   7.015
 3673SOL    HW111918   4.335   6.244   6.984
 3673SOL    HW211919   4.207   6.177   0.038
 3674SOL     OW11920   1.546   5.914   5.322
 3674SOL    HW111921   1.457   5.947   5.290
 3674SOL    HW211922   1.579   5.974   5.395
 3675SOL     OW11923   2.314   2.880   3.920
 3675SOL    HW111924   2.291   2.904   3.826
 3675SOL    HW211925   2.344   2.784   3.923
 3676SOL     OW11926   6.305   4.213   2.664
 3676SOL    HW111927   6.291   4.214   2.763
 3676SOL    HW211928   6.220   4.184   2.619
 3677SOL     OW11929   2.985   6.263   4.247
 3677SOL    HW111930   3.081   6.243   4.229
 3677SOL    HW211931   2.979   6.337   4.314
 3678SOL     OW11932   0.744   1.291   4.460
 3678SOL    HW111933   0.720   1.261   4.368
 3678SOL    HW211934   0.722   1.218   4.525
 3679SOL     OW11935   6.923   0.355   3.412
 3679SOL    HW111936   6.934   0.330   3.509
 3679SOL    HW211937   6.874   0.441   3.405
 3680SOL     OW11938   4.922   3.165   4.066
 3680SOL    HW111939   4.999   3.190   4.125
 3680SOL    HW211940   4.878   3.083   4.102
 3681SOL     OW11941   0.113   0.814   6.344
 3681SOL    HW111942   0.163   0.742   6.297
 3681SOL    HW211943   0.137   0.812   6.441
 3682SOL     OW11944   5.402   3.155   0.171
 3682SOL    HW111945   5.451   3.112   0.247
 3682SOL    HW211946   5.428   3.252   0.166
 3683SOL     OW11947   6.793   1.850   4.352
 3683SOL    HW111948   6.779   1.783   4.425
 3683SOL    HW211949   6.727   1.834   4.279
 3684SOL     OW11950   0.873   5.029   0.017
 3684SOL    HW111951   0.848   4.945   0.065
 3684SOL    HW211952   0.799   5.096   0.024
 3685SOL     OW11953   1.587   5.999   6.574
 3685SOL    HW111954   1.673   5.950   6.566
 3685SOL    HW211955   1.604   6.090   6.612
 3686SOL     OW11956   6.175   5.357   4.978
 3686SOL    HW111957   6.190   5.329   5.073
 3686SOL    HW211958   6.113   5.293   4.934
 3687SOL     OW11959   3.815   6.575   3.861
 3687SOL    HW111960   3.827   6.476   3.870
 3687SOL    HW211961   3.843   6.620   3.947
 3688SOL     OW11962   0.571   3.272   6.741
 3688SOL    HW111963   0.609   3.334   6.811
 3688SOL    HW211964   0.472   3.270   6.749
 3689SOL     OW11965   2.127   0.291   5.885
 3689SOL    HW111966   2.086   0.203   5.907
 3689SOL    HW211967   2.161   0.334   5.968
 3690SOL     OW11968   4.267   5.796   6.955
 3690SOL    HW111969   4.363   5.808   6.931
 3690SOL    HW211970   4.259   5.771   0.029
 3691SOL     OW11971   2.537   1.839   6.570
 3691SOL    HW111972   2.571   1.769   6.506
 3691SOL    HW211973   2.439   1.852   6.555
 3692SOL     OW11974   6.439   5.225   5.595
 3692SOL    HW111975   6.465   5.132   5.621
 3692SOL    HW211976   6.506   5.290   5.633
 3693SOL     OW11977   1.818   3.734   3.140
 3693SOL    HW111978   1.822   3.823   3.184
 3693SOL    HW211979   1.881   3.671   3.186
 3694SOL     OW11980   0.469   6.312   2.022
 3694SOL    HW111981   0.431   6.225   1.988
 3694SOL    HW211982   0.410   6.387   1.992
 3695SOL     OW11983   5.419   3.051   1.515
 3695SOL    HW111984   5.463   2.968   1.480
 3695SOL    HW211985   5.349   3.026   1.582
 3696SOL     OW11986   3.925   7.012   4.092
 3696SOL    HW111987   3.917   6.975   4.184
 3696SOL    HW211988   3.920   0.089   4.095
 3697SOL     OW11989   0.208   6.588   2.907
 3697SOL    HW111990   0.217   6.637   2.820
 3697SOL    HW211991   0.153   6.506   2.894
 3698SOL     OW11992   2.648   1.172   4.421
 3698SOL    HW111993   2.565   1.204   4.376
 3698SOL    HW211994   2.726   1.225   4.388
 3699SOL     OW11995   1.287   2.069   4.385
 3699SOL    HW111996   1.366   2.126   4.358
 3699SOL    HW211997   1.250   2.024   4.304
 3700SOL     OW11998   1.263   5.436   4.938
 3700SOL    HW111999   1.361   5.431   4.923
 3700SOL    HW212000   1.228   5.524   4.906
 3701SOL     OW12001   1.412   0.703   3.991
 3701SOL    HW112002   1.495   0.758   3.983
 3701SOL    HW212003   1.378   0.708   4.084
 3702SOL     OW12004   5.597   6.769   3.065
 3702SOL    HW112005   5.684   6.811   3.093
 3702SOL    HW212006   5.615   6.702   2.993
 3703SOL     OW12007   6.542   0.056   6.366
 3703SOL    HW112008   6.518   0.064   6.463
 3703SOL    HW212009   6.462   0.077   6.310
 3704SOL     OW12010   3.671   2.147   0.916
 3704SOL    HW112011   3.770   2.160   0.929
 3704SOL    HW212012   3.653   2.121   0.821
 3705SOL     OW12013   5.183   4.131   4.922
 3705SOL    HW112014   5.132   4.117   4.837
 3705SOL    HW212015   5.198   4.043   4.967
 3706SOL     OW12016   1.419   3.928   6.933
 3706SOL    HW112017   1.456   3.942   0.003
 3706SOL    HW212018   1.329   3.885   6.940
 3707SOL     OW12019   5.220   4.787   4.431
 3707SOL    HW112020   5.218   4.760   4.527
 3707SOL    HW212021   5.293   4.738   4.384
 3708SOL     OW12022   6.349   1.297   0.443
 3708SOL    HW112023   6.386   1.233   0.512
 3708SOL    HW212024   6.271   1.345   0.481
 3709SOL     OW12025   3.307   0.853   1.055
 3709SOL    HW112026   3.399   0.857   1.092
 3709SOL    HW212027   3.248   0.918   1.102
 3710SOL     OW12028   6.631   5.307   5.101
 3710SOL    HW112029   6.646   5.225   5.046
 3710SOL    HW212030   6.630   5.387   5.042
 3711SOL     OW12031   1.184   5.851   4.635
 3711SOL    HW112032   1.276   5.871   4.669
 3711SOL    HW212033   1.164   5.911   4.557
 3712SOL     OW12034   1.080   5.122   6.254
 3712SOL    HW112035   1.094   5.149   6.159
 3712SOL    HW212036   1.094   5.201   6.314
 3713SOL     OW12037   0.466   6.827   5.258
 3713SOL    HW112038   0.522   6.749   5.284
 3713SOL    HW212039   0.518   6.912   5.273
 3714SOL     OW12040   5.515   5.734   6.011
 3714SOL    HW112041   5.495   5.773   5.921
 3714SOL    HW212042   5.596   5.675   6.004
 3715SOL     OW12043   0.661   3.935   2.759
 3715SOL    HW112044   0.678   3.918   2.857
 3715SOL    HW212045   0.611   4.021   2.749
 3716SOL     OW12046   5.984   6.558   3.506
 3716SOL    HW112047   5.941   6.487   3.562
 3716SOL    HW212048   6.011   6.635   3.564
 3717SOL     OW12049   6.013   6.587   6.594
 3717SOL    HW112050   6.057   6.507   6.635
 3717SOL    HW212051   6.082   6.645   6.551
 3718SOL     OW12052   0.583   1.059   0.193
 3718SOL    HW112053   0.617   0.966   0.174
 3718SOL    HW212054   0.547   1.062   0.286
 3719SOL     OW12055   5.174   3.799   1.252
 3719SOL    HW112056   5.082   3.775   1.224
 3719SOL    HW212057   5.234   3.804   1.171
 3720SOL     OW12058   5.787   3.255   0.242
 3720SOL    HW112059   5.735   3.267   0.157
 3720SOL    HW212060   5.823   3.162   0.246
 3721SOL     OW12061   6.932   5.093   1.911
 3721SOL    HW112062   7.019   5.139   1.893
 3721SOL    HW212063   6.932   5.057   2.004
 3722SOL     OW12064   5.895   6.173   1.001
 3722SOL    HW112065   5.955   6.165   0.921
 3722SOL    HW212066   5.800   6.184   0.969
 3723SOL     OW12067   5.914   4.758   1.051
 3723SOL    HW112068   5.820   4.779   1.077
 3723SOL    HW212069   5.918   4.665   1.015
 3724SOL     OW12070   1.763   4.924   5.035
 3724SOL    HW112071   1.692   4.853   5.035
 3724SOL    HW212072   1.728   5.006   5.081
 3725SOL     OW12073   0.226   5.215   0.055
 3725SOL    HW112074   0.254   5.223   0.151
 3725SOL    HW212075   0.219   5.118   0.031
 3726SOL     OW12076   5.912   3.179   6.490
 3726SOL    HW112077   5.965   3.147   6.569
 3726SOL    HW212078   5.963   3.161   6.406
 3727SOL     OW12079   6.506   1.586   5.560
 3727SOL    HW112080   6.549   1.513   5.507
 3727SOL    HW212081   6.407   1.575   5.558
 3728SOL     OW12082   0.898   3.257   6.438
 3728SOL    HW112083   0.892   3.235   6.341
 3728SOL    HW212084   0.888   3.355   6.452
 3729SOL     OW12085   1.894   1.940   4.169
 3729SOL    HW112086   1.822   1.877   4.200
 3729SOL    HW212087   1.956   1.892   4.107
 3730SOL     OW12088   3.389   6.093   5.407
 3730SOL    HW112089   3.332   6.029   5.457
 3730SOL    HW212090   3.399   6.178   5.460
 3731SOL     OW12091   6.876   1.589   0.989
 3731SOL    HW112092   6.822   1.655   1.040
 3731SOL    HW212093   6.915   1.632   0.908
 3732SOL     OW12094   2.793   2.130   6.886
 3732SOL    HW112095   2.813   2.032   6.876
 3732SOL    HW212096   2.868   2.175   6.933
 3733SOL     OW12097   1.525   3.190   2.925
 3733SOL    HW112098   1.590   3.264   2.906
 3733SOL    HW212099   1.529   3.122   2.851
 3734SOL     OW12100   5.197   0.568   1.352
 3734SOL    HW112101   5.245   0.530   1.431
 3734SOL    HW212102   5.120   0.623   1.384
 3735SOL     OW12103   2.798   1.190   2.890
 3735SOL    HW112104   2.782   1.175   2.793
 3735SOL    HW212105   2.856   1.116   2.926
 3736SOL     OW12106   6.776   1.780   1.227
 3736SOL    HW112107   6.861   1.832   1.232
 3736SOL    HW212108   6.702   1.833   1.270
 3737SOL     OW12109   5.423   0.888   4.069
 3737SOL    HW112110   5.479   0.971   4.061
 3737SOL    HW212111   5.483   0.808   4.077
 3738SOL     OW12112   6.485   0.468   1.972
 3738SOL    HW112113   6.540   0.442   1.892
 3738SOL    HW212114   6.471   0.567   1.973
 3739SOL     OW12115   2.424   5.253   0.733
 3739SOL    HW112116   2.455   5.163   0.702
 3739SOL    HW212117   2.369   5.295   0.661
 3740SOL     OW12118   6.796   0.315   1.036
 3740SOL    HW112119   6.784   0.248   1.110
 3740SOL    HW212120   6.890   0.309   1.002
 3741SOL     OW12121   5.572   2.796   6.022
 3741SOL    HW112122   5.519   2.756   5.947
 3741SOL    HW212123   5.514   2.804   6.103
 3742SOL     OW12124   2.981   1.922   6.700
 3742SOL    HW112125   2.916   1.847   6.697
 3742SOL    HW212126   3.040   1.918   6.619
 3743SOL     OW12127   5.992   3.052   0.531
 3743SOL    HW112128   6.068   3.083   0.474
 3743SOL    HW212129   5.954   3.130   0.581
 3744SOL     OW12130   1.913   6.119   1.341
 3744SOL    HW112131   1.959   6.055   1.279
 3744SOL    HW212132   1.823   6.141   1.304
 3745SOL     OW12133   4.776   4.516   2.724
 3745SOL    HW112134   4.819   4.488   2.638
 3745SOL    HW212135   4.737   4.607   2.713
 3746SOL     OW12136   6.281   0.916   3.912
 3746SOL    HW112137   6.244   1.008   3.901
 3746SOL    HW212138   6.356   0.902   3.847
 3747SOL     OW12139   3.094   6.078   5.189
 3747SOL    HW112140   3.194   6.071   5.192
 3747SOL    HW212141   3.068   6.172   5.168
 3748SOL     OW12142   5.905   0.739   1.864
 3748SOL    HW112143   5.865   0.792   1.938
 3748SOL    HW212144   5.835   0.716   1.797
 3749SOL     OW12145   2.075   5.362   3.075
 3749SOL    HW112146   2.102   5.267   3.056
 3749SOL    HW212147   2.071   5.376   3.173
 3750SOL     OW12148   6.528   5.340   1.561
 3750SOL    HW112149   6.501   5.366   1.468
 3750SOL    HW212150   6.597   5.268   1.557
 3751SOL     OW12151   6.839   3.433   1.637
 3751SOL    HW112152   6.750   3.436   1.684
 3751SOL    HW212153   6.842   3.351   1.579
 3752SOL     OW12154   6.574   6.695   0.901
 3752SOL    HW112155   6.478   6.684   0.873
 3752SOL    HW212156   6.595   6.792   0.911
 3753SOL     OW12157   6.881   0.840   4.214
 3753SOL    HW112158   6.815   0.911   4.191
 3753SOL    HW212159   6.881   0.769   4.144
 3754SOL     OW12160   4.325   6.624   0.985
 3754SOL    HW112161   4.232   6.588   0.990
 3754SOL    HW212162   4.368   6.618   1.076
 3755SOL     OW12163   5.452   5.956   4.300
 3755SOL    HW112164   5.469   6.014   4.220
 3755SOL    HW212165   5.357   5.967   4.330
 3756SOL     OW12166   2.169   5.414   6.465
 3756SOL    HW112167   2.141   5.330   6.511
 3756SOL    HW212168   2.162   5.402   6.366
 3757SOL     OW12169   4.330   6.317   6.362
 3757SOL    HW112170   4.291   6.387   6.422
 3757SOL    HW212171   4.298   6.227   6.390
 3758SOL     OW12172   2.033   1.467   5.553
 3758SOL    HW112173   2.127   1.453   5.584
 3758SOL    HW212174   2.031   1.478   5.454
 3759SOL     OW12175   4.566   5.735   6.193
 3759SOL    HW112176   4.645   5.768   6.245
 3759SOL    HW212177   4.595   5.712   6.100
 3760SOL     OW12178   1.769   1.578   5.174
 3760SOL    HW112179   1.718   1.515   5.233
 3760SOL    HW212180   1.744   1.672   5.197
 3761SOL     OW12181   1.230   0.987   4.588
 3761SOL    HW112182   1.291   1.039   4.649
 3761SOL    HW212183   1.261   0.892   4.583
 3762SOL     OW12184   1.477   3.527   0.260
 3762SOL    HW112185   1.509   3.436   0.287
 3762SOL    HW212186   1.378   3.531   0.269
 3763SOL     OW12187   6.776   4.329   1.606
 3763SOL    HW112188   6.841   4.254   1.619
 3763SOL    HW212189   6.706   4.325   1.677
 3764SOL     OW12190   1.518   6.503   3.746
 3764SOL    HW112191   1.453   6.490   3.821
 3764SOL    HW212192   1.578   6.579   3.767
 3765SOL     OW12193   4.387   0.859   1.120
 3765SOL    HW112194   4.380   0.833   1.024
 3765SOL    HW212195   4.450   0.936   1.130
 3766SOL     OW12196   1.122   1.078   3.776
 3766SOL    HW112197   1.205   1.090   3.831
 3766SOL    HW212198   1.042   1.077   3.836
 3767SOL     OW12199   2.261   4.250   0.382
 3767SOL    HW112200   2.305   4.160   0.380
 3767SOL    HW212201   2.204   4.257   0.464
 3768SOL     OW12202   1.836   6.397   4.768
 3768SOL    HW112203   1.869   6.445   4.849
 3768SOL    HW212204   1.872   6.304   4.767
 3769SOL     OW12205   6.281   6.668   5.391
 3769SOL    HW112206   6.370   6.646   5.351
 3769SOL    HW212207   6.295   6.725   5.472
 3770SOL     OW12208   2.088   0.194   6.811
 3770SOL    HW112209   2.169   0.249   6.791
 3770SOL    HW212210   2.064   0.205   6.907
 3771SOL     OW12211   5.818   3.480   6.863
 3771SOL    HW112212   5.801   3.432   6.777
 3771SOL    HW212213   5.916   3.478   6.884
 3772SOL     OW12214   6.705   1.056   6.797
 3772SOL    HW112215   6.624   1.029   6.849
 3772SOL    HW212216   6.770   0.980   6.795
 3773SOL     OW12217   6.067   2.708   6.373
 3773SOL    HW112218   5.985   2.654   6.394
 3773SOL    HW212219   6.096   2.690   6.280
 3774SOL     OW12220   0.377   6.180   0.324
 3774SOL    HW112221   0.413   6.106   0.267
 3774SOL    HW212222   0.363   6.262   0.267
 3775SOL     OW12223   4.999   5.221   2.363
 3775SOL    HW112224   5.067   5.180   2.423
 3775SOL    HW212225   5.045   5.264   2.285
 3776SOL     OW12226   3.976   1.261   0.766
 3776SOL    HW112227   3.916   1.311   0.703
 3776SOL    HW212228   3.921   1.206   0.829
 3777SOL     OW12229   3.293   5.094   3.947
 3777SOL    HW112230   3.226   5.042   4.000
 3777SOL    HW212231   3.335   5.163   4.006
 3778SOL     OW12232   3.558   4.905   2.263
 3778SOL    HW112233   3.625   4.879   2.194
 3778SOL    HW212234   3.470   4.925   2.219
 3779SOL     OW12235   1.999   4.795   1.025
 3779SOL    HW112236   2.058   4.808   0.945
 3779SOL    HW212237   2.031   4.716   1.078
 3780SOL     OW12238   5.523   6.269   5.249
 3780SOL    HW112239   5.484   6.199   5.189
 3780SOL    HW212240   5.622   6.273   5.236
 3781SOL     OW12241   0.669   6.755   4.391
 3781SOL    HW112242   0.595   6.814   4.357
 3781SOL    HW212243   0.716   6.712   4.314
 3782SOL     OW12244   2.810   0.808   3.883
 3782SOL    HW112245   2.849   0.729   3.930
 3782SOL    HW212246   2.734   0.844   3.937
 3783SOL     OW12247   5.833   5.379   4.037
 3783SOL    HW112248   5.881   5.465   4.019
 3783SOL    HW212249   5.736   5.391   4.018
 3784SOL     OW12250   4.744   2.756   2.145
 3784SOL    HW112251   4.719   2.843   2.101
 3784SOL    HW212252   4.774   2.691   2.075
 3785SOL     OW12253   2.039   1.915   6.350
 3785SOL    HW112254   1.982   1.991   6.382
 3785SOL    HW212255   1.979   1.840   6.319
 3786SOL     OW12256   2.370   6.128   2.863
 3786SOL    HW112257   2.425   6.103   2.943
 3786SOL    HW212258   2.273   6.125   2.887
 3787SOL     OW12259   6.007   0.772   2.508
 3787SOL    HW112260   5.943   0.770   2.432
 3787SOL    HW212261   5.999   0.687   2.561
 3788SOL     OW12262   0.626   4.244   4.573
 3788SOL    HW112263   0.532   4.222   4.598
 3788SOL    HW212264   0.676   4.159   4.554
 3789SOL     OW12265   0.502   2.617   5.300
 3789SOL    HW112266   0.578   2.672   5.333
 3789SOL    HW212267   0.506   2.611   5.201
 3790SOL     OW12268   1.133   5.018   5.113
 3790SOL    HW112269   1.094   4.937   5.157
 3790SOL    HW212270   1.207   5.055   5.170
 3791SOL     OW12271   5.295   0.685   0.344
 3791SOL    HW112272   5.296   0.603   0.288
 3791SOL    HW212273   5.351   0.671   0.426
 3792SOL     OW12274   1.031   1.875   5.201
 3792SOL    HW112275   0.956   1.937   5.176
 3792SOL    HW212276   1.118   1.921   5.188
 3793SOL     OW12277   4.760   6.581   2.646
 3793SOL    HW112278   4.755   6.662   2.705
 3793SOL    HW212279   4.818   6.601   2.567
 3794SOL     OW12280   2.635   3.604   0.458
 3794SOL    HW112281   2.706   3.583   0.390
 3794SOL    HW212282   2.550   3.627   0.411
 3795SOL     OW12283   4.650   6.704   6.491
 3795SOL    HW112284   4.727   6.722   6.552
 3795SOL    HW212285   4.652   6.609   6.462
 3796SOL     OW12286   3.012   1.742   2.220
 3796SOL    HW112287   3.045   1.658   2.176
 3796SOL    HW212288   3.056   1.821   2.177
 3797SOL     OW12289   6.837   3.879   1.522
 3797SOL    HW112290   6.767   3.864   1.452
 3797SOL    HW212291   6.889   3.795   1.536
 3798SOL     OW12292   2.578   5.715   2.642
 3798SOL    HW112293   2.657   5.700   2.582
 3798SOL    HW212294   2.567   5.813   2.658
 3799SOL     OW12295   0.565   2.423   4.479
 3799SOL    HW112296   0.598   2.372   4.400
 3799SOL    HW212297   0.566   2.363   4.560
 3800SOL     OW12298   5.476   3.415   3.976
 3800SOL    HW112299   5.455   3.403   3.879
 3800SOL    HW212300   5.487   3.513   3.996
 3801SOL     OW12301   6.427   7.016   2.825
 3801SOL    HW112302   6.428   0.024   2.730
 3801SOL    HW212303   6.362   6.941   2.835
 3802SOL     OW12304   1.302   2.089   2.923
 3802SOL    HW112305   1.254   2.152   2.862
 3802SOL    HW212306   1.282   2.113   3.018
 3803SOL     OW12307   3.278   2.455   1.702
 3803SOL    HW112308   3.268   2.356   1.701
 3803SOL    HW212309   3.373   2.479   1.686
 3804SOL     OW12310   4.919   0.884   3.880
 3804SOL    HW112311   4.976   0.802   3.880
 3804SOL    HW212312   4.840   0.869   3.822
 3805SOL     OW12313   2.571   2.839   1.787
 3805SOL    HW112314   2.645   2.798   1.733
 3805SOL    HW212315   2.553   2.932   1.753
 3806SOL     OW12316   3.879   3.938   6.495
 3806SOL    HW112317   3.864   4.028   6.455
 3806SOL    HW212318   3.950   3.890   6.443
 3807SOL     OW12319   2.031   5.592   2.951
 3807SOL    HW112320   2.109   5.649   2.974
 3807SOL    HW212321   2.040   5.503   2.995
 3808SOL     OW12322   4.145   0.553   0.848
 3808SOL    HW112323   4.051   0.568   0.876
 3808SOL    HW212324   4.147   0.501   0.762
 3809SOL     OW12325   5.518   3.215   1.095
 3809SOL    HW112326   5.453   3.236   1.022
 3809SOL    HW212327   5.557   3.125   1.080
 3810SOL     OW12328   4.382   2.420   4.301
 3810SOL    HW112329   4.406   2.326   4.278
 3810SOL    HW212330   4.381   2.431   4.400
 3811SOL     OW12331   1.512   4.127   4.277
 3811SOL    HW112332   1.495   4.032   4.251
 3811SOL    HW212333   1.609   4.138   4.301
 3812SOL     OW12334   5.307   0.041   4.656
 3812SOL    HW112335   5.232   7.004   4.627
 3812SOL    HW212336   5.304   0.125   4.602
 3813SOL     OW12337   4.942   4.895   0.474
 3813SOL    HW112338   4.939   4.900   0.374
 3813SOL    HW212339   4.962   4.986   0.512
 3814SOL     OW12340   0.088   6.804   0.030
 3814SOL    HW112341   0.125   6.726   0.082
 3814SOL    HW212342   0.158   6.839   6.990
 3815SOL     OW12343   4.498   2.882   0.241
 3815SOL    HW112344   4.456   2.809   0.295
 3815SOL    HW212345   4.491   2.861   0.144
 3816SOL     OW12346   0.973   6.075   6.581
 3816SOL    HW112347   1.022   5.996   6.619
 3816SOL    HW212348   0.904   6.043   6.516
 3817SOL     OW12349   4.867   4.070   2.493
 3817SOL    HW112350   4.821   4.158   2.504
 3817SOL    HW212351   4.948   4.067   2.552
 3818SOL     OW12352   6.025   0.802   0.559
 3818SOL    HW112353   6.078   0.882   0.532
 3818SOL    HW212354   5.968   0.824   0.637
 3819SOL     OW12355   5.935   5.374   1.900
 3819SOL    HW112356   5.912   5.471   1.897
 3819SOL    HW212357   6.033   5.362   1.910
 3820SOL     OW12358   5.681   6.972   3.330
 3820SOL    HW112359   5.720   6.993   3.241
 3820SOL    HW212360   5.662   0.035   3.379
 3821SOL     OW12361   2.196   1.382   0.983
 3821SOL    HW112362   2.150   1.426   0.906
 3821SOL    HW212363   2.244   1.300   0.950
 3822SOL     OW12364   1.492   6.783   2.271
 3822SOL    HW112365   1.476   6.772   2.173
 3822SOL    HW212366   1.440   6.861   2.305
 3823SOL     OW12367   3.000   2.648   5.669
 3823SOL    HW112368   2.926   2.605   5.720
 3823SOL    HW212369   2.973   2.658   5.573
 3824SOL     OW12370   6.136   2.429   0.703
 3824SOL    HW112371   6.167   2.489   0.777
 3824SOL    HW212372   6.202   2.355   0.690
 3825SOL     OW12373   1.289   6.163   0.312
 3825SOL    HW112374   1.265   6.070   0.284
 3825SOL    HW212375   1.212   6.205   0.360
 3826SOL     OW12376   1.039   2.680   6.686
 3826SOL    HW112377   1.021   2.759   6.744
 3826SOL    HW212378   0.988   2.601   6.719
 3827SOL     OW12379   2.702   2.181   1.325
 3827SOL    HW112380   2.651   2.266   1.319
 3827SOL    HW212381   2.744   2.173   1.415
 3828SOL     OW12382   3.871   2.475   1.703
 3828SOL    HW112383   3.825   2.416   1.769
 3828SOL    HW212384   3.839   2.569   1.714
 3829SOL     OW12385   1.652   5.021   4.407
 3829SOL    HW112386   1.624   5.107   4.366
 3829SOL    HW212387   1.582   4.951   4.389
 3830SOL     OW12388   0.772   0.560   4.104
 3830SOL    HW112389   0.752   0.466   4.079
 3830SOL    HW212390   0.840   0.598   4.041
 3831SOL     OW12391   4.432   2.423   2.419
 3831SOL    HW112392   4.474   2.503   2.375
 3831SOL    HW212393   4.374   2.376   2.353
 3832SOL     OW12394   5.728   0.739   2.799
 3832SOL    HW112395   5.764   0.833   2.794
 3832SOL    HW212396   5.653   0.736   2.864
 3833SOL     OW12397   1.201   6.358   5.211
 3833SOL    HW112398   1.145   6.339   5.130
 3833SOL    HW212399   1.144   6.395   5.283
 3834SOL     OW12400   4.672   3.328   1.663
 3834SOL    HW112401   4.714   3.418   1.672
 3834SOL    HW212402   4.740   3.257   1.681
 3835SOL     OW12403   2.804   5.468   5.233
 3835SOL    HW112404   2.870   5.518   5.177
 3835SOL    HW212405   2.760   5.530   5.297
 3836SOL     OW12406   1.898   4.326   5.283
 3836SOL    HW112407   1.892   4.235   5.241
 3836SOL    HW212408   1.983   4.333   5.335
 3837SOL     OW12409   4.808   4.353   6.917
 3837SOL    HW112410   4.888   4.326   6.862
 3837SOL    HW212411   4.787   4.281   6.983
 3838SOL     OW12412   6.600   3.645   4.799
 3838SOL    HW112413   6.647   3.703   4.866
 3838SOL    HW212414   6.666   3.584   4.755
 3839SOL     OW12415   4.093   1.117   3.801
 3839SOL    HW112416   4.150   1.069   3.735
 3839SOL    HW212417   4.038   1.051   3.853
 3840SOL     OW12418   1.625   1.401   5.337
 3840SOL    HW112419   1.643   1.302   5.342
 3840SOL    HW212420   1.583   1.431   5.422
 3841SOL     OW12421   0.264   3.123   5.623
 3841SOL    HW112422   0.174   3.082   5.612
 3841SOL    HW212423   0.323   3.061   5.676
 3842SOL     OW12424   1.404   3.723   6.363
 3842SOL    HW112425   1.480   3.722   6.428
 3842SOL    HW212426   1.440   3.730   6.270
 3843SOL     OW12427   0.026   4.010   2.702
 3843SOL    HW112428   6.987   4.075   2.746
 3843SOL    HW212429   0.120   4.045   2.706
 3844SOL     OW12430   0.454   3.049   6.589
 3844SOL    HW112431   0.512   3.122   6.624
 3844SOL    HW212432   0.373   3.041   6.648
 3845SOL     OW12433   3.720   2.978   3.077
 3845SOL    HW112434   3.650   3.049   3.081
 3845SOL    HW212435   3.753   2.959   3.170
 3846SOL     OW12436   1.086   4.927   3.921
 3846SOL    HW112437   1.052   4.923   3.827
 3846SOL    HW212438   1.165   4.988   3.926
 3847SOL     OW12439   6.084   0.756   4.766
 3847SOL    HW112440   6.123   0.791   4.681
 3847SOL    HW212441   6.059   0.660   4.754
 3848SOL     OW12442   3.217   5.622   2.775
 3848SOL    HW112443   3.154   5.546   2.788
 3848SOL    HW212444   3.227   5.672   2.861
 3849SOL     OW12445   0.556   1.680   5.173
 3849SOL    HW112446   0.595   1.652   5.260
 3849SOL    HW212447   0.618   1.655   5.099
 3850SOL     OW12448   2.665   3.152   1.433
 3850SOL    HW112449   2.674   3.243   1.393
 3850SOL    HW212450   2.580   3.109   1.401
 3851SOL     OW12451   1.765   4.682   2.833
 3851SOL    HW112452   1.808   4.638   2.754
 3851SOL    HW212453   1.667   4.661   2.834
 3852SOL     OW12454   4.808   6.952   4.143
 3852SOL    HW112455   4.728   6.986   4.094
 3852SOL    HW212456   4.867   0.007   4.168
 3853SOL     OW12457   1.207   2.782   3.055
 3853SOL    HW112458   1.237   2.837   2.977
 3853SOL    HW212459   1.120   2.738   3.034
 3854SOL     OW12460   0.926   3.068   2.515
 3854SOL    HW112461   0.948   2.998   2.583
 3854SOL    HW212462   0.878   3.026   2.438
 3855SOL     OW12463   5.141   6.035   6.834
 3855SOL    HW112464   5.220   6.064   6.779
 3855SOL    HW212465   5.173   5.975   6.907
 3856SOL     OW12466   6.309   6.390   5.791
 3856SOL    HW112467   6.358   6.413   5.707
 3856SOL    HW212468   6.375   6.369   5.863
 3857SOL     OW12469   0.743   5.936   5.725
 3857SOL    HW112470   0.786   5.923   5.635
 3857SOL    HW212471   0.666   5.873   5.734
 3858SOL     OW12472   1.478   6.356   5.305
 3858SOL    HW112473   1.408   6.347   5.234
 3858SOL    HW212474   1.470   6.446   5.347
 3859SOL     OW12475   6.513   2.343   2.956
 3859SOL    HW112476   6.593   2.306   3.003
 3859SOL    HW212477   6.429   2.311   3.000
 3860SOL     OW12478   1.858   0.482   5.628
 3860SOL    HW112479   1.802   0.529   5.696
 3860SOL    HW212480   1.917   0.549   5.581
 3861SOL     OW12481   5.127   4.833   2.539
 3861SOL    HW112482   5.138   4.784   2.453
 3861SOL    HW212483   5.155   4.774   2.615
 3862SOL     OW12484   0.506   0.145   4.975
 3862SOL    HW112485   0.459   0.059   4.954
 3862SOL    HW212486   0.589   0.126   5.027
 3863SOL     OW12487   4.823   2.742   6.257
 3863SOL    HW112488   4.752   2.696   6.310
 3863SOL    HW212489   4.901   2.762   6.317
 3864SOL     OW12490   3.006   1.389   5.382
 3864SOL    HW112491   2.929   1.419   5.325
 3864SOL    HW212492   3.063   1.326   5.330
 3865SOL     OW12493   3.650   0.128   0.690
 3865SOL    HW112494   3.612   0.106   0.780
 3865SOL    HW212495   3.746   0.155   0.699
 3866SOL     OW12496   4.083   0.851   0.962
 3866SOL    HW112497   4.050   0.878   1.053
 3866SOL    HW212498   4.032   0.772   0.931
 3867SOL     OW12499   1.497   3.540   4.025
 3867SOL    HW112500   1.563   3.569   3.955
 3867SOL    HW212501   1.406   3.536   3.985
 3868SOL     OW12502   2.576   6.843   0.917
 3868SOL    HW112503   2.602   6.865   1.011
 3868SOL    HW212504   2.476   6.840   0.909
 3869SOL     OW12505   6.616   3.180   4.496
 3869SOL    HW112506   6.556   3.100   4.507
 3869SOL    HW212507   6.711   3.150   4.495
 3870SOL     OW12508   4.487   5.298   0.866
 3870SOL    HW112509   4.402   5.248   0.849
 3870SOL    HW212510   4.475   5.393   0.841
 3871SOL     OW12511   4.283   0.492   2.225
 3871SOL    HW112512   4.380   0.513   2.214
 3871SOL    HW212513   4.272   0.399   2.262
 3872SOL     OW12514   3.820   2.996   2.179
 3872SOL    HW112515   3.808   3.065   2.108
 3872SOL    HW212516   3.882   3.030   2.250
 3873SOL     OW12517   7.013   4.829   1.340
 3873SOL    HW112518   0.067   4.803   1.400
 3873SOL    HW212519   0.024   4.892   1.269
 3874SOL     OW12520   3.793   6.062   6.910
 3874SOL    HW112521   3.762   5.997   6.979
 3874SOL    HW212522   3.762   6.154   6.935
 3875SOL     OW12523   1.066   2.803   2.459
 3875SOL    HW112524   0.982   2.790   2.405
 3875SOL    HW212525   1.136   2.740   2.426
 3876SOL     OW12526   6.051   5.138   6.606
 3876SOL    HW112527   6.047   5.041   6.630
 3876SOL    HW212528   6.060   5.147   6.507
 3877SOL     OW12529   7.015   2.720   0.041
 3877SOL    HW112530   0.089   2.732   0.067
 3877SOL    HW212531   6.974   2.809   0.024
 3878SOL     OW12532   2.492   6.532   5.411
 3878SOL    HW112533   2.440   6.462   5.362
 3878SOL    HW212534   2.531   6.493   5.494
 3879SOL     OW12535   5.193   6.581   0.882
 3879SOL    HW112536   5.240   6.524   0.949
 3879SOL    HW212537   5.125   6.639   0.928
 3880SOL     OW12538   6.085   4.314   3.418
 3880SOL    HW112539   6.066   4.228   3.465
 3880SOL    HW212540   6.183   4.324   3.404
 3881SOL     OW12541   1.372   5.514   0.259
 3881SOL    HW112542   1.293   5.468   0.300
 3881SOL    HW212543   1.455   5.482   0.304
 3882SOL     OW12544   5.923   1.589   4.765
 3882SOL    HW112545   5.981   1.636   4.699
 3882SOL    HW212546   5.827   1.600   4.738
 3883SOL     OW12547   4.673   1.076   3.256
 3883SOL    HW112548   4.770   1.072   3.231
 3883SOL    HW212549   4.660   1.141   3.330
 3884SOL     OW12550   1.671   5.667   3.978
 3884SOL    HW112551   1.708   5.644   4.068
 3884SOL    HW212552   1.580   5.708   3.989
 3885SOL     OW12553   6.305   1.419   4.296
 3885SOL    HW112554   6.208   1.421   4.273
 3885SOL    HW212555   6.319   1.460   4.386
 3886SOL     OW12556   6.842   6.886   5.153
 3886SOL    HW112557   6.791   6.907   5.236
 3886SOL    HW212558   6.919   6.826   5.175
 3887SOL     OW12559   5.259   2.259   5.611
 3887SOL    HW112560   5.229   2.184   5.670
 3887SOL    HW212561   5.267   2.226   5.517
 3888SOL     OW12562   1.034   0.193   6.602
 3888SOL    HW112563   0.951   0.151   6.565
 3888SOL    HW212564   1.014   0.236   6.690
 3889SOL     OW12565   6.881   2.855   6.311
 3889SOL    HW112566   6.785   2.872   6.291
 3889SOL    HW212567   6.908   2.907   6.393
 3890SOL     OW12568   5.774   6.164   2.789
 3890SOL    HW112569   5.835   6.115   2.727
 3890SOL    HW212570   5.737   6.245   2.742
 3891SOL     OW12571   5.534   4.647   4.610
 3891SOL    HW112572   5.577   4.599   4.534
 3891SOL    HW212573   5.566   4.608   4.697
 3892SOL     OW12574   0.438   1.029   2.477
 3892SOL    HW112575   0.379   0.976   2.538
 3892SOL    HW212576   0.531   0.993   2.481
 3893SOL     OW12577   2.711   5.533   2.133
 3893SOL    HW112578   2.667   5.605   2.080
 3893SOL    HW212579   2.759   5.471   2.072
 3894SOL     OW12580   3.289   2.130   0.166
 3894SOL    HW112581   3.228   2.071   0.219
 3894SOL    HW212582   3.246   2.220   0.153
 3895SOL     OW12583   1.290   0.964   5.116
 3895SOL    HW112584   1.261   1.059   5.104
 3895SOL    HW212585   1.368   0.945   5.057
 3896SOL     OW12586   0.153   2.464   6.012
 3896SOL    HW112587   0.228   2.454   5.946
 3896SOL    HW212588   0.081   2.519   5.971
 3897SOL     OW12589   3.286   6.448   2.012
 3897SOL    HW112590   3.196   6.486   2.030
 3897SOL    HW212591   3.356   6.502   2.058
 3898SOL     OW12592   3.142   2.962   3.322
 3898SOL    HW112593   3.115   3.037   3.382
 3898SOL    HW212594   3.242   2.954   3.321
 3899SOL     OW12595   4.975   1.104   4.202
 3899SOL    HW112596   4.914   1.107   4.123
 3899SOL    HW212597   5.030   1.021   4.199
 3900SOL     OW12598   5.084   3.405   3.218
 3900SOL    HW112599   5.122   3.437   3.304
 3900SOL    HW212600   5.156   3.399   3.149
 3901SOL     OW12601   2.654   6.208   5.746
 3901SOL    HW112602   2.703   6.189   5.661
 3901SOL    HW212603   2.696   6.156   5.820
 3902SOL     OW12604   4.766   4.120   2.156
 3902SOL    HW112605   4.769   4.098   2.253
 3902SOL    HW212606   4.695   4.189   2.140
 3903SOL     OW12607   4.144   3.303   6.637
 3903SOL    HW112608   4.217   3.247   6.597
 3903SOL    HW212609   4.056   3.257   6.627
 3904SOL     OW12610   1.376   1.142   6.271
 3904SOL    HW112611   1.434   1.212   6.315
 3904SOL    HW212612   1.428   1.057   6.261
 3905SOL     OW12613   5.938   6.305   5.948
 3905SOL    HW112614   5.961   6.378   5.884
 3905SOL    HW212615   5.930   6.218   5.899
 3906SOL     OW12616   1.586   5.014   5.692
 3906SOL    HW112617   1.540   5.103   5.688
 3906SOL    HW212618   1.575   4.967   5.605
 3907SOL     OW12619   0.239   0.761   4.544
 3907SOL    HW112620   0.166   0.783   4.480
 3907SOL    HW212621   0.233   0.664   4.569
 3908SOL     OW12622   1.035   1.275   6.433
 3908SOL    HW112623   1.112   1.301   6.491
 3908SOL    HW212624   1.042   1.178   6.410
 3909SOL     OW12625   6.121   4.160   6.546
 3909SOL    HW112626   6.203   4.185   6.598
 3909SOL    HW212627   6.059   4.108   6.605
 3910SOL     OW12628   3.658   4.067   2.178
 3910SOL    HW112629   3.626   3.977   2.206
 3910SOL    HW212630   3.597   4.137   2.215
 3911SOL     OW12631   5.007   1.284   0.842
 3911SOL    HW112632   5.083   1.244   0.791
 3911SOL    HW212633   5.016   1.384   0.843
 3912SOL     OW12634   3.739   0.836   6.024
 3912SOL    HW112635   3.706   0.847   6.117
 3912SOL    HW212636   3.717   0.918   5.971
 3913SOL     OW12637   3.671   5.864   0.048
 3913SOL    HW112638   3.578   5.872   0.014
 3913SOL    HW212639   3.713   5.781   0.012
 3914SOL     OW12640   4.992   1.178   1.587
 3914SOL    HW112641   4.980   1.277   1.593
 3914SOL    HW212642   4.903   1.133   1.598
 3915SOL     OW12643   4.132   6.657   6.846
 3915SOL    HW112644   4.139   6.703   6.935
 3915SOL    HW212645   4.116   6.560   6.861
 3916SOL     OW12646   2.768   6.984   3.082
 3916SOL    HW112647   2.839   7.017   3.019
 3916SOL    HW212648   2.811   6.944   3.163
 3917SOL     OW12649   2.559   4.773   0.828
 3917SOL    HW112650   2.634   4.756   0.765
 3917SOL    HW212651   2.486   4.707   0.812
 3918SOL     OW12652   4.072   0.410   0.621
 3918SOL    HW112653   4.143   0.406   0.551
 3918SOL    HW212654   3.999   0.472   0.591
 3919SOL     OW12655   3.895   0.792   6.980
 3919SOL    HW112656   3.912   0.882   6.941
 3919SOL    HW212657   3.919   0.792   0.055
 3920SOL     OW12658   2.140   0.628   0.169
 3920SOL    HW112659   2.166   0.534   0.145
 3920SOL    HW212660   2.123   0.680   0.086
 3921SOL     OW12661   6.970   2.520   6.571
 3921SOL    HW112662   7.011   2.448   6.515
 3921SOL    HW212663   6.898   2.566   6.519
 3922SOL     OW12664   4.715   5.213   1.418
 3922SOL    HW112665   4.693   5.304   1.452
 3922SOL    HW212666   4.631   5.159   1.408
 3923SOL     OW12667   5.441   2.086   0.770
 3923SOL    HW112668   5.354   2.099   0.817
 3923SOL    HW212669   5.482   2.175   0.752
 3924SOL     OW12670   0.614   4.471   3.042
 3924SOL    HW112671   0.660   4.391   3.079
 3924SOL    HW212672   0.521   4.446   3.013
 3925SOL     OW12673   4.970   4.698   1.560
 3925SOL    HW112674   4.935   4.618   1.608
 3925SOL    HW212675   4.897   4.767   1.555
 3926SOL     OW12676   0.849   0.257   5.380
 3926SOL    HW112677   0.882   0.318   5.308
 3926SOL    HW212678   0.839   0.165   5.344
 3927SOL     OW12679   0.637   3.060   4.134
 3927SOL    HW112680   0.650   2.973   4.180
 3927SOL    HW212681   0.691   3.131   4.180
 3928SOL     OW12682   2.692   6.344   2.002
 3928SOL    HW112683   2.757   6.391   1.942
 3928SOL    HW212684   2.599   6.376   1.983
 3929SOL     OW12685   0.239   1.034   0.031
 3929SOL    HW112686   0.258   1.086   0.115
 3929SOL    HW212687   0.306   0.960   0.022
 3930SOL     OW12688   0.914   2.029   3.836
 3930SOL    HW112689   1.011   2.018   3.860
 3930SOL    HW212690   0.902   2.113   3.783
 3931SOL     OW12691   1.612   1.924   1.903
 3931SOL    HW112692   1.593   1.962   1.994
 3931SOL    HW212693   1.656   1.835   1.914
 3932SOL     OW12694   2.807   5.363   4.291
 3932SOL    HW112695   2.853   5.446   4.323
 3932SOL    HW212696   2.733   5.340   4.354
 3933SOL     OW12697   1.743   6.684   0.098
 3933SOL    HW112698   1.721   6.720   0.007
 3933SOL    HW212699   1.744   6.760   0.164
 3934SOL     OW12700   0.189   1.244   3.610
 3934SOL    HW112701   0.135   1.162   3.629
 3934SOL    HW212702   0.177   1.269   3.514
 3935SOL     OW12703   6.815   2.042   5.720
 3935SOL    HW112704   6.852   2.003   5.804
 3935SOL    HW212705   6.755   2.119   5.743
 3936SOL     OW12706   6.693   6.121   5.505
 3936SOL    HW112707   6.627   6.120   5.430
 3936SOL    HW212708   6.779   6.162   5.474
 3937SOL     OW12709   0.684   6.118   3.202
 3937SOL    HW112710   0.774   6.078   3.183
 3937SOL    HW212711   0.613   6.052   3.180
 3938SOL     OW12712   6.782   3.328   4.208
 3938SOL    HW112713   6.711   3.343   4.138
 3938SOL    HW212714   6.739   3.312   4.296
 3939SOL     OW12715   2.565   1.831   3.742
 3939SOL    HW112716   2.513   1.799   3.663
 3939SOL    HW212717   2.547   1.771   3.820
 3940SOL     OW12718   3.027   4.804   1.989
 3940SOL    HW112719   2.955   4.736   1.978
 3940SOL    HW212720   3.042   4.821   2.087
 3941SOL     OW12721   5.793   6.873   4.101
 3941SOL    HW112722   5.795   6.962   4.145
 3941SOL    HW212723   5.774   6.802   4.168
 3942SOL     OW12724   0.847   6.221   5.399
 3942SOL    HW112725   0.824   6.295   5.462
 3942SOL    HW212726   0.874   6.260   5.311
 3943SOL     OW12727   1.118   3.327   1.523
 3943SOL    HW112728   1.173   3.400   1.483
 3943SOL    HW212729   1.044   3.367   1.577
 3944SOL     OW12730   5.542   3.645   5.460
 3944SOL    HW112731   5.610   3.646   5.534
 3944SOL    HW212732   5.473   3.575   5.479
 3945SOL     OW12733   0.954   2.314   3.455
 3945SOL    HW112734   0.907   2.317   3.543
 3945SOL    HW212735   0.887   2.316   3.381
 3946SOL     OW12736   0.468   3.966   0.015
 3946SOL    HW112737   0.517   4.052   0.024
 3946SOL    HW212738   0.378   3.982   6.996
 3947SOL     OW12739   6.158   5.148   6.898
 3947SOL    HW112740   6.108   5.127   6.814
 3947SOL    HW212741   6.254   5.120   6.887
 3948SOL     OW12742   1.187   3.697   6.991
 3948SOL    HW112743   1.233   3.690   0.058
 3948SOL    HW212744   1.095   3.735   7.004
 3949SOL     OW12745   6.547   0.296   3.410
 3949SOL    HW112746   6.639   0.258   3.418
 3949SOL    HW212747   6.529   0.319   3.314
 3950SOL     OW12748   4.093   3.986   1.783
 3950SOL    HW112749   4.186   4.005   1.752
 3950SOL    HW212750   4.094   3.960   1.879
 3951SOL     OW12751   0.072   1.707   6.937
 3951SOL    HW112752   0.143   1.756   6.886
 3951SOL    HW212753   0.008   1.665   6.872
 3952SOL     OW12754   5.909   3.097   4.320
 3952SOL    HW112755   5.915   3.060   4.227
 3952SOL    HW212756   5.818   3.138   4.333
 3953SOL     OW12757   3.274   4.531   5.836
 3953SOL    HW112758   3.370   4.501   5.842
 3953SOL    HW212759   3.233   4.491   5.754
 3954SOL     OW12760   6.037   4.813   5.814
 3954SOL    HW112761   5.957   4.863   5.849
 3954SOL    HW212762   6.108   4.879   5.790
 3955SOL     OW12763   4.622   6.519   0.192
 3955SOL    HW112764   4.565   6.546   0.115
 3955SOL    HW212765   4.718   6.521   0.164
 3956SOL     OW12766   0.895   2.747   5.330
 3956SOL    HW112767   0.832   2.822   5.349
 3956SOL    HW212768   0.987   2.783   5.317
 3957SOL     OW12769   3.197   5.885   3.882
 3957SOL    HW112770   3.261   5.808   3.890
 3957SOL    HW212771   3.107   5.850   3.853
 3958SOL     OW12772   5.683   6.588   0.117
 3958SOL    HW112773   5.599   6.605   0.066
 3958SOL    HW212774   5.716   6.496   0.096
 3959SOL     OW12775   3.258   6.038   1.004
 3959SOL    HW112776   3.350   6.024   1.041
 3959SOL    HW212777   3.264   6.057   0.906
 3960SOL     OW12778   5.149   2.720   6.007
 3960SOL    HW112779   5.153   2.804   5.953
 3960SOL    HW212780   5.054   2.690   6.014
 3961SOL     OW12781   5.394   2.015   1.807
 3961SOL    HW112782   5.338   2.064   1.874
 3961SOL    HW212783   5.380   2.055   1.716
 3962SOL     OW12784   0.512   5.922   6.808
 3962SOL    HW112785   0.601   5.882   6.830
 3962SOL    HW212786   0.488   5.900   6.714
 3963SOL     OW12787   6.010   5.563   3.324
 3963SOL    HW112788   6.021   5.465   3.310
 3963SOL    HW212789   6.065   5.613   3.257
 3964SOL     OW12790   4.751   5.470   5.158
 3964SOL    HW112791   4.816   5.454   5.232
 3964SOL    HW212792   4.797   5.462   5.070
 3965SOL     OW12793   3.490   4.783   5.852
 3965SOL    HW112794   3.480   4.861   5.790
 3965SOL    HW212795   3.587   4.761   5.863
 3966SOL     OW12796   6.302   4.801   6.564
 3966SOL    HW112797   6.228   4.858   6.531
 3966SOL    HW212798   6.379   4.859   6.591
 3967SOL     OW12799   1.019   5.008   3.330
 3967SOL    HW112800   1.016   4.908   3.331
 3967SOL    HW212801   0.938   5.044   3.284
 3968SOL     OW12802   5.269   0.358   2.137
 3968SOL    HW112803   5.192   0.400   2.088
 3968SOL    HW212804   5.258   0.371   2.235
 3969SOL     OW12805   0.738   4.585   2.618
 3969SOL    HW112806   0.747   4.661   2.554
 3969SOL    HW212807   0.748   4.618   2.711
 3970SOL     OW12808   4.834   5.409   3.639
 3970SOL    HW112809   4.744   5.401   3.596
 3970SOL    HW212810   4.837   5.493   3.693
 3971SOL     OW12811   2.867   5.244   2.673
 3971SOL    HW112812   2.933   5.306   2.713
 3971SOL    HW212813   2.868   5.252   2.574
 3972SOL     OW12814   0.480   5.682   0.511
 3972SOL    HW112815   0.548   5.729   0.455
 3972SOL    HW212816   0.525   5.637   0.588
 3973SOL     OW12817   3.293   3.517   4.910
 3973SOL    HW112818   3.354   3.591   4.937
 3973SOL    HW212819   3.286   3.451   4.985
 3974SOL     OW12820   0.539   0.649   6.271
 3974SOL    HW112821   0.576   0.636   6.179
 3974SOL    HW212822   0.603   0.614   6.339
 3975SOL     OW12823   6.946   0.272   5.619
 3975SOL    HW112824   6.903   0.343   5.675
 3975SOL    HW212825   6.979   0.198   5.678
 3976SOL     OW12826   1.255   4.966   1.123
 3976SOL    HW112827   1.282   4.948   1.028
 3976SOL    HW212828   1.322   4.924   1.185
 3977SOL     OW12829   3.082   5.239   5.987
 3977SOL    HW112830   3.043   5.213   6.076
 3977SOL    HW212831   3.180   5.222   5.987
 3978SOL     OW12832   5.361   1.003   4.893
 3978SOL    HW112833   5.437   0.989   4.831
 3978SOL    HW212834   5.277   0.965   4.853
 3979SOL     OW12835   2.072   6.527   1.660
 3979SOL    HW112836   2.128   6.489   1.586
 3979SOL    HW212837   1.994   6.467   1.677
 3980SOL     OW12838   6.546   3.817   5.417
 3980SOL    HW112839   6.616   3.767   5.469
 3980SOL    HW212840   6.524   3.903   5.465
 3981SOL     OW12841   0.459   1.411   6.205
 3981SOL    HW112842   0.436   1.419   6.108
 3981SOL    HW212843   0.473   1.502   6.244
 3982SOL     OW12844   2.697   0.585   4.393
 3982SOL    HW112845   2.652   0.550   4.311
 3982SOL    HW212846   2.720   0.681   4.381
 3983SOL     OW12847   3.113   5.834   4.613
 3983SOL    HW112848   3.081   5.799   4.701
 3983SOL    HW212849   3.149   5.926   4.625
 3984SOL     OW12850   1.961   0.024   1.444
 3984SOL    HW112851   1.933   6.953   1.465
 3984SOL    HW212852   1.972   0.076   1.529
 3985SOL     OW12853   2.017   3.753   6.743
 3985SOL    HW112854   2.072   3.836   6.750
 3985SOL    HW212855   2.007   3.727   6.647
 3986SOL     OW12856   0.344   1.494   3.087
 3986SOL    HW112857   0.279   1.445   3.030
 3986SOL    HW212858   0.433   1.497   3.041
 3987SOL     OW12859   1.552   5.357   4.951
 3987SOL    HW112860   1.590   5.345   5.043
 3987SOL    HW212861   1.587   5.285   4.891
 3988SOL     OW12862   3.804   1.544   5.738
 3988SOL    HW112863   3.816   1.567   5.835
 3988SOL    HW212864   3.853   1.610   5.682
 3989SOL     OW12865   6.107   0.391   5.622
 3989SOL    HW112866   6.039   0.464   5.633
 3989SOL    HW212867   6.097   0.325   5.696
 3990SOL     OW12868   5.387   2.262   4.431
 3990SOL    HW112869   5.466   2.210   4.398
 3990SOL    HW212870   5.322   2.200   4.474
 3991SOL     OW12871   6.625   2.393   3.272
 3991SOL    HW112872   6.679   2.464   3.318
 3991SOL    HW212873   6.679   2.354   3.198
 3992SOL     OW12874   4.705   2.858   6.632
 3992SOL    HW112875   4.628   2.898   6.683
 3992SOL    HW212876   4.671   2.785   6.572
 3993SOL     OW12877   2.370   2.057   3.330
 3993SOL    HW112878   2.374   2.024   3.424
 3993SOL    HW212879   2.459   2.096   3.304
 3994SOL     OW12880   2.087   2.725   4.827
 3994SOL    HW112881   2.171   2.706   4.878
 3994SOL    HW212882   2.021   2.770   4.887
 3995SOL     OW12883   2.524   4.886   4.176
 3995SOL    HW112884   2.533   4.877   4.077
 3995SOL    HW212885   2.534   4.796   4.219
 3996SOL     OW12886   2.067   1.204   5.007
 3996SOL    HW112887   2.032   1.206   4.913
 3996SOL    HW212888   2.106   1.114   5.025
 3997SOL     OW12889   4.997   3.741   3.524
 3997SOL    HW112890   5.059   3.807   3.566
 3997SOL    HW212891   4.957   3.780   3.442
 3998SOL     OW12892   5.607   2.177   2.224
 3998SOL    HW112893   5.674   2.193   2.151
 3998SOL    HW212894   5.603   2.080   2.246
 3999SOL     OW12895   6.075   4.059   3.561
 3999SOL    HW112896   6.136   3.998   3.611
 3999SOL    HW212897   5.988   4.012   3.544
 4000SOL     OW12898   3.087   5.336   2.785
 4000SOL    HW112899   3.121   5.327   2.879
 4000SOL    HW212900   3.150   5.289   2.723
 4001SOL     OW12901   2.288   3.585   5.279
 4001SOL    HW112902   2.370   3.530   5.292
 4001SOL    HW212903   2.293   3.668   5.335
 4002SOL     OW12904   3.641   3.814   5.118
 4002SOL    HW112905   3.690   3.728   5.102
 4002SOL    HW212906   3.650   3.840   5.214
 4003SOL     OW12907   2.300   1.104   6.472
 4003SOL    HW112908   2.365   1.130   6.543
 4003SOL    HW212909   2.330   1.139   6.384
 4004SOL     OW12910   6.255   3.193   4.706
 4004SOL    HW112911   6.232   3.200   4.609
 4004SOL    HW212912   6.353   3.179   4.717
 4005SOL     OW12913   5.282   4.571   1.293
 4005SOL    HW112914   5.222   4.493   1.276
 4005SOL    HW212915   5.228   4.647   1.329
 4006SOL     OW12916   5.544   4.581   2.298
 4006SOL    HW112917   5.592   4.501   2.333
 4006SOL    HW212918   5.542   4.653   2.368
 4007SOL     OW12919   0.543   2.275   3.020
 4007SOL    HW112920   0.618   2.212   3.000
 4007SOL    HW212921   0.574   2.369   3.007
 4008SOL     OW12922   3.429   1.164   5.898
 4008SOL    HW112923   3.527   1.180   5.889
 4008SOL    HW212924   3.400   1.094   5.833
 4009SOL     OW12925   4.157   1.964   0.992
 4009SOL    HW112926   4.167   1.865   0.999
 4009SOL    HW212927   4.093   1.986   0.919
 4010SOL     OW12928   2.870   3.417   1.573
 4010SOL    HW112929   2.796   3.425   1.640
 4010SOL    HW212930   2.955   3.452   1.611
 4011SOL     OW12931   0.137   6.586   1.609
 4011SOL    HW112932   0.204   6.656   1.586
 4011SOL    HW212933   0.082   6.617   1.687
 4012SOL     OW12934   4.341   6.383   2.126
 4012SOL    HW112935   4.413   6.430   2.176
 4012SOL    HW212936   4.268   6.356   2.189
 4013SOL     OW12937   2.204   0.553   1.433
 4013SOL    HW112938   2.264   0.609   1.375
 4013SOL    HW212939   2.127   0.520   1.379
 4014SOL     OW12940   3.628   5.781   3.708
 4014SOL    HW112941   3.606   5.816   3.799
 4014SOL    HW212942   3.608   5.683   3.704
 4015SOL     OW12943   4.405   4.401   6.848
 4015SOL    HW112944   4.474   4.410   6.776
 4015SOL    HW212945   4.342   4.479   6.843
 4016SOL     OW12946   2.335   5.596   0.114
 4016SOL    HW112947   2.374   5.522   0.169
 4016SOL    HW212948   2.398   5.619   0.040
 4017SOL     OW12949   0.828   6.216   5.830
 4017SOL    HW112950   0.843   6.122   5.800
 4017SOL    HW212951   0.910   6.248   5.879
 4018SOL     OW12952   4.950   6.465   1.088
 4018SOL    HW112953   5.002   6.524   1.149
 4018SOL    HW212954   4.868   6.514   1.056
 4019SOL     OW12955   6.055   4.265   2.841
 4019SOL    HW112956   5.999   4.184   2.856
 4019SOL    HW212957   6.127   4.270   2.910
 4020SOL     OW12958   6.657   3.363   5.657
 4020SOL    HW112959   6.740   3.340   5.606
 4020SOL    HW212960   6.595   3.285   5.655
 4021SOL     OW12961   3.470   4.183   5.183
 4021SOL    HW112962   3.439   4.096   5.144
 4021SOL    HW212963   3.543   4.220   5.126
 4022SOL     OW12964   4.138   0.038   6.979
 4022SOL    HW112965   4.178   0.128   6.997
 4022SOL    HW212966   4.041   0.048   6.960
 4023SOL     OW12967   0.483   0.559   5.029
 4023SOL    HW112968   0.494   0.511   5.117
 4023SOL    HW212969   0.394   0.536   4.990
 4024SOL     OW12970   2.427   5.470   4.582
 4024SOL    HW112971   2.486   5.394   4.554
 4024SOL    HW212972   2.464   5.512   4.665
 4025SOL     OW12973   1.070   5.907   3.849
 4025SOL    HW112974   1.121   5.973   3.794
 4025SOL    HW212975   0.997   5.867   3.793
 4026SOL     OW12976   6.044   6.630   3.259
 4026SOL    HW112977   5.957   6.660   3.219
 4026SOL    HW212978   6.025   6.573   3.339
 4027SOL     OW12979   2.909   2.382   0.173
 4027SOL    HW112980   2.830   2.412   0.226
 4027SOL    HW212981   2.878   2.332   0.092
 4028SOL     OW12982   3.756   1.565   3.659
 4028SOL    HW112983   3.842   1.613   3.676
 4028SOL    HW212984   3.693   1.626   3.611
 4029SOL     OW12985   2.871   4.620   5.833
 4029SOL    HW112986   2.914   4.562   5.764
 4029SOL    HW212987   2.872   4.715   5.801
 4030SOL     OW12988   0.381   1.747   1.788
 4030SOL    HW112989   0.364   1.674   1.855
 4030SOL    HW212990   0.294   1.790   1.763
 4031SOL     OW12991   5.501   6.107   3.758
 4031SOL    HW112992   5.539   6.015   3.766
 4031SOL    HW212993   5.418   6.114   3.813
 4032SOL     OW12994   6.822   0.487   1.952
 4032SOL    HW112995   6.845   0.497   1.855
 4032SOL    HW212996   6.760   0.559   1.980
 4033SOL     OW12997   2.191   2.999   1.539
 4033SOL    HW112998   2.114   3.044   1.583
 4033SOL    HW212999   2.276   3.027   1.584
 4034SOL     OW13000   6.189   1.884   4.672
 4034SOL    HW113001   6.218   1.871   4.577
 4034SOL    HW213002   6.165   1.980   4.687
 4035SOL     OW13003   6.320   1.968   1.321
 4035SOL    HW113004   6.367   1.967   1.234
 4035SOL    HW213005   6.272   1.881   1.335
 4036SOL     OW13006   4.331   5.433   2.184
 4036SOL    HW113007   4.244   5.463   2.224
 4036SOL    HW213008   4.394   5.510   2.180
 4037SOL     OW13009   2.156   1.533   6.966
 4037SOL    HW113010   2.066   1.529   7.009
 4037SOL    HW213011   2.199   1.443   6.970
 4038SOL     OW13012   4.686   2.891   1.464
 4038SOL    HW113013   4.683   2.923   1.559
 4038SOL    HW213014   4.673   2.969   1.403
 4039SOL     OW13015   6.157   5.362   1.405
 4039SOL    HW113016   6.257   5.365   1.400
 4039SOL    HW213017   6.128   5.279   1.454
 4040SOL     OW13018   3.723   0.369   5.927
 4040SOL    HW113019   3.718   0.427   6.008
 4040SOL    HW213020   3.793   0.404   5.865
 4041SOL     OW13021   1.082   5.217   1.354
 4041SOL    HW113022   1.077   5.226   1.454
 4041SOL    HW213023   1.058   5.123   1.328
 4042SOL     OW13024   6.112   5.620   3.044
 4042SOL    HW113025   6.193   5.668   3.077
 4042SOL    HW213026   6.137   5.530   3.010
 4043SOL     OW13027   6.560   2.473   5.150
 4043SOL    HW113028   6.549   2.434   5.242
 4043SOL    HW213029   6.595   2.403   5.088
 4044SOL     OW13030   4.564   6.897   3.404
 4044SOL    HW113031   4.491   6.858   3.459
 4044SOL    HW213032   4.526   6.954   3.331
 4045SOL     OW13033   3.838   5.977   5.206
 4045SOL    HW113034   3.876   5.885   5.215
 4045SOL    HW213035   3.738   5.973   5.208
 4046SOL     OW13036   1.280   1.886   4.088
 4046SOL    HW113037   1.371   1.926   4.090
 4046SOL    HW213038   1.287   1.788   4.066
 4047SOL     OW13039   1.927   2.291   0.647
 4047SOL    HW113040   1.881   2.246   0.570
 4047SOL    HW213041   1.992   2.228   0.689
 4048SOL     OW13042   4.827   1.932   1.818
 4048SOL    HW113043   4.899   2.001   1.817
 4048SOL    HW213044   4.738   1.976   1.804
 4049SOL     OW13045   5.853   5.032   6.376
 4049SOL    HW113046   5.869   5.107   6.312
 4049SOL    HW213047   5.756   5.005   6.373
 4050SOL     OW13048   1.426   6.969   1.679
 4050SOL    HW113049   1.483   6.887   1.676
 4050SOL    HW213050   1.336   6.949   1.641
 4051SOL     OW13051   4.300   1.920   6.948
 4051SOL    HW113052   4.300   1.933   6.849
 4051SOL    HW213053   4.337   1.829   6.969
 4052SOL     OW13054   6.541   1.441   2.781
 4052SOL    HW113055   6.617   1.490   2.739
 4052SOL    HW213056   6.525   1.356   2.730
 4053SOL     OW13057   2.960   5.671   3.944
 4053SOL    HW113058   2.904   5.729   4.003
 4053SOL    HW213059   2.986   5.588   3.993
 4054SOL     OW13060   6.372   4.112   1.737
 4054SOL    HW113061   6.307   4.058   1.684
 4054SOL    HW213062   6.358   4.209   1.717
 4055SOL     OW13063   3.111   3.060   0.289
 4055SOL    HW113064   3.098   3.155   0.261
 4055SOL    HW213065   3.035   3.004   0.255
 4056SOL     OW13066   4.098   4.038   0.235
 4056SOL    HW113067   4.073   4.075   0.145
 4056SOL    HW213068   4.186   4.077   0.263
 4057SOL     OW13069   6.176   2.975   1.374
 4057SOL    HW113070   6.190   3.073   1.387
 4057SOL    HW213071   6.263   2.927   1.385
 4058SOL     OW13072   1.817   0.230   4.568
 4058SOL    HW113073   1.758   0.269   4.497
 4058SOL    HW213074   1.859   0.305   4.621
 4059SOL     OW13075   1.373   1.864   3.090
 4059SOL    HW113076   1.338   1.896   3.178
 4059SOL    HW213077   1.366   1.937   3.022
 4060SOL     OW13078   5.454   5.780   5.082
 4060SOL    HW113079   5.506   5.788   5.167
 4060SOL    HW213080   5.470   5.691   5.041
 4061SOL     OW13081   2.774   4.815   2.240
 4061SOL    HW113082   2.782   4.733   2.184
 4061SOL    HW213083   2.857   4.870   2.232
 4062SOL     OW13084   1.889   2.058   2.307
 4062SOL    HW113085   1.909   2.148   2.348
 4062SOL    HW213086   1.892   1.988   2.378
 4063SOL     OW13087   6.146   6.400   6.706
 4063SOL    HW113088   6.165   6.303   6.692
 4063SOL    HW213089   6.123   6.416   6.802
 4064SOL     OW13090   2.908   0.384   4.150
 4064SOL    HW113091   2.830   0.327   4.123
 4064SOL    HW213092   2.883   0.480   4.142
 4065SOL     OW13093   0.751   0.202   0.993
 4065SOL    HW113094   0.781   0.214   1.088
 4065SOL    HW213095   0.828   0.215   0.932
 4066SOL     OW13096   5.489   5.148   3.914
 4066SOL    HW113097   5.434   5.154   3.830
 4066SOL    HW213098   5.451   5.077   3.973
 4067SOL     OW13099   6.150   3.135   2.954
 4067SOL    HW113100   6.195   3.055   2.914
 4067SOL    HW213101   6.119   3.112   3.047
 4068SOL     OW13102   2.148   1.551   4.558
 4068SOL    HW113103   2.172   1.648   4.549
 4068SOL    HW213104   2.150   1.525   4.655
 4069SOL     OW13105   2.321   4.884   6.311
 4069SOL    HW113106   2.241   4.882   6.372
 4069SOL    HW213107   2.291   4.870   6.217
 4070SOL     OW13108   0.294   3.729   2.336
 4070SOL    HW113109   0.333   3.809   2.382
 4070SOL    HW213110   0.200   3.749   2.307
 4071SOL     OW13111   1.644   0.808   5.420
 4071SOL    HW113112   1.557   0.809   5.371
 4071SOL    HW213113   1.701   0.734   5.385
 4072SOL     OW13114   0.071   5.588   4.515
 4072SOL    HW113115   0.120   5.530   4.580
 4072SOL    HW213116   0.134   5.625   4.448
 4073SOL     OW13117   2.572   6.233   6.412
 4073SOL    HW113118   2.539   6.243   6.506
 4073SOL    HW213119   2.655   6.287   6.400
 4074SOL     OW13120   6.881   3.406   2.018
 4074SOL    HW113121   6.943   3.467   2.067
 4074SOL    HW213122   6.892   3.312   2.050
 4075SOL     OW13123   3.696   1.822   1.903
 4075SOL    HW113124   3.750   1.829   1.986
 4075SOL    HW213125   3.746   1.863   1.827
 4076SOL     OW13126   2.626   2.630   5.495
 4076SOL    HW113127   2.605   2.608   5.591
 4076SOL    HW213128   2.543   2.625   5.440
 4077SOL     OW13129   2.869   0.789   0.398
 4077SOL    HW113130   2.940   0.728   0.363
 4077SOL    HW213131   2.809   0.816   0.323
 4078SOL     OW13132   0.183   5.728   2.034
 4078SOL    HW113133   0.091   5.757   2.060
 4078SOL    HW213134   0.214   5.783   1.956
 4079SOL     OW13135   1.188   1.893   3.625
 4079SOL    HW113136   1.192   1.963   3.554
 4079SOL    HW213137   1.179   1.936   3.715
 4080SOL     OW13138   3.509   4.521   6.628
 4080SOL    HW113139   3.521   4.444   6.690
 4080SOL    HW213140   3.568   4.510   6.548
 4081SOL     OW13141   1.595   2.856   4.742
 4081SOL    HW113142   1.498   2.837   4.727
 4081SOL    HW213143   1.650   2.784   4.699
 4082SOL     OW13144   1.404   3.072   0.692
 4082SOL    HW113145   1.460   3.154   0.705
 4082SOL    HW213146   1.463   2.992   0.681
 4083SOL     OW13147   7.015   4.649   1.822
 4083SOL    HW113148   6.933   4.700   1.845
 4083SOL    HW213149   7.019   4.636   1.723
 4084SOL     OW13150   4.727   2.235   3.588
 4084SOL    HW113151   4.760   2.280   3.670
 4084SOL    HW213152   4.776   2.270   3.508
 4085SOL     OW13153   2.039   6.083   0.831
 4085SOL    HW113154   1.945   6.105   0.857
 4085SOL    HW213155   2.041   6.053   0.736
 4086SOL     OW13156   0.969   5.199   1.737
 4086SOL    HW113157   0.926   5.255   1.806
 4086SOL    HW213158   1.061   5.233   1.718
 4087SOL     OW13159   1.918   1.325   3.449
 4087SOL    HW113160   1.925   1.415   3.406
 4087SOL    HW213161   2.006   1.278   3.445
 4088SOL     OW13162   6.499   0.742   6.540
 4088SOL    HW113163   6.471   0.831   6.505
 4088SOL    HW213164   6.438   0.715   6.614
 4089SOL     OW13165   5.811   5.285   4.297
 4089SOL    HW113166   5.806   5.348   4.220
 4089SOL    HW213167   5.824   5.336   4.382
 4090SOL     OW13168   1.480   5.653   5.210
 4090SOL    HW113169   1.392   5.679   5.170
 4090SOL    HW213170   1.526   5.735   5.245
 4091SOL     OW13171   6.617   6.599   6.476
 4091SOL    HW113172   6.684   6.611   6.402
 4091SOL    HW213173   6.539   6.659   6.460
 4092SOL     OW13174   5.642   2.512   4.865
 4092SOL    HW113175   5.615   2.531   4.960
 4092SOL    HW213176   5.650   2.414   4.852
 4093SOL     OW13177   4.510   5.670   2.137
 4093SOL    HW113178   4.491   5.755   2.088
 4093SOL    HW213179   4.578   5.617   2.085
 4094SOL     OW13180   1.831   5.585   5.655
 4094SOL    HW113181   1.926   5.563   5.631
 4094SOL    HW213182   1.808   5.676   5.620
 4095SOL     OW13183   1.038   3.311   0.706
 4095SOL    HW113184   1.090   3.266   0.633
 4095SOL    HW213185   0.941   3.313   0.682
 4096SOL     OW13186   4.737   6.907   6.350
 4096SOL    HW113187   4.727   6.849   6.269
 4096SOL    HW213188   4.699   6.861   6.430
 4097SOL     OW13189   4.135   4.901   4.756
 4097SOL    HW113190   4.226   4.865   4.773
 4097SOL    HW213191   4.111   4.886   4.660
 4098SOL     OW13192   6.846   2.508   1.768
 4098SOL    HW113193   6.812   2.427   1.816
 4098SOL    HW213194   6.943   2.520   1.787
 4099SOL     OW13195   3.142   4.951   1.063
 4099SOL    HW113196   3.075   5.025   1.054
 4099SOL    HW213197   3.104   4.868   1.022
 4100SOL     OW13198   6.783   0.300   4.705
 4100SOL    HW113199   6.833   0.235   4.762
 4100SOL    HW213200   6.821   0.392   4.718
 4101SOL     OW13201   6.225   1.047   6.581
 4101SOL    HW113202   6.261   0.997   6.502
 4101SOL    HW213203   6.147   0.996   6.619
 4102SOL     OW13204   0.635   0.849   0.422
 4102SOL    HW113205   0.619   0.850   0.520
 4102SOL    HW213206   0.618   0.757   0.386
 4103SOL     OW13207   6.785   0.063   0.024
 4103SOL    HW113208   6.868   0.092   0.072
 4103SOL    HW213209   6.708   0.064   0.089
 4104SOL     OW13210   6.900   4.762   2.792
 4104SOL    HW113211   6.969   4.825   2.828
 4104SOL    HW213212   6.922   4.739   2.698
 4105SOL     OW13213   5.494   6.824   1.686
 4105SOL    HW113214   5.544   6.881   1.621
 4105SOL    HW213215   5.476   6.735   1.644
 4106SOL     OW13216   6.429   2.971   2.867
 4106SOL    HW113217   6.474   3.005   2.784
 4106SOL    HW213218   6.495   2.969   2.942
 4107SOL     OW13219   1.064   5.009   0.853
 4107SOL    HW113220   1.057   4.981   0.948
 4107SOL    HW213221   1.153   4.981   0.816
 4108SOL     OW13222   6.099   4.762   5.393
 4108SOL    HW113223   6.108   4.680   5.336
 4108SOL    HW213224   6.106   4.738   5.489
 4109SOL     OW13225   6.115   6.747   4.761
 4109SOL    HW113226   6.131   6.846   4.757
 4109SOL    HW213227   6.034   6.729   4.816
 4110SOL     OW13228   4.529   3.589   6.087
 4110SOL    HW113229   4.508   3.645   6.007
 4110SOL    HW213230   4.515   3.492   6.065
 4111SOL     OW13231   5.341   4.007   0.254
 4111SOL    HW113232   5.370   4.060   0.333
 4111SOL    HW213233   5.297   4.068   0.187
 4112SOL     OW13234   4.738   6.286   4.836
 4112SOL    HW113235   4.648   6.320   4.863
 4112SOL    HW213236   4.734   6.252   4.742
 4113SOL     OW13237   4.876   6.241   5.078
 4113SOL    HW113238   4.908   6.325   5.122
 4113SOL    HW213239   4.818   6.264   5.000
 4114SOL     OW13240   3.546   2.117   4.517
 4114SOL    HW113241   3.449   2.113   4.492
 4114SOL    HW213242   3.596   2.164   4.445
 4115SOL     OW13243   3.519   5.331   1.779
 4115SOL    HW113244   3.551   5.278   1.701
 4115SOL    HW213245   3.419   5.325   1.785
 4116SOL     OW13246   3.136   0.920   2.637
 4116SOL    HW113247   3.109   1.015   2.642
 4116SOL    HW213248   3.070   0.868   2.582
 4117SOL     OW13249   1.612   3.901   2.295
 4117SOL    HW113250   1.525   3.900   2.344
 4117SOL    HW213251   1.672   3.971   2.335
 4118SOL     OW13252   4.145   6.037   0.122
 4118SOL    HW113253   4.047   6.055   0.121
 4118SOL    HW213254   4.161   5.938   0.115
 4119SOL     OW13255   3.091   1.905   3.754
 4119SOL    HW113256   3.081   1.899   3.853
 4119SOL    HW213257   3.002   1.923   3.712
 4120SOL     OW13258   3.627   1.094   6.460
 4120SOL    HW113259   3.557   1.144   6.408
 4120SOL    HW213260   3.587   1.063   6.547
 4121SOL     OW13261   5.725   0.960   4.534
 4121SOL    HW113262   5.822   0.981   4.525
 4121SOL    HW213263   5.701   0.884   4.474
 4122SOL     OW13264   1.247   5.625   4.462
 4122SOL    HW113265   1.312   5.700   4.450
 4122SOL    HW213266   1.165   5.659   4.507
 4123SOL     OW13267   4.122   4.644   5.392
 4123SOL    HW113268   4.027   4.664   5.415
 4123SOL    HW213269   4.172   4.617   5.474
 4124SOL     OW13270   0.120   6.135   0.332
 4124SOL    HW113271   0.218   6.120   0.346
 4124SOL    HW213272   0.099   6.232   0.347
 4125SOL     OW13273   5.109   1.522   2.064
 4125SOL    HW113274   5.153   1.546   1.977
 4125SOL    HW213275   5.142   1.584   2.135
 4126SOL     OW13276   1.641   3.436   4.271
 4126SOL    HW113277   1.568   3.413   4.207
 4126SOL    HW213278   1.660   3.534   4.265
 4127SOL     OW13279   4.987   4.906   5.076
 4127SOL    HW113280   4.937   4.844   5.135
 4127SOL    HW213281   5.023   4.982   5.130
 4128SOL     OW13282   1.166   2.649   1.727
 4128SOL    HW113283   1.205   2.738   1.705
 4128SOL    HW213284   1.066   2.654   1.722
 4129SOL     OW13285   4.103   1.269   5.780
 4129SOL    HW113286   4.016   1.239   5.743
 4129SOL    HW213287   4.095   1.281   5.879
 4130SOL     OW13288   6.531   3.518   6.847
 4130SOL    HW113289   6.573   3.555   6.764
 4130SOL    HW213290   6.532   3.418   6.843
 4131SOL     OW13291   0.677   1.033   3.739
 4131SOL    HW113292   0.655   0.947   3.785
 4131SOL    HW213293   0.592   1.076   3.707
 4132SOL     OW13294   5.149   4.339   3.603
 4132SOL    HW113295   5.247   4.359   3.591
 4132SOL    HW213296   5.137   4.267   3.671
 4133SOL     OW13297   2.978   5.653   0.665
 4133SOL    HW113298   3.002   5.572   0.719
 4133SOL    HW213299   3.040   5.728   0.688
 4134SOL     OW13300   2.156   3.419   1.157
 4134SOL    HW113301   2.192   3.347   1.097
 4134SOL    HW213302   2.172   3.394   1.252
 4135SOL     OW13303   1.336   1.683   2.740
 4135SOL    HW113304   1.290   1.656   2.825
 4135SOL    HW213305   1.421   1.632   2.730
 4136SOL     OW13306   1.320   2.533   3.666
 4136SOL    HW113307   1.288   2.607   3.725
 4136SOL    HW213308   1.393   2.567   3.606
 4137SOL     OW13309   1.243   4.331   1.083
 4137SOL    HW113310   1.219   4.239   1.115
 4137SOL    HW213311   1.263   4.389   1.162
 4138SOL     OW13312   4.886   5.429   2.867
 4138SOL    HW113313   4.884   5.372   2.785
 4138SOL    HW213314   4.844   5.517   2.848
 4139SOL     OW13315   2.052   1.930   5.793
 4139SOL    HW113316   2.016   1.943   5.886
 4139SOL    HW213317   2.056   2.017   5.746
 4140SOL     OW13318   3.496   0.136   5.375
 4140SOL    HW113319   3.496   0.037   5.366
 4140SOL    HW213320   3.430   0.176   5.311
 4141SOL     OW13321   5.945   6.404   0.686
 4141SOL    HW113322   5.855   6.395   0.643
 4141SOL    HW213323   5.998   6.473   0.637
 4142SOL     OW13324   6.606   4.835   1.244
 4142SOL    HW113325   6.658   4.919   1.227
 4142SOL    HW213326   6.623   4.803   1.337
 4143SOL     OW13327   5.819   1.577   0.589
 4143SOL    HW113328   5.755   1.502   0.605
 4143SOL    HW213329   5.823   1.598   0.491
 4144SOL     OW13330   4.815   3.152   0.138
 4144SOL    HW113331   4.833   3.069   0.189
 4144SOL    HW213332   4.880   3.223   0.166
 4145SOL     OW13333   6.959   6.246   1.415
 4145SOL    HW113334   7.001   6.179   1.354
 4145SOL    HW213335   6.979   6.338   1.383
 4146SOL     OW13336   6.744   0.626   3.409
 4146SOL    HW113337   6.684   0.581   3.475
 4146SOL    HW213338   6.689   0.662   3.334
 4147SOL     OW13339   5.174   4.035   6.477
 4147SOL    HW113340   5.137   4.005   6.565
 4147SOL    HW213341   5.128   3.984   6.404
 4148SOL     OW13342   1.563   0.356   5.445
 4148SOL    HW113343   1.543   0.419   5.370
 4148SOL    HW213344   1.642   0.300   5.421
 4149SOL     OW13345   0.266   3.226   0.593
 4149SOL    HW113346   0.214   3.310   0.579
 4149SOL    HW213347   0.255   3.194   0.687
 4150SOL     OW13348   1.475   0.794   5.696
 4150SOL    HW113349   1.430   0.844   5.622
 4150SOL    HW213350   1.429   0.706   5.710
 4151SOL     OW13351   2.568   5.949   6.061
 4151SOL    HW113352   2.506   5.875   6.035
 4151SOL    HW213353   2.660   5.929   6.027
 4152SOL     OW13354   4.608   5.816   0.795
 4152SOL    HW113355   4.515   5.839   0.824
 4152SOL    HW213356   4.639   5.882   0.727
 4153SOL     OW13357   4.524   5.554   0.072
 4153SOL    HW113358   4.549   5.651   0.074
 4153SOL    HW213359   4.511   5.525   7.000
 4154SOL     OW13360   0.019   5.210   3.320
 4154SOL    HW113361   0.063   5.282   3.372
 4154SOL    HW213362   6.982   5.250   3.250
 4155SOL     OW13363   1.295   0.893   2.985
 4155SOL    HW113364   1.378   0.919   2.936
 4155SOL    HW213365   1.280   0.957   3.061
 4156SOL     OW13366   5.144   6.094   5.160
 4156SOL    HW113367   5.128   6.014   5.103
 4156SOL    HW213368   5.070   6.160   5.148
 4157SOL     OW13369   4.838   5.534   3.875
 4157SOL    HW113370   4.852   5.499   3.968
 4157SOL    HW213371   4.793   5.624   3.880
 4158SOL     OW13372   0.608   3.982   1.891
 4158SOL    HW113373   0.601   3.899   1.946
 4158SOL    HW213374   0.611   3.958   1.794
 4159SOL     OW13375   1.698   3.539   3.796
 4159SOL    HW113376   1.724   3.443   3.804
 4159SOL    HW213377   1.739   3.579   3.715
 4160SOL     OW13378   6.002   1.164   0.939
 4160SOL    HW113379   5.948   1.210   1.009
 4160SOL    HW213380   6.046   1.083   0.979
 4161SOL     OW13381   1.043   1.511   0.740
 4161SOL    HW113382   1.074   1.586   0.798
 4161SOL    HW213383   0.971   1.460   0.786
 4162SOL     OW13384   6.995   6.054   6.469
 4162SOL    HW113385   6.988   6.152   6.448
 4162SOL    HW213386   0.031   6.010   6.401
 4163SOL     OW13387   5.020   6.668   3.351
 4163SOL    HW113388   5.057   6.678   3.443
 4163SOL    HW213389   5.044   6.578   3.315
 4164SOL     OW13390   1.876   6.439   6.192
 4164SOL    HW113391   1.864   6.506   6.119
 4164SOL    HW213392   1.881   6.347   6.153
 4165SOL     OW13393   4.169   7.004   6.486
 4165SOL    HW113394   4.205   6.918   6.523
 4165SOL    HW213395   4.173   7.002   6.386
 4166SOL     OW13396   6.203   2.823   0.636
 4166SOL    HW113397   6.120   2.809   0.690
 4166SOL    HW213398   6.191   2.783   0.545
 4167SOL     OW13399   1.501   3.755   1.064
 4167SOL    HW113400   1.468   3.812   0.989
 4167SOL    HW213401   1.455   3.666   1.062
 4168SOL     OW13402   6.553   4.614   1.502
 4168SOL    HW113403   6.527   4.601   1.598
 4168SOL    HW213404   6.637   4.669   1.498
 4169SOL     OW13405   5.832   4.344   4.288
 4169SOL    HW113406   5.882   4.360   4.373
 4169SOL    HW213407   5.890   4.370   4.211
 4170SOL     OW13408   4.664   4.340   5.692
 4170SOL    HW113409   4.628   4.278   5.762
 4170SOL    HW213410   4.588   4.390   5.650
 4171SOL     OW13411   6.647   5.524   0.314
 4171SOL    HW113412   6.709   5.551   0.240
 4171SOL    HW213413   6.554   5.522   0.279
 4172SOL     OW13414   0.726   1.677   6.031
 4172SOL    HW113415   0.706   1.727   6.115
 4172SOL    HW213416   0.640   1.657   5.984
 4173SOL     OW13417   5.263   4.062   5.640
 4173SOL    HW113418   5.245   4.015   5.554
 4173SOL    HW213419   5.330   4.011   5.693
 4174SOL     OW13420   5.379   0.786   3.187
 4174SOL    HW113421   5.402   0.753   3.279
 4174SOL    HW213422   5.359   0.709   3.128
 4175SOL     OW13423   2.474   6.097   4.354
 4175SOL    HW113424   2.501   6.110   4.449
 4175SOL    HW213425   2.497   6.179   4.301
 4176SOL     OW13426   2.913   6.162   1.912
 4176SOL    HW113427   2.911   6.084   1.850
 4176SOL    HW213428   2.820   6.198   1.924
 4177SOL     OW13429   6.102   4.356   5.285
 4177SOL    HW113430   6.133   4.282   5.225
 4177SOL    HW213431   6.121   4.444   5.242
 4178SOL     OW13432   5.061   0.604   4.237
 4178SOL    HW113433   5.149   0.585   4.194
 4178SOL    HW213434   4.994   0.536   4.209
 4179SOL     OW13435   4.692   2.527   3.502
 4179SOL    HW113436   4.742   2.451   3.460
 4179SOL    HW213437   4.606   2.494   3.541
 4180SOL     OW13438   5.549   4.610   0.967
 4180SOL    HW113439   5.645   4.594   0.945
 4180SOL    HW213440   5.491   4.566   0.898
 4181SOL     OW13441   2.398   1.428   1.227
 4181SOL    HW113442   2.336   1.358   1.191
 4181SOL    HW213443   2.451   1.390   1.302
 4182SOL     OW13444   0.756   6.824   3.146
 4182SOL    HW113445   0.800   6.827   3.056
 4182SOL    HW213446   0.749   6.917   3.183
 4183SOL     OW13447   4.091   1.256   0.018
 4183SOL    HW113448   4.071   1.353   0.003
 4183SOL    HW213449   4.088   1.236   0.116
 4184SOL     OW13450   4.893   5.031   1.551
 4184SOL    HW113451   4.852   4.992   1.634
 4184SOL    HW213452   4.829   5.096   1.510
 4185SOL     OW13453   0.553   5.608   2.425
 4185SOL    HW113454   0.457   5.623   2.451
 4185SOL    HW213455   0.612   5.628   2.503
 4186SOL     OW13456   2.083   4.934   0.240
 4186SOL    HW113457   2.154   4.917   0.171
 4186SOL    HW213458   2.004   4.876   0.220
 4187SOL     OW13459   3.574   3.283   5.726
 4187SOL    HW113460   3.574   3.288   5.626
 4187SOL    HW213461   3.481   3.296   5.760
 4188SOL     OW13462   4.699   0.141   4.389
 4188SOL    HW113463   4.795   0.148   4.417
 4188SOL    HW213464   4.683   0.201   4.311
 4189SOL     OW13465   3.872   6.549   5.148
 4189SOL    HW113466   3.823   6.496   5.079
 4189SOL    HW213467   3.878   6.496   5.233
 4190SOL     OW13468   0.854   0.821   6.833
 4190SOL    HW113469   0.926   0.759   6.803
 4190SOL    HW213470   0.765   0.787   6.802
 4191SOL     OW13471   5.094   3.874   3.111
 4191SOL    HW113472   5.123   3.962   3.072
 4191SOL    HW213473   5.006   3.886   3.158
 4192SOL     OW13474   0.644   1.264   4.147
 4192SOL    HW113475   0.568   1.242   4.208
 4192SOL    HW213476   0.662   1.186   4.087
 4193SOL     OW13477   1.373   0.415   2.198
 4193SOL    HW113478   1.336   0.391   2.288
 4193SOL    HW213479   1.335   0.354   2.128
 4194SOL     OW13480   5.671   0.896   5.057
 4194SOL    HW113481   5.686   0.916   5.153
 4194SOL    HW213482   5.704   0.973   5.002
 4195SOL     OW13483   4.220   6.489   1.869
 4195SOL    HW113484   4.141   6.543   1.897
 4195SOL    HW213485   4.255   6.438   1.948
 4196SOL     OW13486   5.121   2.034   3.508
 4196SOL    HW113487   5.214   2.016   3.474
 4196SOL    HW213488   5.101   1.972   3.584
 4197SOL     OW13489   5.130   6.000   5.956
 4197SOL    HW113490   5.119   6.026   5.860
 4197SOL    HW213491   5.217   6.035   5.990
 4198SOL     OW13492   5.742   3.433   0.462
 4198SOL    HW113493   5.748   3.365   0.389
 4198SOL    HW213494   5.826   3.488   0.463
 4199SOL     OW13495   2.193   2.881   6.210
 4199SOL    HW113496   2.122   2.872   6.140
 4199SOL    HW213497   2.186   2.806   6.275
 4200SOL     OW13498   3.279   6.581   6.044
 4200SOL    HW113499   3.239   6.657   6.097
 4200SOL    HW213500   3.275   6.604   5.947
 4201SOL     OW13501   6.194   6.173   3.706
 4201SOL    HW113502   6.284   6.185   3.748
 4201SOL    HW213503   6.197   6.096   3.642
 4202SOL     OW13504   4.037   5.139   5.763
 4202SOL    HW113505   4.022   5.140   5.664
 4202SOL    HW213506   4.128   5.175   5.784
 4203SOL     OW13507   5.028   5.154   0.531
 4203SOL    HW113508   4.999   5.217   0.603
 4203SOL    HW213509   5.092   5.200   0.470
 4204SOL     OW13510   4.094   3.269   2.579
 4204SOL    HW113511   4.059   3.360   2.558
 4204SOL    HW213512   4.092   3.254   2.678
 4205SOL     OW13513   4.256   5.512   3.302
 4205SOL    HW113514   4.184   5.571   3.337
 4205SOL    HW213515   4.289   5.453   3.376
 4206SOL     OW13516   6.891   0.545   5.662
 4206SOL    HW113517   6.915   0.534   5.566
 4206SOL    HW213518   6.920   0.635   5.694
 4207SOL     OW13519   1.470   1.005   1.635
 4207SOL    HW113520   1.448   1.098   1.663
 4207SOL    HW213521   1.443   0.942   1.708
 4208SOL     OW13522   0.922   3.967   6.487
 4208SOL    HW113523   0.986   3.914   6.433
 4208SOL    HW213524   0.882   4.039   6.430
 4209SOL     OW13525   0.494   1.227   5.744
 4209SOL    HW113526   0.495   1.129   5.723
 4209SOL    HW213527   0.588   1.258   5.759
 4210SOL     OW13528   2.878   3.340   2.220
 4210SOL    HW113529   2.780   3.353   2.207
 4210SOL    HW213530   2.896   3.309   2.313
 4211SOL     OW13531   3.993   5.560   5.595
 4211SOL    HW113532   3.947   5.647   5.574
 4211SOL    HW213533   3.974   5.495   5.522
 4212SOL     OW13534   6.116   2.337   2.688
 4212SOL    HW113535   6.082   2.395   2.762
 4212SOL    HW213536   6.091   2.242   2.706
 4213SOL     OW13537   2.288   0.999   1.840
 4213SOL    HW113538   2.374   1.044   1.815
 4213SOL    HW213539   2.244   1.050   1.914
 4214SOL     OW13540   1.587   4.705   5.438
 4214SOL    HW113541   1.549   4.788   5.396
 4214SOL    HW213542   1.601   4.636   5.368
 4215SOL     OW13543   6.752   6.113   4.699
 4215SOL    HW113544   6.835   6.138   4.749
 4215SOL    HW213545   6.749   6.162   4.612
 4216SOL     OW13546   1.240   1.685   3.307
 4216SOL    HW113547   1.266   1.625   3.383
 4216SOL    HW213548   1.260   1.780   3.332
 4217SOL     OW13549   6.984   0.352   3.054
 4217SOL    HW113550   6.964   0.262   3.015
 4217SOL    HW213551   0.039   0.393   3.005
 4218SOL     OW13552   4.533   0.806   1.803
 4218SOL    HW113553   4.439   0.840   1.811
 4218SOL    HW213554   4.573   0.839   1.717
 4219SOL     OW13555   2.829   5.117   3.474
 4219SOL    HW113556   2.828   5.038   3.535
 4219SOL    HW213557   2.781   5.193   3.517
 4220SOL     OW13558   5.593   2.757   3.439
 4220SOL    HW113559   5.495   2.772   3.432
 4220SOL    HW213560   5.610   2.665   3.476
 4221SOL     OW13561   5.802   5.449   6.507
 4221SOL    HW113562   5.720   5.481   6.554
 4221SOL    HW213563   5.877   5.441   6.572
 4222SOL     OW13564   5.898   2.322   3.108
 4222SOL    HW113565   5.893   2.228   3.075
 4222SOL    HW213566   5.828   2.336   3.178
 4223SOL     OW13567   3.188   3.412   5.615
 4223SOL    HW113568   3.184   3.509   5.640
 4223SOL    HW213569   3.126   3.396   5.537
 4224SOL     OW13570   4.878   3.205   3.108
 4224SOL    HW113571   4.947   3.273   3.134
 4224SOL    HW213572   4.816   3.246   3.041
 4225SOL     OW13573   4.025   0.579   5.495
 4225SOL    HW113574   4.015   0.529   5.409
 4225SOL    HW213575   4.101   0.644   5.488
 4226SOL     OW13576   0.683   0.932   2.474
 4226SOL    HW113577   0.766   0.918   2.528
 4226SOL    HW213578   0.688   0.878   2.390
 4227SOL     OW13579   3.911   4.945   6.617
 4227SOL    HW113580   3.926   4.964   6.714
 4227SOL    HW213581   3.813   4.941   6.598
 4228SOL     OW13582   0.852   3.599   4.399
 4228SOL    HW113583   0.894   3.651   4.473
 4228SOL    HW213584   0.790   3.530   4.437
 4229SOL     OW13585   4.783   5.120   5.155
 4229SOL    HW113586   4.863   5.119   5.215
 4229SOL    HW213587   4.813   5.119   5.060
 4230SOL     OW13588   2.007   0.598   3.969
 4230SOL    HW113589   1.954   0.625   4.049
 4230SOL    HW213590   1.946   0.579   3.893
 4231SOL     OW13591   5.678   6.551   4.774
 4231SOL    HW113592   5.664   6.636   4.724
 4231SOL    HW213593   5.647   6.474   4.719
 4232SOL     OW13594   0.352   4.690   2.661
 4232SOL    HW113595   0.399   4.773   2.630
 4232SOL    HW213596   0.308   4.645   2.583
 4233SOL     OW13597   6.987   0.436   0.247
 4233SOL    HW113598   0.062   0.458   0.243
 4233SOL    HW213599   6.976   0.340   0.271
 4234SOL     OW13600   1.504   0.007   6.002
 4234SOL    HW113601   1.461   0.074   5.941
 4234SOL    HW213602   1.438   6.999   6.070
 4235SOL     OW13603   5.574   4.083   5.865
 4235SOL    HW113604   5.624   4.104   5.782
 4235SOL    HW213605   5.607   4.139   5.941
 4236SOL     OW13606   0.262   3.582   3.076
 4236SOL    HW113607   0.192   3.639   3.035
 4236SOL    HW213608   0.320   3.543   3.004
 4237SOL     OW13609   6.655   5.362   3.310
 4237SOL    HW113610   6.711   5.329   3.234
 4237SOL    HW213611   6.613   5.284   3.356
 4238SOL     OW13612   3.125   4.887   2.506
 4238SOL    HW113613   3.031   4.890   2.541
 4238SOL    HW213614   3.189   4.900   2.581
 4239SOL     OW13615   5.396   1.758   3.559
 4239SOL    HW113616   5.313   1.707   3.582
 4239SOL    HW213617   5.372   1.840   3.507
 4240SOL     OW13618   2.770   6.963   0.128
 4240SOL    HW113619   2.865   6.975   0.099
 4240SOL    HW213620   2.768   6.918   0.218
 4241SOL     OW13621   6.282   0.647   1.322
 4241SOL    HW113622   6.247   0.739   1.309
 4241SOL    HW213623   6.353   0.628   1.254
 4242SOL     OW13624   2.345   0.575   3.231
 4242SOL    HW113625   2.339   0.477   3.208
 4242SOL    HW213626   2.254   0.608   3.258
 4243SOL     OW13627   6.608   4.117   3.538
 4243SOL    HW113628   6.598   4.085   3.444
 4243SOL    HW213629   6.611   4.217   3.538
 4244SOL     OW13630   5.586   4.965   0.936
 4244SOL    HW113631   5.613   4.909   1.014
 4244SOL    HW213632   5.571   5.060   0.966
 4245SOL     OW13633   6.285   0.923   6.339
 4245SOL    HW113634   6.339   0.998   6.301
 4245SOL    HW213635   6.281   0.848   6.273
 4246SOL     OW13636   5.880   3.243   3.450
 4246SOL    HW113637   5.937   3.303   3.506
 4246SOL    HW213638   5.840   3.295   3.375
 4247SOL     OW13639   2.090   4.900   3.238
 4247SOL    HW113640   2.071   4.806   3.267
 4247SOL    HW213641   2.189   4.915   3.238
 4248SOL     OW13642   1.660   1.553   3.876
 4248SOL    HW113643   1.668   1.557   3.777
 4248SOL    HW213644   1.563   1.545   3.901
 4249SOL     OW13645   4.925   1.150   3.794
 4249SOL    HW113646   4.889   1.179   3.882
 4249SOL    HW213647   4.990   1.075   3.807
 4250SOL     OW13648   6.123   6.340   4.451
 4250SOL    HW113649   6.051   6.365   4.517
 4250SOL    HW213650   6.119   6.403   4.373
 4251SOL     OW13651   5.832   3.174   0.945
 4251SOL    HW113652   5.754   3.120   0.977
 4251SOL    HW213653   5.910   3.161   1.006
 4252SOL     OW13654   5.668   5.850   6.317
 4252SOL    HW113655   5.618   5.771   6.280
 4252SOL    HW213656   5.759   5.853   6.278
 4253SOL     OW13657   3.444   6.750   1.336
 4253SOL    HW113658   3.417   6.787   1.247
 4253SOL    HW213659   3.382   6.675   1.361
 4254SOL     OW13660   1.907   3.860   2.124
 4254SOL    HW113661   1.831   3.847   2.060
 4254SOL    HW213662   1.875   3.910   2.204
 4255SOL     OW13663   6.830   4.209   3.824
 4255SOL    HW113664   6.754   4.168   3.774
 4255SOL    HW213665   6.817   4.308   3.830
 4256SOL     OW13666   1.129   5.870   0.812
 4256SOL    HW113667   1.220   5.912   0.817
 4256SOL    HW213668   1.134   5.777   0.847
 4257SOL     OW13669   3.781   1.087   4.805
 4257SOL    HW113670   3.765   1.180   4.839
 4257SOL    HW213671   3.814   1.092   4.711
 4258SOL     OW13672   3.231   6.163   0.773
 4258SOL    HW113673   3.151   6.218   0.795
 4258SOL    HW213674   3.293   6.215   0.714
 4259SOL     OW13675   1.183   6.910   1.288
 4259SOL    HW113676   1.156   6.874   1.199
 4259SOL    HW213677   1.260   6.972   1.277
 4260SOL     OW13678   6.114   0.331   3.195
 4260SOL    HW113679   6.206   0.292   3.185
 4260SOL    HW213680   6.122   0.430   3.205
 4261SOL     OW13681   2.297   0.432   2.900
 4261SOL    HW113682   2.226   0.424   2.969
 4261SOL    HW213683   2.256   0.451   2.811
 4262SOL     OW13684   0.593   3.925   6.213
 4262SOL    HW113685   0.667   3.863   6.187
 4262SOL    HW213686   0.518   3.873   6.254
 4263SOL     OW13687   2.654   0.212   3.094
 4263SOL    HW113688   2.679   0.115   3.097
 4263SOL    HW213689   2.650   0.241   2.998
 4264SOL     OW13690   0.002   2.457   4.911
 4264SOL    HW113691   0.071   2.465   4.839
 4264SOL    HW213692   0.017   2.373   4.963
 4265SOL     OW13693   3.633   1.295   0.503
 4265SOL    HW113694   3.580   1.317   0.585
 4265SOL    HW213695   3.731   1.304   0.524
 4266SOL     OW13696   1.941   6.403   6.458
 4266SOL    HW113697   1.970   6.368   6.370
 4266SOL    HW213698   1.927   6.328   6.522
 4267SOL     OW13699   2.113   3.790   4.530
 4267SOL    HW113700   2.071   3.779   4.620
 4267SOL    HW213701   2.154   3.703   4.502
 4268SOL     OW13702   1.087   5.693   6.544
 4268SOL    HW113703   1.142   5.768   6.581
 4268SOL    HW213704   1.123   5.606   6.575
 4269SOL     OW13705   2.973   0.019   2.909
 4269SOL    HW113706   3.034   6.988   2.852
 4269SOL    HW213707   2.982   0.116   2.886
 4270SOL     OW13708   4.007   3.380   2.243
 4270SOL    HW113709   4.002   3.281   2.256
 4270SOL    HW213710   3.959   3.405   2.159
 4271SOL     OW13711   0.091   0.354   0.615
 4271SOL    HW113712   0.052   0.366   0.707
 4271SOL    HW213713   0.030   0.395   0.547
 4272SOL     OW13714   6.475   2.406   4.274
 4272SOL    HW113715   6.493   2.357   4.359
 4272SOL    HW213716   6.536   2.485   4.268
 4273SOL     OW13717   4.584   6.573   4.306
 4273SOL    HW113718   4.518   6.503   4.333
 4273SOL    HW213719   4.673   6.531   4.290
 4274SOL     OW13720   1.692   6.870   1.840
 4274SOL    HW113721   1.779   6.829   1.867
 4274SOL    HW213722   1.657   6.823   1.759
 4275SOL     OW13723   6.656   2.180   3.904
 4275SOL    HW113724   6.580   2.228   3.948
 4275SOL    HW213725   6.657   2.084   3.933
 4276SOL     OW13726   2.857   5.238   4.058
 4276SOL    HW113727   2.870   5.139   4.065
 4276SOL    HW213728   2.836   5.275   4.148
 4277SOL     OW13729   6.557   4.764   2.992
 4277SOL    HW113730   6.510   4.852   2.986
 4277SOL    HW213731   6.594   4.740   2.903
 4278SOL     OW13732   0.189   6.731   4.783
 4278SOL    HW113733   0.255   6.790   4.830
 4278SOL    HW213734   0.142   6.673   4.850
 4279SOL     OW13735   2.509   1.292   3.415
 4279SOL    HW113736   2.478   1.263   3.505
 4279SOL    HW213737   2.586   1.235   3.385
 4280SOL     OW13738   5.784   6.954   5.624
 4280SOL    HW113739   5.789   0.022   5.667
 4280SOL    HW213740   5.801   6.883   5.692
 4281SOL     OW13741   6.132   4.961   3.463
 4281SOL    HW113742   6.094   4.870   3.480
 4281SOL    HW213743   6.203   4.980   3.531
 4282SOL     OW13744   3.293   4.540   0.156
 4282SOL    HW113745   3.349   4.574   0.080
 4282SOL    HW213746   3.224   4.609   0.180
 4283SOL     OW13747   2.527   0.739   3.384
 4283SOL    HW113748   2.571   0.716   3.470
 4283SOL    HW213749   2.479   0.659   3.348
 4284SOL     OW13750   3.496   4.177   1.313
 4284SOL    HW113751   3.408   4.208   1.278
 4284SOL    HW213752   3.532   4.105   1.255
 4285SOL     OW13753   2.486   0.951   5.777
 4285SOL    HW113754   2.539   0.907   5.704
 4285SOL    HW213755   2.514   1.047   5.784
 4286SOL     OW13756   5.722   7.015   6.019
 4286SOL    HW113757   5.741   7.005   6.117
 4286SOL    HW213758   5.777   6.949   5.967
 4287SOL     OW13759   4.957   0.658   6.158
 4287SOL    HW113760   4.981   0.613   6.244
 4287SOL    HW213761   4.863   0.692   6.164
 4288SOL     OW13762   0.947   5.617   3.795
 4288SOL    HW113763   1.026   5.568   3.833
 4288SOL    HW213764   0.874   5.621   3.863
 4289SOL     OW13765   0.475   2.497   5.788
 4289SOL    HW113766   0.459   2.426   5.719
 4289SOL    HW213767   0.572   2.521   5.789
 4290SOL     OW13768   1.178   5.997   4.349
 4290SOL    HW113769   1.126   5.932   4.293
 4290SOL    HW213770   1.176   6.087   4.306
 4291SOL     OW13771   4.820   3.685   6.977
 4291SOL    HW113772   4.752   3.663   0.025
 4291SOL    HW213773   4.813   3.620   6.901
 4292SOL     OW13774   6.650   3.238   0.199
 4292SOL    HW113775   6.736   3.273   0.238
 4292SOL    HW213776   6.605   3.310   0.147
 4293SOL     OW13777   3.313   4.357   0.375
 4293SOL    HW113778   3.343   4.406   0.294
 4293SOL    HW213779   3.390   4.346   0.438
 4294SOL     OW13780   1.904   1.663   6.589
 4294SOL    HW113781   1.838   1.608   6.639
 4294SOL    HW213782   1.986   1.609   6.570
 4295SOL     OW13783   5.178   5.866   4.057
 4295SOL    HW113784   5.201   5.795   4.123
 4295SOL    HW213785   5.151   5.823   3.971
 4296SOL     OW13786   3.320   7.006   0.165
 4296SOL    HW113787   3.318   6.931   0.230
 4296SOL    HW213788   3.349   0.068   0.211
 4297SOL     OW13789   5.702   0.174   1.831
 4297SOL    HW113790   5.620   0.204   1.781
 4297SOL    HW213791   5.675   0.140   1.921
 4298SOL     OW13792   3.733   5.735   1.094
 4298SOL    HW113793   3.732   5.651   1.148
 4298SOL    HW213794   3.760   5.714   1.000
 4299SOL     OW13795   1.762   2.454   6.906
 4299SOL    HW113796   1.766   2.443   7.005
 4299SOL    HW213797   1.836   2.515   6.876
 4300SOL     OW13798   2.749   0.032   0.465
 4300SOL    HW113799   2.747   0.071   0.557
 4300SOL    HW213800   2.681   0.079   0.408
 4301SOL     OW13801   4.916   6.997   1.228
 4301SOL    HW113802   4.864   6.912   1.243
 4301SOL    HW213803   5.009   6.975   1.200
 4302SOL     OW13804   6.942   0.101   6.068
 4302SOL    HW113805   6.982   0.189   6.096
 4302SOL    HW213806   6.860   0.084   6.123
 4303SOL     OW13807   0.236   4.315   4.398
 4303SOL    HW113808   0.241   4.228   4.445
 4303SOL    HW213809   0.181   4.305   4.315
 4304SOL     OW13810   2.935   3.254   2.481
 4304SOL    HW113811   2.979   3.194   2.548
 4304SOL    HW213812   2.984   3.342   2.479
 4305SOL     OW13813   1.080   0.008   5.610
 4305SOL    HW113814   1.029   0.076   5.662
 4305SOL    HW213815   1.173   0.041   5.593
 4306SOL     OW13816   4.510   5.029   4.560
 4306SOL    HW113817   4.578   4.958   4.538
 4306SOL    HW213818   4.423   5.006   4.516
 4307SOL     OW13819   6.308   4.251   5.120
 4307SOL    HW113820   6.372   4.296   5.183
 4307SOL    HW213821   6.352   4.171   5.080
 4308SOL     OW13822   6.218   5.866   1.396
 4308SOL    HW113823   6.265   5.782   1.422
 4308SOL    HW213824   6.256   5.943   1.447
 4309SOL     OW13825   1.247   0.934   0.966
 4309SOL    HW113826   1.186   0.856   0.984
 4309SOL    HW213827   1.195   1.006   0.920
 4310SOL     OW13828   1.223   2.505   1.491
 4310SOL    HW113829   1.183   2.529   1.579
 4310SOL    HW213830   1.288   2.429   1.504
 4311SOL     OW13831   0.344   6.310   2.631
 4311SOL    HW113832   0.267   6.374   2.628
 4311SOL    HW213833   0.349   6.268   2.721
 4312SOL     OW13834   1.315   5.769   2.242
 4312SOL    HW113835   1.329   5.827   2.322
 4312SOL    HW213836   1.309   5.673   2.272
 4313SOL     OW13837   5.169   2.241   0.808
 4313SOL    HW113838   5.172   2.262   0.710
 4313SOL    HW213839   5.076   2.253   0.841
 4314SOL     OW13840   5.409   1.844   4.971
 4314SOL    HW113841   5.458   1.773   4.921
 4314SOL    HW213842   5.418   1.828   5.069
 4315SOL     OW13843   2.472   0.882   3.813
 4315SOL    HW113844   2.376   0.878   3.840
 4315SOL    HW213845   2.510   0.789   3.814
 4316SOL     OW13846   5.168   0.518   1.665
 4316SOL    HW113847   5.181   0.599   1.722
 4316SOL    HW213848   5.074   0.515   1.631
 4317SOL     OW13849   5.713   2.266   5.447
 4317SOL    HW113850   5.659   2.184   5.468
 4317SOL    HW213851   5.691   2.298   5.355
 4318SOL     OW13852   1.319   1.787   4.833
 4318SOL    HW113853   1.408   1.806   4.874
 4318SOL    HW213854   1.284   1.700   4.868
 4319SOL     OW13855   2.134   1.797   0.964
 4319SOL    HW113856   2.155   1.860   1.039
 4319SOL    HW213857   2.205   1.804   0.894
 4320SOL     OW13858   3.683   5.345   0.896
 4320SOL    HW113859   3.712   5.360   0.990
 4320SOL    HW213860   3.585   5.324   0.895
 4321SOL     OW13861   6.811   4.572   4.558
 4321SOL    HW113862   6.800   4.653   4.615
 4321SOL    HW213863   6.861   4.502   4.609
 4322SOL     OW13864   6.331   3.063   6.957
 4322SOL    HW113865   6.416   3.021   6.987
 4322SOL    HW213866   6.312   3.038   6.862
 4323SOL     OW13867   4.198   4.313   0.867
 4323SOL    HW113868   4.126   4.364   0.820
 4323SOL    HW213869   4.237   4.246   0.805
 4324SOL     OW13870   5.644   4.746   5.665
 4324SOL    HW113871   5.641   4.842   5.639
 4324SOL    HW213872   5.589   4.692   5.602
 4325SOL     OW13873   2.858   1.178   1.858
 4325SOL    HW113874   2.777   1.130   1.891
 4325SOL    HW213875   2.858   1.178   1.758
 4326SOL     OW13876   4.755   4.664   2.128
 4326SOL    HW113877   4.717   4.677   2.037
 4326SOL    HW213878   4.855   4.659   2.122
 4327SOL     OW13879   5.548   5.661   1.436
 4327SOL    HW113880   5.619   5.603   1.478
 4327SOL    HW213881   5.476   5.678   1.503
 4328SOL     OW13882   5.350   4.515   5.723
 4328SOL    HW113883   5.376   4.559   5.637
 4328SOL    HW213884   5.272   4.454   5.706
 4329SOL     OW13885   4.442   2.896   6.049
 4329SOL    HW113886   4.371   2.965   6.033
 4329SOL    HW213887   4.405   2.805   6.029
 4330SOL     OW13888   2.231   6.222   4.447
 4330SOL    HW113889   2.260   6.128   4.429
 4330SOL    HW213890   2.246   6.244   4.543
 4331SOL     OW13891   5.811   0.814   2.284
 4331SOL    HW113892   5.805   0.849   2.191
 4331SOL    HW213893   5.741   0.745   2.299
 4332SOL     OW13894   5.201   3.061   2.432
 4332SOL    HW113895   5.151   3.147   2.422
 4332SOL    HW213896   5.166   3.011   2.512
 4333SOL     OW13897   4.517   1.784   5.425
 4333SOL    HW113898   4.611   1.810   5.450
 4333SOL    HW213899   4.457   1.863   5.434
 4334SOL     OW13900   2.254   2.610   2.685
 4334SOL    HW113901   2.241   2.526   2.737
 4334SOL    HW213902   2.347   2.613   2.649
 4335SOL     OW13903   3.505   3.429   1.756
 4335SOL    HW113904   3.420   3.376   1.752
 4335SOL    HW213905   3.496   3.502   1.824
 4336SOL     OW13906   2.592   6.661   6.203
 4336SOL    HW113907   2.640   6.685   6.287
 4336SOL    HW213908   2.513   6.722   6.192
 4337SOL     OW13909   1.965   4.244   1.220
 4337SOL    HW113910   1.928   4.161   1.263
 4337SOL    HW213911   1.903   4.274   1.148
 4338SOL     OW13912   6.091   6.742   5.892
 4338SOL    HW113913   6.176   6.792   5.881
 4338SOL    HW213914   6.107   6.661   5.949
 4339SOL     OW13915   4.156   2.819   6.212
 4339SOL    HW113916   4.223   2.860   6.274
 4339SOL    HW213917   4.064   2.845   6.240
 4340SOL     OW13918   6.446   3.548   1.822
 4340SOL    HW113919   6.378   3.621   1.836
 4340SOL    HW213920   6.531   3.587   1.787
 4341SOL     OW13921   1.222   5.338   1.638
 4341SOL    HW113922   1.288   5.310   1.707
 4341SOL    HW213923   1.196   5.433   1.653
 4342SOL     OW13924   5.406   4.142   2.796
 4342SOL    HW113925   5.400   4.134   2.696
 4342SOL    HW213926   5.423   4.052   2.836
 4343SOL     OW13927   2.892   5.899   5.211
 4343SOL    HW113928   2.827   5.915   5.285
 4343SOL    HW213929   2.954   5.978   5.204
 4344SOL     OW13930   0.963   4.095   2.848
 4344SOL    HW113931   1.024   4.089   2.769
 4344SOL    HW213932   0.911   4.181   2.843
 4345SOL     OW13933   3.799   4.088   4.598
 4345SOL    HW113934   3.747   4.116   4.518
 4345SOL    HW213935   3.763   4.135   4.679
 4346SOL     OW13936   2.094   3.325   2.737
 4346SOL    HW113937   2.082   3.421   2.711
 4346SOL    HW213938   2.104   3.270   2.654
 4347SOL     OW13939   5.245   6.769   2.780
 4347SOL    HW113940   5.310   6.834   2.820
 4347SOL    HW213941   5.209   6.711   2.853
 4348SOL     OW13942   0.203   5.506   4.093
 4348SOL    HW113943   0.131   5.489   4.160
 4348SOL    HW213944   0.180   5.463   4.006
 4349SOL     OW13945   6.279   2.238   3.065
 4349SOL    HW113946   6.207   2.277   3.124
 4349SOL    HW213947   6.243   2.156   3.019
 4350SOL     OW13948   3.798   1.816   4.293
 4350SOL    HW113949   3.757   1.825   4.384
 4350SOL    HW213950   3.878   1.875   4.286
 4351SOL     OW13951   1.019   6.106   1.502
 4351SOL    HW113952   1.089   6.124   1.571
 4351SOL    HW213953   1.036   6.163   1.422
 4352SOL     OW13954   6.236   4.458   2.261
 4352SOL    HW113955   6.142   4.463   2.297
 4352SOL    HW213956   6.294   4.412   2.328
 4353SOL     OW13957   3.611   3.024   6.471
 4353SOL    HW113958   3.609   3.046   6.569
 4353SOL    HW213959   3.608   2.924   6.460
 4354SOL     OW13960   2.129   1.491   6.494
 4354SOL    HW113961   2.119   1.510   6.396
 4354SOL    HW213962   2.225   1.469   6.514
 4355SOL     OW13963   2.267   6.963   2.607
 4355SOL    HW113964   2.253   0.035   2.577
 4355SOL    HW213965   2.181   6.924   2.638
 4356SOL     OW13966   4.780   3.402   6.500
 4356SOL    HW113967   4.765   3.311   6.462
 4356SOL    HW213968   4.781   3.469   6.426
 4357SOL     OW13969   0.021   1.112   1.470
 4357SOL    HW113970   7.005   1.205   1.473
 4357SOL    HW213971   6.993   1.054   1.535
 4358SOL     OW13972   6.350   1.041   1.018
 4358SOL    HW113973   6.263   1.000   1.046
 4358SOL    HW213974   6.409   0.970   0.979
 4359SOL     OW13975   1.332   1.334   6.821
 4359SOL    HW113976   1.311   1.281   6.904
 4359SOL    HW213977   1.298   1.427   6.831
 4360SOL     OW13978   0.727   3.481   3.675
 4360SOL    HW113979   0.722   3.417   3.598
 4360SOL    HW213980   0.792   3.448   3.743
 4361SOL     OW13981   2.002   3.707   1.490
 4361SOL    HW113982   2.043   3.623   1.525
 4361SOL    HW213983   1.957   3.756   1.564
 4362SOL     OW13984   6.758   5.655   3.724
 4362SOL    HW113985   6.795   5.700   3.805
 4362SOL    HW213986   6.834   5.628   3.664
 4363SOL     OW13987   4.293   2.156   0.760
 4363SOL    HW113988   4.335   2.068   0.782
 4363SOL    HW213989   4.357   2.229   0.782
 4364SOL     OW13990   3.199   4.065   3.572
 4364SOL    HW113991   3.108   4.101   3.548
 4364SOL    HW213992   3.212   3.976   3.529
 4365SOL     OW13993   2.706   0.441   2.081
 4365SOL    HW113994   2.686   0.502   2.158
 4365SOL    HW213995   2.789   0.388   2.101
 4366SOL     OW13996   6.096   0.054   6.563
 4366SOL    HW113997   6.082   0.001   6.480
 4366SOL    HW213998   6.149   7.022   6.629
 4367SOL     OW13999   2.834   4.736   4.163
 4367SOL    HW114000   2.753   4.678   4.155
 4367SOL    HW214001   2.861   4.744   4.259
 4368SOL     OW14002   3.665   5.666   1.609
 4368SOL    HW114003   3.673   5.616   1.696
 4368SOL    HW214004   3.583   5.724   1.612
 4369SOL     OW14005   4.509   4.945   3.123
 4369SOL    HW114006   4.591   4.959   3.067
 4369SOL    HW214007   4.478   4.851   3.114
 4370SOL     OW14008   3.644   4.692   1.413
 4370SOL    HW114009   3.639   4.730   1.321
 4370SOL    HW214010   3.664   4.764   1.479
 4371SOL     OW14011   1.830   1.883   2.503
 4371SOL    HW114012   1.788   1.946   2.568
 4371SOL    HW214013   1.767   1.808   2.484
 4372SOL     OW14014   2.442   2.330   4.401
 4372SOL    HW114015   2.487   2.348   4.313
 4372SOL    HW214016   2.397   2.240   4.397
 4373SOL     OW14017   4.174   1.228   0.576
 4373SOL    HW114018   4.191   1.146   0.521
 4373SOL    HW214019   4.096   1.211   0.637
 4374SOL     OW14020   0.816   1.445   1.348
 4374SOL    HW114021   0.742   1.379   1.360
 4374SOL    HW214022   0.902   1.396   1.334
 4375SOL     OW14023   4.365   6.139   3.198
 4375SOL    HW114024   4.338   6.042   3.198
 4375SOL    HW214025   4.449   6.150   3.144
 4376SOL     OW14026   6.126   0.314   2.746
 4376SOL    HW114027   6.099   0.245   2.813
 4376SOL    HW214028   6.051   0.332   2.683
 4377SOL     OW14029   5.906   5.611   0.141
 4377SOL    HW114030   5.969   5.599   0.217
 4377SOL    HW214031   5.829   5.668   0.170
 4378SOL     OW14032   1.524   2.918   2.745
 4378SOL    HW114033   1.558   2.832   2.783
 4378SOL    HW214034   1.600   2.979   2.727
 4379SOL     OW14035   2.601   1.593   1.997
 4379SOL    HW114036   2.671   1.646   1.948
 4379SOL    HW214037   2.632   1.498   2.007
 4380SOL     OW14038   1.817   6.450   4.062
 4380SOL    HW114039   1.881   6.423   3.990
 4380SOL    HW214040   1.806   6.549   4.060
 4381SOL     OW14041   2.304   4.312   4.993
 4381SOL    HW114042   2.297   4.224   5.041
 4381SOL    HW214043   2.294   4.297   4.895
 4382SOL     OW14044   6.041   3.119   6.270
 4382SOL    HW114045   6.039   3.031   6.223
 4382SOL    HW214046   5.978   3.182   6.224
 4383SOL     OW14047   0.857   3.087   5.746
 4383SOL    HW114048   0.934   3.131   5.699
 4383SOL    HW214049   0.803   3.034   5.681
 4384SOL     OW14050   5.399   1.539   6.831
 4384SOL    HW114051   5.301   1.525   6.847
 4384SOL    HW214052   5.413   1.568   6.737
 4385SOL     OW14053   6.526   3.116   4.787
 4385SOL    HW114054   6.465   3.059   4.841
 4385SOL    HW214055   6.512   3.212   4.811
 4386SOL     OW14056   1.875   3.927   6.468
 4386SOL    HW114057   1.914   3.990   6.534
 4386SOL    HW214058   1.932   3.844   6.463
 4387SOL     OW14059   0.183   1.002   1.699
 4387SOL    HW114060   0.167   1.100   1.687
 4387SOL    HW214061   0.264   0.988   1.756
 4388SOL     OW14062   4.904   0.958   6.507
 4388SOL    HW114063   4.808   0.951   6.482
 4388SOL    HW214064   4.938   1.049   6.485
 4389SOL     OW14065   6.038   2.213   0.948
 4389SOL    HW114066   5.997   2.166   0.869
 4389SOL    HW214067   6.091   2.148   1.002
 4390SOL     OW14068   3.853   1.351   2.129
 4390SOL    HW114069   3.905   1.345   2.044
 4390SOL    HW214070   3.793   1.432   2.126
 4391SOL     OW14071   1.535   5.756   6.137
 4391SOL    HW114072   1.452   5.760   6.191
 4391SOL    HW214073   1.613   5.734   6.196
 4392SOL     OW14074   6.463   3.530   5.726
 4392SOL    HW114075   6.534   3.467   5.697
 4392SOL    HW214076   6.410   3.560   5.647
 4393SOL     OW14077   5.346   0.068   2.674
 4393SOL    HW114078   5.420   0.112   2.625
 4393SOL    HW214079   5.259   0.092   2.632
 4394SOL     OW14080   5.836   5.515   2.968
 4394SOL    HW114081   5.818   5.559   2.881
 4394SOL    HW214082   5.909   5.563   3.016
 4395SOL     OW14083   4.010   0.726   1.656
 4395SOL    HW114084   4.012   0.689   1.749
 4395SOL    HW214085   3.951   0.807   1.654
 4396SOL     OW14086   2.627   2.344   4.090
 4396SOL    HW114087   2.706   2.285   4.102
 4396SOL    HW214088   2.598   2.343   3.994
 4397SOL     OW14089   0.292   1.352   4.740
 4397SOL    HW114090   0.322   1.345   4.835
 4397SOL    HW214091   0.290   1.260   4.699
 4398SOL     OW14092   0.903   4.616   4.870
 4398SOL    HW114093   0.865   4.548   4.933
 4398SOL    HW214094   0.828   4.663   4.823
 4399SOL     OW14095   1.912   1.059   1.843
 4399SOL    HW114096   1.843   1.115   1.890
 4399SOL    HW214097   1.866   0.991   1.786
 4400SOL     OW14098   2.818   0.059   4.956
 4400SOL    HW114099   2.886   7.010   4.976
 4400SOL    HW214100   2.828   0.089   4.861
 4401SOL     OW14101   4.918   0.236   6.975
 4401SOL    HW114102   4.931   0.170   6.901
 4401SOL    HW214103   4.823   0.268   6.975
 4402SOL     OW14104   2.418   6.512   1.262
 4402SOL    HW114105   2.362   6.511   1.179
 4402SOL    HW214106   2.476   6.593   1.262
 4403SOL     OW14107   0.744   6.652   3.590
 4403SOL    HW114108   0.665   6.713   3.590
 4403SOL    HW214109   0.798   6.669   3.507
 4404SOL     OW14110   0.178   4.326   5.795
 4404SOL    HW114111   0.116   4.262   5.839
 4404SOL    HW214112   0.273   4.301   5.815
 4405SOL     OW14113   2.594   4.809   1.107
 4405SOL    HW114114   2.570   4.798   1.011
 4405SOL    HW214115   2.635   4.725   1.142
 4406SOL     OW14116   6.843   4.257   0.614
 4406SOL    HW114117   6.811   4.326   0.549
 4406SOL    HW214118   6.825   4.289   0.707
 4407SOL     OW14119   0.408   4.146   0.675
 4407SOL    HW114120   0.400   4.170   0.578
 4407SOL    HW214121   0.334   4.083   0.700
 4408SOL     OW14122   3.668   1.117   1.559
 4408SOL    HW114123   3.683   1.179   1.482
 4408SOL    HW214124   3.657   1.024   1.524
 4409SOL     OW14125   4.368   6.601   1.274
 4409SOL    HW114126   4.369   6.595   1.374
 4409SOL    HW214127   4.286   6.650   1.244
 4410SOL     OW14128   1.370   5.779   0.101
 4410SOL    HW114129   1.449   5.760   0.042
 4410SOL    HW214130   1.321   5.694   0.118
 4411SOL     OW14131   2.986   3.139   3.472
 4411SOL    HW114132   2.919   3.089   3.526
 4411SOL    HW214133   3.057   3.177   3.532
 4412SOL     OW14134   3.670   0.408   4.508
 4412SOL    HW114135   3.641   0.501   4.486
 4412SOL    HW214136   3.665   0.351   4.426
 4413SOL     OW14137   5.201   5.853   5.026
 4413SOL    HW114138   5.158   5.791   4.960
 4413SOL    HW214139   5.299   5.834   5.031
 4414SOL     OW14140   4.012   5.063   1.587
 4414SOL    HW114141   3.985   4.975   1.626
 4414SOL    HW214142   4.000   5.061   1.488
 4415SOL     OW14143   3.891   3.524   6.380
 4415SOL    HW114144   3.857   3.515   6.474
 4415SOL    HW214145   3.975   3.578   6.380
 4416SOL     OW14146   2.764   0.101   4.352
 4416SOL    HW114147   2.799   0.018   4.396
 4416SOL    HW214148   2.670   0.117   4.382
 4417SOL     OW14149   5.881   4.231   3.248
 4417SOL    HW114150   5.966   4.272   3.282
 4417SOL    HW214151   5.803   4.276   3.291
 4418SOL     OW14152   5.481   0.840   2.934
 4418SOL    HW114153   5.421   0.841   3.014
 4418SOL    HW214154   5.426   0.839   2.851
 4419SOL     OW14155   5.626   5.964   0.593
 4419SOL    HW114156   5.585   6.056   0.589
 4419SOL    HW214157   5.572   5.907   0.656
 4420SOL     OW14158   5.467   1.272   1.443
 4420SOL    HW114159   5.534   1.285   1.370
 4420SOL    HW214160   5.375   1.262   1.404
 4421SOL     OW14161   2.002   1.555   4.244
 4421SOL    HW114162   1.934   1.510   4.186
 4421SOL    HW214163   1.974   1.548   4.339
 4422SOL     OW14164   3.056   4.233   5.768
 4422SOL    HW114165   3.040   4.135   5.773
 4422SOL    HW214166   3.050   4.273   5.860
 4423SOL     OW14167   0.972   2.675   5.743
 4423SOL    HW114168   1.051   2.657   5.802
 4423SOL    HW214169   1.003   2.720   5.659
 4424SOL     OW14170   5.285   0.253   4.473
 4424SOL    HW114171   5.357   0.286   4.411
 4424SOL    HW214172   5.206   0.225   4.419
 4425SOL     OW14173   3.441   5.580   6.526
 4425SOL    HW114174   3.436   5.676   6.556
 4425SOL    HW214175   3.382   5.524   6.584
 4426SOL     OW14176   0.586   1.934   4.950
 4426SOL    HW114177   0.551   1.875   4.878
 4426SOL    HW214178   0.682   1.910   4.970
 4427SOL     OW14179   6.999   6.144   2.694
 4427SOL    HW114180   7.020   6.079   2.621
 4427SOL    HW214181   6.980   6.096   2.779
 4428SOL     OW14182   3.317   5.637   1.900
 4428SOL    HW114183   3.409   5.606   1.922
 4428SOL    HW214184   3.315   5.737   1.899
 4429SOL     OW14185   3.085   0.253   3.158
 4429SOL    HW114186   3.095   0.316   3.081
 4429SOL    HW214187   2.999   0.271   3.205
 4430SOL     OW14188   5.054   3.542   5.054
 4430SOL    HW114189   5.121   3.574   5.122
 4430SOL    HW214190   4.972   3.598   5.060
 4431SOL     OW14191   1.742   0.704   1.846
 4431SOL    HW114192   1.702   0.721   1.936
 4431SOL    HW214193   1.735   0.787   1.791
 4432SOL     OW14194   3.774   4.093   4.144
 4432SOL    HW114195   3.851   4.077   4.083
 4432SOL    HW214196   3.695   4.122   4.091
 4433SOL     OW14197   5.589   0.401   4.650
 4433SOL    HW114198   5.648   0.451   4.587
 4433SOL    HW214199   5.537   0.466   4.706
 4434SOL     OW14200   3.668   1.996   3.813
 4434SOL    HW114201   3.758   2.020   3.777
 4434SOL    HW214202   3.676   1.914   3.870
 4435SOL     OW14203   4.194   3.907   1.185
 4435SOL    HW114204   4.191   3.866   1.093
 4435SOL    HW214205   4.108   3.955   1.202
 4436SOL     OW14206   3.807   1.854   0.917
 4436SOL    HW114207   3.823   1.949   0.888
 4436SOL    HW214208   3.726   1.851   0.975
 4437SOL     OW14209   5.713   1.498   3.965
 4437SOL    HW114210   5.662   1.584   3.961
 4437SOL    HW214211   5.686   1.447   4.046
 4438SOL     OW14212   4.859   0.842   0.409
 4438SOL    HW114213   4.926   0.885   0.349
 4438SOL    HW214214   4.817   0.912   0.467
 4439SOL     OW14215   0.582   6.037   1.299
 4439SOL    HW114216   0.538   5.948   1.299
 4439SOL    HW214217   0.518   6.106   1.335
 4440SOL     OW14218   2.153   5.070   0.475
 4440SOL    HW114219   2.253   5.065   0.481
 4440SOL    HW214220   2.121   5.007   0.404
 4441SOL     OW14221   6.875   1.834   2.791
 4441SOL    HW114222   6.803   1.880   2.843
 4441SOL    HW214223   6.921   1.900   2.732
 4442SOL     OW14224   2.812   5.903   5.513
 4442SOL    HW114225   2.730   5.876   5.462
 4442SOL    HW214226   2.806   5.999   5.537
 4443SOL     OW14227   6.958   2.658   1.341
 4443SOL    HW114228   6.914   2.579   1.384
 4443SOL    HW214229   7.008   2.628   1.260
 4444SOL     OW14230   3.940   5.143   6.014
 4444SOL    HW114231   3.973   5.132   5.920
 4444SOL    HW214232   3.958   5.236   6.045
 4445SOL     OW14233   6.536   0.799   1.218
 4445SOL    HW114234   6.512   0.824   1.124
 4445SOL    HW214235   6.635   0.801   1.230
 4446SOL     OW14236   5.736   1.329   1.998
 4446SOL    HW114237   5.788   1.323   1.913
 4446SOL    HW214238   5.644   1.361   1.979
 4447SOL     OW14239   5.831   4.016   6.387
 4447SOL    HW114240   5.917   3.968   6.367
 4447SOL    HW214241   5.770   4.007   6.309
 4448SOL     OW14242   2.798   3.874   1.316
 4448SOL    HW114243   2.728   3.828   1.370
 4448SOL    HW214244   2.781   3.973   1.318
 4449SOL     OW14245   5.239   0.615   5.735
 4449SOL    HW114246   5.286   0.616   5.823
 4449SOL    HW214247   5.175   0.691   5.731
 4450SOL     OW14248   3.864   3.225   4.192
 4450SOL    HW114249   3.805   3.304   4.210
 4450SOL    HW214250   3.956   3.257   4.168
 4451SOL     OW14251   6.015   3.783   4.238
 4451SOL    HW114252   6.095   3.837   4.264
 4451SOL    HW214253   5.982   3.814   4.148
 4452SOL     OW14254   5.730   6.462   3.963
 4452SOL    HW114255   5.647   6.468   4.019
 4452SOL    HW214256   5.735   6.372   3.921
 4453SOL     OW14257   0.195   3.049   1.213
 4453SOL    HW114258   0.198   3.035   1.114
 4453SOL    HW214259   0.274   3.005   1.255
 4454SOL     OW14260   0.035   2.068   6.855
 4454SOL    HW114261   6.964   2.061   6.820
 4454SOL    HW214262   0.100   2.048   6.781
 4455SOL     OW14263   3.452   6.355   6.205
 4455SOL    HW114264   3.414   6.267   6.174
 4455SOL    HW214265   3.378   6.422   6.208
 4456SOL     OW14266   3.065   5.556   2.013
 4456SOL    HW114267   3.072   5.522   2.107
 4456SOL    HW214268   3.155   5.586   1.981
 4457SOL     OW14269   4.262   2.407   1.090
 4457SOL    HW114270   4.197   2.469   1.134
 4457SOL    HW214271   4.347   2.456   1.070
 4458SOL     OW14272   1.163   3.664   6.468
 4458SOL    HW114273   1.253   3.698   6.441
 4458SOL    HW214274   1.155   3.665   6.568
 4459SOL     OW14275   4.904   0.629   3.582
 4459SOL    HW114276   4.818   0.640   3.633
 4459SOL    HW214277   4.942   0.539   3.601
 4460SOL     OW14278   2.924   2.964   5.314
 4460SOL    HW114279   2.931   3.018   5.398
 4460SOL    HW214280   3.002   2.984   5.255
 4461SOL     OW14281   1.442   0.665   2.248
 4461SOL    HW114282   1.413   0.685   2.342
 4461SOL    HW214283   1.393   0.585   2.214
 4462SOL     OW14284   6.326   4.041   2.011
 4462SOL    HW114285   6.368   4.060   1.921
 4462SOL    HW214286   6.374   4.094   2.081
 4463SOL     OW14287   4.996   2.866   6.757
 4463SOL    HW114288   4.968   2.907   6.844
 4463SOL    HW214289   4.918   2.862   6.695
 4464SOL     OW14290   6.912   5.159   0.442
 4464SOL    HW114291   6.822   5.118   0.428
 4464SOL    HW214292   6.905   5.258   0.430
 4465SOL     OW14293   2.426   5.699   2.258
 4465SOL    HW114294   2.509   5.653   2.288
 4465SOL    HW214295   2.347   5.661   2.307
 4466SOL     OW14296   2.196   1.275   3.407
 4466SOL    HW114297   2.282   1.315   3.373
 4466SOL    HW214298   2.196   1.177   3.389
 4467SOL     OW14299   1.933   0.003   3.038
 4467SOL    HW114300   1.986   6.956   2.988
 4467SOL    HW214301   1.896   6.984   3.121
 4468SOL     OW14302   1.784   3.010   1.451
 4468SOL    HW114303   1.695   2.968   1.431
 4468SOL    HW214304   1.811   3.070   1.375
 4469SOL     OW14305   4.249   6.994   1.245
 4469SOL    HW114306   4.263   0.068   1.267
 4469SOL    HW214307   4.328   6.960   1.193
 4470SOL     OW14308   5.963   2.866   1.798
 4470SOL    HW114309   5.866   2.843   1.808
 4470SOL    HW214310   5.972   2.958   1.760
 4471SOL     OW14311   0.100   1.726   6.434
 4471SOL    HW114312   0.172   1.672   6.478
 4471SOL    HW214313   0.017   1.670   6.428
 4472SOL     OW14314   1.781   2.925   3.846
 4472SOL    HW114315   1.811   2.852   3.907
 4472SOL    HW214316   1.855   2.947   3.782
 4473SOL     OW14317   6.722   2.605   3.995
 4473SOL    HW114318   6.761   2.595   3.903
 4473SOL    HW214319   6.757   2.531   4.054
 4474SOL     OW14320   3.314   0.698   1.707
 4474SOL    HW114321   3.336   0.617   1.762
 4474SOL    HW214322   3.236   0.745   1.748
 4475SOL     OW14323   1.705   3.843   2.773
 4475SOL    HW114324   1.804   3.832   2.784
 4475SOL    HW214325   1.678   3.935   2.802
 4476SOL     OW14326   4.463   6.795   4.175
 4476SOL    HW114327   4.514   6.722   4.220
 4476SOL    HW214328   4.401   6.756   4.107
 4477SOL     OW14329   1.429   0.444   5.700
 4477SOL    HW114330   1.451   0.413   5.607
 4477SOL    HW214331   1.513   0.454   5.752
 4478SOL     OW14332   3.486   6.688   2.747
 4478SOL    HW114333   3.440   6.680   2.836
 4478SOL    HW214334   3.584   6.669   2.758
 4479SOL     OW14335   1.224   0.492   1.556
 4479SOL    HW114336   1.227   0.524   1.462
 4479SOL    HW214337   1.306   0.523   1.604
 4480SOL     OW14338   2.436   3.300   5.896
 4480SOL    HW114339   2.518   3.293   5.953
 4480SOL    HW214340   2.449   3.248   5.812
 4481SOL     OW14341   2.542   6.438   5.679
 4481SOL    HW114342   2.595   6.496   5.741
 4481SOL    HW214343   2.557   6.342   5.702
 4482SOL     OW14344   0.850   4.514   4.416
 4482SOL    HW114345   0.806   4.553   4.498
 4482SOL    HW214346   0.784   4.459   4.366
 4483SOL     OW14347   4.829   3.591   1.944
 4483SOL    HW114348   4.809   3.572   1.848
 4483SOL    HW214349   4.796   3.682   1.968
 4484SOL     OW14350   3.377   2.952   5.552
 4484SOL    HW114351   3.323   3.016   5.496
 4484SOL    HW214352   3.466   2.938   5.510
 4485SOL     OW14353   4.503   1.879   5.118
 4485SOL    HW114354   4.509   1.942   5.196
 4485SOL    HW214355   4.577   1.812   5.124
 4486SOL     OW14356   4.882   4.718   4.770
 4486SOL    HW114357   4.917   4.657   4.699
 4486SOL    HW214358   4.931   4.702   4.855
 4487SOL     OW14359   2.683   2.614   6.095
 4487SOL    HW114360   2.616   2.689   6.098
 4487SOL    HW214361   2.635   2.527   6.101
 4488SOL     OW14362   6.451   3.534   6.034
 4488SOL    HW114363   6.419   3.439   6.029
 4488SOL    HW214364   6.456   3.572   5.942
 4489SOL     OW14365   6.136   5.579   4.605
 4489SOL    HW114366   6.160   5.534   4.520
 4489SOL    HW214367   6.114   5.675   4.587
 4490SOL     OW14368   6.096   2.652   3.086
 4490SOL    HW114369   6.125   2.560   3.111
 4490SOL    HW214370   6.001   2.665   3.114
 4491SOL     OW14371   6.757   2.677   4.571
 4491SOL    HW114372   6.687   2.727   4.622
 4491SOL    HW214373   6.718   2.641   4.486
 4492SOL     OW14374   5.407   4.406   1.916
 4492SOL    HW114375   5.476   4.333   1.913
 4492SOL    HW214376   5.316   4.366   1.917
 4493SOL     OW14377   5.009   6.326   5.448
 4493SOL    HW114378   5.027   6.403   5.510
 4493SOL    HW214379   4.922   6.284   5.472
 4494SOL     OW14380   6.875   1.541   5.627
 4494SOL    HW114381   6.901   1.573   5.535
 4494SOL    HW214382   6.834   1.450   5.620
 4495SOL     OW14383   4.086   6.124   4.425
 4495SOL    HW114384   4.031   6.170   4.494
 4495SOL    HW214385   4.183   6.136   4.446
 4496SOL     OW14386   5.552   5.196   1.091
 4496SOL    HW114387   5.527   5.292   1.092
 4496SOL    HW214388   5.521   5.152   1.175
 4497SOL     OW14389   4.506   1.043   6.779
 4497SOL    HW114390   4.529   0.948   6.799
 4497SOL    HW214391   4.422   1.068   6.826
 4498SOL     OW14392   6.763   3.602   6.321
 4498SOL    HW114393   6.669   3.625   6.296
 4498SOL    HW214394   6.780   3.629   6.416
 4499SOL     OW14395   6.924   3.293   3.848
 4499SOL    HW114396   6.841   3.241   3.866
 4499SOL    HW214397   6.969   3.257   3.766
 4500SOL     OW14398   3.009   3.869   3.800
 4500SOL    HW114399   3.046   3.952   3.840
 4500SOL    HW214400   2.977   3.808   3.873
 4501SOL     OW14401   0.187   3.006   5.201
 4501SOL    HW114402   0.119   2.948   5.246
 4501SOL    HW214403   0.165   3.016   5.104
 4502SOL     OW14404   0.908   2.438   6.701
 4502SOL    HW114405   0.954   2.390   6.776
 4502SOL    HW214406   0.915   2.383   6.617
 4503SOL     OW14407   3.519   6.887   2.067
 4503SOL    HW114408   3.547   6.902   2.162
 4503SOL    HW214409   3.523   6.789   2.045
 4504SOL     OW14410   6.688   1.846   4.729
 4504SOL    HW114411   6.716   1.856   4.825
 4504SOL    HW214412   6.742   1.908   4.672
 4505SOL     OW14413   6.073   5.629   2.694
 4505SOL    HW114414   6.060   5.700   2.763
 4505SOL    HW214415   5.985   5.586   2.674
 4506SOL     OW14416   3.958   2.056   3.784
 4506SOL    HW114417   3.977   1.982   3.848
 4506SOL    HW214418   4.009   2.040   3.699
 4507SOL     OW14419   5.890   4.961   2.218
 4507SOL    HW114420   5.838   5.045   2.206
 4507SOL    HW214421   5.988   4.981   2.219
 4508SOL     OW14422   1.123   4.761   5.821
 4508SOL    HW114423   1.047   4.737   5.762
 4508SOL    HW214424   1.114   4.856   5.850
 4509SOL     OW14425   4.985   2.473   2.309
 4509SOL    HW114426   5.021   2.565   2.325
 4509SOL    HW214427   4.909   2.456   2.373
 4510SOL     OW14428   4.855   0.883   4.548
 4510SOL    HW114429   4.929   0.947   4.525
 4510SOL    HW214430   4.801   0.863   4.466
 4511SOL     OW14431   6.841   3.421   6.680
 4511SOL    HW114432   6.746   3.447   6.658
 4511SOL    HW214433   6.843   3.330   6.720
 4512SOL     OW14434   2.322   0.246   5.565
 4512SOL    HW114435   2.285   0.307   5.635
 4512SOL    HW214436   2.248   0.215   5.506
 4513SOL     OW14437   5.846   6.125   0.585
 4513SOL    HW114438   5.908   6.094   0.658
 4513SOL    HW214439   5.759   6.076   0.592
 4514SOL     OW14440   4.468   1.296   6.017
 4514SOL    HW114441   4.433   1.210   5.980
 4514SOL    HW214442   4.552   1.278   6.068
 4515SOL     OW14443   0.248   2.680   5.776
 4515SOL    HW114444   0.214   2.704   5.685
 4515SOL    HW214445   0.331   2.626   5.767
 4516SOL     OW14446   1.484   0.428   0.235
 4516SOL    HW114447   1.455   0.518   0.267
 4516SOL    HW214448   1.444   0.357   0.293
 4517SOL     OW14449   2.930   1.110   6.866
 4517SOL    HW114450   2.968   1.195   6.830
 4517SOL    HW214451   3.005   1.045   6.884
 4518SOL     OW14452   6.673   0.941   3.253
 4518SOL    HW114453   6.662   0.979   3.345
 4518SOL    HW214454   6.769   0.951   3.224
 4519SOL     OW14455   5.451   0.253   1.721
 4519SOL    HW114456   5.456   0.351   1.742
 4519SOL    HW214457   5.364   0.217   1.755
 4520SOL     OW14458   4.810   6.236   4.015
 4520SOL    HW114459   4.873   6.302   3.974
 4520SOL    HW214460   4.853   6.146   4.016
 4521SOL     OW14461   6.039   2.211   3.515
 4521SOL    HW114462   6.062   2.282   3.581
 4521SOL    HW214463   6.107   2.138   3.520
 4522SOL     OW14464   6.240   0.011   3.203
 4522SOL    HW114465   6.173   0.061   3.257
 4522SOL    HW214466   6.300   0.076   3.156
 4523SOL     OW14467   1.714   4.562   0.328
 4523SOL    HW114468   1.778   4.622   0.281
 4523SOL    HW214469   1.659   4.511   0.261
 4524SOL     OW14470   5.887   2.608   3.779
 4524SOL    HW114471   5.836   2.645   3.856
 4524SOL    HW214472   5.826   2.601   3.699
 4525SOL     OW14473   5.247   1.277   3.114
 4525SOL    HW114474   5.248   1.225   3.200
 4525SOL    HW214475   5.163   1.256   3.063
 4526SOL     OW14476   5.939   0.295   1.394
 4526SOL    HW114477   6.025   0.320   1.350
 4526SOL    HW214478   5.911   0.204   1.363
 4527SOL     OW14479   3.972   1.321   3.418
 4527SOL    HW114480   4.066   1.298   3.443
 4527SOL    HW214481   3.917   1.332   3.501
 4528SOL     OW14482   4.491   6.928   0.134
 4528SOL    HW114483   4.538   7.004   0.089
 4528SOL    HW214484   4.449   6.869   0.065
 4529SOL     OW14485   3.337   1.419   5.215
 4529SOL    HW114486   3.336   1.384   5.122
 4529SOL    HW214487   3.385   1.506   5.218
 4530SOL     OW14488   1.255   3.447   6.350
 4530SOL    HW114489   1.219   3.522   6.406
 4530SOL    HW214490   1.210   3.448   6.260
 4531SOL     OW14491   0.298   3.556   4.127
 4531SOL    HW114492   0.226   3.544   4.060
 4531SOL    HW214493   0.384   3.576   4.081
 4532SOL     OW14494   5.742   2.116   3.403
 4532SOL    HW114495   5.825   2.122   3.459
 4532SOL    HW214496   5.715   2.020   3.394
 4533SOL     OW14497   1.647   0.484   2.145
 4533SOL    HW114498   1.547   0.482   2.149
 4533SOL    HW214499   1.682   0.542   2.219
 4534SOL     OW14500   4.611   4.401   4.862
 4534SOL    HW114501   4.520   4.360   4.860
 4534SOL    HW214502   4.616   4.467   4.937
 4535SOL     OW14503   4.841   1.512   2.489
 4535SOL    HW114504   4.881   1.421   2.493
 4535SOL    HW214505   4.853   1.550   2.397
 4536SOL     OW14506   3.871   1.310   3.691
 4536SOL    HW114507   3.827   1.399   3.677
 4536SOL    HW214508   3.943   1.319   3.760
 4537SOL     OW14509   3.925   3.006   5.558
 4537SOL    HW114510   3.871   2.952   5.622
 4537SOL    HW214511   4.015   3.025   5.598
 4538SOL     OW14512   2.681   0.216   4.111
 4538SOL    HW114513   2.589   0.256   4.118
 4538SOL    HW214514   2.701   0.165   4.195
 4539SOL     OW14515   2.326   0.889   4.538
 4539SOL    HW114516   2.385   0.810   4.554
 4539SOL    HW214517   2.302   0.895   4.441
 4540SOL     OW14518   2.927   3.176   5.058
 4540SOL    HW114519   2.837   3.148   5.090
 4540SOL    HW214520   2.941   3.273   5.079
 4541SOL     OW14521   5.893   1.628   1.012
 4541SOL    HW114522   5.839   1.684   1.074
 4541SOL    HW214523   5.931   1.685   0.940
 4542SOL     OW14524   6.411   0.884   2.966
 4542SOL    HW114525   6.321   0.851   2.992
 4542SOL    HW214526   6.412   0.904   2.868
 4543SOL     OW14527   4.560   1.816   1.676
 4543SOL    HW114528   4.526   1.754   1.606
 4543SOL    HW214529   4.526   1.786   1.766
 4544SOL     OW14530   3.168   6.327   6.100
 4544SOL    HW114531   3.165   6.341   6.199
 4544SOL    HW214532   3.202   6.409   6.056
 4545SOL     OW14533   5.058   3.981   5.207
 4545SOL    HW114534   5.117   4.061   5.207
 4545SOL    HW214535   5.103   3.906   5.159
 4546SOL     OW14536   2.492   1.670   6.357
 4546SOL    HW114537   2.415   1.733   6.355
 4546SOL    HW214538   2.502   1.627   6.267
 4547SOL     OW14539   5.852   2.704   3.225
 4547SOL    HW114540   5.802   2.728   3.308
 4547SOL    HW214541   5.788   2.690   3.150
 4548SOL     OW14542   1.005   4.214   4.897
 4548SOL    HW114543   1.081   4.157   4.865
 4548SOL    HW214544   1.020   4.309   4.869
 4549SOL     OW14545   5.933   4.467   2.205
 4549SOL    HW114546   5.869   4.543   2.196
 4549SOL    HW214547   5.961   4.459   2.301
 4550SOL     OW14548   1.767   5.712   3.156
 4550SOL    HW114549   1.702   5.781   3.185
 4550SOL    HW214550   1.815   5.743   3.074
 4551SOL     OW14551   6.286   1.968   5.859
 4551SOL    HW114552   6.384   1.973   5.842
 4551SOL    HW214553   6.239   1.938   5.776
 4552SOL     OW14554   6.382   2.837   0.859
 4552SOL    HW114555   6.476   2.849   0.827
 4552SOL    HW214556   6.321   2.830   0.780
 4553SOL     OW14557   3.854   4.186   6.401
 4553SOL    HW114558   3.913   4.233   6.466
 4553SOL    HW214559   3.905   4.166   6.318
 4554SOL     OW14560   4.771   0.143   1.037
 4554SOL    HW114561   4.804   0.067   1.094
 4554SOL    HW214562   4.690   0.184   1.079
 4555SOL     OW14563   3.339   1.233   5.426
 4555SOL    HW114564   3.325   1.326   5.395
 4555SOL    HW214565   3.282   1.171   5.372
 4556SOL     OW14566   4.601   2.472   3.951
 4556SOL    HW114567   4.525   2.426   3.904
 4556SOL    HW214568   4.595   2.455   4.049
 4557SOL     OW14569   4.646   6.969   4.854
 4557SOL    HW114570   4.566   6.933   4.807
 4557SOL    HW214571   4.724   6.971   4.790
 4558SOL     OW14572   0.434   3.687   5.499
 4558SOL    HW114573   0.424   3.786   5.491
 4558SOL    HW214574   0.344   3.644   5.494
 4559SOL     OW14575   1.101   3.797   1.594
 4559SOL    HW114576   1.032   3.824   1.527
 4559SOL    HW214577   1.101   3.698   1.604
 4560SOL     OW14578   5.571   4.984   2.626
 4560SOL    HW114579   5.592   5.081   2.621
 4560SOL    HW214580   5.643   4.936   2.675
 4561SOL     OW14581   2.515   0.713   1.481
 4561SOL    HW114582   2.513   0.635   1.418
 4561SOL    HW214583   2.423   0.754   1.487
 4562SOL     OW14584   3.435   6.165   4.987
 4562SOL    HW114585   3.338   6.185   4.980
 4562SOL    HW214586   3.451   6.103   5.064
 4563SOL     OW14587   0.725   4.003   1.019
 4563SOL    HW114588   0.658   4.038   1.085
 4563SOL    HW214589   0.703   3.908   0.997
 4564SOL     OW14590   6.668   6.966   0.933
 4564SOL    HW114591   6.735   7.005   0.869
 4564SOL    HW214592   6.712   6.950   1.021
 4565SOL     OW14593   0.112   1.000   5.333
 4565SOL    HW114594   0.179   0.950   5.280
 4565SOL    HW214595   0.136   1.097   5.334
 4566SOL     OW14596   6.823   1.719   0.362
 4566SOL    HW114597   6.907   1.673   0.334
 4566SOL    HW214598   6.750   1.698   0.297
 4567SOL     OW14599   0.077   0.799   0.096
 4567SOL    HW114600   0.106   0.889   0.064
 4567SOL    HW214601   0.150   0.757   0.150
 4568SOL     OW14602   1.537   4.090   5.353
 4568SOL    HW114603   1.475   4.018   5.384
 4568SOL    HW214604   1.632   4.059   5.363
 4569SOL     OW14605   2.254   1.030   3.656
 4569SOL    HW114606   2.166   0.994   3.687
 4569SOL    HW214607   2.278   1.111   3.710
 4570SOL     OW14608   1.193   6.317   3.053
 4570SOL    HW114609   1.202   6.380   2.976
 4570SOL    HW214610   1.103   6.275   3.052
 4571SOL     OW14611   3.881   2.823   6.244
 4571SOL    HW114612   3.814   2.876   6.296
 4571SOL    HW214613   3.839   2.790   6.159
 4572SOL     OW14614   1.356   6.646   0.191
 4572SOL    HW114615   1.372   6.664   0.094
 4572SOL    HW214616   1.354   6.733   0.241
 4573SOL     OW14617   6.459   6.642   0.476
 4573SOL    HW114618   6.380   6.702   0.467
 4573SOL    HW214619   6.451   6.588   0.560
 4574SOL     OW14620   6.578   3.922   1.374
 4574SOL    HW114621   6.528   3.999   1.334
 4574SOL    HW214622   6.521   3.841   1.374
 4575SOL     OW14623   5.795   1.778   6.605
 4575SOL    HW114624   5.807   1.705   6.672
 4575SOL    HW214625   5.853   1.760   6.525
 4576SOL     OW14626   1.963   6.147   6.612
 4576SOL    HW114627   1.897   6.157   6.686
 4576SOL    HW214628   1.924   6.089   6.540
 4577SOL     OW14629   1.028   1.688   4.518
 4577SOL    HW114630   1.042   1.694   4.419
 4577SOL    HW214631   0.948   1.742   4.544
 4578SOL     OW14632   0.796   3.709   4.772
 4578SOL    HW114633   0.738   3.786   4.745
 4578SOL    HW214634   0.755   3.623   4.742
 4579SOL     OW14635   4.898   2.331   3.370
 4579SOL    HW114636   4.922   2.394   3.297
 4579SOL    HW214637   4.913   2.237   3.340
 4580SOL     OW14638   4.676   4.822   0.077
 4580SOL    HW114639   4.732   4.875   0.141
 4580SOL    HW214640   4.580   4.839   0.095
 4581SOL     OW14641   2.885   5.027   3.073
 4581SOL    HW114642   2.871   5.113   3.121
 4581SOL    HW214643   2.881   4.951   3.138
 4582SOL     OW14644   5.922   6.464   4.598
 4582SOL    HW114645   5.892   6.556   4.574
 4582SOL    HW214646   5.922   6.453   4.697
 4583SOL     OW14647   2.538   1.763   5.348
 4583SOL    HW114648   2.450   1.716   5.337
 4583SOL    HW214649   2.578   1.781   5.258
 4584SOL     OW14650   0.303   5.239   5.732
 4584SOL    HW114651   0.290   5.171   5.660
 4584SOL    HW214652   0.232   5.309   5.725
 4585SOL     OW14653   2.655   6.567   3.263
 4585SOL    HW114654   2.600   6.486   3.279
 4585SOL    HW214655   2.596   6.648   3.261
 4586SOL     OW14656   3.444   4.785   0.268
 4586SOL    HW114657   3.471   4.718   0.337
 4586SOL    HW214658   3.352   4.818   0.288
 4587SOL     OW14659   3.993   3.819   2.040
 4587SOL    HW114660   3.964   3.780   2.126
 4587SOL    HW214661   4.043   3.751   1.987
 4588SOL     OW14662   3.706   4.206   5.023
 4588SOL    HW114663   3.690   4.305   5.022
 4588SOL    HW214664   3.775   4.184   5.091
 4589SOL     OW14665   5.738   1.027   2.475
 4589SOL    HW114666   5.756   0.957   2.406
 4589SOL    HW214667   5.647   1.013   2.514
 4590SOL     OW14668   4.774   5.592   0.356
 4590SOL    HW114669   4.686   5.628   0.325
 4590SOL    HW214670   4.848   5.633   0.302
 4591SOL     OW14671   0.818   6.253   4.510
 4591SOL    HW114672   0.781   6.197   4.435
 4591SOL    HW214673   0.892   6.203   4.555
 4592SOL     OW14674   3.298   1.367   1.765
 4592SOL    HW114675   3.229   1.440   1.759
 4592SOL    HW214676   3.377   1.393   1.710
 4593SOL     OW14677   4.342   5.719   3.741
 4593SOL    HW114678   4.268   5.728   3.807
 4593SOL    HW214679   4.379   5.809   3.719
 4594SOL     OW14680   3.125   0.561   1.493
 4594SOL    HW114681   3.215   0.559   1.538
 4594SOL    HW214682   3.134   0.603   1.403
 4595SOL     OW14683   3.991   2.136   6.232
 4595SOL    HW114684   4.088   2.156   6.222
 4595SOL    HW214685   3.947   2.140   6.143
 4596SOL     OW14686   5.873   6.905   2.649
 4596SOL    HW114687   5.831   6.916   2.739
 4596SOL    HW214688   5.832   6.827   2.602
 4597SOL     OW14689   4.525   4.090   6.771
 4597SOL    HW114690   4.540   4.185   6.744
 4597SOL    HW214691   4.608   4.037   6.753
 4598SOL     OW14692   1.929   5.623   6.926
 4598SOL    HW114693   1.999   5.553   6.931
 4598SOL    HW214694   1.903   5.651   7.019
 4599SOL     OW14695   1.107   5.293   0.287
 4599SOL    HW114696   1.149   5.216   0.239
 4599SOL    HW214697   1.016   5.310   0.249
 4600SOL     OW14698   0.935   4.560   5.315
 4600SOL    HW114699   0.966   4.493   5.383
 4600SOL    HW214700   0.908   4.644   5.362
 4601SOL     OW14701   1.644   6.853   5.814
 4601SOL    HW114702   1.741   6.856   5.837
 4601SOL    HW214703   1.592   6.906   5.881
 4602SOL     OW14704   1.135   5.580   1.650
 4602SOL    HW114705   1.136   5.615   1.556
 4602SOL    HW214706   1.041   5.579   1.684
 4603SOL     OW14707   3.014   6.282   0.943
 4603SOL    HW114708   2.924   6.260   0.906
 4603SOL    HW214709   3.012   6.374   0.983
 4604SOL     OW14710   4.615   0.354   1.436
 4604SOL    HW114711   4.602   0.328   1.532
 4604SOL    HW214712   4.621   0.271   1.380
 4605SOL     OW14713   3.333   0.850   3.385
 4605SOL    HW114714   3.357   0.846   3.483
 4605SOL    HW214715   3.364   0.766   3.341
 4606SOL     OW14716   0.731   0.278   1.653
 4606SOL    HW114717   0.803   0.344   1.630
 4606SOL    HW214718   0.658   0.283   1.585
 4607SOL     OW14719   2.556   2.352   0.701
 4607SOL    HW114720   2.606   2.385   0.781
 4607SOL    HW214721   2.611   2.370   0.619
 4608SOL     OW14722   1.109   5.982   3.569
 4608SOL    HW114723   1.042   6.050   3.540
 4608SOL    HW214724   1.070   5.890   3.556
 4609SOL     OW14725   4.500   5.044   6.214
 4609SOL    HW114726   4.418   5.005   6.171
 4609SOL    HW214727   4.524   5.130   6.168
 4610SOL     OW14728   5.074   2.650   0.757
 4610SOL    HW114729   5.137   2.727   0.765
 4610SOL    HW214730   5.036   2.647   0.664
 4611SOL     OW14731   0.170   6.076   5.606
 4611SOL    HW114732   0.103   6.021   5.655
 4611SOL    HW214733   0.258   6.073   5.654
 4612SOL     OW14734   1.152   5.755   6.927
 4612SOL    HW114735   1.245   5.719   6.928
 4612SOL    HW214736   1.154   5.853   6.910
 4613SOL     OW14737   2.395   5.967   2.245
 4613SOL    HW114738   2.445   6.013   2.172
 4613SOL    HW214739   2.445   5.885   2.275
 4614SOL     OW14740   6.847   3.726   4.328
 4614SOL    HW114741   6.775   3.658   4.314
 4614SOL    HW214742   6.868   3.733   4.425
 4615SOL     OW14743   1.943   0.774   0.374
 4615SOL    HW114744   1.978   0.707   0.308
 4615SOL    HW214745   1.947   0.736   0.466
 4616SOL     OW14746   6.408   0.797   5.798
 4616SOL    HW114747   6.459   0.828   5.879
 4616SOL    HW214748   6.371   0.877   5.750
 4617SOL     OW14749   0.636   2.741   2.219
 4617SOL    HW114750   0.539   2.739   2.195
 4617SOL    HW214751   0.665   2.649   2.246
 4618SOL     OW14752   1.941   2.837   5.020
 4618SOL    HW114753   2.015   2.895   5.054
 4618SOL    HW214754   1.858   2.891   5.008
 4619SOL     OW14755   3.171   6.293   2.949
 4619SOL    HW114756   3.243   6.329   3.008
 4619SOL    HW214757   3.213   6.251   2.868
 4620SOL     OW14758   2.527   4.863   0.385
 4620SOL    HW114759   2.605   4.907   0.428
 4620SOL    HW214760   2.536   4.869   0.285
 4621SOL     OW14761   5.009   1.278   2.516
 4621SOL    HW114762   4.945   1.203   2.497
 4621SOL    HW214763   5.054   1.305   2.431
 4622SOL     OW14764   2.417   4.033   0.329
 4622SOL    HW114765   2.394   3.937   0.342
 4622SOL    HW214766   2.438   4.050   0.232
 4623SOL     OW14767   6.056   6.383   0.317
 4623SOL    HW114768   6.149   6.390   0.281
 4623SOL    HW214769   6.044   6.447   0.393
 4624SOL     OW14770   5.563   0.350   3.208
 4624SOL    HW114771   5.640   0.347   3.145
 4624SOL    HW214772   5.593   0.321   3.299
 4625SOL     OW14773   1.505   3.946   0.161
 4625SOL    HW114774   1.585   3.974   0.213
 4625SOL    HW214775   1.450   3.882   0.216
 4626SOL     OW14776   5.325   5.735   2.040
 4626SOL    HW114777   5.277   5.820   2.062
 4626SOL    HW214778   5.280   5.690   1.963
 4627SOL     OW14779   2.892   4.968   4.012
 4627SOL    HW114780   2.990   4.962   4.032
 4627SOL    HW214781   2.849   4.881   4.034
 4628SOL     OW14782   5.751   4.143   4.059
 4628SOL    HW114783   5.680   4.089   4.103
 4628SOL    HW214784   5.832   4.086   4.044
 4629SOL     OW14785   2.388   5.195   5.851
 4629SOL    HW114786   2.353   5.103   5.867
 4629SOL    HW214787   2.395   5.212   5.753
 4630SOL     OW14788   3.873   5.549   2.210
 4630SOL    HW114789   3.924   5.609   2.149
 4630SOL    HW214790   3.936   5.499   2.270
 4631SOL     OW14791   2.285   6.525   3.105
 4631SOL    HW114792   2.331   6.547   3.019
 4631SOL    HW214793   2.252   6.430   3.101
 4632SOL     OW14794   3.728   5.268   2.575
 4632SOL    HW114795   3.750   5.214   2.493
 4632SOL    HW214796   3.803   5.332   2.593
 4633SOL     OW14797   5.156   1.443   3.789
 4633SOL    HW114798   5.118   1.372   3.730
 4633SOL    HW214799   5.083   1.486   3.841
 4634SOL     OW14800   2.790   4.983   6.082
 4634SOL    HW114801   2.796   4.916   6.009
 4634SOL    HW214802   2.745   5.066   6.048
 4635SOL     OW14803   5.581   3.755   1.356
 4635SOL    HW114804   5.515   3.684   1.380
 4635SOL    HW214805   5.576   3.829   1.423
 4636SOL     OW14806   2.580   4.893   0.088
 4636SOL    HW114807   2.518   4.965   0.058
 4636SOL    HW214808   2.675   4.926   0.081
 4637SOL     OW14809   0.978   0.342   6.819
 4637SOL    HW114810   0.898   0.389   6.856
 4637SOL    HW214811   1.044   0.325   6.892
 4638SOL     OW14812   4.910   2.974   6.975
 4638SOL    HW114813   4.994   2.961   0.005
 4638SOL    HW214814   4.850   3.037   0.001
 4639SOL     OW14815   2.289   4.374   5.259
 4639SOL    HW114816   2.351   4.449   5.281
 4639SOL    HW214817   2.270   4.374   5.161
 4640SOL     OW14818   4.988   4.781   3.596
 4640SOL    HW114819   4.934   4.857   3.561
 4640SOL    HW214820   4.975   4.773   3.695
 4641SOL     OW14821   2.369   6.557   4.910
 4641SOL    HW114822   2.390   6.519   5.000
 4641SOL    HW214823   2.378   6.656   4.912
 4642SOL     OW14824   0.070   5.348   3.746
 4642SOL    HW114825   0.009   5.351   3.825
 4642SOL    HW214826   0.036   5.279   3.681
 4643SOL     OW14827   5.743   3.069   1.354
 4643SOL    HW114828   5.768   3.162   1.325
 4643SOL    HW214829   5.809   3.037   1.422
 4644SOL     OW14830   0.141   4.736   4.872
 4644SOL    HW114831   0.168   4.643   4.896
 4644SOL    HW214832   0.043   4.737   4.851
 4645SOL     OW14833   0.670   1.548   4.389
 4645SOL    HW114834   0.695   1.461   4.432
 4645SOL    HW214835   0.738   1.571   4.319
 4646SOL     OW14836   2.302   5.403   3.890
 4646SOL    HW114837   2.215   5.451   3.878
 4646SOL    HW214838   2.338   5.423   3.981
 4647SOL     OW14839   1.358   1.197   3.962
 4647SOL    HW114840   1.444   1.205   3.911
 4647SOL    HW214841   1.296   1.271   3.935
 4648SOL     OW14842   4.505   1.256   2.283
 4648SOL    HW114843   4.405   1.250   2.284
 4648SOL    HW214844   4.544   1.165   2.276
 4649SOL     OW14845   5.579   0.230   6.327
 4649SOL    HW114846   5.554   0.133   6.337
 4649SOL    HW214847   5.586   0.272   6.417
 4650SOL     OW14848   4.865   5.779   3.598
 4650SOL    HW114849   4.953   5.797   3.554
 4650SOL    HW214850   4.880   5.748   3.692
 4651SOL     OW14851   6.705   1.681   0.658
 4651SOL    HW114852   6.765   1.601   0.659
 4651SOL    HW214853   6.714   1.727   0.569
 4652SOL     OW14854   0.030   0.136   4.495
 4652SOL    HW114855   0.115   0.190   4.502
 4652SOL    HW214856   0.017   0.084   4.579
 4653SOL     OW14857   5.746   5.307   0.312
 4653SOL    HW114858   5.720   5.403   0.322
 4653SOL    HW214859   5.690   5.264   0.241
 4654SOL     OW14860   0.840   6.374   0.264
 4654SOL    HW114861   0.788   6.326   0.193
 4654SOL    HW214862   0.813   6.470   0.266
 4655SOL     OW14863   6.533   4.843   1.841
 4655SOL    HW114864   6.487   4.754   1.832
 4655SOL    HW214865   6.501   4.888   1.925
 4656SOL     OW14866   1.074   0.290   3.732
 4656SOL    HW114867   1.090   0.192   3.742
 4656SOL    HW214868   1.028   0.325   3.814
 4657SOL     OW14869   5.367   6.128   1.451
 4657SOL    HW114870   5.380   6.125   1.550
 4657SOL    HW214871   5.432   6.065   1.407
 4658SOL     OW14872   4.141   1.307   2.627
 4658SOL    HW114873   4.173   1.216   2.654
 4658SOL    HW214874   4.087   1.299   2.543
 4659SOL     OW14875   3.022   4.288   5.238
 4659SOL    HW114876   3.004   4.380   5.205
 4659SOL    HW214877   2.937   4.247   5.270
 4660SOL     OW14878   0.758   3.983   5.354
 4660SOL    HW114879   0.844   4.035   5.352
 4660SOL    HW214880   0.776   3.891   5.387
 4661SOL     OW14881   3.333   3.752   5.732
 4661SOL    HW114882   3.393   3.697   5.789
 4661SOL    HW214883   3.387   3.803   5.665
 4662SOL     OW14884   3.687   6.790   4.862
 4662SOL    HW114885   3.645   6.765   4.775
 4662SOL    HW214886   3.779   6.751   4.867
 4663SOL     OW14887   0.906   1.398   2.568
 4663SOL    HW114888   0.875   1.464   2.499
 4663SOL    HW214889   0.840   1.323   2.573
 4664SOL     OW14890   1.540   1.364   0.590
 4664SOL    HW114891   1.505   1.365   0.496
 4664SOL    HW214892   1.637   1.339   0.589
 4665SOL     OW14893   3.773   0.066   0.242
 4665SOL    HW114894   3.775   6.989   0.226
 4665SOL    HW214895   3.760   0.114   0.156
 4666SOL     OW14896   1.345   1.824   1.166
 4666SOL    HW114897   1.416   1.829   1.096
 4666SOL    HW214898   1.378   1.866   1.251
 4667SOL     OW14899   6.253   3.774   1.981
 4667SOL    HW114900   6.156   3.769   1.958
 4667SOL    HW214901   6.287   3.866   1.960
 4668SOL     OW14902   4.812   1.997   2.968
 4668SOL    HW114903   4.714   2.016   2.964
 4668SOL    HW214904   4.827   1.898   2.960
 4669SOL     OW14905   4.398   6.564   6.555
 4669SOL    HW114906   4.483   6.608   6.526
 4669SOL    HW214907   4.413   6.513   6.639
 4670SOL     OW14908   3.043   2.072   5.213
 4670SOL    HW114909   3.081   2.148   5.160
 4670SOL    HW214910   3.029   2.101   5.307
 4671SOL     OW14911   6.977   2.867   2.287
 4671SOL    HW114912   6.903   2.869   2.221
 4671SOL    HW214913   0.016   2.944   2.271
 4672SOL     OW14914   2.942   4.524   6.370
 4672SOL    HW114915   3.026   4.559   6.330
 4672SOL    HW214916   2.959   4.495   6.465
 4673SOL     OW14917   5.013   6.626   1.302
 4673SOL    HW114918   4.933   6.680   1.327
 4673SOL    HW214919   5.038   6.567   1.379
 4674SOL     OW14920   4.778   0.187   6.568
 4674SOL    HW114921   4.703   0.248   6.592
 4674SOL    HW214922   4.774   0.166   6.471
 4675SOL     OW14923   0.538   1.187   6.315
 4675SOL    HW114924   0.461   1.136   6.354
 4675SOL    HW214925   0.504   1.268   6.268
 4676SOL     OW14926   6.905   6.418   3.927
 4676SOL    HW114927   6.987   6.425   3.870
 4676SOL    HW214928   6.927   6.372   4.013
 4677SOL     OW14929   2.712   0.950   0.200
 4677SOL    HW114930   2.658   0.931   0.282
 4677SOL    HW214931   2.674   1.029   0.152
 4678SOL     OW14932   2.003   4.648   3.308
 4678SOL    HW114933   2.015   4.549   3.305
 4678SOL    HW214934   1.949   4.677   3.228
 4679SOL     OW14935   3.505   0.403   0.888
 4679SOL    HW114936   3.442   0.432   0.959
 4679SOL    HW214937   3.560   0.326   0.921
 4680SOL     OW14938   3.211   1.781   6.831
 4680SOL    HW114939   3.173   1.855   6.775
 4680SOL    HW214940   3.258   1.716   6.771
 4681SOL     OW14941   5.161   5.192   6.981
 4681SOL    HW114942   5.073   5.149   6.960
 4681SOL    HW214943   5.227   5.171   6.908
 4682SOL     OW14944   4.842   4.804   5.291
 4682SOL    HW114945   4.800   4.714   5.286
 4682SOL    HW214946   4.821   4.846   5.380
 4683SOL     OW14947   5.220   5.100   2.499
 4683SOL    HW114948   5.202   5.002   2.487
 4683SOL    HW214949   5.311   5.121   2.462
 4684SOL     OW14950   5.892   0.822   5.470
 4684SOL    HW114951   5.977   0.816   5.417
 4684SOL    HW214952   5.915   0.836   5.567
 4685SOL     OW14953   1.387   5.209   5.739
 4685SOL    HW114954   1.308   5.163   5.698
 4685SOL    HW214955   1.374   5.308   5.731
 4686SOL     OW14956   4.346   5.115   6.981
 4686SOL    HW114957   4.429   5.156   6.943
 4686SOL    HW214958   4.350   5.118   0.059
 4687SOL     OW14959   5.173   3.495   4.418
 4687SOL    HW114960   5.264   3.528   4.392
 4687SOL    HW214961   5.107   3.517   4.346
 4688SOL     OW14962   5.888   4.482   5.444
 4688SOL    HW114963   5.920   4.534   5.524
 4688SOL    HW214964   5.966   4.442   5.397
 4689SOL     OW14965   4.785   1.007   0.035
 4689SOL    HW114966   4.758   1.093   0.078
 4689SOL    HW214967   4.884   1.009   0.016
 4690SOL     OW14968   1.196   0.261   7.008
 4690SOL    HW114969   1.285   0.307   7.007
 4690SOL    HW214970   1.207   0.167   0.016
 4691SOL     OW14971   3.009   4.558   1.180
 4691SOL    HW114972   3.089   4.510   1.144
 4691SOL    HW214973   3.006   4.549   1.280
 4692SOL     OW14974   5.607   5.610   2.150
 4692SOL    HW114975   5.535   5.649   2.092
 4692SOL    HW214976   5.661   5.685   2.191
 4693SOL     OW14977   1.380   1.926   3.406
 4693SOL    HW114978   1.383   2.020   3.440
 4693SOL    HW214979   1.472   1.894   3.387
 4694SOL     OW14980   1.999   1.063   0.286
 4694SOL    HW114981   1.971   0.971   0.315
 4694SOL    HW214982   1.937   1.094   0.213
 4695SOL     OW14983   1.015   4.480   2.523
 4695SOL    HW114984   0.970   4.536   2.594
 4695SOL    HW214985   0.958   4.478   2.441
 4696SOL     OW14986   0.278   3.804   0.531
 4696SOL    HW114987   0.345   3.821   0.458
 4696SOL    HW214988   0.312   3.731   0.590
 4697SOL     OW14989   1.489   3.446   1.311
 4697SOL    HW114990   1.574   3.439   1.259
 4697SOL    HW214991   1.447   3.355   1.316
 4698SOL     OW14992   4.483   5.621   2.448
 4698SOL    HW114993   4.468   5.654   2.355
 4698SOL    HW214994   4.427   5.674   2.512
 4699SOL     OW14995   1.111   6.669   2.269
 4699SOL    HW114996   1.168   6.680   2.187
 4699SOL    HW214997   1.152   6.601   2.329
 4700SOL     OW14998   6.838   1.193   2.856
 4700SOL    HW114999   6.740   1.199   2.838
 4700SOL    HW215000   6.866   1.097   2.857
 4701SOL     OW15001   2.691   2.123   0.399
 4701SOL    HW115002   2.655   2.078   0.481
 4701SOL    HW215003   2.748   2.201   0.426
 4702SOL     OW15004   4.913   4.897   0.210
 4702SOL    HW115005   4.959   4.821   0.164
 4702SOL    HW215006   4.927   4.981   0.158
 4703SOL     OW15007   0.113   1.582   2.544
 4703SOL    HW115008   0.058   1.655   2.505
 4703SOL    HW215009   0.068   1.546   2.626
 4704SOL     OW15010   6.576   6.285   6.409
 4704SOL    HW115011   6.636   6.362   6.433
 4704SOL    HW215012   6.482   6.318   6.401
 4705SOL     OW15013   4.112   2.902   1.450
 4705SOL    HW115014   4.092   2.866   1.541
 4705SOL    HW215015   4.188   2.967   1.455
 4706SOL     OW15016   2.424   0.099   0.579
 4706SOL    HW115017   2.498   0.068   0.639
 4706SOL    HW215018   2.434   0.197   0.561
 4707SOL     OW15019   0.878   6.664   0.289
 4707SOL    HW115020   0.806   6.729   0.269
 4707SOL    HW215021   0.941   6.659   0.211
 4708SOL     OW15022   1.356   2.246   6.344
 4708SOL    HW115023   1.266   2.288   6.351
 4708SOL    HW215024   1.420   2.311   6.304
 4709SOL     OW15025   4.645   5.710   5.302
 4709SOL    HW115026   4.700   5.641   5.254
 4709SOL    HW215027   4.575   5.746   5.240
 4710SOL     OW15028   4.817   0.083   5.950
 4710SOL    HW115029   4.887   0.034   6.004
 4710SOL    HW215030   4.851   0.174   5.928
 4711SOL     OW15031   5.983   1.190   1.488
 4711SOL    HW115032   5.994   1.126   1.564
 4711SOL    HW215033   6.073   1.227   1.463
 4712SOL     OW15034   3.076   4.651   6.744
 4712SOL    HW115035   3.138   4.690   6.677
 4712SOL    HW215036   2.985   4.691   6.733
 4713SOL     OW15037   3.492   4.391   0.849
 4713SOL    HW115038   3.588   4.415   0.862
 4713SOL    HW215039   3.475   4.301   0.891
 4714SOL     OW15040   0.737   1.817   6.266
 4714SOL    HW115041   0.820   1.799   6.319
 4714SOL    HW215042   0.659   1.773   6.310
 4715SOL     OW15043   6.064   3.174   2.195
 4715SOL    HW115044   6.120   3.234   2.253
 4715SOL    HW215045   6.012   3.112   2.252
 4716SOL     OW15046   4.395   6.493   6.129
 4716SOL    HW115047   4.311   6.496   6.075
 4716SOL    HW215048   4.374   6.461   6.221
 4717SOL     OW15049   0.507   5.977   3.808
 4717SOL    HW115050   0.467   6.045   3.869
 4717SOL    HW215051   0.442   5.901   3.796
 4718SOL     OW15052   6.030   2.197   1.579
 4718SOL    HW115053   6.019   2.290   1.614
 4718SOL    HW215054   5.955   2.176   1.516
 4719SOL     OW15055   4.781   3.002   1.708
 4719SOL    HW115056   4.715   3.010   1.783
 4719SOL    HW215057   4.856   3.066   1.722
 4720SOL     OW15058   2.131   5.017   6.119
 4720SOL    HW115059   2.167   5.089   6.178
 4720SOL    HW215060   2.032   5.024   6.113
 4721SOL     OW15061   6.640   1.853   2.410
 4721SOL    HW115062   6.607   1.904   2.489
 4721SOL    HW215063   6.661   1.759   2.437
 4722SOL     OW15064   1.351   6.323   6.560
 4722SOL    HW115065   1.387   6.377   6.484
 4722SOL    HW215066   1.337   6.228   6.531
 4723SOL     OW15067   3.108   3.056   5.734
 4723SOL    HW115068   3.199   3.030   5.702
 4723SOL    HW215069   3.053   3.085   5.656
 4724SOL     OW15070   6.230   6.791   3.339
 4724SOL    HW115071   6.157   6.729   3.311
 4724SOL    HW215072   6.236   6.867   3.274
 4725SOL     OW15073   6.931   5.187   0.950
 4725SOL    HW115074   7.018   5.181   0.899
 4725SOL    HW215075   6.949   5.216   1.043
 4726SOL     OW15076   0.824   3.343   6.183
 4726SOL    HW115077   0.909   3.394   6.194
 4726SOL    HW215078   0.829   3.288   6.101
 4727SOL     OW15079   1.046   6.231   1.246
 4727SOL    HW115080   1.046   6.330   1.260
 4727SOL    HW215081   0.955   6.201   1.216
 4728SOL     OW15082   5.699   1.516   1.448
 4728SOL    HW115083   5.742   1.604   1.427
 4728SOL    HW215084   5.638   1.527   1.527
 4729SOL     OW15085   4.117   1.861   0.680
 4729SOL    HW115086   4.067   1.946   0.699
 4729SOL    HW215087   4.100   1.833   0.586
 4730SOL     OW15088   3.347   5.864   5.564
 4730SOL    HW115089   3.248   5.853   5.559
 4730SOL    HW215090   3.375   5.875   5.660
 4731SOL     OW15091   3.166   0.497   7.006
 4731SOL    HW115092   3.144   0.503   6.909
 4731SOL    HW215093   3.259   0.528   7.021
 4732SOL     OW15094   1.673   4.532   5.227
 4732SOL    HW115095   1.662   4.435   5.251
 4732SOL    HW215096   1.748   4.542   5.161
 4733SOL     OW15097   1.791   4.385   3.641
 4733SOL    HW115098   1.863   4.319   3.621
 4733SOL    HW215099   1.722   4.381   3.568
 4734SOL     OW15100   4.483   3.682   0.148
 4734SOL    HW115101   4.386   3.663   0.133
 4734SOL    HW215102   4.510   3.762   0.094
 4735SOL     OW15103   0.204   5.158   4.611
 4735SOL    HW115104   0.302   5.149   4.595
 4735SOL    HW215105   0.183   5.250   4.643
 4736SOL     OW15106   5.943   1.752   5.802
 4736SOL    HW115107   6.000   1.829   5.771
 4736SOL    HW215108   5.945   1.680   5.733
 4737SOL     OW15109   2.929   4.291   1.695
 4737SOL    HW115110   2.916   4.365   1.762
 4737SOL    HW215111   2.841   4.248   1.676
 4738SOL     OW15112   1.790   6.065   3.165
 4738SOL    HW115113   1.724   6.000   3.202
 4738SOL    HW215114   1.830   6.027   3.082
 4739SOL     OW15115   4.701   1.596   2.821
 4739SOL    HW115116   4.708   1.497   2.823
 4739SOL    HW215117   4.670   1.626   2.731
 4740SOL     OW15118   0.218   1.854   0.766
 4740SOL    HW115119   0.255   1.821   0.853
 4740SOL    HW215120   0.133   1.805   0.745
 4741SOL     OW15121   5.662   3.726   0.710
 4741SOL    HW115122   5.618   3.741   0.621
 4741SOL    HW215123   5.758   3.700   0.696
 4742SOL     OW15124   3.198   6.615   6.856
 4742SOL    HW115125   3.283   6.640   6.902
 4742SOL    HW215126   3.120   6.636   6.916
 4743SOL     OW15127   1.991   3.702   5.130
 4743SOL    HW115128   2.071   3.672   5.078
 4743SOL    HW215129   1.969   3.634   5.200
 4744SOL     OW15130   2.493   4.068   6.393
 4744SOL    HW115131   2.395   4.077   6.410
 4744SOL    HW215132   2.511   4.072   6.294
 4745SOL     OW15133   3.382   5.258   5.916
 4745SOL    HW115134   3.430   5.197   5.979
 4745SOL    HW215135   3.382   5.218   5.824
 4746SOL     OW15136   5.352   6.255   2.441
 4746SOL    HW115137   5.361   6.190   2.516
 4746SOL    HW215138   5.303   6.336   2.473
 4747SOL     OW15139   1.709   3.991   6.107
 4747SOL    HW115140   1.702   3.989   6.207
 4747SOL    HW215141   1.617   4.003   6.068
 4748SOL     OW15142   1.184   4.573   0.752
 4748SOL    HW115143   1.118   4.647   0.745
 4748SOL    HW215144   1.152   4.504   0.816
 4749SOL     OW15145   3.046   6.370   5.539
 4749SOL    HW115146   2.983   6.427   5.486
 4749SOL    HW215147   3.023   6.376   5.636
 4750SOL     OW15148   0.163   3.950   3.809
 4750SOL    HW115149   0.109   4.033   3.797
 4750SOL    HW215150   0.258   3.974   3.830
 4751SOL     OW15151   3.394   1.928   1.400
 4751SOL    HW115152   3.325   1.998   1.379
 4751SOL    HW215153   3.467   1.968   1.456
 4752SOL     OW15154   3.818   0.722   6.726
 4752SOL    HW115155   3.892   0.669   6.684
 4752SOL    HW215156   3.849   0.759   6.814
 4753SOL     OW15157   5.275   7.015   3.914
 4753SOL    HW115158   5.319   6.947   3.854
 4753SOL    HW215159   5.305   7.000   4.008
 4754SOL     OW15160   5.825   6.862   4.766
 4754SOL    HW115161   5.859   6.814   4.846
 4754SOL    HW215162   5.888   6.936   4.742
 4755SOL     OW15163   2.029   0.571   1.024
 4755SOL    HW115164   1.952   0.560   0.961
 4755SOL    HW215165   2.008   0.525   1.110
 4756SOL     OW15166   6.039   3.125   1.121
 4756SOL    HW115167   6.128   3.106   1.081
 4756SOL    HW215168   6.040   3.103   1.218
 4757SOL     OW15169   2.340   1.825   0.798
 4757SOL    HW115170   2.407   1.820   0.873
 4757SOL    HW215171   2.330   1.920   0.769
 4758SOL     OW15172   2.519   6.899   4.469
 4758SOL    HW115173   2.527   6.799   4.466
 4758SOL    HW215174   2.437   6.928   4.419
 4759SOL     OW15175   5.369   5.105   4.615
 4759SOL    HW115176   5.390   5.183   4.555
 4759SOL    HW215177   5.435   5.032   4.599
 4760SOL     OW15178   2.622   1.953   0.643
 4760SOL    HW115179   2.696   1.889   0.625
 4760SOL    HW215180   2.611   1.965   0.742
 4761SOL     OW15181   0.472   6.029   0.125
 4761SOL    HW115182   0.426   6.049   0.038
 4761SOL    HW215183   0.561   5.987   0.106
 4762SOL     OW15184   1.392   5.866   2.517
 4762SOL    HW115185   1.315   5.811   2.551
 4762SOL    HW215186   1.381   5.960   2.549
 4763SOL     OW15187   6.647   6.494   3.279
 4763SOL    HW115188   6.589   6.555   3.334
 4763SOL    HW215189   6.591   6.453   3.206
 4764SOL     OW15190   4.897   3.778   4.831
 4764SOL    HW115191   4.884   3.721   4.749
 4764SOL    HW215192   4.859   3.732   4.910
 4765SOL     OW15193   4.582   0.857   3.859
 4765SOL    HW115194   4.570   0.951   3.827
 4765SOL    HW215195   4.527   0.842   3.941
 4766SOL     OW15196   5.378   5.524   4.129
 4766SOL    HW115197   5.330   5.526   4.042
 4766SOL    HW215198   5.341   5.595   4.189
 4767SOL     OW15199   3.620   5.502   5.800
 4767SOL    HW115200   3.629   5.533   5.705
 4767SOL    HW215201   3.590   5.407   5.801
 4768SOL     OW15202   4.356   1.653   5.747
 4768SOL    HW115203   4.376   1.742   5.706
 4768SOL    HW215204   4.293   1.665   5.824
 4769SOL     OW15205   5.152   4.088   0.022
 4769SOL    HW115206   5.072   4.148   0.015
 4769SOL    HW215207   5.124   3.993   0.006
 4770SOL     OW15208   1.221   0.572   4.427
 4770SOL    HW115209   1.230   0.477   4.397
 4770SOL    HW215210   1.140   0.581   4.483
 4771SOL     OW15211   3.922   5.700   5.182
 4771SOL    HW115212   3.860   5.622   5.184
 4771SOL    HW215213   3.993   5.686   5.113
 4772SOL     OW15214   3.379   4.763   1.298
 4772SOL    HW115215   3.279   4.767   1.295
 4772SOL    HW215216   3.418   4.834   1.239
 4773SOL     OW15217   6.992   5.477   4.259
 4773SOL    HW115218   7.005   5.474   4.358
 4773SOL    HW215219   6.908   5.528   4.238
 4774SOL     OW15220   1.235   2.983   2.180
 4774SOL    HW115221   1.145   2.949   2.154
 4774SOL    HW215222   1.305   2.918   2.151
 4775SOL     OW15223   4.860   6.206   2.607
 4775SOL    HW115224   4.932   6.143   2.635
 4775SOL    HW215225   4.777   6.154   2.585
 4776SOL     OW15226   1.471   6.588   5.435
 4776SOL    HW115227   1.471   6.626   5.528
 4776SOL    HW215228   1.492   6.661   5.370
 4777SOL     OW15229   2.324   4.762   1.086
 4777SOL    HW115230   2.332   4.767   0.986
 4777SOL    HW215231   2.414   4.774   1.127
 4778SOL     OW15232   6.772   2.584   3.400
 4778SOL    HW115233   6.722   2.669   3.386
 4778SOL    HW215234   6.856   2.585   3.345
 4779SOL     OW15235   6.464   6.332   2.756
 4779SOL    HW115236   6.547   6.285   2.728
 4779SOL    HW215237   6.421   6.375   2.676
 4780SOL     OW15238   5.400   0.844   0.137
 4780SOL    HW115239   5.356   0.773   0.192
 4780SOL    HW215240   5.499   0.843   0.154
 4781SOL     OW15241   2.482   5.999   1.902
 4781SOL    HW115242   2.528   5.991   1.814
 4781SOL    HW215243   2.387   6.027   1.888
 4782SOL     OW15244   4.387   5.662   0.376
 4782SOL    HW115245   4.441   5.745   0.366
 4782SOL    HW215246   4.443   5.591   0.418
 4783SOL     OW15247   4.580   4.190   0.431
 4783SOL    HW115248   4.661   4.239   0.464
 4783SOL    HW215249   4.600   4.093   0.424
 4784SOL     OW15250   6.060   4.346   0.098
 4784SOL    HW115251   6.099   4.315   0.011
 4784SOL    HW215252   5.980   4.290   0.120
 4785SOL     OW15253   0.220   6.529   2.226
 4785SOL    HW115254   0.283   6.510   2.151
 4785SOL    HW215255   0.268   6.580   2.298
 4786SOL     OW15256   2.684   1.854   0.216
 4786SOL    HW115257   2.721   1.777   0.268
 4786SOL    HW215258   2.757   1.896   0.163
 4787SOL     OW15259   3.964   1.758   2.555
 4787SOL    HW115260   3.892   1.693   2.530
 4787SOL    HW215261   4.047   1.707   2.579
 4788SOL     OW15262   0.567   5.645   5.170
 4788SOL    HW115263   0.583   5.547   5.163
 4788SOL    HW215264   0.654   5.691   5.187
 4789SOL     OW15265   5.054   1.619   0.860
 4789SOL    HW115266   5.025   1.585   0.771
 4789SOL    HW215267   5.148   1.592   0.877
 4790SOL     OW15268   6.195   2.148   5.174
 4790SOL    HW115269   6.210   2.247   5.180
 4790SOL    HW215270   6.183   2.111   5.266
 4791SOL     OW15271   6.585   2.633   1.733
 4791SOL    HW115272   6.541   2.584   1.809
 4791SOL    HW215273   6.678   2.598   1.722
 4792SOL     OW15274   1.866   3.996   3.230
 4792SOL    HW115275   1.820   4.082   3.250
 4792SOL    HW215276   1.963   4.012   3.217
 4793SOL     OW15277   1.747   2.623   5.616
 4793SOL    HW115278   1.756   2.619   5.517
 4793SOL    HW215279   1.821   2.680   5.654
 4794SOL     OW15280   4.489   0.479   3.231
 4794SOL    HW115281   4.475   0.536   3.311
 4794SOL    HW215282   4.438   0.517   3.154
 4795SOL     OW15283   5.750   2.956   4.099
 4795SOL    HW115284   5.710   2.899   4.171
 4795SOL    HW215285   5.702   3.044   4.096
 4796SOL     OW15286   5.147   1.568   5.280
 4796SOL    HW115287   5.224   1.539   5.224
 4796SOL    HW215288   5.093   1.487   5.305
 4797SOL     OW15289   1.083   6.489   5.453
 4797SOL    HW115290   1.006   6.519   5.509
 4797SOL    HW215291   1.159   6.461   5.512
 4798SOL     OW15292   6.915   3.683   4.593
 4798SOL    HW115293   6.858   3.615   4.638
 4798SOL    HW215294   7.010   3.672   4.622
 4799SOL     OW15295   5.186   2.260   0.078
 4799SOL    HW115296   5.182   2.177   0.133
 4799SOL    HW215297   5.261   2.252   0.012
 4800SOL     OW15298   3.489   2.917   6.067
 4800SOL    HW115299   3.489   2.900   5.968
 4800SOL    HW215300   3.406   2.967   6.092
 4801SOL     OW15301   2.698   2.462   6.464
 4801SOL    HW115302   2.622   2.445   6.402
 4801SOL    HW215303   2.694   2.397   6.540
 4802SOL     OW15304   1.274   6.484   2.059
 4802SOL    HW115305   1.275   6.405   2.121
 4802SOL    HW215306   1.256   6.453   1.966
 4803SOL     OW15307   1.020   5.276   0.920
 4803SOL    HW115308   0.923   5.296   0.904
 4803SOL    HW215309   1.040   5.184   0.888
 4804SOL     OW15310   5.252   5.864   0.398
 4804SOL    HW115311   5.189   5.942   0.394
 4804SOL    HW215312   5.338   5.888   0.353
 4805SOL     OW15313   5.393   1.814   2.725
 4805SOL    HW115314   5.426   1.838   2.817
 4805SOL    HW215315   5.470   1.816   2.661
 4806SOL     OW15316   1.400   4.583   3.193
 4806SOL    HW115317   1.347   4.621   3.117
 4806SOL    HW215318   1.462   4.653   3.229
 4807SOL     OW15319   0.760   4.880   0.518
 4807SOL    HW115320   0.723   4.937   0.445
 4807SOL    HW215321   0.839   4.829   0.483
 4808SOL     OW15322   5.436   4.127   0.006
 4808SOL    HW115323   5.341   4.097   7.016
 4808SOL    HW215324   5.464   4.181   6.950
 4809SOL     OW15325   3.612   4.243   0.011
 4809SOL    HW115326   3.641   4.166   0.068
 4809SOL    HW215327   3.515   4.261   0.027
 4810SOL     OW15328   1.478   4.744   2.745
 4810SOL    HW115329   1.492   4.645   2.741
 4810SOL    HW215330   1.401   4.769   2.687
 4811SOL     OW15331   2.744   3.764   1.757
 4811SOL    HW115332   2.819   3.729   1.701
 4811SOL    HW215333   2.755   3.731   1.851
 4812SOL     OW15334   6.478   5.154   3.392
 4812SOL    HW115335   6.416   5.114   3.324
 4812SOL    HW215336   6.431   5.227   3.442
 4813SOL     OW15337   5.280   2.537   1.298
 4813SOL    HW115338   5.294   2.633   1.320
 4813SOL    HW215339   5.368   2.495   1.274
 4814SOL     OW15340   6.959   3.899   0.783
 4814SOL    HW115341   6.914   3.866   0.866
 4814SOL    HW215342   6.917   3.858   0.703
 4815SOL     OW15343   5.604   4.370   2.827
 4815SOL    HW115344   5.518   4.322   2.845
 4815SOL    HW215345   5.679   4.323   2.873
 4816SOL     OW15346   1.896   4.561   0.779
 4816SOL    HW115347   1.862   4.469   0.798
 4816SOL    HW215348   1.995   4.557   0.765
 4817SOL     OW15349   0.250   2.029   6.170
 4817SOL    HW115350   0.330   2.088   6.180
 4817SOL    HW215351   0.167   2.085   6.169
 4818SOL     OW15352   1.493   6.067   3.937
 4818SOL    HW115353   1.532   6.066   3.845
 4818SOL    HW215354   1.407   6.119   3.937
 4819SOL     OW15355   1.747   1.865   0.404
 4819SOL    HW115356   1.655   1.866   0.365
 4819SOL    HW215357   1.809   1.819   0.341
 4820SOL     OW15358   6.072   2.220   2.232
 4820SOL    HW115359   6.024   2.285   2.291
 4820SOL    HW215360   6.020   2.206   2.148
 4821SOL     OW15361   1.264   6.496   2.428
 4821SOL    HW115362   1.355   6.495   2.386
 4821SOL    HW215363   1.271   6.538   2.519
 4822SOL     OW15364   2.200   2.510   5.091
 4822SOL    HW115365   2.191   2.595   5.143
 4822SOL    HW215366   2.271   2.522   5.022
 4823SOL     OW15367   1.650   0.924   4.485
 4823SOL    HW115368   1.559   0.946   4.522
 4823SOL    HW215369   1.647   0.925   4.385
 4824SOL     OW15370   4.833   2.096   4.812
 4824SOL    HW115371   4.897   2.027   4.847
 4824SOL    HW215372   4.755   2.051   4.770
 4825SOL     OW15373   2.007   3.167   4.930
 4825SOL    HW115374   1.972   3.212   5.013
 4825SOL    HW215375   2.091   3.117   4.952
 4826SOL     OW15376   5.574   1.594   0.029
 4826SOL    HW115377   5.566   1.532   0.107
 4826SOL    HW215378   5.501   1.574   6.986
 4827SOL     OW15379   6.255   1.666   0.972
 4827SOL    HW115380   6.225   1.579   0.933
 4827SOL    HW215381   6.238   1.740   0.907
 4828SOL     OW15382   4.922   2.661   1.369
 4828SOL    HW115383   4.899   2.566   1.349
 4828SOL    HW215384   4.971   2.701   1.291
 4829SOL     OW15385   3.810   6.543   5.962
 4829SOL    HW115386   3.842   6.451   5.940
 4829SOL    HW215387   3.809   6.556   6.061
 4830SOL     OW15388   4.164   6.526   4.337
 4830SOL    HW115389   4.242   6.465   4.344
 4830SOL    HW215390   4.175   6.584   4.256
 4831SOL     OW15391   1.069   4.145   6.323
 4831SOL    HW115392   1.085   4.046   6.326
 4831SOL    HW215393   1.052   4.173   6.228
 4832SOL     OW15394   4.135   3.342   3.873
 4832SOL    HW115395   4.082   3.395   3.940
 4832SOL    HW215396   4.225   3.320   3.911
 4833SOL     OW15397   4.929   2.221   2.852
 4833SOL    HW115398   4.898   2.181   2.939
 4833SOL    HW215399   4.928   2.320   2.860
 4834SOL     OW15400   3.325   6.433   0.714
 4834SOL    HW115401   3.360   6.524   0.694
 4834SOL    HW215402   3.233   6.423   0.677
 4835SOL     OW15403   5.762   2.026   6.963
 4835SOL    HW115404   5.735   2.049   0.034
 4835SOL    HW215405   5.709   1.947   6.932
 4836SOL     OW15406   4.984   2.319   4.797
 4836SOL    HW115407   5.053   2.323   4.870
 4836SOL    HW215408   4.928   2.237   4.809
 4837SOL     OW15409   6.867   3.865   3.079
 4837SOL    HW115410   6.859   3.965   3.087
 4837SOL    HW215411   6.777   3.827   3.060
 4838SOL     OW15412   1.193   5.449   0.487
 4838SOL    HW115413   1.173   5.389   0.410
 4838SOL    HW215414   1.111   5.459   0.544
 4839SOL     OW15415   1.889   3.265   0.400
 4839SOL    HW115416   1.829   3.316   0.461
 4839SOL    HW215417   1.878   3.299   0.306
 4840SOL     OW15418   6.453   4.449   6.448
 4840SOL    HW115419   6.434   4.429   6.544
 4840SOL    HW215420   6.381   4.508   6.411
 4841SOL     OW15421   2.206   5.220   2.225
 4841SOL    HW115422   2.231   5.270   2.308
 4841SOL    HW215423   2.284   5.215   2.163
 4842SOL     OW15424   3.690   5.352   2.200
 4842SOL    HW115425   3.726   5.293   2.273
 4842SOL    HW215426   3.753   5.429   2.187
 4843SOL     OW15427   6.612   3.353   1.936
 4843SOL    HW115428   6.543   3.420   1.908
 4843SOL    HW215429   6.700   3.399   1.947
 4844SOL     OW15430   0.858   3.457   6.754
 4844SOL    HW115431   0.770   3.503   6.768
 4844SOL    HW215432   0.896   3.485   6.666
 4845SOL     OW15433   4.883   5.455   6.665
 4845SOL    HW115434   4.956   5.443   6.598
 4845SOL    HW215435   4.795   5.463   6.618
 4846SOL     OW15436   6.478   2.692   3.932
 4846SOL    HW115437   6.402   2.633   3.908
 4846SOL    HW215438   6.560   2.637   3.945
 4847SOL     OW15439   2.528   0.145   6.454
 4847SOL    HW115440   2.600   0.105   6.511
 4847SOL    HW215441   2.449   0.083   6.452
 4848SOL     OW15442   1.816   1.146   4.546
 4848SOL    HW115443   1.784   1.066   4.495
 4848SOL    HW215444   1.886   1.194   4.493
 4849SOL     OW15445   0.656   6.175   6.633
 4849SOL    HW115446   0.711   6.231   6.695
 4849SOL    HW215447   0.629   6.091   6.679
 4850SOL     OW15448   3.972   1.091   1.914
 4850SOL    HW115449   4.062   1.119   1.948
 4850SOL    HW215450   3.969   1.102   1.815
 4851SOL     OW15451   3.504   6.652   5.659
 4851SOL    HW115452   3.416   6.633   5.703
 4851SOL    HW215453   3.495   6.638   5.560
 4852SOL     OW15454   2.187   5.862   5.162
 4852SOL    HW115455   2.224   5.771   5.182
 4852SOL    HW215456   2.199   5.882   5.064
 4853SOL     OW15457   3.135   1.181   3.151
 4853SOL    HW115458   3.209   1.157   3.213
 4853SOL    HW215459   3.078   1.101   3.133
 4854SOL     OW15460   4.911   6.173   1.399
 4854SOL    HW115461   4.836   6.158   1.462
 4854SOL    HW215462   4.942   6.085   1.362
 4855SOL     OW15463   5.755   2.677   4.016
 4855SOL    HW115464   5.731   2.763   4.061
 4855SOL    HW215465   5.826   2.630   4.069
 4856SOL     OW15466   1.457   3.250   3.239
 4856SOL    HW115467   1.479   3.153   3.225
 4856SOL    HW215468   1.359   3.261   3.252
 4857SOL     OW15469   3.202   2.149   3.784
 4857SOL    HW115470   3.152   2.173   3.867
 4857SOL    HW215471   3.175   2.057   3.754
 4858SOL     OW15472   0.223   0.530   4.961
 4858SOL    HW115473   0.208   0.545   4.863
 4858SOL    HW215474   0.153   0.467   4.996
 4859SOL     OW15475   0.867   5.738   2.990
 4859SOL    HW115476   0.925   5.724   2.910
 4859SOL    HW215477   0.774   5.758   2.961
 4860SOL     OW15478   4.283   4.837   0.660
 4860SOL    HW115479   4.256   4.741   0.668
 4860SOL    HW215480   4.383   4.844   0.658
 4861SOL     OW15481   5.571   5.189   0.088
 4861SOL    HW115482   5.500   5.259   0.086
 4861SOL    HW215483   5.640   5.210   0.019
 4862SOL     OW15484   1.853   4.401   5.038
 4862SOL    HW115485   1.871   4.338   4.963
 4862SOL    HW215486   1.861   4.353   5.125
 4863SOL     OW15487   5.054   3.892   1.678
 4863SOL    HW115488   4.977   3.914   1.739
 4863SOL    HW215489   5.071   3.793   1.680
 4864SOL     OW15490   3.453   1.755   2.164
 4864SOL    HW115491   3.469   1.850   2.140
 4864SOL    HW215492   3.383   1.716   2.104
 4865SOL     OW15493   2.083   6.534   4.637
 4865SOL    HW115494   2.003   6.475   4.649
 4865SOL    HW215495   2.162   6.494   4.684
 4866SOL     OW15496   6.351   4.034   1.113
 4866SOL    HW115497   6.301   4.086   1.043
 4866SOL    HW215498   6.425   3.982   1.069
 4867SOL     OW15499   5.031   5.533   2.502
 4867SOL    HW115500   5.081   5.578   2.576
 4867SOL    HW215501   4.990   5.602   2.443
 4868SOL     OW15502   0.246   5.079   1.965
 4868SOL    HW115503   0.238   5.003   1.900
 4868SOL    HW215504   0.327   5.134   1.943
 4869SOL     OW15505   0.127   1.917   1.795
 4869SOL    HW115506   0.100   1.822   1.808
 4869SOL    HW215507   0.104   1.946   1.702
 4870SOL     OW15508   6.926   5.920   1.697
 4870SOL    HW115509   6.852   5.885   1.639
 4870SOL    HW215510   7.006   5.860   1.689
 4871SOL     OW15511   0.528   1.751   4.752
 4871SOL    HW115512   0.429   1.762   4.759
 4871SOL    HW215513   0.550   1.656   4.731
 4872SOL     OW15514   6.804   5.845   4.253
 4872SOL    HW115515   6.859   5.909   4.199
 4872SOL    HW215516   6.763   5.777   4.191
 4873SOL     OW15517   6.639   4.771   3.837
 4873SOL    HW115518   6.614   4.776   3.934
 4873SOL    HW215519   6.738   4.780   3.828
 4874SOL     OW15520   5.769   3.396   3.254
 4874SOL    HW115521   5.748   3.405   3.157
 4874SOL    HW215522   5.780   3.487   3.294
 4875SOL     OW15523   5.667   3.474   1.501
 4875SOL    HW115524   5.687   3.481   1.403
 4875SOL    HW215525   5.666   3.377   1.528
 4876SOL     OW15526   5.457   1.202   3.753
 4876SOL    HW115527   5.364   1.167   3.738
 4876SOL    HW215528   5.493   1.167   3.839
 4877SOL     OW15529   0.314   1.935   0.281
 4877SOL    HW115530   0.340   1.840   0.263
 4877SOL    HW215531   0.314   1.952   0.379
 4878SOL     OW15532   6.096   0.844   2.964
 4878SOL    HW115533   6.088   0.939   2.934
 4878SOL    HW215534   6.020   0.791   2.927
 4879SOL     OW15535   4.581   5.644   3.575
 4879SOL    HW115536   4.504   5.679   3.628
 4879SOL    HW215537   4.654   5.712   3.572
 4880SOL     OW15538   5.903   3.003   6.740
 4880SOL    HW115539   5.908   3.055   6.825
 4880SOL    HW215540   5.808   2.991   6.713
 4881SOL     OW15541   2.169   6.866   6.891
 4881SOL    HW115542   2.139   6.902   6.802
 4881SOL    HW215543   2.201   6.772   6.880
 4882SOL     OW15544   5.246   1.322   4.048
 4882SOL    HW115545   5.189   1.344   4.128
 4882SOL    HW215546   5.209   1.368   3.967
 4883SOL     OW15547   4.934   5.029   2.598
 4883SOL    HW115548   4.995   4.952   2.584
 4883SOL    HW215549   4.885   5.017   2.685
 4884SOL     OW15550   3.899   0.214   0.703
 4884SOL    HW115551   3.958   0.294   0.699
 4884SOL    HW215552   3.935   0.142   0.644
 4885SOL     OW15553   2.137   5.627   2.144
 4885SOL    HW115554   2.107   5.704   2.088
 4885SOL    HW215555   2.235   5.636   2.164
 4886SOL     OW15556   6.914   5.997   0.368
 4886SOL    HW115557   6.992   6.058   0.385
 4886SOL    HW215558   6.832   6.052   0.351
 4887SOL     OW15559   0.226   0.429   3.342
 4887SOL    HW115560   0.290   0.425   3.265
 4887SOL    HW215561   0.133   0.421   3.308
 4888SOL     OW15562   2.158   6.474   4.379
 4888SOL    HW115563   2.167   6.375   4.387
 4888SOL    HW215564   2.122   6.511   4.464
 4889SOL     OW15565   6.305   0.676   0.068
 4889SOL    HW115566   6.377   0.642   0.129
 4889SOL    HW215567   6.320   0.773   0.049
 4890SOL     OW15568   0.510   1.603   5.870
 4890SOL    HW115569   0.416   1.619   5.839
 4890SOL    HW215570   0.566   1.575   5.791
 4891SOL     OW15571   1.576   5.677   0.526
 4891SOL    HW115572   1.611   5.598   0.475
 4891SOL    HW215573   1.570   5.756   0.466
 4892SOL     OW15574   2.543   6.056   1.379
 4892SOL    HW115575   2.643   6.046   1.382
 4892SOL    HW215576   2.520   6.151   1.356
 4893SOL     OW15577   0.122   4.358   1.161
 4893SOL    HW115578   0.074   4.337   1.246
 4893SOL    HW215579   0.056   4.372   1.088
 4894SOL     OW15580   2.333   2.113   2.478
 4894SOL    HW115581   2.351   2.065   2.564
 4894SOL    HW215582   2.313   2.209   2.498
 4895SOL     OW15583   0.815   5.350   2.667
 4895SOL    HW115584   0.818   5.449   2.650
 4895SOL    HW215585   0.886   5.327   2.733
 4896SOL     OW15586   2.265   5.127   1.877
 4896SOL    HW115587   2.300   5.187   1.949
 4896SOL    HW215588   2.251   5.036   1.914
 4897SOL     OW15589   2.033   4.860   5.640
 4897SOL    HW115590   2.114   4.803   5.626
 4897SOL    HW215591   2.013   4.866   5.738
 4898SOL     OW15592   4.497   0.939   4.563
 4898SOL    HW115593   4.527   1.014   4.622
 4898SOL    HW215594   4.422   0.890   4.608
 4899SOL     OW15595   6.107   5.135   3.253
 4899SOL    HW115596   6.134   5.052   3.303
 4899SOL    HW215597   6.024   5.173   3.294
 4900SOL     OW15598   2.322   5.611   5.259
 4900SOL    HW115599   2.368   5.525   5.237
 4900SOL    HW215600   2.316   5.621   5.358
 4901SOL     OW15601   3.053   6.844   5.546
 4901SOL    HW115602   3.015   6.893   5.468
 4901SOL    HW215603   3.135   6.891   5.579
 4902SOL     OW15604   2.429   2.704   4.656
 4902SOL    HW115605   2.449   2.713   4.753
 4902SOL    HW215606   2.369   2.778   4.627
 4903SOL     OW15607   3.032   6.002   7.001
 4903SOL    HW115608   2.969   6.003   0.056
 4903SOL    HW215609   3.016   5.921   6.945
 4904SOL     OW15610   1.618   0.486   4.045
 4904SOL    HW115611   1.627   0.584   4.025
 4904SOL    HW215612   1.537   0.471   4.103
 4905SOL     OW15613   4.238   1.223   2.289
 4905SOL    HW115614   4.152   1.260   2.324
 4905SOL    HW215615   4.223   1.130   2.255
 4906SOL     OW15616   4.271   1.618   6.822
 4906SOL    HW115617   4.347   1.553   6.823
 4906SOL    HW215618   4.289   1.690   6.755
 4907SOL     OW15619   5.172   5.982   1.039
 4907SOL    HW115620   5.080   5.951   1.063
 4907SOL    HW215621   5.183   6.079   1.062
 4908SOL     OW15622   4.847   5.040   6.591
 4908SOL    HW115623   4.862   5.092   6.675
 4908SOL    HW215624   4.782   5.089   6.533
 4909SOL     OW15625   6.919   0.089   5.007
 4909SOL    HW115626   7.004   0.087   4.955
 4909SOL    HW215627   6.913   0.007   5.064
 4910SOL     OW15628   5.232   6.631   4.479
 4910SOL    HW115629   5.234   6.694   4.556
 4910SOL    HW215630   5.195   6.543   4.509
 4911SOL     OW15631   6.945   2.956   5.292
 4911SOL    HW115632   6.925   2.887   5.361
 4911SOL    HW215633   6.877   2.951   5.219
 4912SOL     OW15634   5.106   2.746   1.174
 4912SOL    HW115635   5.133   2.659   1.134
 4912SOL    HW215636   5.173   2.772   1.244
 4913SOL     OW15637   3.373   3.333   3.836
 4913SOL    HW115638   3.445   3.273   3.800
 4913SOL    HW215639   3.288   3.315   3.786
 4914SOL     OW15640   3.314   6.820   5.143
 4914SOL    HW115641   3.359   6.754   5.084
 4914SOL    HW215642   3.295   6.904   5.092
 4915SOL     OW15643   4.576   0.539   4.180
 4915SOL    HW115644   4.611   0.566   4.270
 4915SOL    HW215645   4.487   0.583   4.165
 4916SOL     OW15646   2.075   1.739   4.071
 4916SOL    HW115647   2.120   1.704   3.989
 4916SOL    HW215648   2.054   1.663   4.132
 4917SOL     OW15649   1.836   4.816   0.701
 4917SOL    HW115650   1.897   4.880   0.747
 4917SOL    HW215651   1.854   4.723   0.735
 4918SOL     OW15652   3.078   6.744   2.258
 4918SOL    HW115653   3.116   6.837   2.261
 4918SOL    HW215654   3.095   6.698   2.345
 4919SOL     OW15655   1.917   2.000   6.862
 4919SOL    HW115656   1.835   1.961   6.904
 4919SOL    HW215657   1.998   1.964   6.909
 4920SOL     OW15658   5.088   0.840   5.739
 4920SOL    HW115659   5.032   0.823   5.657
 4920SOL    HW215660   5.129   0.931   5.732
 4921SOL     OW15661   2.122   4.007   0.625
 4921SOL    HW115662   2.141   3.984   0.529
 4921SOL    HW215663   2.106   4.105   0.634
 4922SOL     OW15664   1.976   3.066   4.666
 4922SOL    HW115665   1.993   3.109   4.755
 4922SOL    HW215666   1.939   2.974   4.680
 4923SOL     OW15667   3.503   1.336   0.745
 4923SOL    HW115668   3.489   1.255   0.803
 4923SOL    HW215669   3.540   1.410   0.801
 4924SOL     OW15670   1.975   2.486   5.903
 4924SOL    HW115671   2.018   2.452   5.987
 4924SOL    HW215672   2.046   2.508   5.836
 4925SOL     OW15673   5.802   6.877   1.883
 4925SOL    HW115674   5.704   6.899   1.876
 4925SOL    HW215675   5.855   6.962   1.879
 4926SOL     OW15676   5.568   2.589   0.390
 4926SOL    HW115677   5.594   2.567   0.484
 4926SOL    HW215678   5.563   2.505   0.335
 4927SOL     OW15679   3.714   3.738   4.298
 4927SOL    HW115680   3.633   3.781   4.339
 4927SOL    HW215681   3.794   3.794   4.314
 4928SOL     OW15682   6.984   0.362   6.190
 4928SOL    HW115683   6.888   0.350   6.163
 4928SOL    HW215684   0.015   0.391   6.110
 4929SOL     OW15685   1.380   4.804   4.874
 4929SOL    HW115686   1.360   4.706   4.876
 4929SOL    HW215687   1.451   4.824   4.942
 4930SOL     OW15688   5.021   0.846   1.722
 4930SOL    HW115689   4.941   0.827   1.664
 4930SOL    HW215690   5.004   0.930   1.773
 4931SOL     OW15691   6.327   7.002   1.431
 4931SOL    HW115692   6.319   0.078   1.446
 4931SOL    HW215693   6.419   6.981   1.396
 4932SOL     OW15694   2.253   2.542   1.729
 4932SOL    HW115695   2.183   2.536   1.800
 4932SOL    HW215696   2.333   2.589   1.765
 4933SOL     OW15697   2.405   6.901   3.594
 4933SOL    HW115698   2.334   6.956   3.639
 4933SOL    HW215699   2.394   6.805   3.618
 4934SOL     OW15700   1.943   4.723   3.043
 4934SOL    HW115701   1.975   4.817   3.032
 4934SOL    HW215702   1.880   4.700   2.968
 4935SOL     OW15703   1.268   1.326   6.562
 4935SOL    HW115704   1.297   1.338   6.658
 4935SOL    HW215705   1.349   1.311   6.505
 4936SOL     OW15706   2.180   4.953   1.644
 4936SOL    HW115707   2.096   4.940   1.697
 4936SOL    HW215708   2.193   5.051   1.626
 4937SOL     OW15709   6.702   3.403   5.955
 4937SOL    HW115710   6.621   3.457   5.979
 4937SOL    HW215711   6.703   3.388   5.856
 4938SOL     OW15712   2.482   5.645   6.914
 4938SOL    HW115713   2.490   5.743   6.899
 4938SOL    HW215714   2.432   5.603   6.838
 4939SOL     OW15715   0.318   1.687   4.042
 4939SOL    HW115716   0.354   1.695   4.135
 4939SOL    HW215717   0.393   1.696   3.977
 4940SOL     OW15718   0.419   1.389   5.533
 4940SOL    HW115719   0.436   1.484   5.559
 4940SOL    HW215720   0.437   1.329   5.611
 4941SOL     OW15721   4.464   2.644   5.225
 4941SOL    HW115722   4.379   2.603   5.191
 4941SOL    HW215723   4.501   2.707   5.157
 4942SOL     OW15724   5.079   3.053   5.491
 4942SOL    HW115725   5.066   3.012   5.401
 4942SOL    HW215726   5.047   2.990   5.562
 4943SOL     OW15727   5.114   4.357   6.089
 4943SOL    HW115728   5.104   4.332   6.185
 4943SOL    HW215729   5.208   4.386   6.071
 4944SOL     OW15730   2.660   4.136   1.630
 4944SOL    HW115731   2.590   4.205   1.646
 4944SOL    HW215732   2.617   4.048   1.608
 4945SOL     OW15733   1.324   6.839   4.512
 4945SOL    HW115734   1.244   6.789   4.545
 4945SOL    HW215735   1.333   6.825   4.413
 4946SOL     OW15736   1.082   5.314   6.473
 4946SOL    HW115737   1.139   5.376   6.528
 4946SOL    HW215738   1.062   5.231   6.525
 4947SOL     OW15739   2.180   0.142   0.727
 4947SOL    HW115740   2.268   0.124   0.685
 4947SOL    HW215741   2.192   0.155   0.826
 4948SOL     OW15742   2.098   2.635   3.268
 4948SOL    HW115743   2.049   2.680   3.193
 4948SOL    HW215744   2.188   2.678   3.279
 4949SOL     OW15745   6.358   4.887   5.425
 4949SOL    HW115746   6.411   4.949   5.366
 4949SOL    HW215747   6.296   4.834   5.368
 4950SOL     OW15748   2.155   4.709   4.870
 4950SOL    HW115749   2.119   4.650   4.797
 4950SOL    HW215750   2.093   4.705   4.949
 4951SOL     OW15751   5.940   1.351   3.924
 4951SOL    HW115752   5.865   1.416   3.936
 4951SOL    HW215753   5.913   1.281   3.858
 4952SOL     OW15754   6.758   6.957   6.257
 4952SOL    HW115755   6.682   6.998   6.308
 4952SOL    HW215756   6.843   6.970   6.308
 4953SOL     OW15757   1.819   6.929   3.254
 4953SOL    HW115758   1.786   6.950   3.346
 4953SOL    HW215759   1.796   6.834   3.232
 4954SOL     OW15760   2.962   3.204   0.023
 4954SOL    HW115761   2.876   3.153   0.025
 4954SOL    HW215762   2.944   3.301   0.006
 4955SOL     OW15763   3.389   6.720   0.005
 4955SOL    HW115764   3.351   6.718   0.098
 4955SOL    HW215765   3.481   6.682   0.006
 4956SOL     OW15766   2.584   0.191   5.617
 4956SOL    HW115767   2.602   0.274   5.670
 4956SOL    HW215768   2.490   0.194   5.581
 4957SOL     OW15769   5.993   2.313   1.954
 4957SOL    HW115770   6.003   2.410   1.932
 4957SOL    HW215771   6.074   2.264   1.923
 4958SOL     OW15772   0.865   4.980   5.641
 4958SOL    HW115773   0.775   4.937   5.645
 4958SOL    HW215774   0.904   4.982   5.733
 4959SOL     OW15775   6.177   1.979   0.995
 4959SOL    HW115776   6.152   1.913   1.065
 4959SOL    HW215777   6.276   1.993   0.996
 4960SOL     OW15778   3.869   4.899   3.555
 4960SOL    HW115779   3.774   4.920   3.536
 4960SOL    HW215780   3.922   4.902   3.470
 4961SOL     OW15781   4.213   0.788   5.463
 4961SOL    HW115782   4.145   0.849   5.506
 4961SOL    HW215783   4.305   0.818   5.489
 4962SOL     OW15784   5.838   2.996   0.287
 4962SOL    HW115785   5.899   2.959   0.357
 4962SOL    HW215786   5.865   2.960   0.198
 4963SOL     OW15787   0.463   6.596   0.596
 4963SOL    HW115788   0.419   6.612   0.507
 4963SOL    HW215789   0.511   6.679   0.624
 4964SOL     OW15790   2.857   6.796   4.754
 4964SOL    HW115791   2.945   6.783   4.708
 4964SOL    HW215792   2.858   6.749   4.842
 4965SOL     OW15793   0.579   0.362   2.243
 4965SOL    HW115794   0.666   0.372   2.195
 4965SOL    HW215795   0.509   0.416   2.196
 4966SOL     OW15796   2.822   6.508   5.373
 4966SOL    HW115797   2.793   6.419   5.338
 4966SOL    HW215798   2.749   6.575   5.357
 4967SOL     OW15799   3.796   4.831   5.279
 4967SOL    HW115800   3.786   4.828   5.379
 4967SOL    HW215801   3.713   4.869   5.239
 4968SOL     OW15802   0.614   1.296   3.396
 4968SOL    HW115803   0.538   1.353   3.366
 4968SOL    HW215804   0.615   1.210   3.344
 4969SOL     OW15805   1.859   5.233   2.739
 4969SOL    HW115806   1.951   5.272   2.748
 4969SOL    HW215807   1.835   5.186   2.824
 4970SOL     OW15808   2.493   2.259   1.882
 4970SOL    HW115809   2.418   2.286   1.943
 4970SOL    HW215810   2.568   2.221   1.936
 4971SOL     OW15811   5.440   5.420   3.137
 4971SOL    HW115812   5.529   5.417   3.183
 4971SOL    HW215813   5.443   5.488   3.063
 4972SOL     OW15814   0.666   3.600   1.383
 4972SOL    HW115815   0.657   3.503   1.363
 4972SOL    HW215816   0.763   3.625   1.383
 4973SOL     OW15817   0.873   6.675   1.924
 4973SOL    HW115818   0.797   6.702   1.865
 4973SOL    HW215819   0.939   6.750   1.930
 4974SOL     OW15820   6.869   4.327   1.314
 4974SOL    HW115821   6.826   4.334   1.224
 4974SOL    HW215822   6.799   4.333   1.385
 4975SOL     OW15823   5.960   4.274   5.993
 4975SOL    HW115824   5.997   4.244   6.081
 4975SOL    HW215825   5.882   4.333   6.008
 4976SOL     OW15826   2.287   1.917   4.157
 4976SOL    HW115827   2.214   1.879   4.100
 4976SOL    HW215828   2.375   1.903   4.112
 4977SOL     OW15829   4.426   4.344   0.094
 4977SOL    HW115830   4.512   4.382   0.129
 4977SOL    HW215831   4.414   4.371   7.021
 4978SOL     OW15832   6.420   4.756   5.087
 4978SOL    HW115833   6.503   4.708   5.114
 4978SOL    HW215834   6.435   4.855   5.092
 4979SOL     OW15835   6.774   6.856   6.013
 4979SOL    HW115836   6.758   6.902   6.100
 4979SOL    HW215837   6.731   6.907   5.939
 4980SOL     OW15838   5.334   5.993   3.210
 4980SOL    HW115839   5.416   5.938   3.193
 4980SOL    HW215840   5.329   6.068   3.145
 4981SOL     OW15841   3.856   4.851   0.795
 4981SOL    HW115842   3.822   4.943   0.811
 4981SOL    HW215843   3.955   4.848   0.812
 4982SOL     OW15844   2.764   1.157   5.282
 4982SOL    HW115845   2.853   1.197   5.257
 4982SOL    HW215846   2.773   1.058   5.289
 4983SOL     OW15847   6.010   3.726   5.981
 4983SOL    HW115848   5.994   3.818   5.945
 4983SOL    HW215849   6.006   3.660   5.906
 4984SOL     OW15850   5.591   4.594   3.016
 4984SOL    HW115851   5.514   4.533   3.037
 4984SOL    HW215852   5.629   4.569   2.927
 4985SOL     OW15853   5.342   0.519   3.071
 4985SOL    HW115854   5.373   0.486   2.982
 4985SOL    HW215855   5.393   0.473   3.144
 4986SOL     OW15856   0.208   4.733   1.457
 4986SOL    HW115857   0.176   4.640   1.471
 4986SOL    HW215858   0.308   4.735   1.461
 4987SOL     OW15859   0.526   6.947   2.424
 4987SOL    HW115860   0.464   7.015   2.385
 4987SOL    HW215861   0.497   6.925   2.517
 4988SOL     OW15862   5.299   0.646   2.376
 4988SOL    HW115863   5.254   0.656   2.287
 4988SOL    HW215864   5.239   0.680   2.448
 4989SOL     OW15865   5.201   6.700   1.986
 4989SOL    HW115866   5.203   6.713   2.085
 4989SOL    HW215867   5.286   6.657   1.956
 4990SOL     OW15868   2.748   2.180   5.517
 4990SOL    HW115869   2.785   2.260   5.566
 4990SOL    HW215870   2.663   2.207   5.470
 4991SOL     OW15871   6.305   5.897   3.349
 4991SOL    HW115872   6.262   5.824   3.402
 4991SOL    HW215873   6.300   5.876   3.252
 4992SOL     OW15874   4.807   0.903   2.009
 4992SOL    HW115875   4.830   0.816   1.967
 4992SOL    HW215876   4.883   0.967   1.996
 4993SOL     OW15877   3.267   5.652   5.008
 4993SOL    HW115878   3.322   5.574   4.977
 4993SOL    HW215879   3.315   5.737   4.989
 4994SOL     OW15880   2.145   0.359   4.042
 4994SOL    HW115881   2.107   0.445   4.008
 4994SOL    HW215882   2.120   0.284   3.981
 4995SOL     OW15883   0.562   2.220   5.244
 4995SOL    HW115884   0.514   2.132   5.253
 4995SOL    HW215885   0.496   2.295   5.254
 4996SOL     OW15886   0.546   0.977   2.983
 4996SOL    HW115887   0.600   0.908   2.935
 4996SOL    HW215888   0.480   0.933   3.042
 4997SOL     OW15889   4.784   2.444   2.490
 4997SOL    HW115890   4.737   2.446   2.578
 4997SOL    HW215891   4.738   2.380   2.429
 4998SOL     OW15892   2.138   4.017   4.910
 4998SOL    HW115893   2.097   4.104   4.886
 4998SOL    HW215894   2.210   4.032   4.978
 4999SOL     OW15895   6.752   4.073   6.778
 4999SOL    HW115896   6.774   4.145   6.843
 4999SOL    HW215897   6.669   4.097   6.727
 5000SOL     OW15898   3.865   6.416   3.279
 5000SOL    HW115899   3.890   6.329   3.235
 5000SOL    HW215900   3.851   6.401   3.377
 5001SOL     OW15901   0.215   4.058   2.146
 5001SOL    HW115902   0.287   4.002   2.187
 5001SOL    HW215903   0.151   3.999   2.097
 5002SOL     OW15904   0.506   3.098   1.768
 5002SOL    HW115905   0.467   3.006   1.758
 5002SOL    HW215906   0.509   3.123   1.865
 5003SOL     OW15907   2.920   5.641   2.632
 5003SOL    HW115908   2.878   5.694   2.558
 5003SOL    HW215909   2.850   5.588   2.680
 5004SOL     OW15910   2.407   4.925   5.609
 5004SOL    HW115911   2.321   4.891   5.571
 5004SOL    HW215912   2.405   5.025   5.614
 5005SOL     OW15913   3.054   2.887   0.983
 5005SOL    HW115914   2.979   2.907   1.045
 5005SOL    HW215915   3.021   2.891   0.888
 5006SOL     OW15916   4.904   0.385   1.090
 5006SOL    HW115917   4.878   0.427   1.003
 5006SOL    HW215918   4.873   0.290   1.092
 5007SOL     OW15919   0.767   6.905   0.581
 5007SOL    HW115920   0.699   6.882   0.651
 5007SOL    HW215921   0.858   6.876   0.612
 5008SOL     OW15922   5.585   6.479   1.800
 5008SOL    HW115923   5.492   6.459   1.830
 5008SOL    HW215924   5.640   6.395   1.803
 5009SOL     OW15925   0.656   0.904   0.757
 5009SOL    HW115926   0.631   0.944   0.845
 5009SOL    HW215927   0.750   0.930   0.735
 5010SOL     OW15928   4.001   3.110   2.353
 5010SOL    HW115929   4.008   3.177   2.426
 5010SOL    HW215930   4.086   3.058   2.346
 5011SOL     OW15931   1.744   4.120   2.420
 5011SOL    HW115932   1.710   4.152   2.509
 5011SOL    HW215933   1.840   4.144   2.411
 5012SOL     OW15934   5.706   4.456   6.299
 5012SOL    HW115935   5.626   4.397   6.303
 5012SOL    HW215936   5.737   4.465   6.205
 5013SOL     OW15937   5.001   1.373   0.426
 5013SOL    HW115938   5.087   1.354   0.379
 5013SOL    HW215939   4.934   1.302   0.402
 5014SOL     OW15940   6.814   4.648   0.704
 5014SOL    HW115941   6.814   4.592   0.621
 5014SOL    HW215942   6.907   4.676   0.726
 5015SOL     OW15943   4.523   1.790   4.521
 5015SOL    HW115944   4.489   1.723   4.456
 5015SOL    HW215945   4.455   1.805   4.593
 5016SOL     OW15946   1.827   3.111   6.964
 5016SOL    HW115947   1.845   3.115   6.865
 5016SOL    HW215948   1.882   3.039   7.005
 5017SOL     OW15949   1.829   3.000   0.975
 5017SOL    HW115950   1.846   3.078   1.036
 5017SOL    HW215951   1.731   2.980   0.972
 5018SOL     OW15952   0.945   3.932   1.933
 5018SOL    HW115953   0.924   4.029   1.948
 5018SOL    HW215954   0.864   3.885   1.899
 5019SOL     OW15955   0.978   4.993   5.885
 5019SOL    HW115956   1.053   5.059   5.894
 5019SOL    HW215957   0.935   4.979   5.974
 5020SOL     OW15958   5.182   0.319   6.793
 5020SOL    HW115959   5.153   0.390   6.856
 5020SOL    HW215960   5.265   0.348   6.745
 5021SOL     OW15961   0.761   1.436   0.176
 5021SOL    HW115962   0.751   1.528   0.138
 5021SOL    HW215963   0.776   1.443   0.275
 5022SOL     OW15964   1.231   1.202   0.470
 5022SOL    HW115965   1.235   1.209   0.569
 5022SOL    HW215966   1.272   1.283   0.429
 5023SOL     OW15967   6.847   2.907   1.202
 5023SOL    HW115968   6.799   2.980   1.251
 5023SOL    HW215969   6.902   2.853   1.266
 5024SOL     OW15970   6.355   5.654   1.480
 5024SOL    HW115971   6.405   5.729   1.524
 5024SOL    HW215972   6.281   5.623   1.541
 5025SOL     OW15973   3.260   1.587   2.028
 5025SOL    HW115974   3.231   1.641   1.949
 5025SOL    HW215975   3.184   1.530   2.059
 5026SOL     OW15976   6.234   6.099   5.553
 5026SOL    HW115977   6.142   6.086   5.588
 5026SOL    HW215978   6.248   6.195   5.529
 5027SOL     OW15979   0.001   6.652   1.834
 5027SOL    HW115980   0.046   6.613   1.915
 5027SOL    HW215981   6.985   6.741   1.858
 5028SOL     OW15982   0.541   2.122   2.474
 5028SOL    HW115983   0.488   2.197   2.434
 5028SOL    HW215984   0.501   2.035   2.446
 5029SOL     OW15985   6.547   2.114   1.642
 5029SOL    HW115986   6.508   2.176   1.574
 5029SOL    HW215987   6.474   2.061   1.685
 5030SOL     OW15988   0.174   6.623   0.655
 5030SOL    HW115989   0.239   6.673   0.712
 5030SOL    HW215990   0.221   6.549   0.607
 5031SOL     OW15991   6.003   0.393   5.380
 5031SOL    HW115992   5.922   0.441   5.412
 5031SOL    HW215993   6.067   0.381   5.455
 5032SOL     OW15994   2.126   2.081   0.684
 5032SOL    HW115995   2.194   2.059   0.614
 5032SOL    HW215996   2.173   2.116   0.765
 5033SOL     OW15997   1.845   0.203   5.617
 5033SOL    HW115998   1.833   0.302   5.620
 5033SOL    HW215999   1.943   0.181   5.625
 5034SOL     OW16000   6.075   0.575   3.344
 5034SOL    HW116001   5.999   0.596   3.283
 5034SOL    HW216002   6.041   0.547   3.433
 5035SOL     OW16003   1.331   3.801   0.302
 5035SOL    HW116004   1.375   3.805   0.392
 5035SOL    HW216005   1.289   3.711   0.289
 5036SOL     OW16006   0.719   4.500   6.830
 5036SOL    HW116007   0.628   4.524   6.798
 5036SOL    HW216008   0.754   4.422   6.778
 5037SOL     OW16009   5.123   4.454   2.415
 5037SOL    HW116010   5.189   4.512   2.462
 5037SOL    HW216011   5.170   4.373   2.378
 5038SOL     OW16012   3.328   3.973   6.010
 5038SOL    HW116013   3.249   3.915   6.027
 5038SOL    HW216014   3.314   4.024   5.925
 5039SOL     OW16015   2.954   4.564   5.559
 5039SOL    HW116016   2.961   4.649   5.611
 5039SOL    HW216017   3.039   4.513   5.567
 5040SOL     OW16018   1.876   5.639   5.923
 5040SOL    HW116019   1.794   5.695   5.939
 5040SOL    HW216020   1.868   5.593   5.835
 5041SOL     OW16021   1.979   1.436   2.646
 5041SOL    HW116022   2.075   1.408   2.659
 5041SOL    HW216023   1.971   1.491   2.563
 5042SOL     OW16024   6.715   2.825   0.231
 5042SOL    HW116025   6.766   2.906   0.258
 5042SOL    HW216026   6.625   2.826   0.274
 5043SOL     OW16027   3.276   0.191   6.204
 5043SOL    HW116028   3.219   0.133   6.146
 5043SOL    HW216029   3.339   0.134   6.256
 5044SOL     OW16030   0.616   6.584   0.141
 5044SOL    HW116031   0.558   6.535   0.077
 5044SOL    HW216032   0.710   6.586   0.107
 5045SOL     OW16033   5.011   0.658   6.790
 5045SOL    HW116034   4.983   0.623   6.700
 5045SOL    HW216035   5.002   0.585   6.858
 5046SOL     OW16036   3.318   4.118   2.844
 5046SOL    HW116037   3.416   4.135   2.830
 5046SOL    HW216038   3.272   4.108   2.756
 5047SOL     OW16039   0.435   4.208   2.287
 5047SOL    HW116040   0.517   4.154   2.268
 5047SOL    HW216041   0.377   4.158   2.351
 5048SOL     OW16042   0.499   1.418   2.145
 5048SOL    HW116043   0.585   1.385   2.106
 5048SOL    HW216044   0.474   1.361   2.223
 5049SOL     OW16045   5.772   2.293   6.061
 5049SOL    HW116046   5.741   2.242   5.981
 5049SOL    HW216047   5.788   2.388   6.036
 5050SOL     OW16048   1.295   1.620   1.355
 5050SOL    HW116049   1.347   1.682   1.415
 5050SOL    HW216050   1.316   1.640   1.260
 5051SOL     OW16051   4.880   4.978   1.149
 5051SOL    HW116052   4.950   5.019   1.208
 5051SOL    HW216053   4.821   5.051   1.112
 5052SOL     OW16054   2.455   0.895   6.396
 5052SOL    HW116055   2.416   0.986   6.406
 5052SOL    HW216056   2.396   0.839   6.337
 5053SOL     OW16057   2.302   4.177   2.880
 5053SOL    HW116058   2.297   4.084   2.917
 5053SOL    HW216059   2.243   4.185   2.801
 5054SOL     OW16060   3.685   5.172   5.387
 5054SOL    HW116061   3.732   5.196   5.472
 5054SOL    HW216062   3.596   5.130   5.409
 5055SOL     OW16063   1.450   2.024   5.760
 5055SOL    HW116064   1.510   1.949   5.734
 5055SOL    HW216065   1.504   2.100   5.795
 5056SOL     OW16066   6.540   4.044   6.531
 5056SOL    HW116067   6.534   3.947   6.556
 5056SOL    HW216068   6.551   4.053   6.432
 5057SOL     OW16069   0.432   6.135   4.022
 5057SOL    HW116070   0.440   6.233   4.042
 5057SOL    HW216071   0.347   6.100   4.061
 5058SOL     OW16072   2.962   3.155   5.502
 5058SOL    HW116073   2.993   3.210   5.425
 5058SOL    HW216074   2.923   3.215   5.572
 5059SOL     OW16075   5.778   1.591   3.634
 5059SOL    HW116076   5.696   1.536   3.617
 5059SOL    HW216077   5.812   1.572   3.726
 5060SOL     OW16078   0.540   1.679   5.592
 5060SOL    HW116079   0.585   1.748   5.649
 5060SOL    HW216080   0.444   1.704   5.578
 5061SOL     OW16081   4.050   3.017   1.885
 5061SOL    HW116082   4.081   2.955   1.957
 5061SOL    HW216083   4.070   2.977   1.795
 5062SOL     OW16084   5.052   1.058   2.713
 5062SOL    HW116085   5.127   1.122   2.698
 5062SOL    HW216086   4.965   1.106   2.711
 5063SOL     OW16087   1.018   6.956   2.278
 5063SOL    HW116088   1.050   6.865   2.249
 5063SOL    HW216089   0.918   6.955   2.286
 5064SOL     OW16090   5.191   4.195   1.875
 5064SOL    HW116091   5.227   4.161   1.787
 5064SOL    HW216092   5.163   4.117   1.931
 5065SOL     OW16093   2.030   1.286   3.749
 5065SOL    HW116094   2.114   1.335   3.771
 5065SOL    HW216095   2.004   1.305   3.654
 5066SOL     OW16096   4.467   4.836   2.042
 5066SOL    HW116097   4.488   4.929   2.072
 5066SOL    HW216098   4.524   4.771   2.091
 5067SOL     OW16099   4.589   1.056   1.470
 5067SOL    HW116100   4.529   0.978   1.487
 5067SOL    HW216101   4.588   1.118   1.549
 5068SOL     OW16102   2.367   4.677   7.011
 5068SOL    HW116103   2.397   4.723   6.928
 5068SOL    HW216104   2.445   4.630   0.031
 5069SOL     OW16105   2.390   3.189   5.648
 5069SOL    HW116106   2.457   3.251   5.608
 5069SOL    HW216107   2.333   3.149   5.576
 5070SOL     OW16108   4.373   5.065   3.538
 5070SOL    HW116109   4.320   4.989   3.500
 5070SOL    HW216110   4.461   5.071   3.490
 5071SOL     OW16111   4.025   2.206   3.131
 5071SOL    HW116112   4.074   2.224   3.216
 5071SOL    HW216113   3.927   2.201   3.149
 5072SOL     OW16114   1.002   7.018   1.632
 5072SOL    HW116115   0.977   6.995   1.726
 5072SOL    HW216116   1.054   0.081   1.631
 5073SOL     OW16117   0.150   5.799   1.660
 5073SOL    HW116118   0.198   5.747   1.589
 5073SOL    HW216119   0.216   5.840   1.722
 5074SOL     OW16120   3.434   2.978   1.251
 5074SOL    HW116121   3.401   2.907   1.188
 5074SOL    HW216122   3.519   3.017   1.215
 5075SOL     OW16123   1.083   1.986   6.406
 5075SOL    HW116124   1.030   1.933   6.472
 5075SOL    HW216125   1.179   1.956   6.409
 5076SOL     OW16126   4.494   0.888   0.428
 5076SOL    HW116127   4.529   0.869   0.336
 5076SOL    HW216128   4.415   0.949   0.421
 5077SOL     OW16129   1.912   4.604   5.481
 5077SOL    HW116130   2.000   4.615   5.435
 5077SOL    HW216131   1.853   4.543   5.428
 5078SOL     OW16132   0.690   0.985   4.099
 5078SOL    HW116133   0.720   0.955   4.189
 5078SOL    HW216134   0.666   0.905   4.043
 5079SOL     OW16135   2.054   2.948   5.430
 5079SOL    HW116136   1.993   2.869   5.431
 5079SOL    HW216137   2.117   2.943   5.507
 5080SOL     OW16138   5.980   6.899   6.397
 5080SOL    HW116139   6.011   6.805   6.380
 5080SOL    HW216140   5.890   6.912   6.357
 5081SOL     OW16141   3.109   3.134   4.556
 5081SOL    HW116142   3.190   3.082   4.527
 5081SOL    HW216143   3.137   3.204   4.622
 5082SOL     OW16144   4.943   5.645   0.600
 5082SOL    HW116145   4.909   5.658   0.693
 5082SOL    HW216146   4.882   5.693   0.536
 5083SOL     OW16147   2.430   6.376   1.912
 5083SOL    HW116148   2.417   6.363   2.010
 5083SOL    HW216149   2.360   6.436   1.876
 5084SOL     OW16150   0.579   4.618   4.186
 5084SOL    HW116151   0.568   4.531   4.235
 5084SOL    HW216152   0.518   4.686   4.226
 5085SOL     OW16153   5.438   3.248   6.772
 5085SOL    HW116154   5.470   3.323   6.714
 5085SOL    HW216155   5.339   3.237   6.760
 5086SOL     OW16156   1.398   5.485   3.078
 5086SOL    HW116157   1.437   5.476   2.985
 5086SOL    HW216158   1.302   5.510   3.071
 5087SOL     OW16159   1.792   5.105   2.449
 5087SOL    HW116160   1.855   5.137   2.520
 5087SOL    HW216161   1.826   5.019   2.411
 5088SOL     OW16162   6.243   1.246   4.822
 5088SOL    HW116163   6.248   1.183   4.900
 5088SOL    HW216164   6.263   1.339   4.853
 5089SOL     OW16165   5.039   4.238   4.358
 5089SOL    HW116166   4.958   4.179   4.349
 5089SOL    HW216167   5.017   4.330   4.324
 5090SOL     OW16168   1.985   4.028   2.819
 5090SOL    HW116169   1.963   3.948   2.763
 5090SOL    HW216170   2.052   4.003   2.888
 5091SOL     OW16171   0.742   0.711   2.272
 5091SOL    HW116172   0.662   0.679   2.323
 5091SOL    HW216173   0.825   0.683   2.320
 5092SOL     OW16174   3.269   3.643   1.887
 5092SOL    HW116175   3.228   3.578   1.952
 5092SOL    HW216176   3.358   3.671   1.922
 5093SOL     OW16177   2.671   1.032   1.378
 5093SOL    HW116178   2.584   1.072   1.410
 5093SOL    HW216179   2.651   0.952   1.321
 5094SOL     OW16180   2.484   5.633   6.060
 5094SOL    HW116181   2.427   5.582   5.995
 5094SOL    HW216182   2.577   5.639   6.025
 5095SOL     OW16183   6.001   2.364   4.800
 5095SOL    HW116184   6.060   2.292   4.835
 5095SOL    HW216185   5.956   2.411   4.876
 5096SOL     OW16186   4.068   4.437   0.433
 5096SOL    HW116187   4.134   4.363   0.421
 5096SOL    HW216188   4.107   4.507   0.493
 5097SOL     OW16189   1.714   0.974   6.674
 5097SOL    HW116190   1.653   0.899   6.647
 5097SOL    HW216191   1.662   1.044   6.722
 5098SOL     OW16192   1.980   0.190   1.694
 5098SOL    HW116193   1.971   0.289   1.707
 5098SOL    HW216194   2.068   0.160   1.730
 5099SOL     OW16195   0.592   6.647   6.723
 5099SOL    HW116196   0.541   6.561   6.732
 5099SOL    HW216197   0.637   6.650   6.634
 5100SOL     OW16198   3.593   5.239   5.117
 5100SOL    HW116199   3.494   5.234   5.106
 5100SOL    HW216200   3.618   5.213   5.210
 5101SOL     OW16201   5.064   6.773   0.112
 5101SOL    HW116202   5.028   6.847   0.170
 5101SOL    HW216203   5.011   6.770   0.027
 5102SOL     OW16204   5.149   0.150   4.272
 5102SOL    HW116205   5.245   0.149   4.242
 5102SOL    HW216206   5.089   0.142   4.193
 5103SOL     OW16207   6.929   1.307   4.215
 5103SOL    HW116208   7.002   1.369   4.245
 5103SOL    HW216209   6.963   1.213   4.216
 5104SOL     OW16210   1.829   6.257   2.758
 5104SOL    HW116211   1.742   6.210   2.772
 5104SOL    HW216212   1.816   6.333   2.694
 5105SOL     OW16213   3.650   2.703   0.567
 5105SOL    HW116214   3.685   2.625   0.515
 5105SOL    HW216215   3.617   2.773   0.504
 5106SOL     OW16216   3.504   1.155   0.307
 5106SOL    HW116217   3.419   1.206   0.289
 5106SOL    HW216218   3.542   1.186   0.394
 5107SOL     OW16219   3.075   0.661   0.219
 5107SOL    HW116220   3.137   0.730   0.183
 5107SOL    HW216221   3.119   0.571   0.215
 5108SOL     OW16222   3.070   3.077   4.843
 5108SOL    HW116223   3.004   3.103   4.914
 5108SOL    HW216224   3.022   3.058   4.758
 5109SOL     OW16225   1.263   0.749   0.580
 5109SOL    HW116226   1.335   0.764   0.648
 5109SOL    HW216227   1.271   0.817   0.507
 5110SOL     OW16228   0.244   0.199   6.429
 5110SOL    HW116229   0.167   0.211   6.492
 5110SOL    HW216230   0.213   0.153   6.346
 5111SOL     OW16231   2.191   0.781   5.177
 5111SOL    HW116232   2.254   0.768   5.100
 5111SOL    HW216233   2.113   0.836   5.146
 5112SOL     OW16234   1.235   0.174   2.614
 5112SOL    HW116235   1.201   0.172   2.708
 5112SOL    HW216236   1.179   0.113   2.557
 5113SOL     OW16237   2.316   6.860   0.855
 5113SOL    HW116238   2.250   6.855   0.780
 5113SOL    HW216239   2.271   6.839   0.942
 5114SOL     OW16240   2.939   1.130   0.298
 5114SOL    HW116241   2.918   1.173   0.386
 5114SOL    HW216242   2.873   1.057   0.280
 5115SOL     OW16243   2.149   5.026   4.644
 5115SOL    HW116244   2.075   4.998   4.705
 5115SOL    HW216245   2.143   4.974   4.559
 5116SOL     OW16246   6.152   6.917   6.826
 5116SOL    HW116247   6.236   6.960   6.859
 5116SOL    HW216248   6.078   6.985   6.825
 5117SOL     OW16249   2.625   4.735   4.647
 5117SOL    HW116250   2.707   4.745   4.704
 5117SOL    HW216251   2.583   4.646   4.665
 5118SOL     OW16252   4.624   0.854   0.202
 5118SOL    HW116253   4.654   0.910   0.124
 5118SOL    HW216254   4.700   0.798   0.234
 5119SOL     OW16255   5.281   0.767   1.770
 5119SOL    HW116256   5.189   0.800   1.751
 5119SOL    HW216257   5.347   0.841   1.757
 5120SOL     OW16258   3.894   1.381   4.087
 5120SOL    HW116259   3.941   1.390   3.999
 5120SOL    HW216260   3.945   1.318   4.146
 5121SOL     OW16261   3.029   2.179   7.013
 5121SOL    HW116262   3.110   2.135   0.030
 5121SOL    HW216263   3.049   2.210   6.920
 5122SOL     OW16264   3.080   6.859   2.659
 5122SOL    HW116265   3.024   6.921   2.603
 5122SOL    HW216266   3.032   6.772   2.670
 5123SOL     OW16267   4.730   1.661   5.123
 5123SOL    HW116268   4.717   1.641   5.220
 5123SOL    HW216269   4.818   1.626   5.093
 5124SOL     OW16270   3.218   4.922   4.998
 5124SOL    HW116271   3.174   4.887   4.915
 5124SOL    HW216272   3.155   4.916   5.075
 5125SOL     OW16273   6.315   3.355   3.959
 5125SOL    HW116274   6.269   3.441   3.981
 5125SOL    HW216275   6.298   3.332   3.863
 5126SOL     OW16276   6.487   5.514   5.655
 5126SOL    HW116277   6.444   5.575   5.588
 5126SOL    HW216278   6.584   5.536   5.662
 5127SOL     OW16279   0.765   3.730   0.265
 5127SOL    HW116280   0.762   3.630   0.271
 5127SOL    HW216281   0.690   3.762   0.206
 5128SOL     OW16282   6.768   0.545   6.308
 5128SOL    HW116283   6.747   0.451   6.282
 5128SOL    HW216284   6.851   0.546   6.365
 5129SOL     OW16285   4.955   0.460   2.812
 5129SOL    HW116286   5.021   0.384   2.818
 5129SOL    HW216287   4.893   0.455   2.890
 5130SOL     OW16288   2.025   5.182   3.903
 5130SOL    HW116289   1.980   5.095   3.880
 5130SOL    HW216290   2.122   5.166   3.919
 5131SOL     OW16291   2.715   5.555   3.802
 5131SOL    HW116292   2.814   5.548   3.813
 5131SOL    HW216293   2.670   5.528   3.887
 5132SOL     OW16294   3.440   1.908   6.057
 5132SOL    HW116295   3.473   1.874   6.145
 5132SOL    HW216296   3.412   2.003   6.066
 5133SOL     OW16297   1.936   5.234   6.684
 5133SOL    HW116298   1.862   5.277   6.737
 5133SOL    HW216299   2.024   5.259   6.723
 5134SOL     OW16300   6.817   0.828   1.958
 5134SOL    HW116301   6.797   0.843   2.055
 5134SOL    HW216302   6.761   0.890   1.903
 5135SOL     OW16303   5.180   3.775   4.676
 5135SOL    HW116304   5.110   3.710   4.647
 5135SOL    HW216305   5.166   3.798   4.772
 5136SOL     OW16306   5.526   0.674   6.839
 5136SOL    HW116307   5.557   0.617   6.914
 5136SOL    HW216308   5.434   0.709   6.859
 5137SOL     OW16309   4.591   3.665   5.639
 5137SOL    HW116310   4.633   3.748   5.603
 5137SOL    HW216311   4.614   3.587   5.581
 5138SOL     OW16312   3.702   2.920   4.410
 5138SOL    HW116313   3.798   2.945   4.394
 5138SOL    HW216314   3.675   2.949   4.501
 5139SOL     OW16315   0.888   0.308   4.006
 5139SOL    HW116316   0.903   0.210   3.992
 5139SOL    HW216317   0.884   0.327   4.105
 5140SOL     OW16318   4.016   1.944   5.314
 5140SOL    HW116319   4.078   1.876   5.353
 5140SOL    HW216320   3.921   1.921   5.338
 5141SOL     OW16321   6.560   3.861   0.607
 5141SOL    HW116322   6.560   3.953   0.568
 5141SOL    HW216323   6.496   3.804   0.557
 5142SOL     OW16324   5.391   6.380   3.717
 5142SOL    HW116325   5.448   6.454   3.681
 5142SOL    HW216326   5.443   6.294   3.714
 5143SOL     OW16327   0.095   4.361   4.157
 5143SOL    HW116328   0.037   4.338   4.079
 5143SOL    HW216329   0.070   4.451   4.193
 5144SOL     OW16330   1.274   4.876   5.460
 5144SOL    HW116331   1.358   4.921   5.429
 5144SOL    HW216332   1.239   4.817   5.387
 5145SOL     OW16333   3.496   5.895   6.504
 5145SOL    HW116334   3.556   5.878   6.426
 5145SOL    HW216335   3.542   5.954   6.570
 5146SOL     OW16336   3.300   3.341   5.122
 5146SOL    HW116337   3.384   3.393   5.141
 5146SOL    HW216338   3.319   3.243   5.132
 5147SOL     OW16339   6.497   5.674   3.636
 5147SOL    HW116340   6.427   5.713   3.695
 5147SOL    HW216341   6.583   5.667   3.687
 5148SOL     OW16342   0.303   1.222   1.893
 5148SOL    HW116343   0.270   1.272   1.973
 5148SOL    HW216344   0.256   1.255   1.811
 5149SOL     OW16345   6.422   5.445   3.858
 5149SOL    HW116346   6.508   5.443   3.808
 5149SOL    HW216347   6.435   5.490   3.946
 5150SOL     OW16348   2.499   5.451   3.481
 5150SOL    HW116349   2.409   5.418   3.507
 5150SOL    HW216350   2.518   5.538   3.528
 5151SOL     OW16351   0.017   3.801   2.309
 5151SOL    HW116352   6.975   3.862   2.356
 5151SOL    HW216353   0.006   3.708   2.343
 5152SOL     OW16354   1.333   5.489   7.015
 5152SOL    HW116355   1.367   5.493   0.087
 5152SOL    HW216356   1.411   5.493   6.952
 5153SOL     OW16357   0.731   2.174   0.306
 5153SOL    HW116358   0.706   2.247   0.370
 5153SOL    HW216359   0.774   2.214   0.225
 5154SOL     OW16360   0.699   2.862   6.149
 5154SOL    HW116361   0.616   2.918   6.149
 5154SOL    HW216362   0.745   2.870   6.060
 5155SOL     OW16363   4.065   6.709   2.227
 5155SOL    HW116364   4.090   6.632   2.285
 5155SOL    HW216365   4.128   6.785   2.244
 5156SOL     OW16366   5.434   4.822   5.952
 5156SOL    HW116367   5.340   4.842   5.975
 5156SOL    HW216368   5.458   4.867   5.866
 5157SOL     OW16369   3.135   1.654   3.239
 5157SOL    HW116370   3.112   1.685   3.147
 5157SOL    HW216371   3.062   1.595   3.274
 5158SOL     OW16372   3.946   2.067   0.736
 5158SOL    HW116373   3.958   2.124   0.817
 5158SOL    HW216374   3.892   2.116   0.668
 5159SOL     OW16375   5.605   3.427   5.779
 5159SOL    HW116376   5.639   3.514   5.812
 5159SOL    HW216377   5.573   3.372   5.856
 5160SOL     OW16378   0.412   5.050   2.974
 5160SOL    HW116379   0.475   4.972   2.971
 5160SOL    HW216380   0.363   5.057   2.887
 5161SOL     OW16381   1.890   3.339   0.105
 5161SOL    HW116382   1.795   3.371   0.102
 5161SOL    HW216383   1.906   3.278   0.027
 5162SOL     OW16384   0.711   5.969   2.650
 5162SOL    HW116385   0.707   6.027   2.732
 5162SOL    HW216386   0.739   6.024   2.572
 5163SOL     OW16387   2.927   6.841   0.897
 5163SOL    HW116388   2.846   6.790   0.927
 5163SOL    HW216389   3.009   6.792   0.924
 5164SOL     OW16390   3.797   2.481   0.139
 5164SOL    HW116391   3.719   2.543   0.124
 5164SOL    HW216392   3.798   2.453   0.235
 5165SOL     OW16393   0.616   4.020   5.956
 5165SOL    HW116394   0.622   3.988   6.051
 5165SOL    HW216395   0.560   3.956   5.903
 5166SOL     OW16396   1.643   5.778   2.553
 5166SOL    HW116397   1.557   5.819   2.521
 5166SOL    HW216398   1.715   5.796   2.486
 5167SOL     OW16399   6.513   4.978   5.738
 5167SOL    HW116400   6.498   4.984   5.837
 5167SOL    HW216401   6.547   4.888   5.714
 5168SOL     OW16402   5.429   3.509   1.639
 5168SOL    HW116403   5.512   3.479   1.592
 5168SOL    HW216404   5.370   3.559   1.575
 5169SOL     OW16405   4.062   1.922   4.181
 5169SOL    HW116406   4.102   1.855   4.118
 5169SOL    HW216407   4.034   2.003   4.129
 5170SOL     OW16408   1.454   3.344   4.714
 5170SOL    HW116409   1.536   3.341   4.656
 5170SOL    HW216410   1.430   3.439   4.733
 5171SOL     OW16411   0.220   4.089   5.636
 5171SOL    HW116412   0.237   4.034   5.718
 5171SOL    HW216413   0.193   4.181   5.662
 5172SOL     OW16414   1.543   3.291   2.579
 5172SOL    HW116415   1.509   3.383   2.560
 5172SOL    HW216416   1.495   3.225   2.522
 5173SOL     OW16417   4.977   5.317   4.589
 5173SOL    HW116418   4.924   5.242   4.548
 5173SOL    HW216419   5.059   5.279   4.631
 5174SOL     OW16420   2.463   4.882   3.590
 5174SOL    HW116421   2.368   4.863   3.567
 5174SOL    HW216422   2.473   4.979   3.614
 5175SOL     OW16423   3.075   3.788   6.811
 5175SOL    HW116424   3.001   3.787   6.744
 5175SOL    HW216425   3.086   3.881   6.847
 5176SOL     OW16426   5.846   3.674   0.182
 5176SOL    HW116427   5.918   3.693   0.116
 5176SOL    HW216428   5.760   3.657   0.134
 5177SOL     OW16429   5.757   6.858   0.934
 5177SOL    HW116430   5.724   6.764   0.924
 5177SOL    HW216431   5.816   6.881   0.857
 5178SOL     OW16432   1.055   3.641   2.743
 5178SOL    HW116433   1.054   3.659   2.645
 5178SOL    HW216434   1.016   3.551   2.761
 5179SOL     OW16435   4.939   4.518   4.332
 5179SOL    HW116436   4.848   4.484   4.309
 5179SOL    HW216437   4.952   4.608   4.290
 5180SOL     OW16438   2.697   1.261   0.993
 5180SOL    HW116439   2.613   1.286   0.943
 5180SOL    HW216440   2.760   1.338   0.992
 5181SOL     OW16441   5.147   1.306   2.276
 5181SOL    HW116442   5.157   1.349   2.186
 5181SOL    HW216443   5.205   1.224   2.279
 5182SOL     OW16444   4.305   4.642   1.878
 5182SOL    HW116445   4.269   4.679   1.792
 5182SOL    HW216446   4.364   4.710   1.921
 5183SOL     OW16447   3.381   1.898   2.727
 5183SOL    HW116448   3.323   1.964   2.679
 5183SOL    HW216449   3.464   1.882   2.674
 5184SOL     OW16450   0.581   2.293   3.683
 5184SOL    HW116451   0.552   2.387   3.702
 5184SOL    HW216452   0.540   2.231   3.750
 5185SOL     OW16453   5.279   0.838   2.715
 5185SOL    HW116454   5.213   0.913   2.708
 5185SOL    HW216455   5.359   0.859   2.658
 5186SOL     OW16456   6.119   1.926   0.196
 5186SOL    HW116457   6.115   2.013   0.145
 5186SOL    HW216458   6.071   1.855   0.145
 5187SOL     OW16459   1.371   6.077   4.538
 5187SOL    HW116460   1.419   6.001   4.581
 5187SOL    HW216461   1.321   6.043   4.458
 5188SOL     OW16462   6.734   5.758   1.516
 5188SOL    HW116463   6.734   5.773   1.417
 5188SOL    HW216464   6.800   5.687   1.539
 5189SOL     OW16465   4.044   5.114   0.898
 5189SOL    HW116466   3.945   5.100   0.889
 5189SOL    HW216467   4.072   5.093   0.991
 5190SOL     OW16468   0.235   3.090   4.649
 5190SOL    HW116469   0.286   3.161   4.696
 5190SOL    HW216470   0.287   3.004   4.651
 5191SOL     OW16471   3.893   6.930   2.252
 5191SOL    HW116472   3.939   6.844   2.230
 5191SOL    HW216473   3.881   6.983   2.168
 5192SOL     OW16474   1.653   5.405   1.224
 5192SOL    HW116475   1.666   5.376   1.129
 5192SOL    HW216476   1.690   5.497   1.236
 5193SOL     OW16477   5.604   5.597   5.250
 5193SOL    HW116478   5.662   5.534   5.199
 5193SOL    HW216479   5.536   5.545   5.302
 5194SOL     OW16480   4.092   2.068   0.089
 5194SOL    HW116481   4.166   2.017   0.045
 5194SOL    HW216482   4.127   2.156   0.120
 5195SOL     OW16483   6.928   0.213   4.267
 5195SOL    HW116484   6.971   0.186   4.352
 5195SOL    HW216485   6.915   0.133   4.208
 5196SOL     OW16486   4.481   6.601   1.729
 5196SOL    HW116487   4.571   6.610   1.771
 5196SOL    HW216488   4.416   6.568   1.797
 5197SOL     OW16489   2.348   3.983   6.091
 5197SOL    HW116490   2.395   4.071   6.085
 5197SOL    HW216491   2.411   3.913   6.124
 5198SOL     OW16492   4.618   6.009   3.353
 5198SOL    HW116493   4.568   5.923   3.342
 5198SOL    HW216494   4.562   6.074   3.406
 5199SOL     OW16495   1.302   6.233   7.002
 5199SOL    HW116496   1.269   6.305   0.040
 5199SOL    HW216497   1.370   6.178   0.027
 5200SOL     OW16498   0.181   3.627   5.485
 5200SOL    HW116499   0.142   3.718   5.471
 5200SOL    HW216500   0.137   3.562   5.423
 5201SOL     OW16501   0.287   0.152   2.954
 5201SOL    HW116502   0.321   0.184   3.043
 5201SOL    HW216503   0.191   0.177   2.944
 5202SOL     OW16504   5.661   2.832   6.400
 5202SOL    HW116505   5.641   2.835   6.498
 5202SOL    HW216506   5.646   2.740   6.365
 5203SOL     OW16507   2.196   2.433   6.794
 5203SOL    HW116508   2.140   2.494   6.849
 5203SOL    HW216509   2.146   2.347   6.779
 5204SOL     OW16510   3.563   5.117   6.449
 5204SOL    HW116511   3.598   5.063   6.372
 5204SOL    HW216512   3.590   5.212   6.438
 5205SOL     OW16513   0.616   6.382   0.720
 5205SOL    HW116514   0.617   6.322   0.640
 5205SOL    HW216515   0.560   6.463   0.699
 5206SOL     OW16516   0.416   4.244   5.897
 5206SOL    HW116517   0.462   4.155   5.888
 5206SOL    HW216518   0.451   4.291   5.978
 5207SOL     OW16519   1.376   5.583   3.927
 5207SOL    HW116520   1.341   5.631   3.847
 5207SOL    HW216521   1.378   5.645   4.005
 5208SOL     OW16522   3.900   1.890   6.032
 5208SOL    HW116523   3.839   1.887   5.953
 5208SOL    HW216524   3.846   1.911   6.114
 5209SOL     OW16525   5.619   5.659   3.381
 5209SOL    HW116526   5.632   5.569   3.338
 5209SOL    HW216527   5.589   5.646   3.475
 5210SOL     OW16528   4.527   2.988   5.637
 5210SOL    HW116529   4.508   3.017   5.731
 5210SOL    HW216530   4.473   3.043   5.574
 5211SOL     OW16531   3.173   3.038   5.162
 5211SOL    HW116532   3.214   2.971   5.100
 5211SOL    HW216533   3.106   3.093   5.112
 5212SOL     OW16534   6.947   2.342   1.037
 5212SOL    HW116535   7.021   2.305   0.981
 5212SOL    HW216536   6.864   2.349   0.983
 5213SOL     OW16537   4.564   3.633   6.774
 5213SOL    HW116538   4.475   3.587   6.778
 5213SOL    HW216539   4.623   3.586   6.709
 5214SOL     OW16540   4.660   1.730   5.783
 5214SOL    HW116541   4.700   1.741   5.691
 5214SOL    HW216542   4.683   1.810   5.838
 5215SOL     OW16543   6.578   4.857   3.353
 5215SOL    HW116544   6.565   4.902   3.442
 5215SOL    HW216545   6.493   4.863   3.301
 5216SOL     OW16546   4.922   4.825   1.917
 5216SOL    HW116547   4.858   4.748   1.909
 5216SOL    HW216548   5.016   4.791   1.909
 5217SOL     OW16549   3.730   5.464   4.585
 5217SOL    HW116550   3.813   5.511   4.555
 5217SOL    HW216551   3.656   5.481   4.520
 5218SOL     OW16552   0.697   0.797   3.885
 5218SOL    HW116553   0.779   0.751   3.920
 5218SOL    HW216554   0.625   0.729   3.870
 5219SOL     OW16555   4.107   0.926   5.705
 5219SOL    HW116556   4.099   0.887   5.797
 5219SOL    HW216557   4.192   0.979   5.699
 5220SOL     OW16558   1.624   5.758   2.816
 5220SOL    HW116559   1.674   5.679   2.851
 5220SOL    HW216560   1.636   5.765   2.717
 5221SOL     OW16561   5.521   2.435   3.996
 5221SOL    HW116562   5.466   2.447   4.079
 5221SOL    HW216563   5.585   2.511   3.987
 5222SOL     OW16564   3.345   5.824   3.625
 5222SOL    HW116565   3.438   5.861   3.627
 5222SOL    HW216566   3.324   5.783   3.714
 5223SOL     OW16567   6.414   2.265   0.998
 5223SOL    HW116568   6.461   2.335   1.052
 5223SOL    HW216569   6.315   2.269   1.016
 5224SOL     OW16570   0.043   2.710   4.208
 5224SOL    HW116571   0.042   2.625   4.155
 5224SOL    HW216572   7.000   2.775   4.168
 5225SOL     OW16573   0.457   0.370   3.459
 5225SOL    HW116574   0.370   0.394   3.416
 5225SOL    HW216575   0.465   0.270   3.466
 5226SOL     OW16576   0.456   6.228   4.634
 5226SOL    HW116577   0.512   6.300   4.592
 5226SOL    HW216578   0.486   6.139   4.601
 5227SOL     OW16579   1.124   3.296   4.209
 5227SOL    HW116580   1.114   3.267   4.304
 5227SOL    HW216581   1.171   3.385   4.206
 5228SOL     OW16582   6.420   2.777   1.581
 5228SOL    HW116583   6.457   2.807   1.493
 5228SOL    HW216584   6.480   2.707   1.620
 5229SOL     OW16585   1.581   5.750   6.923
 5229SOL    HW116586   1.538   5.789   6.841
 5229SOL    HW216587   1.654   5.687   6.895
 5230SOL     OW16588   0.840   6.377   0.881
 5230SOL    HW116589   0.756   6.381   0.827
 5230SOL    HW216590   0.855   6.283   0.912
 5231SOL     OW16591   4.075   3.268   5.833
 5231SOL    HW116592   4.027   3.201   5.890
 5231SOL    HW216593   4.119   3.220   5.757
 5232SOL     OW16594   3.562   2.215   5.725
 5232SOL    HW116595   3.510   2.161   5.791
 5232SOL    HW216596   3.504   2.288   5.687
 5233SOL     OW16597   5.101   0.900   2.425
 5233SOL    HW116598   5.050   0.977   2.388
 5233SOL    HW216599   5.061   0.874   2.513
 5234SOL     OW16600   2.433   0.809   6.909
 5234SOL    HW116601   2.463   0.824   6.815
 5234SOL    HW216602   2.371   0.730   6.912
 5235SOL     OW16603   1.441   2.591   1.194
 5235SOL    HW116604   1.367   2.634   1.247
 5235SOL    HW216605   1.403   2.548   1.112
 5236SOL     OW16606   5.647   3.935   2.623
 5236SOL    HW116607   5.567   3.907   2.571
 5236SOL    HW216608   5.723   3.874   2.603
 5237SOL     OW16609   1.944   0.943   5.122
 5237SOL    HW116610   1.868   0.951   5.058
 5237SOL    HW216611   1.930   1.006   5.199
 5238SOL     OW16612   1.366   4.165   0.676
 5238SOL    HW116613   1.321   4.253   0.663
 5238SOL    HW216614   1.465   4.178   0.680
 5239SOL     OW16615   3.608   3.199   3.742
 5239SOL    HW116616   3.681   3.182   3.675
 5239SOL    HW216617   3.560   3.114   3.762
 5240SOL     OW16618   3.261   1.606   6.262
 5240SOL    HW116619   3.343   1.645   6.304
 5240SOL    HW216620   3.234   1.663   6.184
 5241SOL     OW16621   1.161   5.439   5.207
 5241SOL    HW116622   1.067   5.474   5.204
 5241SOL    HW216623   1.199   5.437   5.115
 5242SOL     OW16624   0.093   5.883   6.298
 5242SOL    HW116625   0.176   5.828   6.301
 5242SOL    HW216626   0.018   5.827   6.262
 5243SOL     OW16627   0.879   5.545   1.720
 5243SOL    HW116628   0.833   5.480   1.659
 5243SOL    HW216629   0.871   5.637   1.682
 5244SOL     OW16630   3.614   4.489   6.394
 5244SOL    HW116631   3.649   4.550   6.323
 5244SOL    HW216632   3.609   4.396   6.357
 5245SOL     OW16633   4.299   4.319   0.586
 5245SOL    HW116634   4.376   4.259   0.607
 5245SOL    HW216635   4.323   4.380   0.511
 5246SOL     OW16636   5.785   4.147   2.662
 5246SOL    HW116637   5.734   4.229   2.687
 5246SOL    HW216638   5.725   4.067   2.663
 5247SOL     OW16639   0.961   0.411   0.157
 5247SOL    HW116640   0.985   0.419   0.254
 5247SOL    HW216641   1.031   0.358   0.109
 5248SOL     OW16642   5.839   0.629   4.188
 5248SOL    HW116643   5.861   0.604   4.094
 5248SOL    HW216644   5.914   0.602   4.248
 5249SOL     OW16645   6.572   4.535   4.881
 5249SOL    HW116646   6.540   4.591   4.805
 5249SOL    HW216647   6.596   4.443   4.848
 5250SOL     OW16648   1.256   0.310   5.375
 5250SOL    HW116649   1.200   0.347   5.449
 5250SOL    HW216650   1.351   0.302   5.406
 5251SOL     OW16651   0.757   3.256   0.643
 5251SOL    HW116652   0.662   3.248   0.610
 5251SOL    HW216653   0.763   3.218   0.735
 5252SOL     OW16654   2.180   5.801   0.270
 5252SOL    HW116655   2.216   5.711   0.247
 5252SOL    HW216656   2.249   5.871   0.250
 5253SOL     OW16657   5.620   3.851   4.408
 5253SOL    HW116658   5.702   3.822   4.458
 5253SOL    HW216659   5.539   3.813   4.452
 5254SOL     OW16660   4.329   1.670   2.839
 5254SOL    HW116661   4.384   1.593   2.809
 5254SOL    HW216662   4.247   1.677   2.783
 5255SOL     OW16663   4.866   0.627   5.899
 5255SOL    HW116664   4.804   0.549   5.885
 5255SOL    HW216665   4.908   0.621   5.990
 5256SOL     OW16666   4.379   0.860   3.248
 5256SOL    HW116667   4.479   0.850   3.251
 5256SOL    HW216668   4.352   0.898   3.160
 5257SOL     OW16669   4.628   6.138   2.477
 5257SOL    HW116670   4.534   6.103   2.481
 5257SOL    HW216671   4.669   6.110   2.390
 5258SOL     OW16672   5.814   3.628   1.657
 5258SOL    HW116673   5.743   3.587   1.599
 5258SOL    HW216674   5.783   3.717   1.689
 5259SOL     OW16675   5.068   6.356   0.502
 5259SOL    HW116676   4.972   6.343   0.476
 5259SOL    HW216677   5.072   6.387   0.597
 5260SOL     OW16678   5.671   3.943   1.016
 5260SOL    HW116679   5.741   3.901   1.074
 5260SOL    HW216680   5.620   3.871   0.968
 5261SOL     OW16681   1.159   3.619   6.730
 5261SOL    HW116682   1.194   3.526   6.733
 5261SOL    HW216683   1.160   3.659   6.822
 5262SOL     OW16684   2.858   0.455   3.039
 5262SOL    HW116685   2.816   0.380   2.987
 5262SOL    HW216686   2.822   0.455   3.133
 5263SOL     OW16687   2.017   1.384   5.228
 5263SOL    HW116688   2.039   1.341   5.141
 5263SOL    HW216689   1.998   1.481   5.215
 5264SOL     OW16690   5.861   1.515   2.469
 5264SOL    HW116691   5.825   1.426   2.498
 5264SOL    HW216692   5.959   1.518   2.484
 5265SOL     OW16693   5.492   4.172   3.781
 5265SOL    HW116694   5.475   4.163   3.879
 5265SOL    HW216695   5.468   4.087   3.735
 5266SOL     OW16696   2.743   6.448   1.548
 5266SOL    HW116697   2.780   6.493   1.630
 5266SOL    HW216698   2.817   6.403   1.499
 5267SOL     OW16699   4.741   4.265   5.176
 5267SOL    HW116700   4.672   4.215   5.123
 5267SOL    HW216701   4.748   4.226   5.267
 5268SOL     OW16702   6.021   0.508   6.316
 5268SOL    HW116703   6.064   0.424   6.349
 5268SOL    HW216704   6.092   0.573   6.288
 5269SOL     OW16705   2.052   0.140   3.888
 5269SOL    HW116706   1.990   0.194   3.831
 5269SOL    HW216707   2.038   0.043   3.869
 5270SOL     OW16708   5.344   1.620   1.270
 5270SOL    HW116709   5.282   1.696   1.252
 5270SOL    HW216710   5.315   1.573   1.353
 5271SOL     OW16711   5.833   5.837   4.940
 5271SOL    HW116712   5.797   5.747   4.963
 5271SOL    HW216713   5.883   5.874   5.018
 5272SOL     OW16714   2.231   6.104   1.809
 5272SOL    HW116715   2.183   6.157   1.879
 5272SOL    HW216716   2.274   6.166   1.744
 5273SOL     OW16717   6.666   3.108   3.417
 5273SOL    HW116718   6.667   3.203   3.384
 5273SOL    HW216719   6.592   3.097   3.483
 5274SOL     OW16720   6.646   6.295   1.848
 5274SOL    HW116721   6.673   6.305   1.753
 5274SOL    HW216722   6.715   6.337   1.907
 5275SOL     OW16723   3.643   1.899   6.535
 5275SOL    HW116724   3.739   1.877   6.519
 5275SOL    HW216725   3.627   1.909   6.633
 5276SOL     OW16726   1.205   0.360   0.821
 5276SOL    HW116727   1.212   0.393   0.726
 5276SOL    HW216728   1.233   0.432   0.884
 5277SOL     OW16729   1.823   2.316   3.142
 5277SOL    HW116730   1.807   2.327   3.240
 5277SOL    HW216731   1.751   2.261   3.102
 5278SOL     OW16732   4.723   0.300   4.140
 5278SOL    HW116733   4.695   0.395   4.154
 5278SOL    HW216734   4.674   0.262   4.061
 5279SOL     OW16735   1.443   5.212   6.608
 5279SOL    HW116736   1.439   5.304   6.567
 5279SOL    HW216737   1.432   5.143   6.536
 5280SOL     OW16738   3.314   6.295   5.562
 5280SOL    HW116739   3.224   6.312   5.521
 5280SOL    HW216740   3.324   6.350   5.645
 5281SOL     OW16741   0.900   1.626   2.737
 5281SOL    HW116742   0.899   1.544   2.681
 5281SOL    HW216743   0.872   1.604   2.830
 5282SOL     OW16744   2.135   1.774   3.154
 5282SOL    HW116745   2.053   1.737   3.110
 5282SOL    HW216746   2.118   1.869   3.181
 5283SOL     OW16747   3.883   6.754   1.715
 5283SOL    HW116748   3.948   6.750   1.790
 5283SOL    HW216749   3.815   6.825   1.733
 5284SOL     OW16750   5.350   3.875   3.183
 5284SOL    HW116751   5.363   3.795   3.241
 5284SOL    HW216752   5.252   3.886   3.163
 5285SOL     OW16753   1.951   4.198   4.022
 5285SOL    HW116754   1.961   4.297   4.025
 5285SOL    HW216755   2.031   4.157   3.979
 5286SOL     OW16756   0.453   3.767   1.271
 5286SOL    HW116757   0.531   3.720   1.312
 5286SOL    HW216758   0.384   3.785   1.341
 5287SOL     OW16759   1.610   5.802   1.607
 5287SOL    HW116760   1.698   5.809   1.560
 5287SOL    HW216761   1.542   5.857   1.558
 5288SOL     OW16762   4.035   0.548   2.130
 5288SOL    HW116763   4.130   0.564   2.158
 5288SOL    HW216764   3.988   0.636   2.122
 5289SOL     OW16765   1.967   5.563   6.180
 5289SOL    HW116766   2.031   5.487   6.194
 5289SOL    HW216767   1.934   5.561   6.086
 5290SOL     OW16768   1.619   4.546   5.665
 5290SOL    HW116769   1.604   4.612   5.590
 5290SOL    HW216770   1.596   4.454   5.633
 5291SOL     OW16771   2.855   4.975   5.459
 5291SOL    HW116772   2.825   4.887   5.423
 5291SOL    HW216773   2.886   5.033   5.383
 5292SOL     OW16774   6.536   4.440   0.305
 5292SOL    HW116775   6.539   4.500   0.225
 5292SOL    HW216776   6.515   4.346   0.275
 5293SOL     OW16777   0.943   0.670   3.947
 5293SOL    HW116778   0.981   0.704   3.861
 5293SOL    HW216779   1.016   0.633   4.003
 5294SOL     OW16780   4.978   3.203   4.984
 5294SOL    HW116781   5.058   3.191   4.924
 5294SOL    HW216782   5.008   3.244   5.071
 5295SOL     OW16783   4.335   0.479   2.560
 5295SOL    HW116784   4.392   0.405   2.595
 5295SOL    HW216785   4.372   0.513   2.474
 5296SOL     OW16786   1.611   5.428   0.398
 5296SOL    HW116787   1.613   5.340   0.445
 5296SOL    HW216788   1.689   5.435   0.336
 5297SOL     OW16789   3.047   1.936   1.038
 5297SOL    HW116790   2.957   1.961   1.071
 5297SOL    HW216791   3.092   2.017   0.999
 5298SOL     OW16792   1.330   6.035   6.199
 5298SOL    HW116793   1.307   6.067   6.107
 5298SOL    HW216794   1.334   5.935   6.200
 5299SOL     OW16795   2.930   2.547   1.003
 5299SOL    HW116796   2.879   2.488   1.066
 5299SOL    HW216797   2.927   2.641   1.035
 5300SOL     OW16798   0.382   6.143   1.675
 5300SOL    HW116799   0.307   6.184   1.726
 5300SOL    HW216800   0.467   6.192   1.695
 5301SOL     OW16801   4.172   2.656   6.711
 5301SOL    HW116802   4.078   2.690   6.713
 5301SOL    HW216803   4.212   2.664   6.803
 5302SOL     OW16804   5.764   4.851   3.447
 5302SOL    HW116805   5.840   4.873   3.508
 5302SOL    HW216806   5.678   4.853   3.498
 5303SOL     OW16807   7.005   6.052   2.931
 5303SOL    HW116808   6.959   5.963   2.929
 5303SOL    HW216809   6.952   6.114   2.989
 5304SOL     OW16810   5.740   1.563   6.820
 5304SOL    HW116811   5.690   1.569   6.906
 5304SOL    HW216812   5.837   1.545   6.838
 5305SOL     OW16813   1.525   5.210   4.185
 5305SOL    HW116814   1.593   5.206   4.111
 5305SOL    HW216815   1.436   5.181   4.149
 5306SOL     OW16816   0.493   5.174   4.831
 5306SOL    HW116817   0.476   5.233   4.910
 5306SOL    HW216818   0.417   5.109   4.821
 5307SOL     OW16819   4.129   7.020   0.661
 5307SOL    HW116820   4.121   6.922   0.678
 5307SOL    HW216821   4.126   0.014   0.562
 5308SOL     OW16822   1.210   6.291   3.548
 5308SOL    HW116823   1.115   6.259   3.541
 5308SOL    HW216824   1.271   6.212   3.548
 5309SOL     OW16825   3.795   4.601   1.645
 5309SOL    HW116826   3.722   4.608   1.713
 5309SOL    HW216827   3.757   4.565   1.560
 5310SOL     OW16828   6.086   3.585   1.693
 5310SOL    HW116829   6.115   3.547   1.781
 5310SOL    HW216830   5.987   3.579   1.685
 5311SOL     OW16831   0.176   6.623   0.223
 5311SOL    HW116832   0.185   6.531   0.187
 5311SOL    HW216833   0.093   6.629   0.279
 5312SOL     OW16834   0.722   4.606   1.667
 5312SOL    HW116835   0.689   4.568   1.753
 5312SOL    HW216836   0.652   4.596   1.597
 5313SOL     OW16837   1.412   4.648   6.674
 5313SOL    HW116838   1.402   4.569   6.614
 5313SOL    HW216839   1.334   4.709   6.662
 5314SOL     OW16840   3.651   6.623   0.042
 5314SOL    HW116841   3.712   6.574   0.104
 5314SOL    HW216842   3.706   6.669   6.994
 5315SOL     OW16843   4.770   3.576   1.678
 5315SOL    HW116844   4.733   3.666   1.656
 5315SOL    HW216845   4.867   3.573   1.653
 5316SOL     OW16846   6.832   4.786   4.937
 5316SOL    HW116847   6.859   4.772   5.033
 5316SOL    HW216848   6.734   4.804   4.932
 5317SOL     OW16849   6.725   0.054   4.524
 5317SOL    HW116850   6.721   0.047   4.624
 5317SOL    HW216851   6.764   0.142   4.498
 5318SOL     OW16852   6.769   2.111   6.117
 5318SOL    HW116853   6.711   2.056   6.177
 5318SOL    HW216854   6.807   2.188   6.169
 5319SOL     OW16855   4.827   0.015   6.776
 5319SOL    HW116856   4.769   0.023   6.856
 5319SOL    HW216857   4.812   0.093   6.715
 5320SOL     OW16858   5.652   4.845   0.350
 5320SOL    HW116859   5.673   4.754   0.388
 5320SOL    HW216860   5.587   4.835   0.275
 5321SOL     OW16861   1.012   4.112   3.128
 5321SOL    HW116862   1.075   4.075   3.197
 5321SOL    HW216863   1.052   4.101   3.037
 5322SOL     OW16864   3.802   6.180   6.238
 5322SOL    HW116865   3.793   6.246   6.311
 5322SOL    HW216866   3.847   6.222   6.159
 5323SOL     OW16867   3.914   3.387   6.810
 5323SOL    HW116868   3.874   3.396   6.902
 5323SOL    HW216869   3.991   3.450   6.801
 5324SOL     OW16870   4.088   2.813   1.705
 5324SOL    HW116871   4.037   2.734   1.739
 5324SOL    HW216872   4.186   2.792   1.704
 5325SOL     OW16873   5.126   0.436   3.907
 5325SOL    HW116874   5.131   0.338   3.890
 5325SOL    HW216875   5.033   0.468   3.889
 5326SOL     OW16876   0.114   5.455   3.423
 5326SOL    HW116877   0.106   5.436   3.520
 5326SOL    HW216878   0.211   5.463   3.398
 5327SOL     OW16879   5.727   4.333   5.100
 5327SOL    HW116880   5.631   4.359   5.112
 5327SOL    HW216881   5.744   4.246   5.148
 5328SOL     OW16882   4.167   3.014   5.717
 5328SOL    HW116883   4.130   2.933   5.762
 5328SOL    HW216884   4.261   3.030   5.748
 5329SOL     OW16885   6.992   4.077   0.501
 5329SOL    HW116886   6.940   4.003   0.458
 5329SOL    HW216887   6.933   4.127   0.564
 5330SOL     OW16888   3.725   3.758   5.916
 5330SOL    HW116889   3.656   3.703   5.871
 5330SOL    HW216890   3.734   3.729   6.012
 5331SOL     OW16891   5.158   0.956   1.488
 5331SOL    HW116892   5.101   1.020   1.540
 5331SOL    HW216893   5.099   0.887   1.445
 5332SOL     OW16894   0.647   3.785   0.839
 5332SOL    HW116895   0.656   3.749   0.746
 5332SOL    HW216896   0.563   3.748   0.880
 5333SOL     OW16897   0.860   0.605   3.570
 5333SOL    HW116898   0.904   0.691   3.591
 5333SOL    HW216899   0.850   0.551   3.653
 5334SOL     OW16900   3.898   6.572   4.775
 5334SOL    HW116901   3.932   6.518   4.852
 5334SOL    HW216902   3.824   6.523   4.730
 5335SOL     OW16903   6.802   5.387   2.841
 5335SOL    HW116904   6.716   5.338   2.829
 5335SOL    HW216905   6.786   5.486   2.834
 5336SOL     OW16906   2.270   1.608   3.332
 5336SOL    HW116907   2.364   1.589   3.303
 5336SOL    HW216908   2.222   1.657   3.259
 5337SOL     OW16909   5.430   4.926   1.831
 5337SOL    HW116910   5.505   4.879   1.784
 5337SOL    HW216911   5.429   4.899   1.928
 5338SOL     OW16912   6.166   0.562   5.942
 5338SOL    HW116913   6.167   0.602   5.851
 5338SOL    HW216914   6.073   0.534   5.966
 5339SOL     OW16915   5.742   1.899   3.205
 5339SOL    HW116916   5.757   1.813   3.158
 5339SOL    HW216917   5.687   1.884   3.287
 5340SOL     OW16918   5.813   3.820   1.188
 5340SOL    HW116919   5.873   3.884   1.235
 5340SOL    HW216920   5.734   3.799   1.246
 5341SOL     OW16921   3.611   5.574   5.556
 5341SOL    HW116922   3.663   5.659   5.559
 5341SOL    HW216923   3.600   5.545   5.461
 5342SOL     OW16924   4.583   0.287   4.861
 5342SOL    HW116925   4.629   0.299   4.949
 5342SOL    HW216926   4.651   0.289   4.787
 5343SOL     OW16927   4.083   3.808   5.128
 5343SOL    HW116928   4.100   3.713   5.100
 5343SOL    HW216929   4.151   3.868   5.085
 5344SOL     OW16930   1.759   1.633   0.852
 5344SOL    HW116931   1.660   1.622   0.860
 5344SOL    HW216932   1.783   1.730   0.866
 5345SOL     OW16933   4.544   6.304   0.370
 5345SOL    HW116934   4.554   6.376   0.301
 5345SOL    HW216935   4.472   6.240   0.341
 5346SOL     OW16936   2.917   5.318   3.797
 5346SOL    HW116937   2.877   5.233   3.763
 5346SOL    HW216938   2.896   5.328   3.894
 5347SOL     OW16939   0.228   3.028   2.805
 5347SOL    HW116940   0.182   3.098   2.860
 5347SOL    HW216941   0.289   2.975   2.864
 5348SOL     OW16942   6.913   1.492   0.606
 5348SOL    HW116943   6.945   1.404   0.641
 5348SOL    HW216944   6.930   1.496   0.507
 5349SOL     OW16945   2.217   2.970   0.218
 5349SOL    HW116946   2.224   2.908   0.297
 5349SOL    HW216947   2.306   2.974   0.172
 5350SOL     OW16948   1.499   6.957   4.673
 5350SOL    HW116949   1.430   6.901   4.627
 5350SOL    HW216950   1.579   6.966   4.614
 5351SOL     OW16951   6.715   5.250   1.943
 5351SOL    HW116952   6.694   5.260   2.041
 5351SOL    HW216953   6.801   5.200   1.932
 5352SOL     OW16954   2.198   5.154   2.971
 5352SOL    HW116955   2.152   5.066   2.956
 5352SOL    HW216956   2.290   5.151   2.933
 5353SOL     OW16957   3.757   5.232   4.415
 5353SOL    HW116958   3.825   5.275   4.356
 5353SOL    HW216959   3.722   5.300   4.480
 5354SOL     OW16960   2.091   4.269   0.626
 5354SOL    HW116961   2.130   4.318   0.704
 5354SOL    HW216962   2.039   4.333   0.569
 5355SOL     OW16963   5.851   4.879   4.745
 5355SOL    HW116964   5.799   4.919   4.821
 5355SOL    HW216965   5.843   4.938   4.665
 5356SOL     OW16966   6.561   3.676   2.427
 5356SOL    HW116967   6.496   3.600   2.422
 5356SOL    HW216968   6.542   3.741   2.354
 5357SOL     OW16969   2.553   5.626   0.319
 5357SOL    HW116970   2.554   5.646   0.417
 5357SOL    HW216971   2.647   5.620   0.285
 5358SOL     OW16972   4.351   1.712   0.667
 5358SOL    HW116973   4.269   1.768   0.682
 5358SOL    HW216974   4.325   1.616   0.662
 5359SOL     OW16975   2.660   1.299   6.191
 5359SOL    HW116976   2.720   1.300   6.270
 5359SOL    HW216977   2.629   1.393   6.172
 5360SOL     OW16978   3.470   5.760   3.322
 5360SOL    HW116979   3.526   5.809   3.388
 5360SOL    HW216980   3.373   5.773   3.344
 5361SOL     OW16981   2.602   0.532   4.798
 5361SOL    HW116982   2.527   0.558   4.737
 5361SOL    HW216983   2.580   0.446   4.843
 5362SOL     OW16984   6.177   6.614   2.557
 5362SOL    HW116985   6.129   6.630   2.471
 5362SOL    HW216986   6.116   6.566   2.621
 5363SOL     OW16987   6.062   6.440   5.731
 5363SOL    HW116988   6.052   6.485   5.642
 5363SOL    HW216989   6.158   6.437   5.757
 5364SOL     OW16990   6.474   0.028   2.137
 5364SOL    HW116991   6.409   6.978   2.117
 5364SOL    HW216992   6.441   0.114   2.098
 5365SOL     OW16993   3.668   3.226   1.537
 5365SOL    HW116994   3.631   3.206   1.628
 5365SOL    HW216995   3.609   3.291   1.490
 5366SOL     OW16996   6.029   6.448   0.945
 5366SOL    HW116997   5.969   6.389   0.998
 5366SOL    HW216998   6.004   6.443   0.848
 5367SOL     OW16999   0.122   0.277   1.606
 5367SOL    HW117000   0.026   0.299   1.619
 5367SOL    HW217001   0.172   0.295   1.690
 5368SOL     OW17002   5.944   0.026   2.365
 5368SOL    HW117003   5.939   0.069   2.274
 5368SOL    HW217004   5.871   6.981   2.373
 5369SOL     OW17005   2.610   6.735   0.616
 5369SOL    HW117006   2.605   6.785   0.703
 5369SOL    HW217007   2.535   6.762   0.557
 5370SOL     OW17008   4.783   2.785   0.577
 5370SOL    HW117009   4.841   2.863   0.600
 5370SOL    HW217010   4.687   2.810   0.588
 5371SOL     OW17011   0.458   3.964   5.459
 5371SOL    HW117012   0.527   3.974   5.531
 5371SOL    HW217013   0.481   4.024   5.382
 5372SOL     OW17014   1.026   5.726   2.776
 5372SOL    HW117015   1.112   5.677   2.760
 5372SOL    HW217016   1.023   5.807   2.716
 5373SOL     OW17017   4.100   6.692   5.290
 5373SOL    HW117018   4.040   6.643   5.226
 5373SOL    HW217019   4.183   6.719   5.242
 5374SOL     OW17020   2.130   3.858   0.390
 5374SOL    HW117021   2.120   3.839   0.293
 5374SOL    HW217022   2.080   3.790   0.443
 5375SOL     OW17023   0.369   6.319   4.896
 5375SOL    HW117024   0.287   6.376   4.891
 5375SOL    HW217025   0.388   6.279   4.807
 5376SOL     OW17026   1.191   2.115   1.342
 5376SOL    HW117027   1.179   2.028   1.389
 5376SOL    HW217028   1.248   2.175   1.398
 5377SOL     OW17029   0.371   0.196   2.069
 5377SOL    HW117030   0.461   0.228   2.039
 5377SOL    HW217031   0.370   0.189   2.169
 5378SOL     OW17032   6.864   0.312   2.730
 5378SOL    HW117033   6.839   0.248   2.657
 5378SOL    HW217034   6.889   0.400   2.690
 5379SOL     OW17035   0.549   4.170   4.933
 5379SOL    HW117036   0.555   4.255   4.985
 5379SOL    HW217037   0.455   4.137   4.934
 5380SOL     OW17038   3.210   0.222   2.444
 5380SOL    HW117039   3.268   0.175   2.510
 5380SOL    HW217040   3.245   0.314   2.428
 5381SOL     OW17041   6.176   5.055   2.221
 5381SOL    HW117042   6.128   5.143   2.224
 5381SOL    HW217043   6.263   5.066   2.172
 5382SOL     OW17044   2.838   1.464   1.917
 5382SOL    HW117045   2.902   1.518   1.863
 5382SOL    HW217046   2.841   1.368   1.889
 5383SOL     OW17047   1.815   2.504   4.977
 5383SOL    HW117048   1.861   2.592   4.966
 5383SOL    HW217049   1.820   2.453   4.890
 5384SOL     OW17050   5.472   0.561   5.265
 5384SOL    HW117051   5.431   0.603   5.184
 5384SOL    HW217052   5.571   0.576   5.264
 5385SOL     OW17053   3.760   3.563   5.123
 5385SOL    HW117054   3.848   3.540   5.164
 5385SOL    HW217055   3.762   3.543   5.025
 5386SOL     OW17056   4.759   1.171   4.017
 5386SOL    HW117057   4.749   1.261   4.061
 5386SOL    HW217058   4.670   1.126   4.013
 5387SOL     OW17059   2.054   6.506   3.432
 5387SOL    HW117060   2.054   6.605   3.446
 5387SOL    HW217061   2.015   6.485   3.343
 5388SOL     OW17062   0.964   0.971   2.930
 5388SOL    HW117063   1.011   0.898   2.979
 5388SOL    HW217064   0.922   1.033   2.996
 5389SOL     OW17065   3.646   1.527   3.332
 5389SOL    HW117066   3.634   1.582   3.414
 5389SOL    HW217067   3.583   1.450   3.333
 5390SOL     OW17068   5.077   4.106   3.745
 5390SOL    HW117069   5.091   4.102   3.844
 5390SOL    HW217070   4.984   4.078   3.723
 5391SOL     OW17071   2.645   1.463   0.580
 5391SOL    HW117072   2.657   1.537   0.647
 5391SOL    HW217073   2.551   1.428   0.586
 5392SOL     OW17074   6.217   3.413   1.166
 5392SOL    HW117075   6.132   3.464   1.184
 5392SOL    HW217076   6.222   3.391   1.068
 5393SOL     OW17077   5.425   0.685   5.544
 5393SOL    HW117078   5.468   0.621   5.481
 5393SOL    HW217079   5.356   0.637   5.598
 5394SOL     OW17080   0.535   5.760   1.247
 5394SOL    HW117081   0.622   5.723   1.280
 5394SOL    HW217082   0.541   5.778   1.149
 5395SOL     OW17083   4.555   1.098   1.186
 5395SOL    HW117084   4.571   1.185   1.139
 5395SOL    HW217085   4.563   1.112   1.285
 5396SOL     OW17086   5.640   4.779   1.144
 5396SOL    HW117087   5.635   4.727   1.230
 5396SOL    HW217088   5.597   4.726   1.071
 5397SOL     OW17089   6.907   2.302   1.565
 5397SOL    HW117090   6.916   2.366   1.641
 5397SOL    HW217091   6.865   2.349   1.487
 5398SOL     OW17092   2.964   2.236   3.641
 5398SOL    HW117093   2.905   2.219   3.720
 5398SOL    HW217094   3.056   2.258   3.672
 5399SOL     OW17095   2.802   6.379   0.209
 5399SOL    HW117096   2.873   6.450   0.212
 5399SOL    HW217097   2.833   6.299   0.260
 5400SOL     OW17098   3.082   3.227   6.457
 5400SOL    HW117099   3.031   3.305   6.494
 5400SOL    HW217100   3.107   3.165   6.532
 5401SOL     OW17101   6.412   4.379   2.453
 5401SOL    HW117102   6.497   4.420   2.486
 5401SOL    HW217103   6.357   4.348   2.530
 5402SOL     OW17104   2.117   5.803   1.527
 5402SOL    HW117105   2.147   5.799   1.623
 5402SOL    HW217106   2.191   5.839   1.470
 5403SOL     OW17107   5.357   3.582   5.754
 5403SOL    HW117108   5.333   3.538   5.840
 5403SOL    HW217109   5.342   3.518   5.679
 5404SOL     OW17110   0.803   0.502   2.531
 5404SOL    HW117111   0.806   0.410   2.492
 5404SOL    HW217112   0.891   0.523   2.574
 5405SOL     OW17113   5.524   5.573   6.860
 5405SOL    HW117114   5.444   5.628   6.838
 5405SOL    HW217115   5.529   5.560   6.959
 5406SOL     OW17116   1.835   0.388   5.342
 5406SOL    HW117117   1.905   0.446   5.300
 5406SOL    HW217118   1.834   0.404   5.441
 5407SOL     OW17119   3.050   1.947   0.626
 5407SOL    HW117120   3.080   2.042   0.623
 5407SOL    HW217121   3.108   1.895   0.689
 5408SOL     OW17122   3.882   0.503   5.719
 5408SOL    HW117123   3.937   0.536   5.643
 5408SOL    HW217124   3.804   0.564   5.734
 5409SOL     OW17125   6.627   1.553   3.568
 5409SOL    HW117126   6.656   1.573   3.662
 5409SOL    HW217127   6.622   1.638   3.516
 5410SOL     OW17128   0.867   2.250   6.458
 5410SOL    HW117129   0.835   2.335   6.414
 5410SOL    HW217130   0.789   2.191   6.476
 5411SOL     OW17131   5.936   5.269   5.866
 5411SOL    HW117132   5.903   5.253   5.773
 5411SOL    HW217133   6.021   5.217   5.880
 5412SOL     OW17134   3.544   1.480   6.515
 5412SOL    HW117135   3.597   1.430   6.583
 5412SOL    HW217136   3.504   1.416   6.449
 5413SOL     OW17137   0.007   0.371   0.878
 5413SOL    HW117138   6.959   0.433   0.841
 5413SOL    HW217139   0.076   0.425   0.927
 5414SOL     OW17140   6.222   4.242   4.655
 5414SOL    HW117141   6.189   4.305   4.725
 5414SOL    HW217142   6.216   4.286   4.566
 5415SOL     OW17143   1.639   6.367   2.026
 5415SOL    HW117144   1.676   6.295   2.085
 5415SOL    HW217145   1.575   6.327   1.960
 5416SOL     OW17146   3.383   5.139   5.648
 5416SOL    HW117147   3.429   5.080   5.581
 5416SOL    HW217148   3.340   5.215   5.600
 5417SOL     OW17149   4.369   6.634   4.621
 5417SOL    HW117150   4.332   6.724   4.646
 5417SOL    HW217151   4.406   6.590   4.703
 5418SOL     OW17152   5.261   0.487   4.609
 5418SOL    HW117153   5.161   0.483   4.608
 5418SOL    HW217154   5.298   0.397   4.585
 5419SOL     OW17155   3.328   5.416   0.290
 5419SOL    HW117156   3.401   5.481   0.267
 5419SOL    HW217157   3.309   5.422   0.388
 5420SOL     OW17158   1.905   2.554   1.696
 5420SOL    HW117159   1.942   2.549   1.789
 5420SOL    HW217160   1.844   2.633   1.690
 5421SOL     OW17161   3.152   5.290   3.225
 5421SOL    HW117162   3.173   5.235   3.305
 5421SOL    HW217163   3.053   5.303   3.218
 5422SOL     OW17164   0.731   5.660   4.327
 5422SOL    HW117165   0.713   5.750   4.289
 5422SOL    HW217166   0.692   5.590   4.268
 5423SOL     OW17167   5.965   4.460   0.427
 5423SOL    HW117168   6.044   4.508   0.465
 5423SOL    HW217169   5.994   4.373   0.388
 5424SOL     OW17170   5.892   3.849   4.477
 5424SOL    HW117171   5.941   3.827   4.393
 5424SOL    HW217172   5.902   3.946   4.497
 5425SOL     OW17173   5.096   2.367   4.545
 5425SOL    HW117174   5.123   2.289   4.489
 5425SOL    HW217175   5.055   2.335   4.630
 5426SOL     OW17176   6.170   5.704   3.518
 5426SOL    HW117177   6.101   5.642   3.481
 5426SOL    HW217178   6.221   5.659   3.591
 5427SOL     OW17179   5.497   3.935   0.522
 5427SOL    HW117180   5.435   3.997   0.571
 5427SOL    HW217181   5.445   3.855   0.491
 5428SOL     OW17182   6.333   6.832   2.437
 5428SOL    HW117183   6.312   6.743   2.478
 5428SOL    HW217184   6.276   6.845   2.356
 5429SOL     OW17185   1.951   1.423   5.842
 5429SOL    HW117186   1.942   1.480   5.924
 5429SOL    HW217187   2.030   1.454   5.789
 5430SOL     OW17188   2.274   2.584   6.127
 5430SOL    HW117189   2.311   2.629   6.045
 5430SOL    HW217190   2.230   2.498   6.101
 5431SOL     OW17191   3.457   4.092   6.467
 5431SOL    HW117192   3.535   4.071   6.525
 5431SOL    HW217193   3.466   4.043   6.380
 5432SOL     OW17194   3.664   5.466   6.762
 5432SOL    HW117195   3.625   5.558   6.762
 5432SOL    HW217196   3.592   5.400   6.781
 5433SOL     OW17197   0.372   0.817   3.126
 5433SOL    HW117198   0.315   0.859   3.196
 5433SOL    HW217199   0.320   0.808   3.041
 5434SOL     OW17200   4.315   0.747   4.733
 5434SOL    HW117201   4.261   0.667   4.708
 5434SOL    HW217202   4.271   0.795   4.809
 5435SOL     OW17203   5.896   2.009   1.112
 5435SOL    HW117204   5.880   1.918   1.150
 5435SOL    HW217205   5.958   2.002   1.033
 5436SOL     OW17206   5.568   4.267   4.317
 5436SOL    HW117207   5.653   4.297   4.274
 5436SOL    HW217208   5.589   4.203   4.391
 5437SOL     OW17209   3.024   5.568   5.738
 5437SOL    HW117210   3.065   5.573   5.647
 5437SOL    HW217211   3.097   5.567   5.807
 5438SOL     OW17212   6.312   3.054   2.083
 5438SOL    HW117213   6.393   3.108   2.106
 5438SOL    HW217214   6.231   3.096   2.125
 5439SOL     OW17215   0.050   2.483   0.139
 5439SOL    HW117216   0.027   2.400   0.088
 5439SOL    HW217217   0.023   2.563   0.087
 5440SOL     OW17218   6.887   6.833   3.729
 5440SOL    HW117219   6.837   6.750   3.705
 5440SOL    HW217220   6.828   6.893   3.782
 5441SOL     OW17221   4.728   2.767   3.331
 5441SOL    HW117222   4.737   2.845   3.392
 5441SOL    HW217223   4.700   2.687   3.383
 5442SOL     OW17224   3.466   6.894   2.974
 5442SOL    HW117225   3.416   6.808   2.984
 5442SOL    HW217226   3.402   6.970   2.974
 5443SOL     OW17227   3.588   5.513   3.702
 5443SOL    HW117228   3.508   5.482   3.650
 5443SOL    HW217229   3.668   5.459   3.675
 5444SOL     OW17230   0.290   0.363   3.716
 5444SOL    HW117231   0.216   0.416   3.759
 5444SOL    HW217232   0.280   0.366   3.617
 5445SOL     OW17233   6.305   3.866   3.955
 5445SOL    HW117234   6.356   3.842   4.037
 5445SOL    HW217235   6.290   3.784   3.899
 5446SOL     OW17236   5.683   5.253   4.946
 5446SOL    HW117237   5.737   5.297   5.017
 5446SOL    HW217238   5.586   5.258   4.970
 5447SOL     OW17239   1.524   1.631   0.606
 5447SOL    HW117240   1.522   1.666   0.512
 5447SOL    HW217241   1.540   1.532   0.605
 5448SOL     OW17242   5.565   4.934   4.564
 5448SOL    HW117243   5.556   4.835   4.576
 5448SOL    HW217244   5.659   4.956   4.538
 5449SOL     OW17245   1.827   1.523   1.081
 5449SOL    HW117246   1.918   1.537   1.120
 5449SOL    HW217247   1.824   1.559   0.988
 5450SOL     OW17248   3.092   0.306   0.813
 5450SOL    HW117249   3.118   0.286   0.908
 5450SOL    HW217250   3.021   0.377   0.813
 5451SOL     OW17251   2.287   6.281   3.687
 5451SOL    HW117252   2.288   6.250   3.782
 5451SOL    HW217253   2.335   6.215   3.630
 5452SOL     OW17254   2.503   4.037   6.827
 5452SOL    HW117255   2.547   3.975   6.762
 5452SOL    HW217256   2.484   4.124   6.782
 5453SOL     OW17257   5.259   4.320   2.212
 5453SOL    HW117258   5.262   4.418   2.193
 5453SOL    HW217259   5.348   4.279   2.190
 5454SOL     OW17260   4.881   5.969   6.861
 5454SOL    HW117261   4.832   5.989   6.776
 5454SOL    HW217262   4.978   5.993   6.850
 5455SOL     OW17263   0.199   2.558   2.936
 5455SOL    HW117264   0.248   2.550   2.850
 5455SOL    HW217265   0.205   2.472   2.986
 5456SOL     OW17266   3.018   0.264   0.037
 5456SOL    HW117267   2.961   0.254   6.978
 5456SOL    HW217268   3.084   0.339   0.022
 5457SOL     OW17269   6.314   1.958   1.749
 5457SOL    HW117270   6.319   1.873   1.696
 5457SOL    HW217271   6.219   1.989   1.753
 5458SOL     OW17272   0.460   5.195   0.266
 5458SOL    HW117273   0.380   5.224   0.318
 5458SOL    HW217274   0.528   5.267   0.266
 5459SOL     OW17275   3.296   3.672   6.078
 5459SOL    HW117276   3.384   3.712   6.107
 5459SOL    HW217277   3.228   3.744   6.072
 5460SOL     OW17278   3.373   6.393   3.145
 5460SOL    HW117279   3.465   6.417   3.176
 5460SOL    HW217280   3.314   6.379   3.224
 5461SOL     OW17281   0.429   0.838   4.972
 5461SOL    HW117282   0.363   0.857   4.900
 5461SOL    HW217283   0.438   0.739   4.985
 5462SOL     OW17284   5.458   6.600   7.010
 5462SOL    HW117285   5.388   6.624   0.055
 5462SOL    HW217286   5.414   6.566   6.927
 5463SOL     OW17287   0.410   1.392   6.938
 5463SOL    HW117288   0.453   1.342   7.013
 5463SOL    HW217289   0.481   1.427   6.876
 5464SOL     OW17290   6.238   0.244   4.738
 5464SOL    HW117291   6.282   0.306   4.804
 5464SOL    HW217292   6.218   0.294   4.654
 5465SOL     OW17293   5.159   0.862   4.238
 5465SOL    HW117294   5.242   0.846   4.185
 5465SOL    HW217295   5.110   0.775   4.250
 5466SOL     OW17296   5.042   2.948   5.234
 5466SOL    HW117297   4.956   2.901   5.212
 5466SOL    HW217298   5.090   2.970   5.149
 5467SOL     OW17299   5.492   3.723   3.717
 5467SOL    HW117300   5.525   3.663   3.644
 5467SOL    HW217301   5.458   3.808   3.676
 5468SOL     OW17302   6.281   2.179   4.499
 5468SOL    HW117303   6.305   2.268   4.538
 5468SOL    HW217304   6.356   2.148   4.440
 5469SOL     OW17305   3.021   6.399   5.844
 5469SOL    HW117306   2.996   6.490   5.811
 5469SOL    HW217307   2.961   6.374   5.920
 5470SOL     OW17308   3.412   5.387   3.549
 5470SOL    HW117309   3.445   5.374   3.456
 5470SOL    HW217310   3.314   5.405   3.547
 5471SOL     OW17311   6.334   0.670   3.526
 5471SOL    HW117312   6.235   0.669   3.517
 5471SOL    HW217313   6.373   0.735   3.460
 5472SOL     OW17314   2.995   3.592   6.084
 5472SOL    HW117315   2.938   3.515   6.057
 5472SOL    HW217316   3.052   3.566   6.162
 5473SOL     OW17317   1.562   3.443   1.821
 5473SOL    HW117318   1.522   3.351   1.829
 5473SOL    HW217319   1.504   3.499   1.762
 5474SOL     OW17320   1.048   4.109   4.500
 5474SOL    HW117321   1.035   4.059   4.585
 5474SOL    HW217322   1.068   4.205   4.520
 5475SOL     OW17323   1.960   2.323   1.072
 5475SOL    HW117324   1.905   2.374   1.138
 5475SOL    HW217325   2.037   2.380   1.042
 5476SOL     OW17326   1.996   4.648   5.071
 5476SOL    HW117327   1.986   4.654   5.170
 5476SOL    HW217328   1.968   4.557   5.040
 5477SOL     OW17329   2.285   4.236   2.399
 5477SOL    HW117330   2.266   4.289   2.481
 5477SOL    HW217331   2.316   4.145   2.424
 5478SOL     OW17332   2.969   6.437   4.809
 5478SOL    HW117333   2.974   6.365   4.739
 5478SOL    HW217334   2.876   6.443   4.844
 5479SOL     OW17335   5.671   1.744   5.768
 5479SOL    HW117336   5.647   1.648   5.781
 5479SOL    HW217337   5.771   1.755   5.775
 5480SOL     OW17338   5.710   6.056   4.118
 5480SOL    HW117339   5.695   5.958   4.135
 5480SOL    HW217340   5.624   6.105   4.132
 5481SOL     OW17341   4.427   1.127   4.349
 5481SOL    HW117342   4.518   1.168   4.362
 5481SOL    HW217343   4.418   1.048   4.409
 5482SOL     OW17344   3.568   4.365   1.503
 5482SOL    HW117345   3.573   4.327   1.595
 5482SOL    HW217346   3.545   4.292   1.438
 5483SOL     OW17347   0.100   2.780   5.494
 5483SOL    HW117348   0.151   2.766   5.409
 5483SOL    HW217349   0.062   2.693   5.525
 5484SOL     OW17350   4.172   0.984   3.530
 5484SOL    HW117351   4.178   1.041   3.448
 5484SOL    HW217352   4.171   0.888   3.504
 5485SOL     OW17353   3.892   6.947   4.623
 5485SOL    HW117354   3.877   6.978   4.717
 5485SOL    HW217355   3.972   6.886   4.621
 5486SOL     OW17356   2.194   6.105   5.273
 5486SOL    HW117357   2.127   6.169   5.234
 5486SOL    HW217358   2.196   6.021   5.218
 5487SOL     OW17359   5.602   3.331   7.006
 5487SOL    HW117360   5.558   3.288   6.928
 5487SOL    HW217361   5.683   3.381   6.974
 5488SOL     OW17362   6.116   0.607   0.727
 5488SOL    HW117363   6.065   0.682   0.684
 5488SOL    HW217364   6.063   0.523   0.718
 5489SOL     OW17365   0.790   3.775   1.736
 5489SOL    HW117366   0.887   3.781   1.714
 5489SOL    HW217367   0.736   3.773   1.652
 5490SOL     OW17368   3.164   6.809   1.056
 5490SOL    HW117369   3.256   6.848   1.057
 5490SOL    HW217370   3.101   6.871   1.102
 5491SOL     OW17371   1.890   4.014   0.785
 5491SOL    HW117372   1.915   3.939   0.847
 5491SOL    HW217373   1.954   4.015   0.707
 5492SOL     OW17374   6.813   3.200   6.108
 5492SOL    HW117375   6.779   3.229   6.197
 5492SOL    HW217376   6.780   3.263   6.037
 5493SOL     OW17377   3.300   4.086   4.145
 5493SOL    HW117378   3.317   3.991   4.118
 5493SOL    HW217379   3.287   4.090   4.244
 5494SOL     OW17380   6.280   2.761   6.173
 5494SOL    HW117381   6.277   2.779   6.074
 5494SOL    HW217382   6.327   2.836   6.219
 5495SOL     OW17383   3.240   1.715   0.702
 5495SOL    HW117384   3.203   1.667   0.622
 5495SOL    HW217385   3.334   1.743   0.684
 5496SOL     OW17386   3.411   0.789   3.634
 5496SOL    HW117387   3.492   0.742   3.671
 5496SOL    HW217388   3.381   0.860   3.699
 5497SOL     OW17389   0.281   2.314   4.087
 5497SOL    HW117390   0.289   2.256   4.168
 5497SOL    HW217391   0.196   2.366   4.091
 5498SOL     OW17392   6.238   6.345   1.123
 5498SOL    HW117393   6.300   6.422   1.138
 5498SOL    HW217394   6.151   6.379   1.087
 5499SOL     OW17395   0.631   0.282   4.785
 5499SOL    HW117396   0.649   0.379   4.804
 5499SOL    HW217397   0.586   0.241   4.864
 5500SOL     OW17398   1.247   0.466   0.555
 5500SOL    HW117399   1.296   0.551   0.537
 5500SOL    HW217400   1.289   0.392   0.502
 5501SOL     OW17401   3.479   0.492   0.433
 5501SOL    HW117402   3.469   0.528   0.340
 5501SOL    HW217403   3.542   0.415   0.432
 5502SOL     OW17404   5.325   3.345   0.507
 5502SOL    HW117405   5.282   3.374   0.421
 5502SOL    HW217406   5.323   3.421   0.572
 5503SOL     OW17407   0.700   4.892   2.143
 5503SOL    HW117408   0.626   4.829   2.168
 5503SOL    HW217409   0.769   4.844   2.090
 5504SOL     OW17410   4.137   0.850   5.011
 5504SOL    HW117411   4.049   0.806   4.993
 5504SOL    HW217412   4.121   0.944   5.042
 5505SOL     OW17413   2.319   5.189   4.497
 5505SOL    HW117414   2.400   5.230   4.541
 5505SOL    HW217415   2.266   5.140   4.565
 5506SOL     OW17416   1.238   2.291   0.009
 5506SOL    HW117417   1.253   2.359   0.081
 5506SOL    HW217418   1.242   2.199   0.048
 5507SOL     OW17419   3.754   1.246   4.301
 5507SOL    HW117420   3.829   1.290   4.251
 5507SOL    HW217421   3.695   1.198   4.236
 5508SOL     OW17422   1.747   1.222   6.494
 5508SOL    HW117423   1.781   1.152   6.558
 5508SOL    HW217424   1.762   1.192   6.400
 5509SOL     OW17425   0.043   6.701   6.773
 5509SOL    HW117426   0.019   6.752   6.856
 5509SOL    HW217427   6.982   6.663   6.733
 5510SOL     OW17428   4.867   5.167   6.818
 5510SOL    HW117429   4.886   5.253   6.867
 5510SOL    HW217430   4.905   5.090   6.870
 5511SOL     OW17431   2.341   1.510   3.998
 5511SOL    HW117432   2.282   1.475   4.070
 5511SOL    HW217433   2.286   1.561   3.931
 5512SOL     OW17434   5.525   2.242   1.262
 5512SOL    HW117435   5.569   2.207   1.180
 5512SOL    HW217436   5.426   2.227   1.257
 5513SOL     OW17437   4.552   4.547   6.447
 5513SOL    HW117438   4.576   4.625   6.389
 5513SOL    HW217439   4.509   4.579   6.531
 5514SOL     OW17440   4.070   6.832   4.314
 5514SOL    HW117441   4.070   6.771   4.235
 5514SOL    HW217442   3.986   6.821   4.366
 5515SOL     OW17443   0.894   5.821   2.164
 5515SOL    HW117444   0.829   5.896   2.178
 5515SOL    HW217445   0.860   5.760   2.092
 5516SOL     OW17446   1.960   4.024   6.213
 5516SOL    HW117447   1.882   4.023   6.151
 5516SOL    HW217448   1.930   4.001   6.306
 5517SOL     OW17449   2.249   2.926   1.900
 5517SOL    HW117450   2.261   3.014   1.947
 5517SOL    HW217451   2.291   2.931   1.809
 5518SOL     OW17452   5.688   6.309   6.425
 5518SOL    HW117453   5.635   6.394   6.422
 5518SOL    HW217454   5.725   6.289   6.334
 5519SOL     OW17455   5.570   3.584   3.495
 5519SOL    HW117456   5.659   3.599   3.452
 5519SOL    HW217457   5.557   3.487   3.513
 5520SOL     OW17458   5.898   6.438   2.469
 5520SOL    HW117459   5.951   6.374   2.525
 5520SOL    HW217460   5.957   6.481   2.402
 5521SOL     OW17461   5.526   5.876   1.875
 5521SOL    HW117462   5.454   5.854   1.941
 5521SOL    HW217463   5.556   5.793   1.829
 5522SOL     OW17464   6.614   5.198   0.071
 5522SOL    HW117465   6.593   5.242   0.158
 5522SOL    HW217466   6.683   5.252   0.022
 5523SOL     OW17467   3.978   0.849   2.054
 5523SOL    HW117468   3.889   0.826   2.093
 5523SOL    HW217469   3.968   0.929   1.995
 5524SOL     OW17470   5.423   0.056   4.897
 5524SOL    HW117471   5.364   0.056   4.816
 5524SOL    HW217472   5.422   0.147   4.939
 5525SOL     OW17473   0.062   1.832   1.098
 5525SOL    HW117474   7.021   1.851   1.023
 5525SOL    HW217475   0.137   1.775   1.064
 5526SOL     OW17476   4.731   5.751   3.874
 5526SOL    HW117477   4.712   5.826   3.811
 5526SOL    HW217478   4.700   5.776   3.966
 5527SOL     OW17479   4.989   3.752   3.899
 5527SOL    HW117480   5.081   3.781   3.873
 5527SOL    HW217481   4.979   3.759   3.998
 5528SOL     OW17482   1.591   1.195   6.768
 5528SOL    HW117483   1.496   1.221   6.756
 5528SOL    HW217484   1.651   1.272   6.747
 5529SOL     OW17485   2.981   6.874   3.562
 5529SOL    HW117486   3.049   6.808   3.595
 5529SOL    HW217487   3.028   6.949   3.516
 5530SOL     OW17488   5.676   2.296   1.743
 5530SOL    HW117489   5.628   2.257   1.664
 5530SOL    HW217490   5.749   2.356   1.711
 5531SOL     OW17491   3.193   3.509   2.181
 5531SOL    HW117492   3.180   3.471   2.089
 5531SOL    HW217493   3.290   3.526   2.196
 5532SOL     OW17494   1.859   2.905   0.472
 5532SOL    HW117495   1.815   2.857   0.396
 5532SOL    HW217496   1.955   2.879   0.477
 5533SOL     OW17497   3.388   1.755   2.965
 5533SOL    HW117498   3.374   1.768   2.867
 5533SOL    HW217499   3.380   1.844   3.011
 5534SOL     OW17500   0.318   1.064   6.369
 5534SOL    HW117501   0.255   1.140   6.383
 5534SOL    HW217502   0.271   0.978   6.389
 5535SOL     OW17503   6.973   2.917   3.386
 5535SOL    HW117504   6.996   2.914   3.289
 5535SOL    HW217505   6.961   3.012   3.415
 5536SOL     OW17506   3.291   1.202   4.150
 5536SOL    HW117507   3.261   1.282   4.202
 5536SOL    HW217508   3.287   1.223   4.052
 5537SOL     OW17509   2.873   0.752   2.478
 5537SOL    HW117510   2.863   0.653   2.491
 5537SOL    HW217511   2.784   0.796   2.492
 5538SOL     OW17512   2.439   6.168   5.990
 5538SOL    HW117513   2.499   6.095   6.022
 5538SOL    HW217514   2.490   6.254   5.989
 5539SOL     OW17515   1.315   3.228   1.212
 5539SOL    HW117516   1.392   3.195   1.157
 5539SOL    HW217517   1.321   3.189   1.304
 5540SOL     OW17518   4.816   4.524   3.572
 5540SOL    HW117519   4.746   4.452   3.578
 5540SOL    HW217520   4.791   4.599   3.633
 5541SOL     OW17521   5.927   0.457   6.061
 5541SOL    HW117522   5.961   0.465   6.154
 5541SOL    HW217523   5.833   0.422   6.064
 5542SOL     OW17524   5.462   3.808   6.132
 5542SOL    HW117525   5.428   3.717   6.154
 5542SOL    HW217526   5.385   3.872   6.127
 5543SOL     OW17527   3.941   4.808   5.553
 5543SOL    HW117528   4.002   4.758   5.613
 5543SOL    HW217529   3.967   4.905   5.553
 5544SOL     OW17530   4.911   5.868   6.200
 5544SOL    HW117531   4.954   5.799   6.258
 5544SOL    HW217532   4.897   5.952   6.253
 5545SOL     OW17533   3.678   1.075   1.985
 5545SOL    HW117534   3.665   1.143   1.913
 5545SOL    HW217535   3.775   1.070   2.009
 5546SOL     OW17536   0.881   5.148   4.482
 5546SOL    HW117537   0.949   5.101   4.539
 5546SOL    HW217538   0.790   5.134   4.520
 5547SOL     OW17539   2.497   6.999   5.283
 5547SOL    HW117540   2.559   0.047   5.249
 5547SOL    HW217541   2.421   6.986   5.219
 5548SOL     OW17542   5.814   2.998   5.066
 5548SOL    HW117543   5.772   3.010   4.976
 5548SOL    HW217544   5.904   2.957   5.055
 5549SOL     OW17545   4.479   3.985   6.448
 5549SOL    HW117546   4.466   3.914   6.379
 5549SOL    HW217547   4.576   3.992   6.471
 5550SOL     OW17548   2.595   5.277   1.898
 5550SOL    HW117549   2.525   5.279   1.969
 5550SOL    HW217550   2.673   5.223   1.929
 5551SOL     OW17551   2.274   0.982   3.408
 5551SOL    HW117552   2.369   0.989   3.379
 5551SOL    HW217553   2.268   0.995   3.507
 5552SOL     OW17554   6.901   0.691   0.282
 5552SOL    HW117555   6.914   0.597   0.250
 5552SOL    HW217556   6.951   0.754   0.221
 5553SOL     OW17557   4.506   6.437   6.796
 5553SOL    HW117558   4.570   6.492   6.849
 5553SOL    HW217559   4.496   6.347   6.838
 5554SOL     OW17560   3.967   1.174   5.324
 5554SOL    HW117561   3.904   1.182   5.246
 5554SOL    HW217562   4.050   1.128   5.294
 5555SOL     OW17563   1.122   4.382   4.526
 5555SOL    HW117564   1.060   4.444   4.477
 5555SOL    HW217565   1.215   4.394   4.490
 5556SOL     OW17566   6.876   2.355   3.894
 5556SOL    HW117567   6.886   2.397   3.804
 5556SOL    HW217568   6.802   2.287   3.892
 5557SOL     OW17569   3.628   6.129   3.101
 5557SOL    HW117570   3.541   6.169   3.131
 5557SOL    HW217571   3.613   6.074   3.019
 5558SOL     OW17572   5.050   3.403   6.509
 5558SOL    HW117573   5.086   3.461   6.582
 5558SOL    HW217574   4.952   3.390   6.521
 5559SOL     OW17575   3.058   6.956   2.010
 5559SOL    HW117576   2.964   6.973   1.982
 5559SOL    HW217577   3.077   7.006   2.094
 5560SOL     OW17578   0.917   6.711   3.344
 5560SOL    HW117579   0.867   6.752   3.267
 5560SOL    HW217580   1.005   6.756   3.355
 5561SOL     OW17581   2.050   2.800   4.379
 5561SOL    HW117582   2.136   2.820   4.332
 5561SOL    HW217583   1.975   2.846   4.331
 5562SOL     OW17584   2.911   2.519   6.752
 5562SOL    HW117585   2.976   2.477   6.816
 5562SOL    HW217586   2.943   2.503   6.658
 5563SOL     OW17587   4.532   6.178   2.748
 5563SOL    HW117588   4.542   6.261   2.693
 5563SOL    HW217589   4.582   6.103   2.704
 5564SOL     OW17590   4.334   1.295   1.611
 5564SOL    HW117591   4.258   1.310   1.675
 5564SOL    HW217592   4.420   1.288   1.662
 5565SOL     OW17593   5.071   1.899   6.741
 5565SOL    HW117594   5.027   1.921   6.828
 5565SOL    HW217595   5.008   1.845   6.685
 5566SOL     OW17596   1.657   5.175   0.509
 5566SOL    HW117597   1.703   5.182   0.598
 5566SOL    HW217598   1.704   5.108   0.452
 5567SOL     OW17599   0.641   4.516   1.907
 5567SOL    HW117600   0.649   4.545   2.003
 5567SOL    HW217601   0.606   4.423   1.903
 5568SOL     OW17602   4.452   2.474   2.961
 5568SOL    HW117603   4.521   2.530   3.006
 5568SOL    HW217604   4.445   2.499   2.865
 5569SOL     OW17605   2.521   1.073   1.719
 5569SOL    HW117606   2.536   0.977   1.697
 5569SOL    HW217607   2.509   1.125   1.634
 5570SOL     OW17608   5.432   5.208   5.068
 5570SOL    HW117609   5.474   5.222   5.158
 5570SOL    HW217610   5.456   5.117   5.034
 5571SOL     OW17611   0.419   6.709   0.317
 5571SOL    HW117612   0.322   6.716   0.292
 5571SOL    HW217613   0.469   6.663   0.244
 5572SOL     OW17614   1.902   2.736   5.353
 5572SOL    HW117615   1.853   2.649   5.349
 5572SOL    HW217616   1.939   2.758   5.263
 5573SOL     OW17617   2.175   3.182   6.947
 5573SOL    HW117618   2.116   3.135   7.013
 5573SOL    HW217619   2.250   3.227   6.995
 5574SOL     OW17620   6.139   1.487   4.068
 5574SOL    HW117621   6.123   1.584   4.050
 5574SOL    HW217622   6.062   1.434   4.032
 5575SOL     OW17623   0.670   1.382   1.946
 5575SOL    HW117624   0.713   1.472   1.938
 5575SOL    HW217625   0.623   1.361   1.861
 5576SOL     OW17626   0.183   6.295   1.807
 5576SOL    HW117627   0.213   6.220   1.866
 5576SOL    HW217628   0.112   6.262   1.745
 5577SOL     OW17629   2.868   2.530   6.287
 5577SOL    HW117630   2.809   2.564   6.213
 5577SOL    HW217631   2.812   2.508   6.367
 5578SOL     OW17632   4.411   3.751   0.704
 5578SOL    HW117633   4.341   3.689   0.737
 5578SOL    HW217634   4.434   3.728   0.609
 5579SOL     OW17635   6.277   3.831   6.735
 5579SOL    HW117636   6.236   3.912   6.776
 5579SOL    HW217637   6.373   3.849   6.713
 5580SOL     OW17638   4.712   1.985   6.345
 5580SOL    HW117639   4.708   2.060   6.412
 5580SOL    HW217640   4.620   1.966   6.311
 5581SOL     OW17641   2.183   6.990   1.090
 5581SOL    HW117642   2.128   0.047   1.065
 5581SOL    HW217643   2.123   6.917   1.122
 5582SOL     OW17644   3.623   3.203   3.445
 5582SOL    HW117645   3.600   3.106   3.457
 5582SOL    HW217646   3.702   3.211   3.384
 5583SOL     OW17647   3.992   6.735   2.826
 5583SOL    HW117648   4.050   6.655   2.842
 5583SOL    HW217649   3.968   6.740   2.729
 5584SOL     OW17650   5.762   3.822   4.735
 5584SOL    HW117651   5.821   3.841   4.657
 5584SOL    HW217652   5.698   3.748   4.712
 5585SOL     OW17653   4.531   0.379   3.801
 5585SOL    HW117654   4.564   0.291   3.835
 5585SOL    HW217655   4.443   0.400   3.842
 5586SOL     OW17656   1.157   2.174   6.607
 5586SOL    HW117657   1.249   2.170   6.568
 5586SOL    HW217658   1.092   2.132   6.544
 5587SOL     OW17659   4.697   6.475   2.295
 5587SOL    HW117660   4.612   6.525   2.309
 5587SOL    HW217661   4.688   6.416   2.215
 5588SOL     OW17662   1.467   6.879   3.839
 5588SOL    HW117663   1.547   6.819   3.848
 5588SOL    HW217664   1.482   6.941   3.762
 5589SOL     OW17665   5.629   3.040   6.734
 5589SOL    HW117666   5.600   2.945   6.752
 5589SOL    HW217667   5.549   3.100   6.740
 5590SOL     OW17668   0.071   5.509   3.171
 5590SOL    HW117669   0.104   5.490   3.263
 5590SOL    HW217670   0.148   5.528   3.111
 5591SOL     OW17671   6.012   0.930   6.696
 5591SOL    HW117672   5.965   0.860   6.749
 5591SOL    HW217673   5.945   0.986   6.648
 5592SOL     OW17674   2.229   4.587   2.790
 5592SOL    HW117675   2.228   4.680   2.753
 5592SOL    HW217676   2.324   4.556   2.799
 5593SOL     OW17677   6.708   2.260   5.885
 5593SOL    HW117678   6.734   2.200   5.961
 5593SOL    HW217679   6.608   2.264   5.880
 5594SOL     OW17680   2.472   1.526   6.949
 5594SOL    HW117681   2.429   1.437   6.964
 5594SOL    HW217682   2.569   1.520   6.972
 5595SOL     OW17683   6.262   1.085   5.033
 5595SOL    HW117684   6.361   1.093   5.023
 5595SOL    HW217685   6.238   0.989   5.045
 5596SOL     OW17686   4.888   0.154   2.008
 5596SOL    HW117687   4.939   0.238   1.992
 5596SOL    HW217688   4.938   0.077   1.968
 5597SOL     OW17689   5.504   2.119   5.008
 5597SOL    HW117690   5.570   2.134   4.935
 5597SOL    HW217691   5.482   2.022   5.013
 5598SOL     OW17692   4.922   2.573   3.702
 5598SOL    HW117693   4.908   2.487   3.751
 5598SOL    HW217694   4.842   2.593   3.646
 5599SOL     OW17695   6.273   3.566   2.143
 5599SOL    HW117696   6.291   3.644   2.084
 5599SOL    HW217697   6.355   3.544   2.196
 5600SOL     OW17698   1.809   0.050   2.601
 5600SOL    HW117699   1.758   0.133   2.623
 5600SOL    HW217700   1.779   0.015   2.512
 5601SOL     OW17701   4.512   2.144   6.234
 5601SOL    HW117702   4.552   2.171   6.146
 5601SOL    HW217703   4.547   2.205   6.306
 5602SOL     OW17704   0.255   0.779   2.868
 5602SOL    HW117705   0.314   0.766   2.788
 5602SOL    HW217706   0.181   0.842   2.845
 5603SOL     OW17707   5.098   2.413   5.221
 5603SOL    HW117708   4.999   2.416   5.212
 5603SOL    HW217709   5.140   2.465   5.146
 5604SOL     OW17710   0.597   2.249   4.704
 5604SOL    HW117711   0.672   2.212   4.650
 5604SOL    HW217712   0.615   2.234   4.802
 5605SOL     OW17713   1.643   0.075   5.018
 5605SOL    HW117714   1.696   7.016   4.992
 5605SOL    HW217715   1.675   0.107   5.107
 5606SOL     OW17716   4.274   0.750   0.550
 5606SOL    HW117717   4.312   0.712   0.635
 5606SOL    HW217718   4.345   0.802   0.503
 5607SOL     OW17719   5.208   2.353   3.809
 5607SOL    HW117720   5.150   2.316   3.737
 5607SOL    HW217721   5.274   2.283   3.839
 5608SOL     OW17722   5.894   1.437   3.426
 5608SOL    HW117723   5.873   1.504   3.497
 5608SOL    HW217724   5.809   1.398   3.391
 5609SOL     OW17725   4.961   5.783   0.258
 5609SOL    HW117726   5.038   5.800   0.320
 5609SOL    HW217727   4.986   5.809   0.165
 5610SOL     OW17728   6.160   3.849   1.158
 5610SOL    HW117729   6.223   3.912   1.113
 5610SOL    HW217730   6.115   3.894   1.235
 5611SOL     OW17731   0.895   5.258   2.040
 5611SOL    HW117732   0.802   5.223   2.029
 5611SOL    HW217733   0.894   5.337   2.101
 5612SOL     OW17734   3.460   2.842   0.782
 5612SOL    HW117735   3.399   2.897   0.726
 5612SOL    HW217736   3.424   2.837   0.875
 5613SOL     OW17737   6.776   4.773   5.379
 5613SOL    HW117738   6.687   4.767   5.424
 5613SOL    HW217739   6.765   4.760   5.281
 5614SOL     OW17740   5.912   2.835   4.637
 5614SOL    HW117741   5.906   2.750   4.585
 5614SOL    HW217742   5.970   2.901   4.588
 5615SOL     OW17743   0.206   1.390   3.369
 5615SOL    HW117744   0.200   1.446   3.287
 5615SOL    HW217745   0.290   1.413   3.419
 5616SOL     OW17746   2.385   2.672   4.947
 5616SOL    HW117747   2.462   2.626   4.991
 5616SOL    HW217748   2.382   2.768   4.976
 5617SOL     OW17749   1.744   3.775   4.960
 5617SOL    HW117750   1.836   3.787   4.998
 5617SOL    HW217751   1.749   3.768   4.861
 5618SOL     OW17752   6.807   4.685   3.332
 5618SOL    HW117753   6.826   4.653   3.240
 5618SOL    HW217754   6.737   4.756   3.328
 5619SOL     OW17755   3.486   3.384   3.328
 5619SOL    HW117756   3.538   3.345   3.403
 5619SOL    HW217757   3.497   3.327   3.247
 5620SOL     OW17758   4.874   3.776   6.337
 5620SOL    HW117759   4.962   3.780   6.290
 5620SOL    HW217760   4.826   3.693   6.309
 5621SOL     OW17761   1.049   3.013   6.437
 5621SOL    HW117762   0.972   2.950   6.426
 5621SOL    HW217763   1.019   3.094   6.488
 5622SOL     OW17764   4.989   6.548   5.640
 5622SOL    HW117765   4.991   6.634   5.590
 5622SOL    HW217766   5.075   6.537   5.690
 5623SOL     OW17767   4.778   6.225   5.412
 5623SOL    HW117768   4.742   6.141   5.371
 5623SOL    HW217769   4.716   6.256   5.484
 5624SOL     OW17770   0.731   5.107   3.938
 5624SOL    HW117771   0.734   5.054   3.853
 5624SOL    HW217772   0.810   5.167   3.944
 5625SOL     OW17773   0.186   4.854   5.319
 5625SOL    HW117774   0.217   4.762   5.341
 5625SOL    HW217775   0.236   4.888   5.239
 5626SOL     OW17776   2.810   5.649   4.688
 5626SOL    HW117777   2.886   5.624   4.748
 5626SOL    HW217778   2.829   5.618   4.595
 5627SOL     OW17779   0.256   5.568   5.925
 5627SOL    HW117780   0.210   5.490   5.969
 5627SOL    HW217781   0.349   5.542   5.902
 5628SOL     OW17782   2.561   2.644   1.458
 5628SOL    HW117783   2.623   2.647   1.537
 5628SOL    HW217784   2.480   2.589   1.481
 5629SOL     OW17785   4.656   2.620   1.562
 5629SOL    HW117786   4.621   2.648   1.651
 5629SOL    HW217787   4.709   2.695   1.522
 5630SOL     OW17788   1.865   3.740   6.209
 5630SOL    HW117789   1.963   3.759   6.208
 5630SOL    HW217790   1.847   3.652   6.165
 5631SOL     OW17791   5.482   1.407   1.141
 5631SOL    HW117792   5.484   1.476   1.213
 5631SOL    HW217793   5.387   1.388   1.115
 5632SOL     OW17794   5.205   2.184   5.365
 5632SOL    HW117795   5.129   2.122   5.346
 5632SOL    HW217796   5.187   2.273   5.323
 5633SOL     OW17797   6.652   5.264   4.704
 5633SOL    HW117798   6.624   5.342   4.648
 5633SOL    HW217799   6.589   5.253   4.780
 5634SOL     OW17800   2.242   4.794   3.890
 5634SOL    HW117801   2.335   4.816   3.921
 5634SOL    HW217802   2.235   4.695   3.876
 5635SOL     OW17803   2.584   6.155   6.875
 5635SOL    HW117804   2.569   6.058   6.895
 5635SOL    HW217805   2.588   6.207   6.961
 5636SOL     OW17806   6.357   0.831   5.481
 5636SOL    HW117807   6.387   0.786   5.397
 5636SOL    HW217808   6.319   0.762   5.544
 5637SOL     OW17809   4.318   6.837   3.548
 5637SOL    HW117810   4.369   6.807   3.629
 5637SOL    HW217811   4.230   6.874   3.576
 5638SOL     OW17812   6.358   5.263   0.886
 5638SOL    HW117813   6.285   5.249   0.819
 5638SOL    HW217814   6.335   5.341   0.944
 5639SOL     OW17815   2.031   0.674   1.613
 5639SOL    HW117816   2.089   0.701   1.690
 5639SOL    HW217817   2.085   0.620   1.548
 5640SOL     OW17818   3.101   0.004   2.306
 5640SOL    HW117819   3.166   0.065   2.352
 5640SOL    HW217820   3.031   6.998   2.371
 5641SOL     OW17821   6.930   4.881   6.035
 5641SOL    HW117822   6.961   4.794   6.072
 5641SOL    HW217823   6.871   4.865   5.956
 5642SOL     OW17824   1.249   5.202   5.344
 5642SOL    HW117825   1.196   5.201   5.428
 5642SOL    HW217826   1.218   5.278   5.286
 5643SOL     OW17827   3.922   0.827   4.762
 5643SOL    HW117828   3.874   0.912   4.785
 5643SOL    HW217829   3.963   0.835   4.671
 5644SOL     OW17830   3.994   0.335   3.755
 5644SOL    HW117831   3.974   0.409   3.690
 5644SOL    HW217832   3.955   0.250   3.721
 5645SOL     OW17833   6.271   4.198   3.018
 5645SOL    HW117834   6.234   4.107   3.039
 5645SOL    HW217835   6.354   4.213   3.071
 5646SOL     OW17836   2.183   5.814   3.235
 5646SOL    HW117837   2.259   5.793   3.297
 5646SOL    HW217838   2.097   5.789   3.279
 5647SOL     OW17839   6.312   6.476   0.238
 5647SOL    HW117840   6.359   6.470   0.150
 5647SOL    HW217841   6.340   6.559   0.285
 5648SOL     OW17842   1.784   1.254   2.665
 5648SOL    HW117843   1.838   1.177   2.701
 5648SOL    HW217844   1.841   1.335   2.659
 5649SOL     OW17845   0.312   6.635   5.759
 5649SOL    HW117846   0.402   6.649   5.717
 5649SOL    HW217847   0.249   6.599   5.691
 5650SOL     OW17848   0.509   5.746   0.902
 5650SOL    HW117849   0.514   5.846   0.901
 5650SOL    HW217850   0.584   5.708   0.848
 5651SOL     OW17851   0.555   1.289   1.686
 5651SOL    HW117852   0.491   1.212   1.675
 5651SOL    HW217853   0.509   1.374   1.660
 5652SOL     OW17854   5.643   6.468   2.349
 5652SOL    HW117855   5.652   6.545   2.286
 5652SOL    HW217856   5.732   6.443   2.385
 5653SOL     OW17857   0.388   6.259   6.591
 5653SOL    HW117858   0.479   6.217   6.596
 5653SOL    HW217859   0.358   6.261   6.496
 5654SOL     OW17860   6.768   6.743   5.508
 5654SOL    HW117861   6.805   6.836   5.519
 5654SOL    HW217862   6.707   6.722   5.584
 5655SOL     OW17863   0.903   3.436   4.877
 5655SOL    HW117864   0.937   3.438   4.783
 5655SOL    HW217865   0.826   3.499   4.887
 5656SOL     OW17866   1.489   3.252   0.277
 5656SOL    HW117867   1.519   3.227   0.185
 5656SOL    HW217868   1.534   3.193   0.344
 5657SOL     OW17869   5.544   0.689   0.985
 5657SOL    HW117870   5.471   0.663   0.923
 5657SOL    HW217871   5.517   0.666   1.079
 5658SOL     OW17872   3.263   5.531   5.869
 5658SOL    HW117873   3.276   5.444   5.917
 5658SOL    HW217874   3.297   5.523   5.775
 5659SOL     OW17875   3.930   3.920   3.591
 5659SOL    HW117876   3.907   3.834   3.636
 5659SOL    HW217877   3.879   3.995   3.634
 5660SOL     OW17878   5.777   0.235   5.703
 5660SOL    HW117879   5.700   0.247   5.766
 5660SOL    HW217880   5.800   0.324   5.662
 5661SOL     OW17881   0.071   3.872   5.525
 5661SOL    HW117882   0.020   3.904   5.446
 5661SOL    HW217883   0.146   3.935   5.545
 5662SOL     OW17884   2.852   5.647   3.225
 5662SOL    HW117885   2.864   5.675   3.129
 5662SOL    HW217886   2.767   5.595   3.233
 5663SOL     OW17887   2.168   3.215   6.676
 5663SOL    HW117888   2.160   3.233   6.774
 5663SOL    HW217889   2.243   3.150   6.660
 5664SOL     OW17890   6.966   4.388   4.665
 5664SOL    HW117891   6.982   4.328   4.586
 5664SOL    HW217892   6.990   4.339   4.749
 5665SOL     OW17893   1.482   2.048   6.836
 5665SOL    HW117894   1.502   1.999   6.751
 5665SOL    HW217895   1.453   2.141   6.815
 5666SOL     OW17896   5.985   5.860   0.996
 5666SOL    HW117897   6.027   5.794   0.935
 5666SOL    HW217898   5.973   5.947   0.948
 5667SOL     OW17899   1.257   4.471   3.694
 5667SOL    HW117900   1.297   4.393   3.743
 5667SOL    HW217901   1.165   4.488   3.728
 5668SOL     OW17902   4.980   1.566   5.049
 5668SOL    HW117903   5.065   1.600   5.090
 5668SOL    HW217904   4.986   1.574   4.949
 5669SOL     OW17905   0.850   2.825   6.977
 5669SOL    HW117906   0.806   2.867   0.034
 5669SOL    HW217907   0.801   2.850   6.894
 5670SOL     OW17908   0.257   2.515   3.839
 5670SOL    HW117909   0.339   2.506   3.895
 5670SOL    HW217910   0.260   2.448   3.765
 5671SOL     OW17911   0.722   6.488   6.186
 5671SOL    HW117912   0.686   6.577   6.215
 5671SOL    HW217913   0.771   6.446   6.262
 5672SOL     OW17914   4.425   4.718   6.669
 5672SOL    HW117915   4.375   4.773   6.602
 5672SOL    HW217916   4.360   4.680   6.735
 5673SOL     OW17917   0.609   6.252   1.732
 5673SOL    HW117918   0.657   6.207   1.657
 5673SOL    HW217919   0.662   6.242   1.817
 5674SOL     OW17920   6.595   4.318   3.978
 5674SOL    HW117921   6.597   4.377   3.897
 5674SOL    HW217922   6.638   4.367   4.055
 5675SOL     OW17923   4.719   2.421   5.853
 5675SOL    HW117924   4.736   2.502   5.909
 5675SOL    HW217925   4.799   2.402   5.796
 5676SOL     OW17926   1.998   2.281   2.382
 5676SOL    HW117927   2.069   2.299   2.450
 5676SOL    HW217928   1.962   2.367   2.347
 5677SOL     OW17929   0.915   2.163   3.067
 5677SOL    HW117930   0.973   2.141   2.988
 5677SOL    HW217931   0.830   2.112   3.061
 5678SOL     OW17932   3.346   6.468   2.641
 5678SOL    HW117933   3.387   6.551   2.680
 5678SOL    HW217934   3.261   6.493   2.594
 5679SOL     OW17935   1.427   0.731   3.553
 5679SOL    HW117936   1.469   0.822   3.551
 5679SOL    HW217937   1.350   0.729   3.489
 5680SOL     OW17938   1.310   5.412   0.726
 5680SOL    HW117939   1.271   5.409   0.634
 5680SOL    HW217940   1.363   5.496   0.737
 5681SOL     OW17941   0.398   3.798   0.250
 5681SOL    HW117942   0.408   3.863   0.176
 5681SOL    HW217943   0.383   3.706   0.213
 5682SOL     OW17944   2.264   4.686   5.641
 5682SOL    HW117945   2.361   4.707   5.656
 5682SOL    HW217946   2.244   4.595   5.677
 5683SOL     OW17947   3.153   1.131   0.113
 5683SOL    HW117948   3.081   1.132   0.182
 5683SOL    HW217949   3.212   1.211   0.124
 5684SOL     OW17950   3.567   2.873   4.936
 5684SOL    HW117951   3.498   2.941   4.911
 5684SOL    HW217952   3.589   2.817   4.856
 5685SOL     OW17953   1.792   3.188   2.294
 5685SOL    HW117954   1.743   3.207   2.209
 5685SOL    HW217955   1.762   3.252   2.365
 5686SOL     OW17956   2.917   6.892   6.374
 5686SOL    HW117957   2.859   6.960   6.330
 5686SOL    HW217958   2.872   6.803   6.372
 5687SOL     OW17959   0.634   4.047   5.642
 5687SOL    HW117960   0.628   4.147   5.643
 5687SOL    HW217961   0.720   4.019   5.599
 5688SOL     OW17962   6.894   1.898   0.064
 5688SOL    HW117963   6.933   1.955   0.136
 5688SOL    HW217964   6.965   1.840   0.024
 5689SOL     OW17965   4.227   0.499   0.429
 5689SOL    HW117966   4.189   0.588   0.453
 5689SOL    HW217967   4.313   0.512   0.380
 5690SOL     OW17968   2.303   5.828   0.532
 5690SOL    HW117969   2.238   5.887   0.579
 5690SOL    HW217970   2.276   5.817   0.436
 5691SOL     OW17971   2.633   5.988   1.686
 5691SOL    HW117972   2.632   6.088   1.694
 5691SOL    HW217973   2.585   5.961   1.603
 5692SOL     OW17974   6.918   3.539   6.093
 5692SOL    HW117975   6.832   3.507   6.055
 5692SOL    HW217976   6.904   3.567   6.188
 5693SOL     OW17977   5.849   2.554   2.188
 5693SOL    HW117978   5.916   2.568   2.115
 5693SOL    HW217979   5.892   2.504   2.264
 5694SOL     OW17980   1.171   2.021   3.878
 5694SOL    HW117981   1.209   1.953   3.940
 5694SOL    HW217982   1.225   2.105   3.882
 5695SOL     OW17983   1.180   2.462   3.417
 5695SOL    HW117984   1.099   2.405   3.432
 5695SOL    HW217985   1.238   2.460   3.499
 5696SOL     OW17986   1.652   0.543   3.335
 5696SOL    HW117987   1.553   0.561   3.334
 5696SOL    HW217988   1.701   0.627   3.355
 5697SOL     OW17989   6.096   2.659   1.341
 5697SOL    HW117990   6.144   2.731   1.290
 5697SOL    HW217991   6.123   2.663   1.437
 5698SOL     OW17992   0.554   3.236   2.807
 5698SOL    HW117993   0.496   3.190   2.740
 5698SOL    HW217994   0.644   3.254   2.766
 5699SOL     OW17995   6.388   2.013   2.842
 5699SOL    HW117996   6.323   2.088   2.829
 5699SOL    HW217997   6.379   1.947   2.768
 5700SOL     OW17998   6.573   6.603   4.089
 5700SOL    HW117999   6.639   6.671   4.057
 5700SOL    HW218000   6.600   6.571   4.180
 5701SOL     OW18001   1.292   6.605   3.412
 5701SOL    HW118002   1.253   6.592   3.504
 5701SOL    HW218003   1.290   6.518   3.363
 5702SOL     OW18004   1.915   6.863   5.848
 5702SOL    HW118005   1.963   6.788   5.803
 5702SOL    HW218006   1.978   6.941   5.857
 5703SOL     OW18007   5.691   4.857   1.436
 5703SOL    HW118008   5.604   4.905   1.449
 5703SOL    HW218009   5.765   4.924   1.431
 5704SOL     OW18010   4.185   5.753   2.054
 5704SOL    HW118011   4.228   5.791   1.972
 5704SOL    HW218012   4.086   5.748   2.041
 5705SOL     OW18013   4.725   0.822   1.232
 5705SOL    HW118014   4.632   0.858   1.221
 5705SOL    HW218015   4.721   0.730   1.272
 5706SOL     OW18016   0.500   2.627   0.196
 5706SOL    HW118017   0.501   2.537   0.238
 5706SOL    HW218018   0.582   2.678   0.222
 5707SOL     OW18019   7.005   0.116   0.145
 5707SOL    HW118020   0.077   0.083   0.146
 5707SOL    HW218021   6.970   0.118   0.238
 5708SOL     OW18022   5.331   6.481   1.186
 5708SOL    HW118023   5.403   6.417   1.214
 5708SOL    HW218024   5.286   6.519   1.267
 5709SOL     OW18025   1.849   0.255   3.709
 5709SOL    HW118026   1.829   0.291   3.617
 5709SOL    HW218027   1.764   0.242   3.759
 5710SOL     OW18028   2.496   3.157   6.215
 5710SOL    HW118029   2.531   3.230   6.275
 5710SOL    HW218030   2.397   3.153   6.222
 5711SOL     OW18031   4.732   1.138   2.689
 5711SOL    HW118032   4.646   1.112   2.732
 5711SOL    HW218033   4.719   1.221   2.634
 5712SOL     OW18034   1.115   5.314   5.829
 5712SOL    HW118035   1.034   5.317   5.771
 5712SOL    HW218036   1.195   5.343   5.776
 5713SOL     OW18037   1.738   2.143   1.796
 5713SOL    HW118038   1.677   2.067   1.818
 5713SOL    HW218039   1.771   2.184   1.881
 5714SOL     OW18040   0.608   6.286   6.010
 5714SOL    HW118041   0.677   6.244   5.950
 5714SOL    HW218042   0.652   6.354   6.068
 5715SOL     OW18043   1.328   6.791   3.228
 5715SOL    HW118044   1.322   6.715   3.293
 5715SOL    HW218045   1.391   6.766   3.154
 5716SOL     OW18046   1.303   4.879   0.170
 5716SOL    HW118047   1.334   4.855   0.078
 5716SOL    HW218048   1.223   4.940   0.163
 5717SOL     OW18049   1.730   6.007   0.618
 5717SOL    HW118050   1.713   5.925   0.673
 5717SOL    HW218051   1.651   6.068   0.623
 5718SOL     OW18052   1.326   3.679   6.013
 5718SOL    HW118053   1.386   3.606   5.980
 5718SOL    HW218054   1.262   3.641   6.080
 5719SOL     OW18055   2.497   1.554   6.109
 5719SOL    HW118056   2.439   1.482   6.071
 5719SOL    HW218057   2.491   1.635   6.050
 5720SOL     OW18058   1.190   5.155   4.613
 5720SOL    HW118059   1.194   5.180   4.709
 5720SOL    HW218060   1.210   5.235   4.556
 5721SOL     OW18061   0.403   3.398   1.014
 5721SOL    HW118062   0.497   3.368   1.029
 5721SOL    HW218063   0.388   3.486   1.058
 5722SOL     OW18064   6.283   1.790   5.206
 5722SOL    HW118065   6.343   1.866   5.227
 5722SOL    HW218066   6.233   1.810   5.121
 5723SOL     OW18067   4.572   3.238   6.731
 5723SOL    HW118068   4.565   3.310   6.800
 5723SOL    HW218069   4.669   3.215   6.716
 5724SOL     OW18070   4.089   2.714   5.330
 5724SOL    HW118071   4.079   2.648   5.404
 5724SOL    HW218072   4.129   2.669   5.251
 5725SOL     OW18073   6.257   6.100   4.038
 5725SOL    HW118074   6.170   6.146   4.055
 5725SOL    HW218075   6.306   6.087   4.124
 5726SOL     OW18076   6.789   4.079   4.368
 5726SOL    HW118077   6.814   4.125   4.282
 5726SOL    HW218078   6.691   4.087   4.382
 5727SOL     OW18079   0.875   2.863   3.981
 5727SOL    HW118080   0.863   2.780   4.036
 5727SOL    HW218081   0.938   2.925   4.027
 5728SOL     OW18082   4.499   1.454   6.809
 5728SOL    HW118083   4.456   1.364   6.820
 5728SOL    HW218084   4.598   1.444   6.819
 5729SOL     OW18085   1.111   1.558   0.476
 5729SOL    HW118086   1.107   1.652   0.442
 5729SOL    HW218087   1.067   1.553   0.566
 5730SOL     OW18088   4.224   5.440   5.640
 5730SOL    HW118089   4.139   5.480   5.607
 5730SOL    HW218090   4.254   5.369   5.577
 5731SOL     OW18091   2.125   6.546   4.020
 5731SOL    HW118092   2.097   6.469   3.961
 5731SOL    HW218093   2.045   6.578   4.072
 5732SOL     OW18094   6.830   5.243   5.331
 5732SOL    HW118095   6.854   5.173   5.264
 5732SOL    HW218096   6.796   5.324   5.283
 5733SOL     OW18097   3.570   0.399   5.585
 5733SOL    HW118098   3.540   0.427   5.494
 5733SOL    HW218099   3.588   0.481   5.641
 5734SOL     OW18100   1.485   5.933   5.922
 5734SOL    HW118101   1.525   5.867   5.986
 5734SOL    HW218102   1.385   5.934   5.933
 5735SOL     OW18103   3.751   1.602   2.458
 5735SOL    HW118104   3.711   1.624   2.368
 5735SOL    HW218105   3.780   1.506   2.458
 5736SOL     OW18106   6.715   4.392   1.119
 5736SOL    HW118107   6.757   4.482   1.127
 5736SOL    HW218108   6.616   4.400   1.129
 5737SOL     OW18109   4.833   5.448   6.927
 5737SOL    HW118110   4.851   5.452   6.829
 5737SOL    HW218111   4.737   5.471   6.944
 5738SOL     OW18112   3.033   2.408   6.523
 5738SOL    HW118113   3.044   2.477   6.451
 5738SOL    HW218114   3.123   2.380   6.556
 5739SOL     OW18115   1.194   6.751   5.396
 5739SOL    HW118116   1.183   6.671   5.455
 5739SOL    HW218117   1.174   6.726   5.301
 5740SOL     OW18118   3.823   3.761   1.116
 5740SOL    HW118119   3.865   3.718   1.036
 5740SOL    HW218120   3.808   3.692   1.187
 5741SOL     OW18121   6.394   3.812   4.821
 5741SOL    HW118122   6.477   3.755   4.823
 5741SOL    HW218123   6.317   3.757   4.790
 5742SOL     OW18124   4.459   6.556   2.298
 5742SOL    HW118125   4.478   6.567   2.396
 5742SOL    HW218126   4.427   6.643   2.261
 5743SOL     OW18127   2.366   5.585   5.567
 5743SOL    HW118128   2.402   5.678   5.551
 5743SOL    HW218129   2.366   5.566   5.665
 5744SOL     OW18130   4.767   1.364   0.759
 5744SOL    HW118131   4.766   1.445   0.817
 5744SOL    HW218132   4.850   1.311   0.777
 5745SOL     OW18133   2.468   1.359   3.728
 5745SOL    HW118134   2.563   1.327   3.727
 5745SOL    HW218135   2.445   1.395   3.818
 5746SOL     OW18136   5.046   6.954   1.919
 5746SOL    HW118137   5.038   6.911   1.829
 5746SOL    HW218138   5.090   6.891   1.983
 5747SOL     OW18139   1.193   4.851   2.092
 5747SOL    HW118140   1.286   4.863   2.128
 5747SOL    HW218141   1.155   4.940   2.067
 5748SOL     OW18142   0.894   0.478   0.917
 5748SOL    HW118143   0.902   0.379   0.908
 5748SOL    HW218144   0.828   0.512   0.849
 5749SOL     OW18145   1.236   6.353   4.591
 5749SOL    HW118146   1.259   6.261   4.560
 5749SOL    HW218147   1.154   6.350   4.647
 5750SOL     OW18148   6.591   6.470   5.048
 5750SOL    HW118149   6.610   6.545   4.985
 5750SOL    HW218150   6.614   6.383   5.004
 5751SOL     OW18151   2.222   3.001   4.856
 5751SOL    HW118152   2.288   2.961   4.920
 5751SOL    HW218153   2.238   2.965   4.764
 5752SOL     OW18154   6.112   0.015   0.438
 5752SOL    HW118155   6.125   0.102   0.486
 5752SOL    HW218156   6.014   7.020   0.427
 5753SOL     OW18157   3.905   3.942   4.368
 5753SOL    HW118158   3.884   4.012   4.300
 5753SOL    HW218159   3.901   3.982   4.460
 5754SOL     OW18160   0.301   5.483   1.974
 5754SOL    HW118161   0.368   5.460   2.044
 5754SOL    HW218162   0.251   5.565   2.002
 5755SOL     OW18163   2.287   2.079   6.541
 5755SOL    HW118164   2.317   2.114   6.630
 5755SOL    HW218165   2.259   1.983   6.551
 5756SOL     OW18166   6.560   0.572   3.658
 5756SOL    HW118167   6.489   0.601   3.594
 5756SOL    HW218168   6.532   0.487   3.702
 5757SOL     OW18169   0.274   5.781   3.170
 5757SOL    HW118170   0.277   5.854   3.102
 5757SOL    HW218171   0.182   5.742   3.174
 5758SOL     OW18172   2.401   1.224   4.333
 5758SOL    HW118173   2.449   1.310   4.350
 5758SOL    HW218174   2.386   1.177   4.421
 5759SOL     OW18175   4.771   1.175   6.780
 5759SOL    HW118176   4.841   1.108   6.805
 5759SOL    HW218177   4.686   1.153   6.829
 5760SOL     OW18178   6.845   3.152   0.473
 5760SOL    HW118179   6.754   3.177   0.507
 5760SOL    HW218180   6.882   3.077   0.527
 5761SOL     OW18181   5.905   5.258   6.209
 5761SOL    HW118182   5.956   5.334   6.248
 5761SOL    HW218183   5.928   5.249   6.112
 5762SOL     OW18184   5.118   4.385   0.774
 5762SOL    HW118185   5.126   4.425   0.682
 5762SOL    HW218186   5.099   4.287   0.765
 5763SOL     OW18187   6.510   6.252   0.565
 5763SOL    HW118188   6.484   6.251   0.469
 5763SOL    HW218189   6.537   6.345   0.591
 5764SOL     OW18190   5.140   5.033   5.442
 5764SOL    HW118191   5.142   4.934   5.449
 5764SOL    HW218192   5.086   5.071   5.517
 5765SOL     OW18193   6.543   2.532   0.792
 5765SOL    HW118194   6.581   2.625   0.792
 5765SOL    HW218195   6.492   2.517   0.708
 5766SOL     OW18196   1.934   1.670   6.009
 5766SOL    HW118197   2.024   1.628   6.005
 5766SOL    HW218198   1.912   1.693   6.104
 5767SOL     OW18199   1.714   0.628   0.309
 5767SOL    HW118200   1.803   0.663   0.337
 5767SOL    HW218201   1.713   0.528   0.318
 5768SOL     OW18202   1.202   5.767   4.027
 5768SOL    HW118203   1.159   5.819   3.953
 5768SOL    HW218204   1.279   5.820   4.063
 5769SOL     OW18205   2.755   5.921   4.737
 5769SOL    HW118206   2.728   5.939   4.832
 5769SOL    HW218207   2.764   5.822   4.723
 5770SOL     OW18208   6.358   5.667   7.017
 5770SOL    HW118209   6.277   5.707   6.974
 5770SOL    HW218210   6.438   5.722   6.993
 5771SOL     OW18211   1.458   0.233   4.236
 5771SOL    HW118212   1.365   0.270   4.229
 5771SOL    HW218213   1.464   0.150   4.181
 5772SOL     OW18214   5.408   1.784   1.531
 5772SOL    HW118215   5.394   1.821   1.439
 5772SOL    HW218216   5.323   1.791   1.583
 5773SOL     OW18217   4.110   0.541   2.962
 5773SOL    HW118218   4.032   0.585   2.918
 5773SOL    HW218219   4.081   0.503   3.050
 5774SOL     OW18220   2.672   6.304   3.803
 5774SOL    HW118221   2.666   6.404   3.801
 5774SOL    HW218222   2.755   6.276   3.852
 5775SOL     OW18223   1.925   0.530   2.328
 5775SOL    HW118224   2.010   0.584   2.320
 5775SOL    HW218225   1.921   0.488   2.419
 5776SOL     OW18226   7.015   0.532   4.485
 5776SOL    HW118227   6.921   0.545   4.515
 5776SOL    HW218228   7.019   0.536   4.385
 5777SOL     OW18229   6.573   0.527   5.019
 5777SOL    HW118230   6.495   0.472   4.989
 5777SOL    HW218231   6.541   0.612   5.059
 5778SOL     OW18232   1.444   1.117   1.327
 5778SOL    HW118233   1.429   1.191   1.393
 5778SOL    HW218234   1.482   1.037   1.374
 5779SOL     OW18235   4.446   3.330   0.992
 5779SOL    HW118236   4.413   3.284   0.910
 5779SOL    HW218237   4.370   3.374   1.039
 5780SOL     OW18238   5.842   6.066   3.646
 5780SOL    HW118239   5.841   6.164   3.665
 5780SOL    HW218240   5.933   6.039   3.616
 5781SOL     OW18241   6.646   4.475   4.209
 5781SOL    HW118242   6.591   4.506   4.286
 5781SOL    HW218243   6.743   4.494   4.228
 5782SOL     OW18244   1.331   1.424   0.381
 5782SOL    HW118245   1.344   1.465   0.291
 5782SOL    HW218246   1.265   1.478   0.434
 5783SOL     OW18247   2.282   0.362   1.639
 5783SOL    HW118248   2.344   0.434   1.672
 5783SOL    HW218249   2.233   0.395   1.559
 5784SOL     OW18250   6.795   5.773   6.869
 5784SOL    HW118251   6.800   5.838   6.793
 5784SOL    HW218252   6.816   5.820   6.955
 5785SOL     OW18253   2.290   1.636   0.591
 5785SOL    HW118254   2.307   1.718   0.647
 5785SOL    HW218255   2.272   1.664   0.497
 5786SOL     OW18256   0.824   3.547   0.568
 5786SOL    HW118257   0.796   3.484   0.639
 5786SOL    HW218258   0.801   3.509   0.478
 5787SOL     OW18259   4.048   1.603   5.250
 5787SOL    HW118260   4.041   1.507   5.224
 5787SOL    HW218261   4.135   1.641   5.218
 5788SOL     OW18262   3.109   1.835   1.597
 5788SOL    HW118263   3.056   1.764   1.552
 5788SOL    HW218264   3.114   1.916   1.538
 5789SOL     OW18265   2.692   4.566   0.401
 5789SOL    HW118266   2.699   4.525   0.491
 5789SOL    HW218267   2.661   4.661   0.410
 5790SOL     OW18268   0.381   4.543   5.200
 5790SOL    HW118269   0.366   4.489   5.282
 5790SOL    HW218270   0.300   4.538   5.141
 5791SOL     OW18271   2.881   1.358   2.569
 5791SOL    HW118272   2.824   1.280   2.545
 5791SOL    HW218273   2.822   1.438   2.585
 5792SOL     OW18274   6.112   2.918   2.623
 5792SOL    HW118275   6.132   2.889   2.717
 5792SOL    HW218276   6.078   2.840   2.571
 5793SOL     OW18277   5.459   0.606   3.571
 5793SOL    HW118278   5.458   0.568   3.664
 5793SOL    HW218279   5.373   0.583   3.525
 5794SOL     OW18280   2.168   0.986   0.048
 5794SOL    HW118281   2.117   0.980   0.134
 5794SOL    HW218282   2.266   0.975   0.067
 5795SOL     OW18283   6.430   0.098   6.623
 5795SOL    HW118284   6.404   0.062   6.713
 5795SOL    HW218285   6.412   0.196   6.620
 5796SOL     OW18286   5.151   1.264   6.230
 5796SOL    HW118287   5.245   1.261   6.264
 5796SOL    HW218288   5.150   1.252   6.131
 5797SOL     OW18289   4.661   2.270   0.085
 5797SOL    HW118290   4.614   2.213   0.017
 5797SOL    HW218291   4.604   2.278   0.167
 5798SOL     OW18292   0.956   5.658   4.492
 5798SOL    HW118293   0.875   5.643   4.435
 5798SOL    HW218294   0.945   5.612   4.580
 5799SOL     OW18295   0.450   0.582   3.863
 5799SOL    HW118296   0.409   0.604   3.774
 5799SOL    HW218297   0.479   0.486   3.864
 5800SOL     OW18298   6.301   6.170   1.817
 5800SOL    HW118299   6.276   6.265   1.798
 5800SOL    HW218300   6.370   6.168   1.890
 5801SOL     OW18301   1.819   2.638   3.348
 5801SOL    HW118302   1.916   2.641   3.325
 5801SOL    HW218303   1.777   2.727   3.328
 5802SOL     OW18304   0.414   3.464   2.393
 5802SOL    HW118305   0.372   3.555   2.395
 5802SOL    HW218306   0.427   3.432   2.487
 5803SOL     OW18307   2.165   5.333   1.429
 5803SOL    HW118308   2.135   5.254   1.374
 5803SOL    HW218309   2.193   5.302   1.519
 5804SOL     OW18310   0.514   5.261   3.650
 5804SOL    HW118311   0.489   5.193   3.581
 5804SOL    HW218312   0.484   5.231   3.740
 5805SOL     OW18313   2.505   3.203   0.540
 5805SOL    HW118314   2.450   3.260   0.479
 5805SOL    HW218315   2.565   3.144   0.486
 5806SOL     OW18316   0.136   5.196   4.988
 5806SOL    HW118317   0.088   5.122   4.942
 5806SOL    HW218318   0.099   5.284   4.958
 5807SOL     OW18319   1.010   3.739   0.571
 5807SOL    HW118320   0.984   3.806   0.501
 5807SOL    HW218321   0.946   3.663   0.570
 5808SOL     OW18322   6.276   5.195   4.221
 5808SOL    HW118323   6.318   5.125   4.278
 5808SOL    HW218324   6.177   5.183   4.222
 5809SOL     OW18325   6.547   2.315   4.567
 5809SOL    HW118326   6.636   2.333   4.607
 5809SOL    HW218327   6.548   2.226   4.521
 5810SOL     OW18328   4.307   1.399   5.006
 5810SOL    HW118329   4.385   1.394   5.068
 5810SOL    HW218330   4.229   1.352   5.047
 5811SOL     OW18331   3.477   0.468   5.347
 5811SOL    HW118332   3.499   0.510   5.259
 5811SOL    HW218333   3.385   0.429   5.343
 5812SOL     OW18334   6.023   3.266   4.877
 5812SOL    HW118335   5.934   3.270   4.832
 5812SOL    HW218336   6.094   3.247   4.809
 5813SOL     OW18337   1.650   1.457   1.286
 5813SOL    HW118338   1.679   1.457   1.381
 5813SOL    HW218339   1.720   1.500   1.229
 5814SOL     OW18340   6.140   4.195   2.160
 5814SOL    HW118341   6.151   4.294   2.168
 5814SOL    HW218342   6.198   4.161   2.085
 5815SOL     OW18343   4.208   1.277   4.327
 5815SOL    HW118344   4.201   1.353   4.392
 5815SOL    HW218345   4.278   1.213   4.358
 5816SOL     OW18346   4.576   4.590   0.541
 5816SOL    HW118347   4.661   4.607   0.492
 5816SOL    HW218348   4.509   4.549   0.480
 5817SOL     OW18349   5.783   4.524   5.762
 5817SOL    HW118350   5.874   4.541   5.724
 5817SOL    HW218351   5.719   4.592   5.727
 5818SOL     OW18352   6.744   5.534   5.240
 5818SOL    HW118353   6.730   5.585   5.325
 5818SOL    HW218354   6.830   5.563   5.198
 5819SOL     OW18355   3.549   0.372   6.611
 5819SOL    HW118356   3.458   0.353   6.648
 5819SOL    HW218357   3.599   0.286   6.601
 5820SOL     OW18358   4.647   4.830   3.370
 5820SOL    HW118359   4.640   4.921   3.411
 5820SOL    HW218360   4.621   4.835   3.273
 5821SOL     OW18361   6.898   0.253   1.743
 5821SOL    HW118362   6.877   0.350   1.760
 5821SOL    HW218363   6.979   0.227   1.796
 5822SOL     OW18364   1.284   2.738   1.395
 5822SOL    HW118365   1.285   2.639   1.410
 5822SOL    HW218366   1.292   2.785   1.483
 5823SOL     OW18367   2.618   0.173   5.145
 5823SOL    HW118368   2.657   0.264   5.156
 5823SOL    HW218369   2.690   0.108   5.120
 5824SOL     OW18370   6.883   5.669   2.528
 5824SOL    HW118371   6.931   5.586   2.555
 5824SOL    HW218372   6.791   5.669   2.567
 5825SOL     OW18373   6.854   1.289   5.053
 5825SOL    HW118374   6.932   1.351   5.057
 5825SOL    HW218375   6.786   1.324   4.988
 5826SOL     OW18376   0.131   5.065   5.845
 5826SOL    HW118377   0.210   5.105   5.798
 5826SOL    HW218378   0.162   4.992   5.905
 5827SOL     OW18379   1.887   4.205   4.818
 5827SOL    HW118380   1.929   4.233   4.732
 5827SOL    HW218381   1.788   4.206   4.809
 5828SOL     OW18382   6.129   1.392   1.672
 5828SOL    HW118383   6.154   1.475   1.722
 5828SOL    HW218384   6.185   1.316   1.704
 5829SOL     OW18385   1.062   0.413   3.502
 5829SOL    HW118386   1.080   0.375   3.593
 5829SOL    HW218387   0.977   0.466   3.504
 5830SOL     OW18388   5.144   6.616   5.941
 5830SOL    HW118389   5.086   6.621   6.022
 5830SOL    HW218390   5.170   6.521   5.924
 5831SOL     OW18391   1.289   1.395   5.533
 5831SOL    HW118392   1.356   1.453   5.487
 5831SOL    HW218393   1.203   1.396   5.481
 5832SOL     OW18394   2.611   4.560   0.083
 5832SOL    HW118395   2.679   4.616   0.036
 5832SOL    HW218396   2.642   4.542   0.176
 5833SOL     OW18397   3.353   3.950   5.062
 5833SOL    HW118398   3.377   3.863   5.106
 5833SOL    HW218399   3.262   3.943   5.022
 5834SOL     OW18400   6.977   2.527   0.456
 5834SOL    HW118401   6.966   2.501   0.360
 5834SOL    HW218402   6.903   2.589   0.482
 5835SOL     OW18403   5.529   3.319   3.340
 5835SOL    HW118404   5.527   3.219   3.344
 5835SOL    HW218405   5.618   3.349   3.306
 5836SOL     OW18406   2.584   6.956   1.647
 5836SOL    HW118407   2.522   6.891   1.691
 5836SOL    HW218408   2.531   0.002   1.598
 5837SOL     OW18409   3.382   4.046   6.909
 5837SOL    HW118410   3.395   4.035   6.810
 5837SOL    HW218411   3.404   4.140   6.935
 5838SOL     OW18412   2.825   1.806   0.574
 5838SOL    HW118413   2.811   1.739   0.501
 5838SOL    HW218414   2.898   1.870   0.546
 5839SOL     OW18415   0.755   1.922   2.491
 5839SOL    HW118416   0.804   1.945   2.575
 5839SOL    HW218417   0.696   1.999   2.465
 5840SOL     OW18418   0.779   4.784   6.754
 5840SOL    HW118419   0.776   4.697   6.802
 5840SOL    HW218420   0.815   4.771   6.662
 5841SOL     OW18421   5.187   1.702   2.270
 5841SOL    HW118422   5.099   1.717   2.314
 5841SOL    HW218423   5.227   1.789   2.243
 5842SOL     OW18424   5.264   3.639   1.478
 5842SOL    HW118425   5.253   3.564   1.412
 5842SOL    HW218426   5.266   3.726   1.430
 5843SOL     OW18427   1.296   3.978   2.921
 5843SOL    HW118428   1.214   3.921   2.929
 5843SOL    HW218429   1.303   4.013   2.828
 5844SOL     OW18430   2.220   5.846   6.062
 5844SOL    HW118431   2.287   5.792   6.115
 5844SOL    HW218432   2.160   5.894   6.125
 5845SOL     OW18433   0.577   0.399   2.682
 5845SOL    HW118434   0.652   0.437   2.629
 5845SOL    HW218435   0.564   0.453   2.765
 5846SOL     OW18436   6.173   2.980   5.272
 5846SOL    HW118437   6.085   2.934   5.284
 5846SOL    HW218438   6.179   3.017   5.179
 5847SOL     OW18439   2.958   2.163   1.779
 5847SOL    HW118440   2.975   2.261   1.785
 5847SOL    HW218441   2.927   2.129   1.868
 5848SOL     OW18442   1.479   5.475   2.799
 5848SOL    HW118443   1.512   5.395   2.749
 5848SOL    HW218444   1.551   5.544   2.803
 5849SOL     OW18445   0.945   0.822   5.650
 5849SOL    HW118446   1.003   0.878   5.710
 5849SOL    HW218447   0.968   0.726   5.661
 5850SOL     OW18448   6.577   3.920   1.666
 5850SOL    HW118449   6.575   3.916   1.566
 5850SOL    HW218450   6.502   3.977   1.699
 5851SOL     OW18451   5.143   3.463   2.653
 5851SOL    HW118452   5.198   3.402   2.710
 5851SOL    HW218453   5.108   3.412   2.574
 5852SOL     OW18454   5.715   6.585   3.295
 5852SOL    HW118455   5.766   6.618   3.375
 5852SOL    HW218456   5.643   6.651   3.272
 5853SOL     OW18457   3.422   5.460   4.908
 5853SOL    HW118458   3.510   5.506   4.900
 5853SOL    HW218459   3.417   5.385   4.842
 5854SOL     OW18460   4.761   4.702   6.148
 5854SOL    HW118461   4.781   4.611   6.183
 5854SOL    HW218462   4.841   4.760   6.158
 5855SOL     OW18463   0.763   1.551   5.021
 5855SOL    HW118464   0.818   1.632   5.003
 5855SOL    HW218465   0.761   1.494   4.939
 5856SOL     OW18466   1.822   5.870   3.839
 5856SOL    HW118467   1.763   5.805   3.887
 5856SOL    HW218468   1.914   5.867   3.879
 5857SOL     OW18469   6.155   2.480   6.136
 5857SOL    HW118470   6.124   2.397   6.089
 5857SOL    HW218471   6.190   2.456   6.226
 5858SOL     OW18472   2.788   1.912   2.740
 5858SOL    HW118473   2.869   1.964   2.766
 5858SOL    HW218474   2.759   1.855   2.817
 5859SOL     OW18475   5.996   6.113   1.980
 5859SOL    HW118476   6.034   6.038   1.926
 5859SOL    HW218477   5.897   6.102   1.987
 5860SOL     OW18478   0.341   3.274   2.220
 5860SOL    HW118479   0.411   3.212   2.184
 5860SOL    HW218480   0.379   3.325   2.297
 5861SOL     OW18481   4.707   1.400   4.555
 5861SOL    HW118482   4.734   1.495   4.542
 5861SOL    HW218483   4.756   1.342   4.491
 5862SOL     OW18484   6.256   5.512   1.026
 5862SOL    HW118485   6.224   5.578   0.959
 5862SOL    HW218486   6.346   5.540   1.060
 5863SOL     OW18487   3.515   2.030   5.299
 5863SOL    HW118488   3.457   2.102   5.336
 5863SOL    HW218489   3.461   1.947   5.283
 5864SOL     OW18490   3.915   3.728   2.299
 5864SOL    HW118491   3.914   3.819   2.340
 5864SOL    HW218492   3.989   3.674   2.339
 5865SOL     OW18493   5.858   0.180   4.957
 5865SOL    HW118494   5.789   0.163   4.887
 5865SOL    HW218495   5.870   0.279   4.969
 5866SOL     OW18496   4.010   4.427   0.043
 5866SOL    HW118497   4.083   4.466   7.009
 5866SOL    HW218498   3.989   4.335   0.011
 5867SOL     OW18499   2.149   2.985   1.165
 5867SOL    HW118500   2.097   2.967   1.082
 5867SOL    HW218501   2.113   2.930   1.240
 5868SOL     OW18502   0.704   1.591   5.402
 5868SOL    HW118503   0.798   1.617   5.425
 5868SOL    HW218504   0.645   1.609   5.481
 5869SOL     OW18505   1.959   6.314   3.615
 5869SOL    HW118506   1.864   6.286   3.598
 5869SOL    HW218507   1.986   6.381   3.546
 5870SOL     OW18508   4.390   6.410   4.448
 5870SOL    HW118509   4.375   6.325   4.499
 5870SOL    HW218510   4.378   6.488   4.510
 5871SOL     OW18511   3.458   3.304   1.375
 5871SOL    HW118512   3.393   3.230   1.354
 5871SOL    HW218513   3.408   3.382   1.413
 5872SOL     OW18514   4.060   5.836   1.311
 5872SOL    HW118515   4.044   5.870   1.218
 5872SOL    HW218516   4.110   5.905   1.363
 5873SOL     OW18517   3.384   1.718   1.593
 5873SOL    HW118518   3.287   1.730   1.612
 5873SOL    HW218519   3.414   1.787   1.527
 5874SOL     OW18520   3.256   4.275   6.583
 5874SOL    HW118521   3.260   4.328   6.499
 5874SOL    HW218522   3.337   4.217   6.590
 5875SOL     OW18523   4.280   1.251   6.859
 5875SOL    HW118524   4.201   1.253   6.921
 5875SOL    HW218525   4.252   1.214   6.770
 5876SOL     OW18526   3.626   3.014   0.429
 5876SOL    HW118527   3.601   3.110   0.412
 5876SOL    HW218528   3.550   2.955   0.402
 5877SOL     OW18529   0.596   0.637   1.001
 5877SOL    HW118530   0.661   0.572   0.963
 5877SOL    HW218531   0.644   0.706   1.055
 5878SOL     OW18532   5.933   5.094   4.057
 5878SOL    HW118533   5.901   5.188   4.047
 5878SOL    HW218534   5.884   5.049   4.132
 5879SOL     OW18535   1.728   4.208   6.815
 5879SOL    HW118536   1.720   4.256   6.728
 5879SOL    HW218537   1.647   4.150   6.829
 5880SOL     OW18538   5.007   4.736   6.573
 5880SOL    HW118539   5.062   4.776   6.500
 5880SOL    HW218540   4.934   4.800   6.598
 5881SOL     OW18541   0.814   0.102   2.683
 5881SOL    HW118542   0.758   0.020   2.698
 5881SOL    HW218543   0.844   0.138   2.771
 5882SOL     OW18544   0.579   5.595   7.004
 5882SOL    HW118545   0.582   5.618   6.907
 5882SOL    HW218546   0.540   5.504   7.015
 5883SOL     OW18547   0.563   1.439   6.511
 5883SOL    HW118548   0.631   1.498   6.467
 5883SOL    HW218549   0.568   1.347   6.471
 5884SOL     OW18550   4.648   0.880   4.331
 5884SOL    HW118551   4.580   0.907   4.263
 5884SOL    HW218552   4.604   0.869   4.420
 5885SOL     OW18553   0.603   6.250   2.259
 5885SOL    HW118554   0.564   6.261   2.168
 5885SOL    HW218555   0.566   6.320   2.320
 5886SOL     OW18556   0.088   2.128   3.736
 5886SOL    HW118557   0.149   2.195   3.694
 5886SOL    HW218558   0.062   2.159   3.827
 5887SOL     OW18559   2.699   2.168   2.027
 5887SOL    HW118560   2.785   2.212   2.051
 5887SOL    HW218561   2.650   2.143   2.111
 5888SOL     OW18562   1.794   0.655   1.319
 5888SOL    HW118563   1.828   0.743   1.353
 5888SOL    HW218564   1.713   0.629   1.371
 5889SOL     OW18565   0.328   0.681   0.233
 5889SOL    HW118566   0.335   0.694   0.332
 5889SOL    HW218567   0.332   0.583   0.212
 5890SOL     OW18568   2.382   1.231   3.009
 5890SOL    HW118569   2.284   1.232   2.988
 5890SOL    HW218570   2.424   1.317   2.982
 5891SOL     OW18571   3.331   3.232   6.907
 5891SOL    HW118572   3.263   3.303   6.922
 5891SOL    HW218573   3.388   3.222   6.988
 5892SOL     OW18574   0.839   4.785   2.475
 5892SOL    HW118575   0.802   4.874   2.451
 5892SOL    HW218576   0.923   4.769   2.422
 5893SOL     OW18577   1.844   3.948   3.786
 5893SOL    HW118578   1.812   4.035   3.825
 5893SOL    HW218579   1.816   3.873   3.846
 5894SOL     OW18580   0.258   5.983   4.181
 5894SOL    HW118581   0.164   5.989   4.149
 5894SOL    HW218582   0.296   5.894   4.157
 5895SOL     OW18583   4.950   3.433   3.975
 5895SOL    HW118584   4.921   3.467   3.886
 5895SOL    HW218585   4.926   3.336   3.983
 5896SOL     OW18586   3.707   0.840   1.411
 5896SOL    HW118587   3.636   0.847   1.341
 5896SOL    HW218588   3.673   0.783   1.486
 5897SOL     OW18589   4.078   6.937   1.449
 5897SOL    HW118590   4.126   6.997   1.386
 5897SOL    HW218591   3.996   6.983   1.483
 5898SOL     OW18592   3.021   0.386   4.401
 5898SOL    HW118593   2.938   0.399   4.456
 5898SOL    HW218594   2.997   0.380   4.305
 5899SOL     OW18595   6.434   5.150   6.890
 5899SOL    HW118596   6.401   5.244   6.873
 5899SOL    HW218597   6.501   5.152   6.963
 5900SOL     OW18598   6.127   5.351   3.600
 5900SOL    HW118599   6.215   5.309   3.577
 5900SOL    HW218600   6.092   5.309   3.684
 5901SOL     OW18601   2.448   0.932   0.349
 5901SOL    HW118602   2.366   0.891   0.389
 5901SOL    HW218603   2.471   1.015   0.398
 5902SOL     OW18604   5.978   2.215   5.387
 5902SOL    HW118605   6.045   2.182   5.454
 5902SOL    HW218606   5.887   2.215   5.428
 5903SOL     OW18607   4.848   3.486   6.777
 5903SOL    HW118608   4.826   3.438   6.692
 5903SOL    HW218609   4.860   3.420   6.851
 5904SOL     OW18610   1.763   4.653   1.111
 5904SOL    HW118611   1.829   4.693   1.048
 5904SOL    HW218612   1.765   4.702   1.198
 5905SOL     OW18613   6.290   0.350   4.131
 5905SOL    HW118614   6.252   0.258   4.114
 5905SOL    HW218615   6.389   0.347   4.120
 5906SOL     OW18616   3.587   1.745   3.514
 5906SOL    HW118617   3.493   1.722   3.489
 5906SOL    HW218618   3.601   1.843   3.501
 5907SOL     OW18619   0.957   5.975   0.251
 5907SOL    HW118620   1.036   5.914   0.259
 5907SOL    HW218621   0.966   6.050   0.317
 5908SOL     OW18622   6.924   3.004   0.268
 5908SOL    HW118623   6.885   3.066   0.337
 5908SOL    HW218624   7.011   2.968   0.300
 5909SOL     OW18625   6.686   4.906   0.643
 5909SOL    HW118626   6.592   4.872   0.631
 5909SOL    HW218627   6.748   4.829   0.655
 5910SOL     OW18628   0.627   4.172   3.112
 5910SOL    HW118629   0.541   4.121   3.122
 5910SOL    HW218630   0.704   4.109   3.116
 5911SOL     OW18631   6.807   5.124   6.194
 5911SOL    HW118632   6.787   5.065   6.272
 5911SOL    HW218633   6.899   5.104   6.160
 5912SOL     OW18634   5.830   2.711   6.637
 5912SOL    HW118635   5.859   2.645   6.568
 5912SOL    HW218636   5.901   2.721   6.707
 5913SOL     OW18637   5.017   2.759   6.473
 5913SOL    HW118638   5.063   2.849   6.473
 5913SOL    HW218639   5.007   2.728   6.567
 5914SOL     OW18640   1.641   5.196   6.784
 5914SOL    HW118641   1.597   5.210   6.873
 5914SOL    HW218642   1.571   5.193   6.712
 5915SOL     OW18643   5.166   5.327   1.421
 5915SOL    HW118644   5.252   5.374   1.402
 5915SOL    HW218645   5.095   5.393   1.446
 5916SOL     OW18646   4.202   5.392   4.547
 5916SOL    HW118647   4.255   5.324   4.495
 5916SOL    HW218648   4.190   5.360   4.641
 5917SOL     OW18649   3.412   3.390   4.101
 5917SOL    HW118650   3.399   3.381   4.002
 5917SOL    HW218651   3.394   3.303   4.145
 5918SOL     OW18652   1.728   3.663   5.878
 5918SOL    HW118653   1.682   3.751   5.870
 5918SOL    HW218654   1.825   3.674   5.857
 5919SOL     OW18655   3.808   3.445   1.714
 5919SOL    HW118656   3.821   3.492   1.627
 5919SOL    HW218657   3.711   3.435   1.733
 5920SOL     OW18658   4.125   0.626   6.759
 5920SOL    HW118659   4.134   0.579   6.671
 5920SOL    HW218660   4.148   0.563   6.833
 5921SOL     OW18661   3.970   5.392   6.093
 5921SOL    HW118662   3.929   5.424   6.008
 5921SOL    HW218663   3.926   5.437   6.171
 5922SOL     OW18664   6.976   5.196   2.792
 5922SOL    HW118665   6.934   5.287   2.797
 5922SOL    HW218666   6.966   5.161   2.698
 5923SOL     OW18667   5.503   0.969   1.793
 5923SOL    HW118668   5.433   1.038   1.811
 5923SOL    HW218669   5.586   0.992   1.842
 5924SOL     OW18670   0.097   1.479   3.709
 5924SOL    HW118671   0.002   1.485   3.680
 5924SOL    HW218672   0.132   1.387   3.688
 5925SOL     OW18673   3.825   5.391   1.501
 5925SOL    HW118674   3.810   5.320   1.569
 5925SOL    HW218675   3.772   5.472   1.526
 5926SOL     OW18676   4.139   5.453   1.589
 5926SOL    HW118677   4.190   5.490   1.667
 5926SOL    HW218678   4.071   5.519   1.559
 5927SOL     OW18679   1.121   4.027   2.646
 5927SOL    HW118680   1.138   3.952   2.582
 5927SOL    HW218681   1.133   4.115   2.599
 5928SOL     OW18682   3.333   0.204   0.723
 5928SOL    HW118683   3.259   0.271   0.716
 5928SOL    HW218684   3.416   0.250   0.757
 5929SOL     OW18685   0.813   6.899   6.739
 5929SOL    HW118686   0.758   6.835   6.792
 5929SOL    HW218687   0.907   6.865   6.732
 5930SOL     OW18688   6.441   3.052   3.599
 5930SOL    HW118689   6.432   3.045   3.698
 5930SOL    HW218690   6.392   2.976   3.556
 5931SOL     OW18691   7.002   5.794   3.107
 5931SOL    HW118692   6.983   5.787   3.009
 5931SOL    HW218693   6.998   5.703   3.148
 5932SOL     OW18694   1.986   6.961   0.675
 5932SOL    HW118695   2.029   0.024   0.705
 5932SOL    HW218696   2.056   6.902   0.634
 5933SOL     OW18697   0.442   6.120   3.592
 5933SOL    HW118698   0.347   6.100   3.570
 5933SOL    HW218699   0.479   6.049   3.652
 5934SOL     OW18700   3.628   3.086   4.192
 5934SOL    HW118701   3.640   3.012   4.259
 5934SOL    HW218702   3.710   3.142   4.189
 5935SOL     OW18703   4.806   4.455   6.278
 5935SOL    HW118704   4.720   4.421   6.316
 5935SOL    HW218705   4.877   4.451   6.347
 5936SOL     OW18706   3.679   2.970   0.887
 5936SOL    HW118707   3.658   3.067   0.874
 5936SOL    HW218708   3.616   2.914   0.833
 5937SOL     OW18709   0.806   4.644   2.931
 5937SOL    HW118710   0.886   4.690   2.969
 5937SOL    HW218711   0.733   4.642   2.998
 5938SOL     OW18712   0.916   5.304   3.577
 5938SOL    HW118713   0.904   5.309   3.676
 5938SOL    HW218714   0.835   5.341   3.532
 5939SOL     OW18715   2.851   6.408   3.146
 5939SOL    HW118716   2.786   6.453   3.208
 5939SOL    HW218717   2.889   6.327   3.190
 5940SOL     OW18718   4.458   5.552   0.809
 5940SOL    HW118719   4.381   5.587   0.862
 5940SOL    HW218720   4.509   5.628   0.769
 5941SOL     OW18721   5.797   3.195   2.067
 5941SOL    HW118722   5.728   3.167   2.134
 5941SOL    HW218723   5.886   3.202   2.112
 5942SOL     OW18724   5.074   3.226   0.564
 5942SOL    HW118725   5.086   3.166   0.643
 5942SOL    HW218726   5.162   3.238   0.518
 5943SOL     OW18727   3.699   5.199   0.487
 5943SOL    HW118728   3.610   5.183   0.529
 5943SOL    HW218729   3.697   5.166   0.393
 5944SOL     OW18730   6.457   2.863   1.299
 5944SOL    HW118731   6.513   2.841   1.220
 5944SOL    HW218732   6.496   2.942   1.347
 5945SOL     OW18733   6.151   5.209   5.563
 5945SOL    HW118734   6.250   5.225   5.566
 5945SOL    HW218735   6.130   5.150   5.485
 5946SOL     OW18736   3.746   3.094   6.226
 5946SOL    HW118737   3.687   3.071   6.302
 5946SOL    HW218738   3.695   3.144   6.156
 5947SOL     OW18739   3.885   3.504   1.953
 5947SOL    HW118740   3.840   3.484   1.866
 5947SOL    HW218741   3.980   3.529   1.937
 5948SOL     OW18742   4.663   5.101   3.462
 5948SOL    HW118743   4.735   5.101   3.531
 5948SOL    HW218744   4.658   5.191   3.419
 5949SOL     OW18745   4.708   3.854   1.636
 5949SOL    HW118746   4.780   3.890   1.695
 5949SOL    HW218747   4.630   3.916   1.636
 5950SOL     OW18748   4.595   2.219   5.960
 5950SOL    HW118749   4.639   2.305   5.934
 5950SOL    HW218750   4.633   2.145   5.904
 5951SOL     OW18751   0.650   5.607   4.018
 5951SOL    HW118752   0.563   5.561   4.035
 5951SOL    HW218753   0.725   5.543   4.030
 5952SOL     OW18754   5.728   4.661   3.997
 5952SOL    HW118755   5.724   4.567   3.962
 5952SOL    HW218756   5.824   4.690   4.001
 5953SOL     OW18757   6.515   3.264   5.368
 5953SOL    HW118758   6.579   3.332   5.403
 5953SOL    HW218759   6.493   3.285   5.272
 5954SOL     OW18760   0.769   4.318   5.695
 5954SOL    HW118761   0.820   4.371   5.627
 5954SOL    HW218762   0.778   4.361   5.785
 5955SOL     OW18763   5.117   6.203   2.821
 5955SOL    HW118764   5.028   6.236   2.853
 5955SOL    HW218765   5.159   6.146   2.891
 5956SOL     OW18766   4.797   1.074   5.904
 5956SOL    HW118767   4.724   1.068   5.972
 5956SOL    HW218768   4.788   1.000   5.838
 5957SOL     OW18769   4.257   0.682   5.209
 5957SOL    HW118770   4.259   0.726   5.298
 5957SOL    HW218771   4.237   0.751   5.138
 5958SOL     OW18772   5.834   6.992   3.082
 5958SOL    HW118773   5.787   0.008   3.003
 5958SOL    HW218774   5.929   6.971   3.058
 5959SOL     OW18775   4.015   2.309   5.334
 5959SOL    HW118776   3.930   2.257   5.342
 5959SOL    HW218777   4.003   2.398   5.379
 5960SOL     OW18778   3.662   5.129   4.679
 5960SOL    HW118779   3.735   5.087   4.733
 5960SOL    HW218780   3.682   5.226   4.666
 5961SOL     OW18781   5.438   1.229   2.939
 5961SOL    HW118782   5.524   1.183   2.962
 5961SOL    HW218783   5.395   1.262   3.023
 5962SOL     OW18784   5.497   6.311   0.404
 5962SOL    HW118785   5.489   6.252   0.484
 5962SOL    HW218786   5.571   6.377   0.417
 5963SOL     OW18787   3.590   3.688   5.436
 5963SOL    HW118788   3.621   3.783   5.438
 5963SOL    HW218789   3.669   3.627   5.442
 5964SOL     OW18790   0.377   5.397   5.492
 5964SOL    HW118791   0.365   5.337   5.413
 5964SOL    HW218792   0.402   5.343   5.572
 5965SOL     OW18793   1.039   2.279   6.858
 5965SOL    HW118794   1.115   2.297   6.921
 5965SOL    HW218795   1.073   2.234   6.776
 5966SOL     OW18796   3.033   5.935   5.850
 5966SOL    HW118797   3.116   5.959   5.900
 5966SOL    HW218798   3.057   5.908   5.757
 5967SOL     OW18799   4.248   6.775   6.620
 5967SOL    HW118800   4.192   6.740   6.696
 5967SOL    HW218801   4.314   6.705   6.593
 5968SOL     OW18802   4.636   1.633   1.210
 5968SOL    HW118803   4.659   1.578   1.290
 5968SOL    HW218804   4.608   1.725   1.239
 5969SOL     OW18805   0.348   6.688   6.539
 5969SOL    HW118806   0.379   6.609   6.486
 5969SOL    HW218807   0.341   6.663   6.636
 5970SOL     OW18808   0.275   4.577   2.438
 5970SOL    HW118809   0.369   4.551   2.416
 5970SOL    HW218810   0.242   4.642   2.370
 5971SOL     OW18811   1.352   0.674   2.491
 5971SOL    HW118812   1.324   0.726   2.571
 5971SOL    HW218813   1.324   0.579   2.501
 5972SOL     OW18814   5.552   5.587   0.100
 5972SOL    HW118815   5.606   5.607   0.182
 5972SOL    HW218816   5.459   5.562   0.126
 5973SOL     OW18817   1.958   3.516   2.551
 5973SOL    HW118818   1.962   3.479   2.458
 5973SOL    HW218819   1.866   3.506   2.587
 5974SOL     OW18820   5.659   5.317   6.317
 5974SOL    HW118821   5.712   5.369   6.384
 5974SOL    HW218822   5.720   5.282   6.245
 5975SOL     OW18823   3.196   1.295   0.582
 5975SOL    HW118824   3.279   1.313   0.634
 5975SOL    HW218825   3.123   1.355   0.613
 5976SOL     OW18826   3.296   3.148   5.415
 5976SOL    HW118827   3.229   3.135   5.342
 5976SOL    HW218828   3.274   3.230   5.467
 5977SOL     OW18829   2.865   5.387   6.852
 5977SOL    HW118830   2.961   5.414   6.866
 5977SOL    HW218831   2.830   5.345   6.936
 5978SOL     OW18832   5.238   5.729   2.934
 5978SOL    HW118833   5.227   5.723   3.034
 5978SOL    HW218834   5.283   5.647   2.900
 5979SOL     OW18835   5.446   0.437   2.573
 5979SOL    HW118836   5.510   0.512   2.583
 5979SOL    HW218837   5.355   0.473   2.553
 5980SOL     OW18838   3.666   4.093   0.760
 5980SOL    HW118839   3.613   4.033   0.700
 5980SOL    HW218840   3.614   4.108   0.845
 5981SOL     OW18841   5.705   2.167   1.066
 5981SOL    HW118842   5.652   2.143   0.985
 5981SOL    HW218843   5.772   2.096   1.085
 5982SOL     OW18844   6.914   3.179   2.142
 5982SOL    HW118845   6.845   3.153   2.210
 5982SOL    HW218846   6.968   3.099   2.116
 5983SOL     OW18847   0.632   1.954   4.184
 5983SOL    HW118848   0.576   1.909   4.115
 5983SOL    HW218849   0.681   2.032   4.143
 5984SOL     OW18850   6.417   5.548   4.133
 5984SOL    HW118851   6.372   5.637   4.129
 5984SOL    HW218852   6.365   5.488   4.194
 5985SOL     OW18853   6.794   2.917   4.119
 5985SOL    HW118854   6.775   2.885   4.026
 5985SOL    HW218855   6.877   2.973   4.119
 5986SOL     OW18856   2.923   3.552   4.738
 5986SOL    HW118857   2.893   3.582   4.648
 5986SOL    HW218858   2.873   3.469   4.764
 5987SOL     OW18859   4.742   0.388   4.612
 5987SOL    HW118860   4.731   0.316   4.543
 5987SOL    HW218861   4.703   0.473   4.577
 5988SOL     OW18862   4.897   6.826   5.583
 5988SOL    HW118863   4.980   6.868   5.622
 5988SOL    HW218864   4.839   6.898   5.545
 5989SOL     OW18865   2.620   6.633   6.827
 5989SOL    HW118866   2.605   6.534   6.836
 5989SOL    HW218867   2.698   6.650   6.767
 5990SOL     OW18868   3.877   4.652   0.159
 5990SOL    HW118869   3.819   4.632   0.238
 5990SOL    HW218870   3.905   4.566   0.116
 5991SOL     OW18871   3.312   4.929   0.020
 5991SOL    HW118872   3.380   4.858   0.006
 5991SOL    HW218873   3.293   4.975   6.955
 5992SOL     OW18874   3.704   6.995   2.764
 5992SOL    HW118875   3.675   6.989   2.669
 5992SOL    HW218876   3.632   6.956   2.823
 5993SOL     OW18877   2.849   6.163   6.774
 5993SOL    HW118878   2.757   6.140   6.742
 5993SOL    HW218879   2.861   6.131   6.867
 5994SOL     OW18880   5.993   2.575   1.927
 5994SOL    HW118881   6.092   2.570   1.918
 5994SOL    HW218882   5.961   2.665   1.899
 5995SOL     OW18883   5.432   4.850   3.010
 5995SOL    HW118884   5.436   4.888   2.918
 5995SOL    HW218885   5.478   4.761   3.011
 5996SOL     OW18886   1.093   6.404   0.713
 5996SOL    HW118887   1.003   6.401   0.756
 5996SOL    HW218888   1.101   6.488   0.658
 5997SOL     OW18889   1.052   5.403   2.389
 5997SOL    HW118890   1.071   5.430   2.483
 5997SOL    HW218891   1.047   5.303   2.383
 5998SOL     OW18892   5.755   1.620   3.156
 5998SOL    HW118893   5.822   1.579   3.218
 5998SOL    HW218894   5.762   1.576   3.066
 5999SOL     OW18895   1.406   1.865   2.482
 5999SOL    HW118896   1.359   1.940   2.528
 5999SOL    HW218897   1.341   1.815   2.425
 6000SOL     OW18898   4.560   6.669   0.843
 6000SOL    HW118899   4.535   6.630   0.754
 6000SOL    HW218900   4.492   6.642   0.911
 6001SOL     OW18901   1.187   4.045   0.220
 6001SOL    HW118902   1.249   4.108   0.172
 6001SOL    HW218903   1.237   3.961   0.242
 6002SOL     OW18904   6.297   0.075   1.115
 6002SOL    HW118905   6.209   0.120   1.098
 6002SOL    HW218906   6.353   0.079   1.032
 6003SOL     OW18907   6.449   2.322   4.019
 6003SOL    HW118908   6.445   2.379   4.101
 6003SOL    HW218909   6.388   2.359   3.949
 6004SOL     OW18910   0.659   3.579   2.960
 6004SOL    HW118911   0.660   3.677   2.940
 6004SOL    HW218912   0.585   3.535   2.909
 6005SOL     OW18913   5.233   5.929   4.482
 6005SOL    HW118914   5.147   5.905   4.528
 6005SOL    HW218915   5.283   5.994   4.538
 6006SOL     OW18916   2.751   1.125   5.975
 6006SOL    HW118917   2.689   1.196   6.009
 6006SOL    HW218918   2.843   1.142   6.009
 6007SOL     OW18919   4.879   3.631   5.323
 6007SOL    HW118920   4.844   3.642   5.230
 6007SOL    HW218921   4.869   3.535   5.350
 6008SOL     OW18922   2.089   4.461   5.924
 6008SOL    HW118923   2.068   4.386   5.987
 6008SOL    HW218924   2.007   4.484   5.871
 6009SOL     OW18925   3.628   0.624   3.703
 6009SOL    HW118926   3.656   0.588   3.614
 6009SOL    HW218927   3.619   0.548   3.768
 6010SOL     OW18928   1.298   4.541   4.157
 6010SOL    HW118929   1.360   4.571   4.084
 6010SOL    HW218930   1.238   4.617   4.182
 6011SOL     OW18931   4.929   3.491   2.159
 6011SOL    HW118932   4.916   3.394   2.178
 6011SOL    HW218933   4.891   3.514   2.070
 6012SOL     OW18934   5.142   1.333   0.130
 6012SOL    HW118935   5.052   1.344   0.087
 6012SOL    HW218936   5.142   1.248   0.183
 6013SOL     OW18937   4.663   1.974   3.316
 6013SOL    HW118938   4.648   1.877   3.335
 6013SOL    HW218939   4.761   1.994   3.316
 6014SOL     OW18940   4.144   3.756   1.420
 6014SOL    HW118941   4.204   3.754   1.499
 6014SOL    HW218942   4.190   3.803   1.344
 6015SOL     OW18943   5.395   2.890   4.128
 6015SOL    HW118944   5.442   2.917   4.044
 6015SOL    HW218945   5.450   2.919   4.207
 6016SOL     OW18946   6.167   2.222   5.971
 6016SOL    HW118947   6.226   2.274   6.032
 6016SOL    HW218948   6.207   2.131   5.955
 6017SOL     OW18949   6.877   4.164   2.887
 6017SOL    HW118950   6.925   4.243   2.927
 6017SOL    HW218951   6.809   4.130   2.953
 6018SOL     OW18952   3.202   0.817   6.468
 6018SOL    HW118953   3.123   0.763   6.442
 6018SOL    HW218954   3.262   0.829   6.389
 6019SOL     OW18955   6.749   2.174   4.217
 6019SOL    HW118956   6.837   2.149   4.259
 6019SOL    HW218957   6.728   2.110   4.143
 6020SOL     OW18958   1.508   4.315   0.895
 6020SOL    HW118959   1.467   4.315   0.986
 6020SOL    HW218960   1.503   4.407   0.856
 6021SOL     OW18961   4.817   0.697   2.349
 6021SOL    HW118962   4.718   0.701   2.343
 6021SOL    HW218963   4.847   0.725   2.441
 6022SOL     OW18964   4.244   2.275   4.063
 6022SOL    HW118965   4.246   2.340   4.139
 6022SOL    HW218966   4.296   2.312   3.986
 6023SOL     OW18967   6.615   0.161   2.329
 6023SOL    HW118968   6.609   0.256   2.299
 6023SOL    HW218969   6.553   0.105   2.274
 6024SOL     OW18970   1.547   4.964   3.151
 6024SOL    HW118971   1.492   4.984   3.232
 6024SOL    HW218972   1.586   5.049   3.115
 6025SOL     OW18973   3.443   1.542   2.714
 6025SOL    HW118974   3.368   1.530   2.649
 6025SOL    HW218975   3.413   1.517   2.806
 6026SOL     OW18976   0.082   4.004   5.188
 6026SOL    HW118977   0.139   4.051   5.256
 6026SOL    HW218978   7.013   3.989   5.225
 6027SOL     OW18979   1.667   4.293   6.471
 6027SOL    HW118980   1.658   4.361   6.398
 6027SOL    HW218981   1.755   4.304   6.516
 6028SOL     OW18982   0.358   4.996   6.732
 6028SOL    HW118983   0.438   4.979   6.791
 6028SOL    HW218984   0.381   5.067   6.666
 6029SOL     OW18985   2.440   6.172   5.347
 6029SOL    HW118986   2.447   6.158   5.446
 6029SOL    HW218987   2.350   6.141   5.315
 6030SOL     OW18988   3.755   5.811   3.070
 6030SOL    HW118989   3.745   5.723   3.025
 6030SOL    HW218990   3.828   5.863   3.027
 6031SOL     OW18991   3.215   5.567   3.090
 6031SOL    HW118992   3.158   5.648   3.081
 6031SOL    HW218993   3.190   5.518   3.173
 6032SOL     OW18994   2.217   4.294   3.132
 6032SOL    HW118995   2.299   4.349   3.114
 6032SOL    HW218996   2.185   4.253   3.047
 6033SOL     OW18997   3.057   1.790   3.013
 6033SOL    HW118998   3.051   1.741   2.926
 6033SOL    HW218999   3.065   1.889   2.995
 6034SOL     OW19000   0.698   5.100   4.681
 6034SOL    HW119001   0.630   5.144   4.740
 6034SOL    HW219002   0.652   5.033   4.622
 6035SOL     OW19003   6.983   0.770   2.594
 6035SOL    HW119004   6.930   0.807   2.671
 6035SOL    HW219005   6.930   0.782   2.510
 6036SOL     OW19006   6.228   5.665   3.805
 6036SOL    HW119007   6.283   5.586   3.832
 6036SOL    HW219008   6.269   5.748   3.842
 6037SOL     OW19009   4.514   4.786   6.324
 6037SOL    HW119010   4.484   4.878   6.349
 6037SOL    HW219011   4.597   4.792   6.268
 6038SOL     OW19012   1.776   2.636   5.992
 6038SOL    HW119013   1.840   2.567   5.958
 6038SOL    HW219014   1.683   2.602   5.984
 6039SOL     OW19015   3.010   3.708   2.549
 6039SOL    HW119016   2.945   3.704   2.625
 6039SOL    HW219017   3.019   3.617   2.508
 6040SOL     OW19018   0.638   2.124   6.564
 6040SOL    HW119019   0.568   2.195   6.567
 6040SOL    HW219020   0.634   2.069   6.648
 6041SOL     OW19021   2.049   0.448   5.170
 6041SOL    HW119022   2.040   0.483   5.077
 6041SOL    HW219023   2.105   0.511   5.224
 6042SOL     OW19024   5.359   5.702   1.621
 6042SOL    HW119025   5.347   5.634   1.692
 6042SOL    HW219026   5.288   5.773   1.630
 6043SOL     OW19027   0.954   4.664   5.644
 6043SOL    HW119028   0.914   4.720   5.571
 6043SOL    HW219029   0.982   4.576   5.607
 6044SOL     OW19030   1.310   1.757   1.932
 6044SOL    HW119031   1.233   1.819   1.949
 6044SOL    HW219032   1.375   1.763   2.008
 6045SOL     OW19033   6.709   4.787   2.190
 6045SOL    HW119034   6.618   4.762   2.221
 6045SOL    HW219035   6.773   4.713   2.211
 6046SOL     OW19036   3.998   2.041   0.355
 6046SOL    HW119037   4.043   2.018   0.269
 6046SOL    HW219038   4.067   2.073   0.421
 6047SOL     OW19039   5.263   2.183   1.972
 6047SOL    HW119040   5.316   2.248   1.918
 6047SOL    HW219041   5.208   2.233   2.039
 6048SOL     OW19042   4.803   5.948   4.485
 6048SOL    HW119043   4.765   5.863   4.448
 6048SOL    HW219044   4.876   5.926   4.549
 6049SOL     OW19045   5.907   4.004   5.975
 6049SOL    HW119046   5.936   4.100   5.963
 6049SOL    HW219047   5.824   4.001   6.030
 6050SOL     OW19048   3.524   5.843   4.388
 6050SOL    HW119049   3.471   5.888   4.316
 6050SOL    HW219050   3.463   5.788   4.445
 6051SOL     OW19051   2.941   0.817   4.285
 6051SOL    HW119052   2.944   0.813   4.385
 6051SOL    HW219053   2.966   0.910   4.255
 6052SOL     OW19054   6.027   0.234   0.763
 6052SOL    HW119055   6.005   0.189   0.849
 6052SOL    HW219056   5.960   0.308   0.746
 6053SOL     OW19057   4.322   1.493   6.378
 6053SOL    HW119058   4.315   1.481   6.279
 6053SOL    HW219059   4.258   1.431   6.423
 6054SOL     OW19060   3.405   3.220   0.727
 6054SOL    HW119061   3.373   3.163   0.652
 6054SOL    HW219062   3.391   3.317   0.704
 6055SOL     OW19063   5.014   1.021   5.494
 6055SOL    HW119064   4.951   1.028   5.416
 6055SOL    HW219065   5.105   0.998   5.461
 6056SOL     OW19066   4.658   2.632   4.521
 6056SOL    HW119067   4.682   2.729   4.532
 6056SOL    HW219068   4.709   2.578   4.587
 6057SOL     OW19069   5.002   2.849   3.522
 6057SOL    HW119070   5.031   2.754   3.518
 6057SOL    HW219071   4.914   2.856   3.569
 6058SOL     OW19072   4.790   3.148   1.030
 6058SOL    HW119073   4.765   3.200   1.112
 6058SOL    HW219074   4.744   3.188   0.950
 6059SOL     OW19075   5.166   5.275   4.970
 6059SOL    HW119076   5.153   5.370   4.996
 6059SOL    HW219077   5.252   5.241   5.009
 6060SOL     OW19078   2.627   3.939   6.572
 6060SOL    HW119079   2.721   3.958   6.543
 6060SOL    HW219080   2.564   3.996   6.520
 6061SOL     OW19081   3.463   2.435   1.406
 6061SOL    HW119082   3.525   2.416   1.483
 6061SOL    HW219083   3.418   2.523   1.421
 6062SOL     OW19084   2.118   1.736   4.894
 6062SOL    HW119085   2.038   1.675   4.891
 6062SOL    HW219086   2.201   1.681   4.891
 6063SOL     OW19087   3.490   1.752   6.291
 6063SOL    HW119088   3.566   1.691   6.270
 6063SOL    HW219089   3.518   1.815   6.364
 6064SOL     OW19090   1.708   5.878   1.114
 6064SOL    HW119091   1.796   5.847   1.149
 6064SOL    HW219092   1.648   5.800   1.099
 6065SOL     OW19093   6.352   0.244   1.905
 6065SOL    HW119094   6.384   0.322   1.959
 6065SOL    HW219095   6.297   0.276   1.829
 6066SOL     OW19096   5.056   1.725   5.792
 6066SOL    HW119097   5.029   1.629   5.784
 6066SOL    HW219098   5.140   1.732   5.845
 6067SOL     OW19099   5.295   1.759   5.924
 6067SOL    HW119100   5.319   1.666   5.953
 6067SOL    HW219101   5.355   1.825   5.971
 6068SOL     OW19102   5.701   3.117   4.798
 6068SOL    HW119103   5.616   3.115   4.746
 6068SOL    HW219104   5.777   3.140   4.737
 6069SOL     OW19105   6.736   3.426   4.694
 6069SOL    HW119106   6.792   3.356   4.738
 6069SOL    HW219107   6.667   3.381   4.637
 6070SOL     OW19108   2.284   2.610   0.779
 6070SOL    HW119109   2.249   2.573   0.693
 6070SOL    HW219110   2.259   2.548   0.854
 6071SOL     OW19111   6.395   5.647   4.423
 6071SOL    HW119112   6.416   5.734   4.468
 6071SOL    HW219113   6.470   5.583   4.437
 6072SOL     OW19114   0.713   6.976   2.036
 6072SOL    HW119115   0.719   6.989   1.937
 6072SOL    HW219116   0.644   6.905   2.056
 6073SOL     OW19117   6.441   4.204   0.244
 6073SOL    HW119118   6.498   4.125   0.226
 6073SOL    HW219119   6.408   4.241   0.157
 6074SOL     OW19120   1.196   6.238   4.217
 6074SOL    HW119121   1.232   6.328   4.243
 6074SOL    HW219122   1.234   6.212   4.128
 6075SOL     OW19123   6.620   1.332   6.450
 6075SOL    HW119124   6.567   1.256   6.488
 6075SOL    HW219125   6.637   1.400   6.521
 6076SOL     OW19126   2.293   5.640   4.969
 6076SOL    HW119127   2.380   5.608   4.932
 6076SOL    HW219128   2.288   5.619   5.067
 6077SOL     OW19129   5.675   5.668   1.802
 6077SOL    HW119130   5.764   5.666   1.849
 6077SOL    HW219131   5.680   5.613   1.719
 6078SOL     OW19132   3.789   5.100   0.804
 6078SOL    HW119133   3.740   5.172   0.853
 6078SOL    HW219134   3.850   5.141   0.736
 6079SOL     OW19135   3.918   3.114   6.555
 6079SOL    HW119136   3.825   3.125   6.590
 6079SOL    HW219137   3.927   3.163   6.468
 6080SOL     OW19138   0.142   1.296   1.688
 6080SOL    HW119139   0.106   1.316   1.597
 6080SOL    HW219140   0.072   1.316   1.757
 6081SOL     OW19141   6.067   3.372   5.586
 6081SOL    HW119142   6.134   3.391   5.514
 6081SOL    HW219143   6.024   3.457   5.615
 6082SOL     OW19144   2.043   1.946   3.531
 6082SOL    HW119145   2.131   1.994   3.525
 6082SOL    HW219146   2.058   1.848   3.520
 6083SOL     OW19147   0.318   4.667   6.953
 6083SOL    HW119148   0.322   4.632   0.024
 6083SOL    HW219149   0.226   4.650   6.915
 6084SOL     OW19150   0.444   6.313   3.124
 6084SOL    HW119151   0.421   6.408   3.147
 6084SOL    HW219152   0.456   6.261   3.208
 6085SOL     OW19153   0.891   4.157   0.564
 6085SOL    HW119154   0.968   4.099   0.537
 6085SOL    HW219155   0.872   4.144   0.662
 6086SOL     OW19156   3.795   1.277   5.774
 6086SOL    HW119157   3.811   1.375   5.786
 6086SOL    HW219158   3.742   1.261   5.691
 6087SOL     OW19159   3.775   5.750   0.815
 6087SOL    HW119160   3.784   5.658   0.775
 6087SOL    HW219161   3.861   5.799   0.806
 6088SOL     OW19162   6.095   5.919   4.230
 6088SOL    HW119163   6.107   6.004   4.178
 6088SOL    HW219164   6.010   5.874   4.201
 6089SOL     OW19165   6.330   3.060   0.630
 6089SOL    HW119166   6.281   2.974   0.637
 6089SOL    HW219167   6.288   3.118   0.560
 6090SOL     OW19168   2.410   6.124   5.615
 6090SOL    HW119169   2.493   6.147   5.666
 6090SOL    HW219170   2.335   6.182   5.647
 6091SOL     OW19171   1.440   1.410   1.478
 6091SOL    HW119172   1.389   1.481   1.430
 6091SOL    HW219173   1.534   1.440   1.491
 6092SOL     OW19174   3.732   6.674   2.884
 6092SOL    HW119175   3.814   6.717   2.847
 6092SOL    HW219176   3.682   6.740   2.941
 6093SOL     OW19177   1.863   3.137   2.860
 6093SOL    HW119178   1.824   3.228   2.864
 6093SOL    HW219179   1.836   3.092   2.775
 6094SOL     OW19180   3.966   0.867   1.286
 6094SOL    HW119181   3.874   0.854   1.322
 6094SOL    HW219182   3.984   0.965   1.276
 6095SOL     OW19183   4.720   3.521   0.161
 6095SOL    HW119184   4.630   3.565   0.159
 6095SOL    HW219185   4.776   3.564   0.231
 6096SOL     OW19186   6.448   0.928   3.685
 6096SOL    HW119187   6.517   0.976   3.632
 6096SOL    HW219188   6.417   0.848   3.634
 6097SOL     OW19189   1.962   6.768   1.812
 6097SOL    HW119190   1.996   6.837   1.876
 6097SOL    HW219191   2.003   6.680   1.833
 6098SOL     OW19192   1.452   2.876   6.237
 6098SOL    HW119193   1.417   2.871   6.330
 6098SOL    HW219194   1.542   2.833   6.232
 6099SOL     OW19195   6.673   6.054   0.637
 6099SOL    HW119196   6.736   6.117   0.683
 6099SOL    HW219197   6.604   6.106   0.586
 6100SOL     OW19198   4.437   3.661   0.441
 6100SOL    HW119199   4.355   3.708   0.407
 6100SOL    HW219200   4.498   3.641   0.365
 6101SOL     OW19201   6.047   2.129   4.352
 6101SOL    HW119202   6.123   2.173   4.400
 6101SOL    HW219203   6.076   2.106   4.259
 6102SOL     OW19204   3.374   6.532   3.437
 6102SOL    HW119205   3.397   6.440   3.405
 6102SOL    HW219206   3.432   6.599   3.390
 6103SOL     OW19207   6.990   2.722   2.530
 6103SOL    HW119208   0.003   2.749   2.440
 6103SOL    HW219209   6.893   2.699   2.522
 6104SOL     OW19210   6.196   1.308   5.459
 6104SOL    HW119211   6.177   1.255   5.542
 6104SOL    HW219212   6.181   1.251   5.379
 6105SOL     OW19213   1.739   0.213   5.926
 6105SOL    HW119214   1.776   0.196   5.835
 6105SOL    HW219215   1.694   0.131   5.960
 6106SOL     OW19216   2.157   4.200   5.412
 6106SOL    HW119217   2.213   4.254   5.350
 6106SOL    HW219218   2.103   4.134   5.359
 6107SOL     OW19219   2.431   4.540   4.819
 6107SOL    HW119220   2.340   4.512   4.847
 6107SOL    HW219221   2.490   4.548   4.900
 6108SOL     OW19222   0.466   2.451   1.997
 6108SOL    HW119223   0.390   2.506   2.032
 6108SOL    HW219224   0.464   2.360   2.040
 6109SOL     OW19225   5.295   2.908   5.776
 6109SOL    HW119226   5.201   2.889   5.747
 6109SOL    HW219227   5.307   3.007   5.784
 6110SOL     OW19228   4.247   3.472   0.254
 6110SOL    HW119229   4.311   3.431   0.319
 6110SOL    HW219230   4.223   3.564   0.284
 6111SOL     OW19231   2.250   4.116   2.052
 6111SOL    HW119232   2.296   4.032   2.080
 6111SOL    HW219233   2.232   4.113   1.953
 6112SOL     OW19234   3.959   7.007   2.911
 6112SOL    HW119235   3.990   6.913   2.901
 6112SOL    HW219236   3.871   7.019   2.866
 6113SOL     OW19237   1.606   1.544   5.874
 6113SOL    HW119238   1.632   1.604   5.951
 6113SOL    HW219239   1.548   1.595   5.811
 6114SOL     OW19240   5.427   5.439   1.069
 6114SOL    HW119241   5.390   5.389   0.990
 6114SOL    HW219242   5.376   5.524   1.081
 6115SOL     OW19243   4.349   0.232   3.566
 6115SOL    HW119244   4.415   0.280   3.623
 6115SOL    HW219245   4.337   0.139   3.599
 6116SOL     OW19246   3.018   0.060   0.432
 6116SOL    HW119247   2.922   0.069   0.457
 6116SOL    HW219248   3.043   6.986   0.430
 6117SOL     OW19249   0.702   0.529   5.634
 6117SOL    HW119250   0.674   0.437   5.663
 6117SOL    HW219251   0.717   0.530   5.535
 6118SOL     OW19252   6.197   0.678   1.908
 6118SOL    HW119253   6.180   0.584   1.879
 6118SOL    HW219254   6.184   0.685   2.007
 6119SOL     OW19255   1.209   3.705   5.685
 6119SOL    HW119256   1.185   3.608   5.682
 6119SOL    HW219257   1.202   3.738   5.779
 6120SOL     OW19258   3.564   6.668   4.647
 6120SOL    HW119259   3.556   6.718   4.561
 6120SOL    HW219260   3.581   6.571   4.628
 6121SOL     OW19261   0.722   3.005   5.523
 6121SOL    HW119262   0.645   3.036   5.466
 6121SOL    HW219263   0.715   2.907   5.538
 6122SOL     OW19264   4.076   6.519   1.048
 6122SOL    HW119265   4.080   6.585   1.123
 6122SOL    HW219266   4.005   6.451   1.067
 6123SOL     OW19267   6.334   0.382   6.612
 6123SOL    HW119268   6.348   0.465   6.666
 6123SOL    HW219269   6.236   0.362   6.608
 6124SOL     OW19270   2.041   1.035   6.327
 6124SOL    HW119271   2.099   1.095   6.381
 6124SOL    HW219272   2.002   0.964   6.386
 6125SOL     OW19273   1.208   5.873   0.298
 6125SOL    HW119274   1.210   5.814   0.379
 6125SOL    HW219275   1.279   5.845   0.234
 6126SOL     OW19276   0.261   6.754   4.004
 6126SOL    HW119277   0.243   6.818   4.079
 6126SOL    HW219278   0.341   6.785   3.953
 6127SOL     OW19279   3.780   0.422   1.848
 6127SOL    HW119280   3.874   0.399   1.822
 6127SOL    HW219281   3.730   0.451   1.767
 6128SOL     OW19282   6.636   3.094   6.993
 6128SOL    HW119283   6.670   3.004   7.021
 6128SOL    HW219284   6.647   3.159   0.045
 6129SOL     OW19285   6.607   3.854   3.040
 6129SOL    HW119286   6.521   3.870   2.990
 6129SOL    HW219287   6.654   3.942   3.054
 6130SOL     OW19288   6.119   2.322   3.253
 6130SOL    HW119289   6.083   2.315   3.347
 6130SOL    HW219290   6.044   2.310   3.188
 6131SOL     OW19291   6.556   1.092   5.119
 6131SOL    HW119292   6.613   1.024   5.166
 6131SOL    HW219293   6.558   1.178   5.169
 6132SOL     OW19294   4.543   1.351   0.571
 6132SOL    HW119295   4.613   1.337   0.641
 6132SOL    HW219296   4.458   1.379   0.614
 6133SOL     OW19297   1.026   2.431   2.539
 6133SOL    HW119298   1.123   2.448   2.560
 6133SOL    HW219299   0.971   2.508   2.570
 6134SOL     OW19300   3.924   4.641   6.442
 6134SOL    HW119301   3.839   4.665   6.395
 6134SOL    HW219302   3.967   4.563   6.396
 6135SOL     OW19303   0.755   0.049   2.297
 6135SOL    HW119304   0.686   0.005   2.354
 6135SOL    HW219305   0.729   0.042   2.201
 6136SOL     OW19306   0.840   2.358   2.820
 6136SOL    HW119307   0.746   2.393   2.827
 6136SOL    HW219308   0.904   2.435   2.815
 6137SOL     OW19309   6.113   2.466   3.652
 6137SOL    HW119310   6.099   2.518   3.568
 6137SOL    HW219311   6.058   2.505   3.725
 6138SOL     OW19312   4.590   6.148   3.029
 6138SOL    HW119313   4.659   6.084   3.063
 6138SOL    HW219314   4.597   6.156   2.930
 6139SOL     OW19315   1.215   1.962   5.900
 6139SOL    HW119316   1.312   1.974   5.879
 6139SOL    HW219317   1.201   1.975   5.998
 6140SOL     OW19318   0.464   6.581   1.514
 6140SOL    HW119319   0.432   6.649   1.448
 6140SOL    HW219320   0.385   6.540   1.560
 6141SOL     OW19321   6.697   5.697   6.266
 6141SOL    HW119322   6.697   5.638   6.185
 6141SOL    HW219323   6.643   5.654   6.338
 6142SOL     OW19324   0.872   5.653   1.016
 6142SOL    HW119325   0.803   5.585   0.989
 6142SOL    HW219326   0.963   5.615   1.003
 6143SOL     OW19327   7.001   4.109   0.997
 6143SOL    HW119328   7.004   4.023   0.946
 6143SOL    HW219329   6.959   4.180   0.940
 6144SOL     OW19330   6.487   4.313   3.164
 6144SOL    HW119331   6.465   4.353   3.253
 6144SOL    HW219332   6.549   4.374   3.115
 6145SOL     OW19333   4.403   5.439   3.539
 6145SOL    HW119334   4.446   5.524   3.569
 6145SOL    HW219335   4.382   5.382   3.618
 6146SOL     OW19336   3.341   6.786   3.817
 6146SOL    HW119337   3.289   6.747   3.741
 6146SOL    HW219338   3.392   6.713   3.863
 6147SOL     OW19339   1.201   3.212   4.727
 6147SOL    HW119340   1.127   3.278   4.740
 6147SOL    HW219341   1.289   3.260   4.727
 6148SOL     OW19342   6.756   0.433   4.208
 6148SOL    HW119343   6.662   0.400   4.204
 6148SOL    HW219344   6.817   0.356   4.229
 6149SOL     OW19345   3.564   5.252   1.259
 6149SOL    HW119346   3.596   5.343   1.231
 6149SOL    HW219347   3.470   5.258   1.291
 6150SOL     OW19348   4.638   5.280   6.684
 6150SOL    HW119349   4.735   5.264   6.704
 6150SOL    HW219350   4.623   5.279   6.586
 6151SOL     OW19351   5.674   4.836   5.364
 6151SOL    HW119352   5.663   4.765   5.295
 6151SOL    HW219353   5.709   4.795   5.448
 6152SOL     OW19354   6.506   5.881   5.217
 6152SOL    HW119355   6.514   5.810   5.286
 6152SOL    HW219356   6.478   5.840   5.130
 6153SOL     OW19357   5.535   3.962   1.522
 6153SOL    HW119358   5.585   4.048   1.533
 6153SOL    HW219359   5.479   3.945   1.603
 6154SOL     OW19360   5.949   2.373   2.463
 6154SOL    HW119361   5.873   2.314   2.489
 6154SOL    HW219362   6.017   2.374   2.537
 6155SOL     OW19363   1.854   2.184   4.535
 6155SOL    HW119364   1.932   2.163   4.477
 6155SOL    HW219365   1.770   2.156   4.489
 6156SOL     OW19366   4.254   4.686   1.611
 6156SOL    HW119367   4.328   4.628   1.577
 6156SOL    HW219368   4.203   4.725   1.534
 6157SOL     OW19369   1.085   1.218   4.178
 6157SOL    HW119370   1.075   1.289   4.247
 6157SOL    HW219371   1.090   1.129   4.223
 6158SOL     OW19372   4.632   1.056   6.104
 6158SOL    HW119373   4.591   0.967   6.123
 6158SOL    HW219374   4.645   1.106   6.190
 6159SOL     OW19375   5.080   2.428   1.462
 6159SOL    HW119376   5.149   2.473   1.405
 6159SOL    HW219377   5.038   2.495   1.523
 6160SOL     OW19378   5.126   0.529   6.373
 6160SOL    HW119379   5.209   0.492   6.333
 6160SOL    HW219380   5.078   0.458   6.424
 6161SOL     OW19381   5.073   1.702   4.393
 6161SOL    HW119382   5.094   1.674   4.487
 6161SOL    HW219383   5.139   1.770   4.363
 6162SOL     OW19384   1.545   6.604   3.484
 6162SOL    HW119385   1.530   6.572   3.578
 6162SOL    HW219386   1.459   6.637   3.445
 6163SOL     OW19387   6.439   6.164   1.031
 6163SOL    HW119388   6.355   6.205   1.067
 6163SOL    HW219389   6.518   6.199   1.083
 6164SOL     OW19390   3.346   2.789   2.051
 6164SOL    HW119391   3.335   2.888   2.051
 6164SOL    HW219392   3.443   2.765   2.044
 6165SOL     OW19393   4.627   1.007   6.523
 6165SOL    HW119394   4.588   1.029   6.612
 6165SOL    HW219395   4.611   1.082   6.460
 6166SOL     OW19396   4.751   1.374   6.232
 6166SOL    HW119397   4.750   1.474   6.233
 6166SOL    HW219398   4.842   1.342   6.206
 6167SOL     OW19399   0.781   4.016   3.674
 6167SOL    HW119400   0.716   4.078   3.718
 6167SOL    HW219401   0.747   3.923   3.680
 6168SOL     OW19402   0.849   3.480   0.854
 6168SOL    HW119403   0.935   3.434   0.833
 6168SOL    HW219404   0.867   3.576   0.877
 6169SOL     OW19405   1.694   2.697   1.170
 6169SOL    HW119406   1.686   2.795   1.190
 6169SOL    HW219407   1.602   2.657   1.165
 6170SOL     OW19408   1.179   3.628   5.237
 6170SOL    HW119409   1.279   3.629   5.240
 6170SOL    HW219410   1.149   3.607   5.144
 6171SOL     OW19411   0.437   2.914   0.638
 6171SOL    HW119412   0.386   2.890   0.721
 6171SOL    HW219413   0.494   2.836   0.611
 6172SOL     OW19414   2.170   2.649   2.309
 6172SOL    HW119415   2.179   2.737   2.263
 6172SOL    HW219416   2.258   2.602   2.308
 6173SOL     OW19417   0.267   5.632   2.479
 6173SOL    HW119418   0.173   5.604   2.495
 6173SOL    HW219419   0.269   5.729   2.456
 6174SOL     OW19420   4.922   5.973   4.037
 6174SOL    HW119421   4.853   5.907   4.066
 6174SOL    HW219422   5.011   5.927   4.027
 6175SOL     OW19423   3.653   6.959   3.175
 6175SOL    HW119424   3.580   6.919   3.120
 6175SOL    HW219425   3.720   7.002   3.115
 6176SOL     OW19426   5.120   4.735   5.428
 6176SOL    HW119427   5.154   4.643   5.444
 6176SOL    HW219428   5.069   4.737   5.342
 6177SOL     OW19429   5.700   1.225   1.603
 6177SOL    HW119430   5.617   1.248   1.551
 6177SOL    HW219431   5.772   1.195   1.539
 6178SOL     OW19432   5.182   4.733   2.280
 6178SOL    HW119433   5.262   4.679   2.254
 6178SOL    HW219434   5.101   4.698   2.232
 6179SOL     OW19435   6.787   4.476   3.739
 6179SOL    HW119436   6.692   4.482   3.709
 6179SOL    HW219437   6.831   4.565   3.729
 6180SOL     OW19438   2.438   4.443   0.591
 6180SOL    HW119439   2.477   4.358   0.555
 6180SOL    HW219440   2.395   4.494   0.516
 6181SOL     OW19441   4.770   6.738   6.125
 6181SOL    HW119442   4.814   6.781   6.045
 6181SOL    HW219443   4.747   6.643   6.103
 6182SOL     OW19444   4.791   2.984   4.798
 6182SOL    HW119445   4.742   3.038   4.867
 6182SOL    HW219446   4.879   2.954   4.835
 6183SOL     OW19447   1.259   2.281   3.697
 6183SOL    HW119448   1.293   2.247   3.784
 6183SOL    HW219449   1.265   2.381   3.695
 6184SOL     OW19450   2.853   6.010   0.178
 6184SOL    HW119451   2.756   5.986   0.170
 6184SOL    HW219452   2.881   6.005   0.274
 6185SOL     OW19453   6.992   4.043   6.621
 6185SOL    HW119454   6.922   4.047   6.692
 6185SOL    HW219455   6.970   4.107   6.548
 6186SOL     OW19456   6.914   1.064   0.328
 6186SOL    HW119457   6.894   1.161   0.338
 6186SOL    HW219458   6.949   1.045   0.236
 6187SOL     OW19459   5.331   4.391   4.264
 6187SOL    HW119460   5.419   4.347   4.282
 6187SOL    HW219461   5.288   4.415   4.350
 6188SOL     OW19462   1.833   1.718   6.264
 6188SOL    HW119463   1.831   1.683   6.357
 6188SOL    HW219464   1.746   1.763   6.243
 6189SOL     OW19465   4.245   4.726   2.505
 6189SOL    HW119466   4.287   4.674   2.430
 6189SOL    HW219467   4.231   4.666   2.584
 6190SOL     OW19468   0.549   3.819   5.769
 6190SOL    HW119469   0.569   3.733   5.723
 6190SOL    HW219470   0.590   3.895   5.717
 6191SOL     OW19471   2.660   2.668   6.655
 6191SOL    HW119472   2.653   2.593   6.589
 6191SOL    HW219473   2.744   2.658   6.709
 6192SOL     OW19474   2.900   2.234   5.972
 6192SOL    HW119475   2.965   2.175   5.923
 6192SOL    HW219476   2.950   2.301   6.027
 6193SOL     OW19477   5.068   5.907   1.329
 6193SOL    HW119478   5.139   5.838   1.314
 6193SOL    HW219479   5.016   5.921   1.245
 6194SOL     OW19480   0.220   0.504   6.514
 6194SOL    HW119481   0.254   0.529   6.424
 6194SOL    HW219482   0.149   0.434   6.505
 6195SOL     OW19483   4.453   5.774   4.479
 6195SOL    HW119484   4.516   5.699   4.458
 6195SOL    HW219485   4.447   5.835   4.400
 6196SOL     OW19486   5.950   4.018   1.333
 6196SOL    HW119487   5.860   4.059   1.323
 6196SOL    HW219488   5.953   3.964   1.418
 6197SOL     OW19489   3.277   5.610   1.278
 6197SOL    HW119490   3.362   5.618   1.227
 6197SOL    HW219491   3.292   5.555   1.360
 6198SOL     OW19492   4.102   6.810   0.847
 6198SOL    HW119493   4.090   6.716   0.815
 6198SOL    HW219494   4.195   6.821   0.883
 6199SOL     OW19495   0.882   0.961   0.445
 6199SOL    HW119496   0.786   0.933   0.443
 6199SOL    HW219497   0.889   1.059   0.431
 6200SOL     OW19498   1.197   1.224   5.719
 6200SOL    HW119499   1.267   1.152   5.716
 6200SOL    HW219500   1.210   1.286   5.642
 6201SOL     OW19501   1.007   3.887   5.884
 6201SOL    HW119502   0.930   3.947   5.903
 6201SOL    HW219503   1.088   3.942   5.865
 6202SOL     OW19504   4.915   1.481   1.592
 6202SOL    HW119505   4.909   1.568   1.641
 6202SOL    HW219506   4.996   1.481   1.533
 6203SOL     OW19507   6.395   5.857   2.239
 6203SOL    HW119508   6.331   5.912   2.185
 6203SOL    HW219509   6.344   5.803   2.306
 6204SOL     OW19510   0.489   6.063   4.332
 6204SOL    HW119511   0.435   6.002   4.391
 6204SOL    HW219512   0.427   6.120   4.278
 6205SOL     OW19513   6.450   5.461   1.318
 6205SOL    HW119514   6.490   5.500   1.235
 6205SOL    HW219515   6.420   5.534   1.378
 6206SOL     OW19516   6.502   1.713   2.647
 6206SOL    HW119517   6.405   1.714   2.622
 6206SOL    HW219518   6.518   1.646   2.719
 6207SOL     OW19519   1.922   5.476   5.335
 6207SOL    HW119520   2.000   5.416   5.315
 6207SOL    HW219521   1.837   5.424   5.326
 6208SOL     OW19522   3.712   2.361   5.311
 6208SOL    HW119523   3.658   2.444   5.318
 6208SOL    HW219524   3.743   2.333   5.401
 6209SOL     OW19525   3.488   5.730   6.775
 6209SOL    HW119526   3.466   5.794   6.848
 6209SOL    HW219527   3.545   5.775   6.707
 6210SOL     OW19528   4.875   3.844   3.280
 6210SOL    HW119529   4.835   3.758   3.251
 6210SOL    HW219530   4.828   3.920   3.234
 6211SOL     OW19531   2.843   6.354   6.383
 6211SOL    HW119532   2.881   6.273   6.429
 6211SOL    HW219533   2.820   6.331   6.289
 6212SOL     OW19534   2.854   4.797   4.777
 6212SOL    HW119535   2.854   4.736   4.856
 6212SOL    HW219536   2.946   4.833   4.761
 6213SOL     OW19537   5.333   0.255   0.271
 6213SOL    HW119538   5.402   0.189   0.299
 6213SOL    HW219539   5.252   0.207   0.237
 6214SOL     OW19540   5.677   5.873   5.301
 6214SOL    HW119541   5.597   5.917   5.342
 6214SOL    HW219542   5.648   5.793   5.249
 6215SOL     OW19543   3.754   2.376   6.908
 6215SOL    HW119544   3.697   2.313   6.960
 6215SOL    HW219545   3.795   2.443   6.970
 6216SOL     OW19546   5.705   2.467   2.681
 6216SOL    HW119547   5.705   2.387   2.621
 6216SOL    HW219548   5.617   2.475   2.727
 6217SOL     OW19549   0.765   3.324   2.009
 6217SOL    HW119550   0.789   3.354   2.102
 6217SOL    HW219551   0.844   3.333   1.949
 6218SOL     OW19552   3.388   6.896   6.807
 6218SOL    HW119553   3.407   6.824   6.741
 6218SOL    HW219554   3.361   6.856   6.895
 6219SOL     OW19555   0.878   1.775   4.907
 6219SOL    HW119556   0.850   1.798   4.813
 6219SOL    HW219557   0.925   1.853   4.947
 6220SOL     OW19558   2.777   1.509   5.300
 6220SOL    HW119559   2.792   1.605   5.277
 6220SOL    HW219560   2.682   1.484   5.281
 6221SOL     OW19561   5.488   6.973   0.405
 6221SOL    HW119562   5.490   6.944   0.309
 6221SOL    HW219563   5.578   7.007   0.431
 6222SOL     OW19564   1.263   6.961   1.938
 6222SOL    HW119565   1.297   6.936   1.847
 6222SOL    HW219566   1.299   6.897   2.006
 6223SOL     OW19567   1.793   4.926   3.475
 6223SOL    HW119568   1.866   4.881   3.527
 6223SOL    HW219569   1.750   4.995   3.531
 6224SOL     OW19570   4.142   1.651   5.959
 6224SOL    HW119571   4.045   1.638   5.941
 6224SOL    HW219572   4.155   1.729   6.020
 6225SOL     OW19573   3.748   1.891   6.251
 6225SOL    HW119574   3.714   1.954   6.320
 6225SOL    HW219575   3.782   1.808   6.295
 6226SOL     OW19576   0.872   1.574   4.203
 6226SOL    HW119577   0.939   1.636   4.162
 6226SOL    HW219578   0.916   1.521   4.275
 6227SOL     OW19579   3.668   4.769   5.541
 6227SOL    HW119580   3.767   4.755   5.534
 6227SOL    HW219581   3.623   4.681   5.558
 6228SOL     OW19582   0.550   2.955   2.326
 6228SOL    HW119583   0.616   2.908   2.268
 6228SOL    HW219584   0.457   2.934   2.296
 6229SOL     OW19585   0.822   1.956   5.391
 6229SOL    HW119586   0.897   2.004   5.344
 6229SOL    HW219587   0.760   1.918   5.323
 6230SOL     OW19588   0.585   2.253   4.211
 6230SOL    HW119589   0.553   2.158   4.212
 6230SOL    HW219590   0.625   2.273   4.121
 6231SOL     OW19591   6.040   5.253   0.291
 6231SOL    HW119592   6.024   5.350   0.274
 6231SOL    HW219593   5.993   5.199   0.221
 6232SOL     OW19594   6.541   1.234   0.899
 6232SOL    HW119595   6.470   1.191   0.955
 6232SOL    HW219596   6.569   1.320   0.942
 6233SOL     OW19597   6.427   3.099   1.681
 6233SOL    HW119598   6.403   3.006   1.710
 6233SOL    HW219599   6.524   3.103   1.659
 6234SOL     OW19600   0.024   6.805   5.746
 6234SOL    HW119601   0.050   6.731   5.683
 6234SOL    HW219602   0.009   6.767   5.837
 6235SOL     OW19603   0.132   0.322   1.336
 6235SOL    HW119604   0.057   0.264   1.305
 6235SOL    HW219605   0.141   0.315   1.435
 6236SOL     OW19606   0.640   4.237   0.801
 6236SOL    HW119607   0.562   4.206   0.747
 6236SOL    HW219608   0.685   4.159   0.844
 6237SOL     OW19609   3.341   0.097   6.946
 6237SOL    HW119610   3.359   0.023   6.881
 6237SOL    HW219611   3.339   0.060   0.017
 6238SOL     OW19612   4.941   5.933   2.672
 6238SOL    HW119613   4.870   5.957   2.738
 6238SOL    HW219614   4.966   5.837   2.683
 6239SOL     OW19615   3.380   1.366   1.306
 6239SOL    HW119616   3.346   1.442   1.251
 6239SOL    HW219617   3.342   1.372   1.398
 6240SOL     OW19618   2.896   3.728   4.959
 6240SOL    HW119619   2.934   3.670   4.887
 6240SOL    HW219620   2.799   3.707   4.971
 6241SOL     OW19621   3.298   0.692   2.836
 6241SOL    HW119622   3.267   0.652   2.749
 6241SOL    HW219623   3.244   0.775   2.855
 6242SOL     OW19624   4.127   6.512   3.180
 6242SOL    HW119625   4.149   6.609   3.170
 6242SOL    HW219626   4.031   6.501   3.206
 6243SOL     OW19627   0.297   6.539   5.394
 6243SOL    HW119628   0.396   6.523   5.394
 6243SOL    HW219629   0.277   6.621   5.341
 6244SOL     OW19630   5.173   3.547   3.455
 6244SOL    HW119631   5.237   3.602   3.401
 6244SOL    HW219632   5.101   3.606   3.491
 6245SOL     OW19633   1.542   3.968   1.689
 6245SOL    HW119634   1.539   3.874   1.656
 6245SOL    HW219635   1.561   4.029   1.612
 6246SOL     OW19636   1.000   1.347   5.036
 6246SOL    HW119637   1.007   1.437   5.081
 6246SOL    HW219638   0.957   1.358   4.947
 6247SOL     OW19639   1.389   6.043   3.257
 6247SOL    HW119640   1.301   6.009   3.224
 6247SOL    HW219641   1.386   6.052   3.357
 6248SOL     OW19642   3.719   3.962   0.159
 6248SOL    HW119643   3.723   4.014   0.244
 6248SOL    HW219644   3.812   3.950   0.123
 6249SOL     OW19645   7.003   3.323   0.641
 6249SOL    HW119646   6.973   3.256   0.573
 6249SOL    HW219647   0.042   3.389   0.599
 6250SOL     OW19648   6.367   6.605   1.231
 6250SOL    HW119649   6.460   6.581   1.203
 6250SOL    HW219650   6.350   6.572   1.323
 6251SOL     OW19651   4.274   6.010   5.144
 6251SOL    HW119652   4.205   6.030   5.214
 6251SOL    HW219653   4.229   5.998   5.055
 6252SOL     OW19654   2.766   4.677   6.216
 6252SOL    HW119655   2.835   4.621   6.262
 6252SOL    HW219656   2.758   4.765   6.264
 6253SOL     OW19657   2.696   5.028   4.337
 6253SOL    HW119658   2.618   4.983   4.295
 6253SOL    HW219659   2.752   4.960   4.385
 6254SOL     OW19660   5.939   0.959   1.321
 6254SOL    HW119661   5.863   0.895   1.333
 6254SOL    HW219662   5.920   1.043   1.372
 6255SOL     OW19663   2.542   1.632   1.068
 6255SOL    HW119664   2.605   1.637   1.145
 6255SOL    HW219665   2.469   1.566   1.088
 6256SOL     OW19666   4.015   5.385   1.952
 6256SOL    HW119667   3.971   5.342   1.874
 6256SOL    HW219668   3.984   5.480   1.960
 6257SOL     OW19669   4.108   3.105   0.014
 6257SOL    HW119670   4.180   3.102   0.083
 6257SOL    HW219671   4.020   3.123   0.058
 6258SOL     OW19672   3.330   6.624   4.211
 6258SOL    HW119673   3.245   6.675   4.196
 6258SOL    HW219674   3.331   6.543   4.152
 6259SOL     OW19675   1.961   0.453   6.486
 6259SOL    HW119676   1.953   0.512   6.566
 6259SOL    HW219677   1.986   0.361   6.515
 6260SOL     OW19678   3.437   6.336   0.062
 6260SOL    HW119679   3.339   6.321   0.059
 6260SOL    HW219680   3.470   6.323   0.156
 6261SOL     OW19681   5.353   0.498   0.151
 6261SOL    HW119682   5.438   0.516   0.101
 6261SOL    HW219683   5.360   0.410   0.198
 6262SOL     OW19684   2.006   5.783   1.912
 6262SOL    HW119685   1.958   5.869   1.896
 6262SOL    HW219686   2.098   5.789   1.872
 6263SOL     OW19687   1.063   6.752   4.535
 6263SOL    HW119688   1.028   6.670   4.489
 6263SOL    HW219689   1.004   6.775   4.612
 6264SOL     OW19690   2.249   0.258   2.125
 6264SOL    HW119691   2.207   0.283   2.038
 6264SOL    HW219692   2.183   0.209   2.182
 6265SOL     OW19693   3.958   3.437   0.896
 6265SOL    HW119694   4.023   3.507   0.864
 6265SOL    HW219695   3.989   3.401   0.984
 6266SOL     OW19696   4.597   0.241   3.379
 6266SOL    HW119697   4.531   0.211   3.448
 6266SOL    HW219698   4.561   0.322   3.332
 6267SOL     OW19699   2.334   6.958   5.073
 6267SOL    HW119700   2.295   7.008   4.996
 6267SOL    HW219701   2.406   6.897   5.041
 6268SOL     OW19702   2.727   0.584   1.826
 6268SOL    HW119703   2.819   0.584   1.787
 6268SOL    HW219704   2.725   0.529   1.909
 6269SOL     OW19705   6.942   0.474   2.195
 6269SOL    HW119706   6.916   0.454   2.100
 6269SOL    HW219707   0.005   0.526   2.195
 6270SOL     OW19708   0.321   0.082   6.769
 6270SOL    HW119709   0.227   0.107   6.746
 6270SOL    HW219710   0.351   0.007   6.709
 6271SOL     OW19711   5.967   2.514   5.742
 6271SOL    HW119712   5.978   2.573   5.822
 6271SOL    HW219713   5.888   2.545   5.688
 6272SOL     OW19714   0.615   2.118   0.733
 6272SOL    HW119715   0.649   2.048   0.796
 6272SOL    HW219716   0.692   2.176   0.705
 6273SOL     OW19717   0.534   6.543   2.635
 6273SOL    HW119718   0.494   6.469   2.689
 6273SOL    HW219719   0.559   6.507   2.545
 6274SOL     OW19720   3.480   0.028   4.367
 6274SOL    HW119721   3.386   0.034   4.332
 6274SOL    HW219722   3.479   7.004   4.456
 6275SOL     OW19723   1.923   6.304   0.054
 6275SOL    HW119724   1.934   6.385   7.019
 6275SOL    HW219725   1.826   6.288   0.072
 6276SOL     OW19726   2.585   5.700   2.998
 6276SOL    HW119727   2.519   5.625   2.998
 6276SOL    HW219728   2.678   5.662   3.002
 6277SOL     OW19729   4.671   3.215   0.780
 6277SOL    HW119730   4.583   3.182   0.815
 6277SOL    HW219731   4.686   3.309   0.809
 6278SOL     OW19732   4.080   0.281   4.735
 6278SOL    HW119733   4.144   0.209   4.761
 6278SOL    HW219734   4.018   0.247   4.665
 6279SOL     OW19735   3.427   6.268   0.333
 6279SOL    HW119736   3.343   6.218   0.310
 6279SOL    HW219737   3.450   6.254   0.429
 6280SOL     OW19738   0.162   0.747   6.608
 6280SOL    HW119739   0.187   0.651   6.607
 6280SOL    HW219740   0.229   0.799   6.660
 6281SOL     OW19741   6.609   4.755   4.115
 6281SOL    HW119742   6.519   4.723   4.085
 6281SOL    HW219743   6.656   4.681   4.164
 6282SOL     OW19744   6.461   4.458   5.585
 6282SOL    HW119745   6.437   4.499   5.673
 6282SOL    HW219746   6.533   4.391   5.598
 6283SOL     OW19747   0.068   3.997   4.070
 6283SOL    HW119748   0.028   3.905   4.073
 6283SOL    HW219749   0.168   3.990   4.073
 6284SOL     OW19750   1.738   4.837   6.022
 6284SOL    HW119751   1.662   4.781   5.990
 6284SOL    HW219752   1.779   4.885   5.945
 6285SOL     OW19753   1.110   3.211   3.222
 6285SOL    HW119754   1.122   3.112   3.229
 6285SOL    HW219755   1.059   3.233   3.139
 6286SOL     OW19756   6.977   3.130   4.664
 6286SOL    HW119757   0.052   3.108   4.673
 6286SOL    HW219758   6.948   3.113   4.569
 6287SOL     OW19759   3.380   4.615   5.339
 6287SOL    HW119760   3.281   4.599   5.331
 6287SOL    HW219761   3.411   4.672   5.263
 6288SOL     OW19762   5.630   4.771   1.741
 6288SOL    HW119763   5.720   4.735   1.764
 6288SOL    HW219764   5.632   4.809   1.648
 6289SOL     OW19765   2.350   5.007   6.822
 6289SOL    HW119766   2.346   4.907   6.824
 6289SOL    HW219767   2.443   5.036   6.800
 6290SOL     OW19768   5.835   5.001   5.897
 6290SOL    HW119769   5.812   5.051   5.814
 6290SOL    HW219770   5.900   5.054   5.952
 6291SOL     OW19771   3.963   3.981   3.962
 6291SOL    HW119772   3.908   4.025   3.892
 6291SOL    HW219773   4.037   3.930   3.919
 6292SOL     OW19774   2.553   2.315   5.409
 6292SOL    HW119775   2.496   2.294   5.330
 6292SOL    HW219776   2.624   2.381   5.383
 6293SOL     OW19777   4.668   1.727   0.606
 6293SOL    HW119778   4.572   1.720   0.635
 6293SOL    HW219779   4.717   1.787   0.669
 6294SOL     OW19780   4.043   0.507   3.231
 6294SOL    HW119781   4.042   0.426   3.291
 6294SOL    HW219782   3.950   0.535   3.211
 6295SOL     OW19783   5.616   4.169   4.613
 6295SOL    HW119784   5.706   4.127   4.605
 6295SOL    HW219785   5.556   4.110   4.668
 6296SOL     OW19786   6.835   4.776   5.779
 6296SOL    HW119787   6.861   4.695   5.725
 6296SOL    HW219788   6.874   4.858   5.738
 6297SOL     OW19789   6.116   0.533   5.159
 6297SOL    HW119790   6.084   0.469   5.090
 6297SOL    HW219791   6.085   0.503   5.249
 6298SOL     OW19792   0.905   3.523   6.489
 6298SOL    HW119793   0.986   3.570   6.452
 6298SOL    HW219794   0.827   3.586   6.488
 6299SOL     OW19795   6.264   2.895   1.872
 6299SOL    HW119796   6.279   2.957   1.949
 6299SOL    HW219797   6.166   2.887   1.854
 6300SOL     OW19798   6.361   0.916   0.220
 6300SOL    HW119799   6.385   0.856   0.296
 6300SOL    HW219800   6.441   0.970   0.193
 6301SOL     OW19801   2.613   6.573   0.290
 6301SOL    HW119802   2.674   6.501   0.258
 6301SOL    HW219803   2.616   6.650   0.227
 6302SOL     OW19804   1.947   2.103   4.982
 6302SOL    HW119805   1.984   2.184   5.029
 6302SOL    HW219806   1.852   2.121   4.955
 6303SOL     OW19807   0.414   0.306   5.661
 6303SOL    HW119808   0.397   0.362   5.580
 6303SOL    HW219809   0.415   0.209   5.635
 6304SOL     OW19810   3.850   1.390   1.807
 6304SOL    HW119811   3.778   1.321   1.809
 6304SOL    HW219812   3.815   1.472   1.761
 6305SOL     OW19813   6.217   5.906   0.383
 6305SOL    HW119814   6.230   5.940   0.290
 6305SOL    HW219815   6.120   5.903   0.404
 6306SOL     OW19816   7.018   3.747   4.113
 6306SOL    HW119817   6.950   3.730   4.185
 6306SOL    HW219818   0.001   3.667   4.053
 6307SOL     OW19819   3.162   3.301   3.642
 6307SOL    HW119820   3.216   3.281   3.560
 6307SOL    HW219821   3.109   3.384   3.627
 6308SOL     OW19822   1.582   2.441   4.755
 6308SOL    HW119823   1.515   2.375   4.722
 6308SOL    HW219824   1.668   2.394   4.775
 6309SOL     OW19825   6.882   6.411   4.403
 6309SOL    HW119826   6.808   6.447   4.346
 6309SOL    HW219827   6.861   6.316   4.428
 6310SOL     OW19828   1.299   6.578   2.680
 6310SOL    HW119829   1.389   6.560   2.718
 6310SOL    HW219830   1.270   6.670   2.705
 6311SOL     OW19831   5.025   1.962   5.517
 6311SOL    HW119832   4.973   2.042   5.487
 6311SOL    HW219833   5.051   1.974   5.613
 6312SOL     OW19834   0.855   7.012   5.282
 6312SOL    HW119835   0.830   6.943   5.214
 6312SOL    HW219836   0.884   6.968   5.366
 6313SOL     OW19837   6.454   6.233   3.757
 6313SOL    HW119838   6.419   6.325   3.737
 6313SOL    HW219839   6.532   6.240   3.819
 6314SOL     OW19840   3.691   6.917   1.859
 6314SOL    HW119841   3.637   6.873   1.931
 6314SOL    HW219842   3.631   6.975   1.804
 6315SOL     OW19843   3.558   1.741   5.881
 6315SOL    HW119844   3.509   1.796   5.949
 6315SOL    HW219845   3.516   1.754   5.791
 6316SOL     OW19846   5.191   2.486   5.455
 6316SOL    HW119847   5.173   2.401   5.503
 6316SOL    HW219848   5.137   2.489   5.370
 6317SOL     OW19849   5.023   4.616   2.071
 6317SOL    HW119850   5.101   4.640   2.013
 6317SOL    HW219851   5.011   4.517   2.071
 6318SOL     OW19852   4.663   0.735   6.134
 6318SOL    HW119853   4.683   0.773   6.044
 6318SOL    HW219854   4.668   0.635   6.130
 6319SOL     OW19855   6.538   2.659   5.456
 6319SOL    HW119856   6.491   2.641   5.543
 6319SOL    HW219857   6.615   2.596   5.447
 6320SOL     OW19858   0.001   6.575   4.910
 6320SOL    HW119859   7.022   6.484   4.952
 6320SOL    HW219860   6.952   6.581   4.840
 6321SOL     OW19861   4.369   3.147   0.814
 6321SOL    HW119862   4.274   3.175   0.825
 6321SOL    HW219863   4.388   3.131   0.717
 6322SOL     OW19864   2.865   2.627   0.674
 6322SOL    HW119865   2.832   2.661   0.762
 6322SOL    HW219866   2.902   2.703   0.620
 6323SOL     OW19867   1.255   2.033   1.973
 6323SOL    HW119868   1.326   2.048   1.904
 6323SOL    HW219869   1.291   2.058   2.063
 6324SOL     OW19870   4.018   0.839   0.604
 6324SOL    HW119871   4.021   0.830   0.703
 6324SOL    HW219872   4.109   0.823   0.566
 6325SOL     OW19873   1.716   3.088   2.627
 6325SOL    HW119874   1.739   3.028   2.551
 6325SOL    HW219875   1.659   3.163   2.593
 6326SOL     OW19876   5.274   4.924   0.415
 6326SOL    HW119877   5.223   4.982   0.352
 6326SOL    HW219878   5.357   4.890   0.370
 6327SOL     OW19879   7.005   1.965   4.201
 6327SOL    HW119880   7.012   2.053   4.248
 6327SOL    HW219881   6.953   1.901   4.257
 6328SOL     OW19882   4.547   3.251   0.182
 6328SOL    HW119883   4.568   3.302   0.099
 6328SOL    HW219884   4.630   3.204   0.214
 6329SOL     OW19885   1.361   2.591   4.949
 6329SOL    HW119886   1.441   2.548   4.907
 6329SOL    HW219887   1.372   2.592   5.048
 6330SOL     OW19888   6.002   6.805   2.098
 6330SOL    HW119889   5.943   6.802   2.017
 6330SOL    HW219890   5.975   6.881   2.156
 6331SOL     OW19891   6.991   3.966   4.779
 6331SOL    HW119892   6.936   3.897   4.825
 6331SOL    HW219893   7.001   3.942   4.683
 6332SOL     OW19894   0.627   2.727   1.148
 6332SOL    HW119895   0.618   2.635   1.184
 6332SOL    HW219896   0.712   2.767   1.180
 6333SOL     OW19897   5.230   0.115   5.447
 6333SOL    HW119898   5.256   0.211   5.437
 6333SOL    HW219899   5.253   0.066   5.363
 6334SOL     OW19900   3.112   0.758   2.347
 6334SOL    HW119901   3.061   0.795   2.269
 6334SOL    HW219902   3.049   0.724   2.416
 6335SOL     OW19903   3.920   0.767   0.260
 6335SOL    HW119904   3.885   0.674   0.271
 6335SOL    HW219905   3.858   0.832   0.305
 6336SOL     OW19906   0.345   1.967   6.425
 6336SOL    HW119907   0.304   1.961   6.334
 6336SOL    HW219908   0.412   2.042   6.427
 6337SOL     OW19909   4.020   5.125   4.499
 6337SOL    HW119910   4.001   5.034   4.535
 6337SOL    HW219911   3.934   5.174   4.481
 6338SOL     OW19912   2.407   2.498   4.155
 6338SOL    HW119913   2.493   2.448   4.139
 6338SOL    HW219914   2.422   2.568   4.225
 6339SOL     OW19915   0.444   3.355   4.329
 6339SOL    HW119916   0.420   3.425   4.262
 6339SOL    HW219917   0.413   3.266   4.297
 6340SOL     OW19918   2.249   4.171   0.949
 6340SOL    HW119919   2.343   4.166   0.915
 6340SOL    HW219920   2.246   4.142   1.044
 6341SOL     OW19921   6.479   3.391   4.808
 6341SOL    HW119922   6.391   3.431   4.782
 6341SOL    HW219923   6.549   3.463   4.808
 6342SOL     OW19924   2.870   1.477   0.954
 6342SOL    HW119925   2.932   1.556   0.954
 6342SOL    HW219926   2.807   1.484   0.877
 6343SOL     OW19927   3.877   0.358   6.834
 6343SOL    HW119928   3.875   0.407   6.746
 6343SOL    HW219929   3.850   0.420   6.907
 6344SOL     OW19930   4.810   2.333   3.851
 6344SOL    HW119931   4.881   2.302   3.914
 6344SOL    HW219932   4.744   2.389   3.900
 6345SOL     OW19933   4.960   2.444   1.824
 6345SOL    HW119934   4.904   2.415   1.746
 6345SOL    HW219935   5.032   2.505   1.791
 6346SOL     OW19936   0.171   5.411   4.736
 6346SOL    HW119937   0.222   5.473   4.795
 6346SOL    HW219938   0.078   5.401   4.770
 6347SOL     OW19939   1.890   1.654   0.619
 6347SOL    HW119940   1.838   1.641   0.703
 6347SOL    HW219941   1.854   1.732   0.569
 6348SOL     OW19942   1.284   2.931   6.839
 6348SOL    HW119943   1.283   2.831   6.834
 6348SOL    HW219944   1.327   2.959   6.925
 6349SOL     OW19945   1.853   1.264   0.993
 6349SOL    HW119946   1.849   1.203   1.072
 6349SOL    HW219947   1.825   1.356   1.020
 6350SOL     OW19948   0.788   5.219   4.223
 6350SOL    HW119949   0.829   5.203   4.313
 6350SOL    HW219950   0.711   5.156   4.210
 6351SOL     OW19951   5.816   3.477   3.759
 6351SOL    HW119952   5.839   3.541   3.832
 6351SOL    HW219953   5.745   3.413   3.791
 6352SOL     OW19954   3.005   0.599   4.795
 6352SOL    HW119955   2.910   0.582   4.767
 6352SOL    HW219956   3.066   0.580   4.719
 6353SOL     OW19957   1.183   5.888   5.703
 6353SOL    HW119958   1.146   5.877   5.611
 6353SOL    HW219959   1.276   5.851   5.706
 6354SOL     OW19960   3.511   6.027   2.847
 6354SOL    HW119961   3.445   5.973   2.899
 6354SOL    HW219962   3.480   6.122   2.841
 6355SOL     OW19963   3.080   5.493   6.963
 6355SOL    HW119964   3.178   5.495   6.944
 6355SOL    HW219965   3.065   5.455   0.033
 6356SOL     OW19966   5.816   4.605   0.816
 6356SOL    HW119967   5.773   4.682   0.770
 6356SOL    HW219968   5.915   4.609   0.803
 6357SOL     OW19969   5.761   3.824   2.283
 6357SOL    HW119970   5.680   3.880   2.267
 6357SOL    HW219971   5.733   3.735   2.319
 6358SOL     OW19972   0.072   1.817   6.186
 6358SOL    HW119973   0.094   1.768   6.271
 6358SOL    HW219974   0.146   1.880   6.164
 6359SOL     OW19975   6.034   6.719   6.986
 6359SOL    HW119976   6.062   6.808   6.950
 6359SOL    HW219977   5.940   6.726   7.020
 6360SOL     OW19978   1.101   3.624   4.971
 6360SOL    HW119979   1.051   3.709   4.986
 6360SOL    HW219980   1.038   3.553   4.941
 6361SOL     OW19981   1.107   1.131   0.834
 6361SOL    HW119982   1.140   1.218   0.797
 6361SOL    HW219983   1.084   1.069   0.759
 6362SOL     OW19984   0.525   5.538   5.938
 6362SOL    HW119985   0.499   5.486   6.019
 6362SOL    HW219986   0.622   5.563   5.944
 6363SOL     OW19987   2.571   5.665   3.612
 6363SOL    HW119988   2.622   5.635   3.693
 6363SOL    HW219989   2.620   5.739   3.568
 6364SOL     OW19990   3.017   2.188   5.459
 6364SOL    HW119991   2.920   2.164   5.452
 6364SOL    HW219992   3.031   2.282   5.428
 6365SOL     OW19993   5.045   6.366   4.136
 6365SOL    HW119994   5.139   6.373   4.104
 6365SOL    HW219995   5.034   6.282   4.189
 6366SOL     OW19996   0.809   5.774   5.189
 6366SOL    HW119997   0.846   5.724   5.267
 6366SOL    HW219998   0.794   5.869   5.214
 6367SOL     OW19999   3.498   2.068   3.321
 6367SOL    HW120000   3.460   1.985   3.281
 6367SOL    HW220001   3.452   2.087   3.408
 6368SOL     OW20002   3.867   4.906   4.306
 6368SOL    HW120003   3.796   4.950   4.251
 6368SOL    HW220004   3.950   4.894   4.252
 6369SOL     OW20005   1.566   0.601   4.667
 6369SOL    HW120006   1.639   0.667   4.681
 6369SOL    HW220007   1.601   0.508   4.679
 6370SOL     OW20008   5.431   3.953   3.567
 6370SOL    HW120009   5.333   3.973   3.564
 6370SOL    HW220010   5.473   3.982   3.481
 6371SOL     OW20011   5.901   4.503   3.009
 6371SOL    HW120012   5.968   4.511   3.083
 6371SOL    HW220013   5.810   4.524   3.045
 6372SOL     OW20014   1.233   1.068   2.010
 6372SOL    HW120015   1.234   1.053   2.108
 6372SOL    HW220016   1.151   1.026   1.970
 6373SOL     OW20017   5.388   4.415   3.057
 6373SOL    HW120018   5.334   4.424   2.973
 6373SOL    HW220019   5.327   4.401   3.135
 6374SOL     OW20020   4.120   3.471   1.593
 6374SOL    HW120021   4.209   3.513   1.612
 6374SOL    HW220022   4.116   3.381   1.636
 6375SOL     OW20023   0.109   2.492   2.295
 6375SOL    HW120024   0.100   2.504   2.394
 6375SOL    HW220025   0.025   2.453   2.258
 6376SOL     OW20026   4.673   2.156   6.616
 6376SOL    HW120027   4.678   2.075   6.674
 6376SOL    HW220028   4.603   2.219   6.651
 6377SOL     OW20029   6.430   1.552   5.151
 6377SOL    HW120030   6.486   1.591   5.078
 6377SOL    HW220031   6.361   1.618   5.180
 6378SOL     OW20032   5.373   5.190   3.622
 6378SOL    HW120033   5.415   5.263   3.568
 6378SOL    HW220034   5.313   5.135   3.563
 6379SOL     OW20035   0.225   4.069   4.933
 6379SOL    HW120036   0.186   4.029   5.016
 6379SOL    HW220037   0.155   4.073   4.862
 6380SOL     OW20038   0.466   1.943   5.222
 6380SOL    HW120039   0.463   1.970   5.125
 6380SOL    HW220040   0.498   1.849   5.230
 6381SOL     OW20041   4.305   2.998   1.040
 6381SOL    HW120042   4.371   3.038   0.975
 6381SOL    HW220043   4.348   2.990   1.130
 6382SOL     OW20044   3.053   1.612   0.230
 6382SOL    HW120045   3.042   1.655   0.141
 6382SOL    HW220046   3.015   1.519   0.227
 6383SOL     OW20047   2.496   2.545   2.558
 6383SOL    HW120048   2.574   2.485   2.572
 6383SOL    HW220049   2.473   2.547   2.461
 6384SOL     OW20050   5.699   3.914   2.973
 6384SOL    HW120051   5.771   3.899   2.906
 6384SOL    HW220052   5.610   3.891   2.933
 6385SOL     OW20053   6.684   3.614   3.409
 6385SOL    HW120054   6.738   3.597   3.491
 6385SOL    HW220055   6.625   3.693   3.423
 6386SOL     OW20056   2.742   3.269   6.363
 6386SOL    HW120057   2.701   3.345   6.313
 6386SOL    HW220058   2.758   3.193   6.300
 6387SOL     OW20059   6.527   1.587   6.913
 6387SOL    HW120060   6.487   1.677   6.894
 6387SOL    HW220061   6.565   1.587   7.006
 6388SOL     OW20062   5.278   5.721   1.075
 6388SOL    HW120063   5.197   5.666   1.053
 6388SOL    HW220064   5.252   5.817   1.081
 6389SOL     OW20065   0.572   6.871   0.768
 6389SOL    HW120066   0.479   6.897   0.790
 6389SOL    HW220067   0.628   6.871   0.851
 6390SOL     OW20068   6.365   0.591   5.296
 6390SOL    HW120069   6.290   0.603   5.230
 6390SOL    HW220070   6.383   0.494   5.308
 6391SOL     OW20071   1.946   0.834   6.501
 6391SOL    HW120072   2.032   0.782   6.508
 6391SOL    HW220073   1.894   0.823   6.586
 6392SOL     OW20074   2.839   4.728   2.831
 6392SOL    HW120075   2.765   4.699   2.892
 6392SOL    HW220076   2.926   4.689   2.863
 6393SOL     OW20077   0.050   5.982   2.202
 6393SOL    HW120078   0.069   6.080   2.211
 6393SOL    HW220079   0.002   5.965   2.116
 6394SOL     OW20080   1.385   5.237   0.909
 6394SOL    HW120081   1.354   5.264   1.000
 6394SOL    HW220082   1.359   5.307   0.843
 6395SOL     OW20083   6.692   3.092   1.798
 6395SOL    HW120084   6.646   3.014   1.839
 6395SOL    HW220085   6.649   3.177   1.830
 6396SOL     OW20086   6.495   3.672   6.269
 6396SOL    HW120087   6.460   3.632   6.184
 6396SOL    HW220088   6.434   3.649   6.344
 6397SOL     OW20089   5.768   1.047   1.813
 6397SOL    HW120090   5.857   1.030   1.770
 6397SOL    HW220091   5.727   1.129   1.773
 6398SOL     OW20092   3.125   6.922   1.748
 6398SOL    HW120093   3.202   6.860   1.730
 6398SOL    HW220094   3.107   6.925   1.846
 6399SOL     OW20095   1.687   0.494   6.780
 6399SOL    HW120096   1.782   0.515   6.757
 6399SOL    HW220097   1.674   0.395   6.776
 6400SOL     OW20098   1.892   4.814   2.446
 6400SOL    HW120099   1.866   4.834   2.540
 6400SOL    HW220100   1.961   4.742   2.445
 6401SOL     OW20101   5.357   5.512   2.838
 6401SOL    HW120102   5.368   5.425   2.887
 6401SOL    HW220103   5.383   5.500   2.742
 6402SOL     OW20104   2.171   3.208   3.683
 6402SOL    HW120105   2.207   3.196   3.775
 6402SOL    HW220106   2.106   3.285   3.682
 6403SOL     OW20107   5.935   6.076   5.497
 6403SOL    HW120108   5.973   6.112   5.411
 6403SOL    HW220109   5.858   6.133   5.525
 6404SOL     OW20110   4.396   1.423   2.650
 6404SOL    HW120111   4.306   1.385   2.671
 6404SOL    HW220112   4.461   1.348   2.634
 6405SOL     OW20113   4.284   0.629   4.188
 6405SOL    HW120114   4.222   0.634   4.110
 6405SOL    HW220115   4.269   0.543   4.237
 6406SOL     OW20116   0.423   2.770   2.687
 6406SOL    HW120117   0.366   2.853   2.686
 6406SOL    HW220118   0.519   2.796   2.691
 6407SOL     OW20119   2.484   0.050   4.703
 6407SOL    HW120120   2.507   6.981   4.736
 6407SOL    HW220121   2.501   0.056   4.605
 6408SOL     OW20122   5.115   1.479   1.429
 6408SOL    HW120123   5.064   1.539   1.368
 6408SOL    HW220124   5.139   1.395   1.381
 6409SOL     OW20125   6.687   4.371   3.460
 6409SOL    HW120126   6.658   4.465   3.472
 6409SOL    HW220127   6.779   4.368   3.421
 6410SOL     OW20128   1.850   1.207   6.213
 6410SOL    HW120129   1.913   1.150   6.265
 6410SOL    HW220130   1.896   1.290   6.184
 6411SOL     OW20131   0.620   2.493   2.551
 6411SOL    HW120132   0.646   2.419   2.613
 6411SOL    HW220133   0.676   2.573   2.570
 6412SOL     OW20134   1.764   1.093   5.985
 6412SOL    HW120135   1.687   1.151   5.958
 6412SOL    HW220136   1.796   1.118   6.076
 6413SOL     OW20137   3.778   4.879   3.857
 6413SOL    HW120138   3.792   4.920   3.767
 6413SOL    HW220139   3.863   4.835   3.888
 6414SOL     OW20140   4.999   0.928   6.765
 6414SOL    HW120141   4.968   0.941   6.671
 6414SOL    HW220142   4.971   0.838   6.797
 6415SOL     OW20143   1.404   3.180   4.052
 6415SOL    HW120144   1.311   3.167   4.019
 6415SOL    HW220145   1.468   3.174   3.976
 6416SOL     OW20146   2.224   6.527   6.384
 6416SOL    HW120147   2.133   6.568   6.378
 6416SOL    HW220148   2.226   6.442   6.331
 6417SOL     OW20149   5.911   3.656   0.666
 6417SOL    HW120150   5.962   3.735   0.701
 6417SOL    HW220151   5.923   3.650   0.566
 6418SOL     OW20152   4.788   4.053   3.152
 6418SOL    HW120153   4.781   4.046   3.053
 6418SOL    HW220154   4.749   4.141   3.182
 6419SOL     OW20155   1.504   5.231   3.003
 6419SOL    HW120156   1.454   5.306   3.048
 6419SOL    HW220157   1.589   5.267   2.964
 6420SOL     OW20158   2.618   0.801   4.211
 6420SOL    HW120159   2.658   0.827   4.298
 6420SOL    HW220160   2.625   0.877   4.146
 6421SOL     OW20161   4.837   0.121   1.476
 6421SOL    HW120162   4.904   0.162   1.537
 6421SOL    HW220163   4.882   0.089   1.393
 6422SOL     OW20164   6.576   1.565   4.898
 6422SOL    HW120165   6.650   1.632   4.898
 6422SOL    HW220166   6.610   1.478   4.863
 6423SOL     OW20167   5.096   5.012   4.428
 6423SOL    HW120168   5.152   4.929   4.423
 6423SOL    HW220169   5.092   5.043   4.523
 6424SOL     OW20170   0.573   3.865   4.666
 6424SOL    HW120171   0.541   3.865   4.761
 6424SOL    HW220172   0.526   3.794   4.614
 6425SOL     OW20173   6.554   5.994   3.047
 6425SOL    HW120174   6.544   5.945   2.960
 6425SOL    HW220175   6.618   6.069   3.036
 6426SOL     OW20176   6.868   5.362   3.141
 6426SOL    HW120177   6.845   5.374   3.044
 6426SOL    HW220178   6.944   5.423   3.164
 6427SOL     OW20179   3.811   4.105   3.765
 6427SOL    HW120180   3.735   4.046   3.738
 6427SOL    HW220181   3.781   4.201   3.763
 6428SOL     OW20182   6.184   3.580   0.218
 6428SOL    HW120183   6.160   3.533   0.133
 6428SOL    HW220184   6.252   3.650   0.199
 6429SOL     OW20185   0.028   0.784   5.626
 6429SOL    HW120186   0.120   0.823   5.620
 6429SOL    HW220187   6.986   0.855   5.654
 6430SOL     OW20188   6.386   1.311   4.016
 6430SOL    HW120189   6.440   1.288   4.098
 6430SOL    HW220190   6.309   1.368   4.042
 6431SOL     OW20191   3.962   6.046   3.753
 6431SOL    HW120192   3.974   6.061   3.655
 6431SOL    HW220193   3.962   5.948   3.771
 6432SOL     OW20194   4.227   4.874   5.561
 6432SOL    HW120195   4.249   4.795   5.619
 6432SOL    HW220196   4.279   4.869   5.476
 6433SOL     OW20197   2.513   4.898   6.510
 6433SOL    HW120198   2.444   4.899   6.438
 6433SOL    HW220199   2.604   4.905   6.469
 6434SOL     OW20200   3.230   0.137   6.558
 6434SOL    HW120201   3.150   0.078   6.566
 6434SOL    HW220202   3.245   0.184   6.645
 6435SOL     OW20203   5.866   6.764   0.609
 6435SOL    HW120204   5.895   6.853   0.646
 6435SOL    HW220205   5.820   6.712   0.681
 6436SOL     OW20206   1.478   3.545   2.469
 6436SOL    HW120207   1.471   3.617   2.538
 6436SOL    HW220208   1.400   3.549   2.408
 6437SOL     OW20209   1.504   1.821   0.812
 6437SOL    HW120210   1.505   1.742   0.752
 6437SOL    HW220211   1.578   1.884   0.786
 6438SOL     OW20212   0.544   4.526   5.486
 6438SOL    HW120213   0.609   4.497   5.556
 6438SOL    HW220214   0.451   4.524   5.522
 6439SOL     OW20215   5.271   0.653   2.019
 6439SOL    HW120216   5.269   0.708   1.935
 6439SOL    HW220217   5.179   0.652   2.060
 6440SOL     OW20218   2.735   1.665   5.733
 6440SOL    HW120219   2.724   1.732   5.659
 6440SOL    HW220220   2.806   1.599   5.707
 6441SOL     OW20221   0.546   0.618   1.559
 6441SOL    HW120222   0.506   0.528   1.543
 6441SOL    HW220223   0.476   0.689   1.551
 6442SOL     OW20224   2.824   1.766   5.212
 6442SOL    HW120225   2.827   1.841   5.278
 6442SOL    HW220226   2.835   1.803   5.120
 6443SOL     OW20227   3.459   3.083   5.206
 6443SOL    HW120228   3.443   3.112   5.300
 6443SOL    HW220229   3.433   2.987   5.195
 6444SOL     OW20230   5.554   2.854   4.875
 6444SOL    HW120231   5.634   2.794   4.867
 6444SOL    HW220232   5.582   2.949   4.862
 6445SOL     OW20233   3.827   3.360   3.337
 6445SOL    HW120234   3.769   3.439   3.319
 6445SOL    HW220235   3.862   3.364   3.430
 6446SOL     OW20236   0.765   1.737   0.129
 6446SOL    HW120237   0.713   1.710   0.048
 6446SOL    HW220238   0.717   1.811   0.177
 6447SOL     OW20239   0.037   4.399   2.861
 6447SOL    HW120240   0.105   4.341   2.906
 6447SOL    HW220241   0.075   4.491   2.849
 6448SOL     OW20242   5.054   5.079   1.345
 6448SOL    HW120243   5.114   5.156   1.368
 6448SOL    HW220244   4.993   5.060   1.421
 6449SOL     OW20245   3.643   5.552   1.832
 6449SOL    HW120246   3.622   5.579   1.926
 6449SOL    HW220247   3.586   5.474   1.805
 6450SOL     OW20248   1.624   2.800   0.903
 6450SOL    HW120249   1.540   2.836   0.942
 6450SOL    HW220250   1.661   2.730   0.964
 6451SOL     OW20251   2.345   0.754   6.205
 6451SOL    HW120252   2.292   0.670   6.189
 6451SOL    HW220253   2.340   0.812   6.124
 6452SOL     OW20254   4.825   4.094   2.887
 6452SOL    HW120255   4.828   3.994   2.881
 6452SOL    HW220256   4.903   4.132   2.838
 6453SOL     OW20257   2.277   6.874   1.772
 6453SOL    HW120258   2.295   6.791   1.825
 6453SOL    HW220259   2.233   6.849   1.686
 6454SOL     OW20260   1.202   1.348   2.945
 6454SOL    HW120261   1.194   1.375   3.041
 6454SOL    HW220262   1.298   1.352   2.918
 6455SOL     OW20263   6.646   3.147   3.798
 6455SOL    HW120264   6.629   3.185   3.889
 6455SOL    HW220265   6.643   3.048   3.802
 6456SOL     OW20266   1.389   1.467   3.857
 6456SOL    HW120267   1.379   1.557   3.814
 6456SOL    HW220268   1.377   1.396   3.787
 6457SOL     OW20269   5.112   0.199   1.587
 6457SOL    HW120270   5.172   0.279   1.583
 6457SOL    HW220271   5.155   0.129   1.645
 6458SOL     OW20272   1.327   5.129   4.007
 6458SOL    HW120273   1.383   5.190   3.950
 6458SOL    HW220274   1.248   5.179   4.041
 6459SOL     OW20275   6.526   3.205   2.141
 6459SOL    HW120276   6.598   3.159   2.192
 6459SOL    HW220277   6.567   3.272   2.079
 6460SOL     OW20278   5.760   5.634   6.001
 6460SOL    HW120279   5.786   5.730   6.013
 6460SOL    HW220280   5.838   5.576   6.023
 6461SOL     OW20281   2.464   4.319   7.022
 6461SOL    HW120282   2.485   4.228   0.035
 6461SOL    HW220283   2.543   4.378   0.010
 6462SOL     OW20284   1.674   3.058   4.563
 6462SOL    HW120285   1.769   3.077   4.585
 6462SOL    HW220286   1.635   2.999   4.633
 6463SOL     OW20287   5.722   0.774   0.389
 6463SOL    HW120288   5.636   0.768   0.440
 6463SOL    HW220289   5.786   0.831   0.439
 6464SOL     OW20290   1.848   5.217   5.483
 6464SOL    HW120291   1.753   5.239   5.505
 6464SOL    HW220292   1.862   5.118   5.488
 6465SOL     OW20293   7.011   2.988   2.658
 6465SOL    HW120294   0.070   2.986   2.717
 6465SOL    HW220295   7.009   2.906   2.601
 6466SOL     OW20296   5.946   1.663   6.379
 6466SOL    HW120297   5.976   1.683   6.286
 6466SOL    HW220298   5.983   1.574   6.407
 6467SOL     OW20299   3.908   0.328   1.078
 6467SOL    HW120300   3.928   0.241   1.124
 6467SOL    HW220301   3.985   0.390   1.088
 6468SOL     OW20302   2.835   6.275   1.208
 6468SOL    HW120303   2.753   6.275   1.150
 6468SOL    HW220304   2.895   6.200   1.181
 6469SOL     OW20305   3.792   1.997   3.458
 6469SOL    HW120306   3.791   2.045   3.370
 6469SOL    HW220307   3.728   2.041   3.521
 6470SOL     OW20308   5.632   2.995   0.981
 6470SOL    HW120309   5.602   2.973   0.888
 6470SOL    HW220310   5.715   2.944   1.002
 6471SOL     OW20311   0.466   6.369   5.587
 6471SOL    HW120312   0.395   6.336   5.525
 6471SOL    HW220313   0.431   6.369   5.681
 6472SOL     OW20314   6.897   5.962   1.993
 6472SOL    HW120315   6.819   5.942   2.053
 6472SOL    HW220316   6.871   5.947   1.898
 6473SOL     OW20317   2.841   2.178   5.062
 6473SOL    HW120318   2.910   2.111   5.090
 6473SOL    HW220319   2.868   2.220   4.975
 6474SOL     OW20320   4.413   5.994   5.548
 6474SOL    HW120321   4.321   5.971   5.517
 6474SOL    HW220322   4.473   5.914   5.539
 6475SOL     OW20323   6.064   4.694   3.671
 6475SOL    HW120324   6.044   4.596   3.677
 6475SOL    HW220325   5.981   4.746   3.690
 6476SOL     OW20326   5.273   2.883   0.783
 6476SOL    HW120327   5.372   2.872   0.775
 6476SOL    HW220328   5.234   2.899   0.692
 6477SOL     OW20329   6.272   5.190   0.178
 6477SOL    HW120330   6.233   5.168   0.089
 6477SOL    HW220331   6.199   5.212   0.242
 6478SOL     OW20332   3.584   6.468   2.275
 6478SOL    HW120333   3.642   6.389   2.290
 6478SOL    HW220334   3.488   6.443   2.291
 6479SOL     OW20335   4.044   5.664   4.047
 6479SOL    HW120336   4.007   5.702   3.963
 6479SOL    HW220337   3.969   5.630   4.104
 6480SOL     OW20338   2.381   1.291   0.072
 6480SOL    HW120339   2.404   1.205   0.026
 6480SOL    HW220340   2.283   1.293   0.091
 6481SOL     OW20341   3.529   2.037   2.062
 6481SOL    HW120342   3.571   1.972   1.998
 6481SOL    HW220343   3.594   2.110   2.081
 6482SOL     OW20344   6.268   1.827   6.495
 6482SOL    HW120345   6.245   1.876   6.411
 6482SOL    HW220346   6.304   1.737   6.472
 6483SOL     OW20347   6.824   0.124   3.293
 6483SOL    HW120348   6.846   0.111   3.197
 6483SOL    HW220349   6.858   0.213   3.324
 6484SOL     OW20350   3.361   0.588   2.570
 6484SOL    HW120351   3.265   0.568   2.592
 6484SOL    HW220352   3.376   0.686   2.580
 6485SOL     OW20353   2.278   5.148   3.976
 6485SOL    HW120354   2.307   5.236   3.938
 6485SOL    HW220355   2.293   5.148   4.075
 6486SOL     OW20356   0.631   4.571   2.194
 6486SOL    HW120357   0.730   4.571   2.213
 6486SOL    HW220358   0.584   4.519   2.265
 6487SOL     OW20359   1.514   6.629   5.710
 6487SOL    HW120360   1.600   6.578   5.714
 6487SOL    HW220361   1.529   6.723   5.741
 6488SOL     OW20362   3.912   6.044   4.211
 6488SOL    HW120363   3.858   6.127   4.226
 6488SOL    HW220364   3.981   6.036   4.283
 6489SOL     OW20365   3.414   3.566   6.404
 6489SOL    HW120366   3.369   3.611   6.481
 6489SOL    HW220367   3.432   3.470   6.427
 6490SOL     OW20368   4.111   1.303   6.453
 6490SOL    HW120369   4.080   1.377   6.513
 6490SOL    HW220370   4.032   1.250   6.423
 6491SOL     OW20371   2.828   0.383   1.020
 6491SOL    HW120372   2.842   0.481   1.039
 6491SOL    HW220373   2.824   0.369   0.921
 6492SOL     OW20374   3.420   4.029   5.579
 6492SOL    HW120375   3.347   4.092   5.608
 6492SOL    HW220376   3.507   4.058   5.618
 6493SOL     OW20377   1.355   4.335   6.106
 6493SOL    HW120378   1.390   4.334   6.012
 6493SOL    HW220379   1.368   4.244   6.147
 6494SOL     OW20380   0.008   0.112   2.902
 6494SOL    HW120381   6.958   0.157   2.849
 6494SOL    HW220382   7.012   0.014   2.907
 6495SOL     OW20383   6.771   0.671   4.388
 6495SOL    HW120384   6.801   0.742   4.324
 6495SOL    HW220385   6.781   0.581   4.345
 6496SOL     OW20386   5.832   0.988   2.754
 6496SOL    HW120387   5.774   1.020   2.679
 6496SOL    HW220388   5.927   1.015   2.736
 6497SOL     OW20389   0.950   0.451   1.540
 6497SOL    HW120390   0.897   0.479   1.460
 6497SOL    HW220391   1.044   0.482   1.530
 6498SOL     OW20392   0.963   2.890   4.862
 6498SOL    HW120393   0.987   2.979   4.901
 6498SOL    HW220394   1.046   2.836   4.849
 6499SOL     OW20395   5.657   4.347   5.423
 6499SOL    HW120396   5.743   4.394   5.436
 6499SOL    HW220397   5.673   4.257   5.382
 6500SOL     OW20398   6.728   3.787   3.886
 6500SOL    HW120399   6.659   3.714   3.881
 6500SOL    HW220400   6.720   3.834   3.973
 6501SOL     OW20401   6.611   1.019   0.142
 6501SOL    HW120402   6.635   1.116   0.147
 6501SOL    HW220403   6.688   0.968   0.103
 6502SOL     OW20404   6.995   3.517   2.398
 6502SOL    HW120405   6.977   3.504   2.495
 6502SOL    HW220406   6.914   3.490   2.345
 6503SOL     OW20407   5.214   0.993   3.678
 6503SOL    HW120408   5.195   0.902   3.642
 6503SOL    HW220409   5.202   0.993   3.777
 6504SOL     OW20410   3.696   6.496   6.248
 6504SOL    HW120411   3.609   6.452   6.227
 6504SOL    HW220412   3.682   6.572   6.311
 6505SOL     OW20413   5.358   5.898   6.226
 6505SOL    HW120414   5.363   5.995   6.204
 6505SOL    HW220415   5.383   5.844   6.146
 6506SOL     OW20416   0.212   2.711   3.136
 6506SOL    HW120417   0.229   2.808   3.125
 6506SOL    HW220418   0.216   2.665   3.047
 6507SOL     OW20419   2.638   5.631   6.669
 6507SOL    HW120420   2.618   5.561   6.600
 6507SOL    HW220421   2.610   5.598   6.759
 6508SOL     OW20422   1.691   0.425   3.053
 6508SOL    HW120423   1.618   0.479   3.095
 6508SOL    HW220424   1.682   0.429   2.953
 6509SOL     OW20425   4.393   2.142   4.342
 6509SOL    HW120426   4.351   2.184   4.422
 6509SOL    HW220427   4.355   2.051   4.328
 6510SOL     OW20428   5.957   5.162   0.044
 6510SOL    HW120429   6.044   5.136   0.000
 6510SOL    HW220430   5.881   5.124   7.014
 6511SOL     OW20431   4.188   0.384   4.284
 6511SOL    HW120432   4.106   0.427   4.324
 6511SOL    HW220433   4.167   0.290   4.258
 6512SOL     OW20434   3.741   6.552   1.864
 6512SOL    HW120435   3.778   6.618   1.799
 6512SOL    HW220436   3.709   6.471   1.814
 6513SOL     OW20437   2.648   5.443   3.258
 6513SOL    HW120438   2.587   5.453   3.336
 6513SOL    HW220439   2.595   5.441   3.173
 6514SOL     OW20440   5.684   1.672   4.651
 6514SOL    HW120441   5.640   1.627   4.574
 6514SOL    HW220442   5.672   1.771   4.643
 6515SOL     OW20443   1.129   3.733   3.385
 6515SOL    HW120444   1.075   3.760   3.464
 6515SOL    HW220445   1.069   3.714   3.307
 6516SOL     OW20446   0.404   2.794   1.390
 6516SOL    HW120447   0.305   2.800   1.400
 6516SOL    HW220448   0.426   2.738   1.310
 6517SOL     OW20449   0.111   1.668   1.663
 6517SOL    HW120450   0.017   1.639   1.682
 6517SOL    HW220451   0.112   1.724   1.580
 6518SOL     OW20452   0.284   0.264   1.116
 6518SOL    HW120453   0.313   0.170   1.101
 6518SOL    HW220454   0.231   0.269   1.201
 6519SOL     OW20455   1.125   1.801   2.635
 6519SOL    HW120456   1.210   1.749   2.641
 6519SOL    HW220457   1.048   1.743   2.662
 6520SOL     OW20458   0.022   5.580   6.785
 6520SOL    HW120459   0.057   5.651   6.724
 6520SOL    HW220460   6.953   5.604   6.816
 6521SOL     OW20461   1.721   2.589   4.326
 6521SOL    HW120462   1.817   2.566   4.338
 6521SOL    HW220463   1.688   2.552   4.239
 6522SOL     OW20464   3.283   4.729   5.579
 6522SOL    HW120465   3.293   4.654   5.645
 6522SOL    HW220466   3.339   4.709   5.498
 6523SOL     OW20467   3.681   1.356   6.946
 6523SOL    HW120468   3.751   1.328   6.880
 6523SOL    HW220469   3.688   1.299   0.005
 6524SOL     OW20470   2.743   3.577   1.378
 6524SOL    HW120471   2.646   3.564   1.397
 6524SOL    HW220472   2.797   3.524   1.443
 6525SOL     OW20473   2.233   4.814   2.662
 6525SOL    HW120474   2.321   4.851   2.635
 6525SOL    HW220475   2.190   4.770   2.583
 6526SOL     OW20476   1.882   0.467   1.735
 6526SOL    HW120477   1.929   0.540   1.686
 6526SOL    HW220478   1.808   0.506   1.790
 6527SOL     OW20479   6.716   1.701   6.237
 6527SOL    HW120480   6.779   1.668   6.167
 6527SOL    HW220481   6.738   1.658   6.325
 6528SOL     OW20482   5.631   1.689   5.206
 6528SOL    HW120483   5.555   1.724   5.261
 6528SOL    HW220484   5.651   1.595   5.232
 6529SOL     OW20485   1.914   0.408   2.571
 6529SOL    HW120486   1.957   0.330   2.617
 6529SOL    HW220487   1.826   0.380   2.533
 6530SOL     OW20488   6.479   1.641   1.114
 6530SOL    HW120489   6.494   1.640   1.213
 6530SOL    HW220490   6.382   1.656   1.095
 6531SOL     OW20491   4.916   3.434   4.839
 6531SOL    HW120492   4.935   3.487   4.921
 6531SOL    HW220493   4.890   3.341   4.864
 6532SOL     OW20494   0.584   1.235   1.367
 6532SOL    HW120495   0.646   1.194   1.434
 6532SOL    HW220496   0.489   1.225   1.398
 6533SOL     OW20497   4.415   6.622   7.004
 6533SOL    HW120498   4.408   6.595   6.908
 6533SOL    HW220499   4.344   6.689   0.003
 6534SOL     OW20500   5.192   4.760   1.868
 6534SOL    HW120501   5.265   4.810   1.823
 6534SOL    HW220502   5.168   4.679   1.814
 6535SOL     OW20503   0.076   4.557   3.804
 6535SOL    HW120504   0.064   4.463   3.833
 6535SOL    HW220505   0.077   4.562   3.704
 6536SOL     OW20506   0.298   1.652   5.057
 6536SOL    HW120507   0.250   1.607   5.131
 6536SOL    HW220508   0.391   1.675   5.086
 6537SOL     OW20509   6.838   4.651   6.946
 6537SOL    HW120510   6.770   4.674   6.877
 6537SOL    HW220511   6.875   4.560   6.927
 6538SOL     OW20512   1.991   3.620   5.759
 6538SOL    HW120513   2.021   3.633   5.853
 6538SOL    HW220514   2.070   3.626   5.698
 6539SOL     OW20515   4.825   0.595   0.054
 6539SOL    HW120516   4.911   0.552   0.028
 6539SOL    HW220517   4.754   0.526   0.064
 6540SOL     OW20518   4.102   2.349   6.631
 6540SOL    HW120519   4.199   2.345   6.606
 6540SOL    HW220520   4.080   2.442   6.663
 6541SOL     OW20521   5.032   1.311   5.325
 6541SOL    HW120522   4.941   1.300   5.365
 6541SOL    HW220523   5.039   1.257   5.242
 6542SOL     OW20524   0.061   2.645   3.677
 6542SOL    HW120525   0.143   2.613   3.726
 6542SOL    HW220526   0.042   2.739   3.702
 6543SOL     OW20527   4.307   3.149   5.283
 6543SOL    HW120528   4.319   3.053   5.309
 6543SOL    HW220529   4.232   3.156   5.217
 6544SOL     OW20530   1.566   6.351   3.393
 6544SOL    HW120531   1.495   6.369   3.325
 6544SOL    HW220532   1.585   6.434   3.445
 6545SOL     OW20533   4.237   0.188   0.951
 6545SOL    HW120534   4.256   0.178   1.049
 6545SOL    HW220535   4.199   0.102   0.916
 6546SOL     OW20536   2.770   4.369   6.197
 6546SOL    HW120537   2.770   4.396   6.101
 6546SOL    HW220538   2.836   4.425   6.247
 6547SOL     OW20539   4.410   1.190   0.179
 6547SOL    HW120540   4.401   1.282   0.216
 6547SOL    HW220541   4.334   1.173   0.116
 6548SOL     OW20542   0.929   3.617   1.184
 6548SOL    HW120543   1.012   3.563   1.197
 6548SOL    HW220544   0.932   3.661   1.095
 6549SOL     OW20545   4.625   1.140   1.962
 6549SOL    HW120546   4.701   1.081   1.934
 6549SOL    HW220547   4.593   1.113   2.053
 6550SOL     OW20548   0.207   6.493   4.069
 6550SOL    HW120549   0.238   6.585   4.044
 6550SOL    HW220550   0.285   6.439   4.101
 6551SOL     OW20551   1.721   3.637   1.657
 6551SOL    HW120552   1.674   3.564   1.706
 6551SOL    HW220553   1.767   3.697   1.723
 6552SOL     OW20554   1.384   0.265   0.455
 6552SOL    HW120555   1.482   0.252   0.468
 6552SOL    HW220556   1.334   0.200   0.512
 6553SOL     OW20557   6.602   2.023   3.560
 6553SOL    HW120558   6.609   2.004   3.462
 6553SOL    HW220559   6.694   2.033   3.598
 6554SOL     OW20560   0.887   0.269   4.280
 6554SOL    HW120561   0.944   0.321   4.344
 6554SOL    HW220562   0.845   0.192   4.328
 6555SOL     OW20563   5.144   2.270   3.180
 6555SOL    HW120564   5.059   2.311   3.147
 6555SOL    HW220565   5.156   2.179   3.139
 6556SOL     OW20566   5.640   4.564   3.589
 6556SOL    HW120567   5.725   4.540   3.635
 6556SOL    HW220568   5.605   4.651   3.625
 6557SOL     OW20569   3.260   0.149   2.753
 6557SOL    HW120570   3.180   0.204   2.728
 6557SOL    HW220571   3.333   0.210   2.784
 6558SOL     OW20572   0.123   5.043   0.508
 6558SOL    HW120573   0.126   4.971   0.440
 6558SOL    HW220574   0.036   5.092   0.501
 6559SOL     OW20575   1.143   4.070   0.495
 6559SOL    HW120576   1.239   4.094   0.498
 6559SOL    HW220577   1.124   4.018   0.411
 6560SOL     OW20578   4.378   4.991   1.580
 6560SOL    HW120579   4.356   5.078   1.623
 6560SOL    HW220580   4.463   4.955   1.619
 6561SOL     OW20581   3.254   4.434   1.394
 6561SOL    HW120582   3.254   4.335   1.387
 6561SOL    HW220583   3.163   4.466   1.420
 6562SOL     OW20584   6.244   2.562   0.930
 6562SOL    HW120585   6.214   2.609   1.013
 6562SOL    HW220586   6.337   2.592   0.906
 6563SOL     OW20587   5.173   5.417   6.078
 6563SOL    HW120588   5.092   5.390   6.026
 6563SOL    HW220589   5.253   5.372   6.040
 6564SOL     OW20590   6.750   3.415   2.782
 6564SOL    HW120591   6.720   3.423   2.877
 6564SOL    HW220592   6.782   3.322   2.764
 6565SOL     OW20593   5.470   1.424   2.513
 6565SOL    HW120594   5.419   1.487   2.571
 6565SOL    HW220595   5.535   1.372   2.569
 6566SOL     OW20596   4.019   6.263   1.798
 6566SOL    HW120597   4.091   6.332   1.785
 6566SOL    HW220598   3.938   6.290   1.746
 6567SOL     OW20599   4.596   1.009   2.209
 6567SOL    HW120600   4.507   0.974   2.240
 6567SOL    HW220601   4.651   0.932   2.174
 6568SOL     OW20602   3.283   1.427   4.337
 6568SOL    HW120603   3.360   1.375   4.373
 6568SOL    HW220604   3.317   1.501   4.278
 6569SOL     OW20605   2.819   3.222   0.314
 6569SOL    HW120606   2.761   3.141   0.306
 6569SOL    HW220607   2.778   3.298   0.265
 6570SOL     OW20608   2.846   0.494   2.521
 6570SOL    HW120609   2.749   0.499   2.499
 6570SOL    HW220610   2.895   0.451   2.445
 6571SOL     OW20611   3.302   5.065   1.726
 6571SOL    HW120612   3.340   4.993   1.784
 6571SOL    HW220613   3.309   5.037   1.630
 6572SOL     OW20614   6.497   4.517   4.430
 6572SOL    HW120615   6.404   4.523   4.394
 6572SOL    HW220616   6.503   4.441   4.495
 6573SOL     OW20617   0.974   1.742   2.037
 6573SOL    HW120618   0.963   1.837   2.066
 6573SOL    HW220619   0.975   1.682   2.117
 6574SOL     OW20620   2.251   5.914   2.607
 6574SOL    HW120621   2.230   5.905   2.510
 6574SOL    HW220622   2.349   5.932   2.619
 6575SOL     OW20623   0.473   6.567   3.439
 6575SOL    HW120624   0.392   6.623   3.422
 6575SOL    HW220625   0.527   6.559   3.355
 6576SOL     OW20626   2.170   5.889   6.939
 6576SOL    HW120627   2.106   5.843   7.002
 6576SOL    HW220628   2.171   5.987   6.960
 6577SOL     OW20629   0.696   1.843   3.684
 6577SOL    HW120630   0.680   1.896   3.600
 6577SOL    HW220631   0.782   1.871   3.725
 6578SOL     OW20632   0.623   6.083   2.880
 6578SOL    HW120633   0.691   6.137   2.930
 6578SOL    HW220634   0.536   6.133   2.878
 6579SOL     OW20635   0.463   3.096   3.712
 6579SOL    HW120636   0.525   3.020   3.691
 6579SOL    HW220637   0.379   3.086   3.659
 6580SOL     OW20638   0.194   2.012   0.537
 6580SOL    HW120639   0.250   2.076   0.590
 6580SOL    HW220640   0.177   1.930   0.591
 6581SOL     OW20641   2.432   0.428   6.981
 6581SOL    HW120642   2.453   0.338   6.942
 6581SOL    HW220643   2.516   0.473   7.010
 6582SOL     OW20644   7.015   1.409   2.845
 6582SOL    HW120645   6.949   1.334   2.831
 6582SOL    HW220646   0.081   1.371   2.873
 6583SOL     OW20647   4.681   0.454   6.087
 6583SOL    HW120648   4.625   0.390   6.140
 6583SOL    HW220649   4.650   0.455   5.992
 6584SOL     OW20650   4.479   2.803   0.543
 6584SOL    HW120651   4.424   2.789   0.625
 6584SOL    HW220652   4.466   2.727   0.479
 6585SOL     OW20653   6.373   6.211   0.305
 6585SOL    HW120654   6.310   6.165   0.242
 6585SOL    HW220655   6.359   6.310   0.299
 6586SOL     OW20656   5.622   1.071   5.962
 6586SOL    HW120657   5.560   1.147   5.942
 6586SOL    HW220658   5.660   1.035   5.876
 6587SOL     OW20659   2.012   5.293   5.700
 6587SOL    HW120660   2.054   5.372   5.655
 6587SOL    HW220661   1.931   5.264   5.648
 6588SOL     OW20662   0.231   2.583   2.076
 6588SOL    HW120663   0.181   2.566   2.161
 6588SOL    HW220664   0.178   2.548   1.999
 6589SOL     OW20665   4.549   0.257   1.164
 6589SOL    HW120666   4.551   0.348   1.121
 6589SOL    HW220667   4.460   0.243   1.208
 6590SOL     OW20668   7.001   1.186   6.787
 6590SOL    HW120669   6.982   1.092   6.760
 6590SOL    HW220670   6.922   1.244   6.766
 6591SOL     OW20671   6.357   5.759   3.088
 6591SOL    HW120672   6.402   5.825   3.027
 6591SOL    HW220673   6.423   5.692   3.119
 6592SOL     OW20674   5.308   0.077   2.953
 6592SOL    HW120675   5.327   0.044   2.860
 6592SOL    HW220676   5.392   0.115   2.992
 6593SOL     OW20677   2.270   2.396   2.823
 6593SOL    HW120678   2.204   2.362   2.889
 6593SOL    HW220679   2.351   2.431   2.871
 6594SOL     OW20680   3.629   1.388   6.191
 6594SOL    HW120681   3.652   1.473   6.239
 6594SOL    HW220682   3.586   1.410   6.103
 6595SOL     OW20683   1.073   4.525   6.798
 6595SOL    HW120684   1.085   4.537   6.700
 6595SOL    HW220685   1.149   4.471   6.835
 6596SOL     OW20686   3.202   0.000   4.297
 6596SOL    HW120687   3.162   7.017   4.388
 6596SOL    HW220688   3.173   0.086   4.253
 6597SOL     OW20689   0.987   5.402   1.180
 6597SOL    HW120690   1.007   5.342   1.257
 6597SOL    HW220691   1.004   5.353   1.095
 6598SOL     OW20692   1.810   5.240   4.085
 6598SOL    HW120693   1.908   5.240   4.066
 6598SOL    HW220694   1.783   5.330   4.121
 6599SOL     OW20695   4.284   6.249   5.900
 6599SOL    HW120696   4.339   6.177   5.944
 6599SOL    HW220697   4.276   6.327   5.962
 6600SOL     OW20698   3.854   5.802   5.600
 6600SOL    HW120699   3.849   5.848   5.689
 6600SOL    HW220700   3.797   5.851   5.534
 6601SOL     OW20701   1.577   1.865   4.933
 6601SOL    HW120702   1.586   1.961   4.908
 6601SOL    HW220703   1.614   1.850   5.024
 6602SOL     OW20704   1.815   1.326   1.780
 6602SOL    HW120705   1.892   1.277   1.739
 6602SOL    HW220706   1.776   1.272   1.854
 6603SOL     OW20707   0.266   2.692   3.403
 6603SOL    HW120708   0.266   2.684   3.303
 6603SOL    HW220709   0.175   2.720   3.434
 6604SOL     OW20710   1.134   0.219   1.272
 6604SOL    HW120711   1.216   0.190   1.223
 6604SOL    HW220712   1.109   0.150   1.340
 6605SOL     OW20713   5.721   5.518   1.593
 6605SOL    HW120714   5.680   5.430   1.615
 6605SOL    HW220715   5.820   5.512   1.599
 6606SOL     OW20716   0.451   5.809   2.237
 6606SOL    HW120717   0.378   5.838   2.299
 6606SOL    HW220718   0.520   5.758   2.289
 6607SOL     OW20719   2.030   4.131   2.413
 6607SOL    HW120720   2.094   4.207   2.403
 6607SOL    HW220721   2.070   4.061   2.472
 6608SOL     OW20722   6.659   6.633   0.077
 6608SOL    HW120723   6.652   6.634   0.177
 6608SOL    HW220724   6.736   6.690   0.049
 6609SOL     OW20725   5.472   1.120   0.334
 6609SOL    HW120726   5.512   1.154   0.249
 6609SOL    HW220727   5.478   1.021   0.336
 6610SOL     OW20728   2.327   6.285   0.153
 6610SOL    HW120729   2.340   6.374   0.109
 6610SOL    HW220730   2.354   6.291   0.249
 6611SOL     OW20731   4.911   3.445   2.914
 6611SOL    HW120732   4.957   3.357   2.905
 6611SOL    HW220733   4.946   3.509   2.845
 6612SOL     OW20734   6.226   1.869   6.764
 6612SOL    HW120735   6.205   1.841   6.670
 6612SOL    HW220736   6.141   1.892   6.811
 6613SOL     OW20737   6.712   6.336   5.268
 6613SOL    HW120738   6.648   6.265   5.299
 6613SOL    HW220739   6.677   6.378   5.185
 6614SOL     OW20740   4.247   5.396   6.743
 6614SOL    HW120741   4.164   5.397   6.687
 6614SOL    HW220742   4.260   5.304   6.780
 6615SOL     OW20743   1.601   5.619   1.016
 6615SOL    HW120744   1.643   5.533   0.987
 6615SOL    HW220745   1.516   5.600   1.064
 6616SOL     OW20746   4.857   0.395   6.321
 6616SOL    HW120747   4.894   0.303   6.333
 6616SOL    HW220748   4.818   0.404   6.229
 6617SOL     OW20749   4.646   5.379   3.449
 6617SOL    HW120750   4.674   5.446   3.379
 6617SOL    HW220751   4.554   5.401   3.481
 6618SOL     OW20752   1.659   2.079   2.637
 6618SOL    HW120753   1.623   1.996   2.680
 6618SOL    HW220754   1.584   2.142   2.618
 6619SOL     OW20755   5.323   0.260   3.624
 6619SOL    HW120756   5.285   0.182   3.574
 6619SOL    HW220757   5.298   0.251   3.721
 6620SOL     OW20758   1.677   2.988   5.627
 6620SOL    HW120759   1.657   2.927   5.704
 6620SOL    HW220760   1.685   2.934   5.543
 6621SOL     OW20761   3.255   3.087   6.101
 6621SOL    HW120762   3.173   3.090   6.159
 6621SOL    HW220763   3.302   3.175   6.105
 6622SOL     OW20764   5.761   6.440   2.013
 6622SOL    HW120765   5.762   6.429   1.914
 6622SOL    HW220766   5.712   6.363   2.054
 6623SOL     OW20767   3.623   3.148   5.009
 6623SOL    HW120768   3.708   3.176   5.053
 6623SOL    HW220769   3.555   3.125   5.079
 6624SOL     OW20770   6.850   4.210   5.636
 6624SOL    HW120771   6.891   4.123   5.664
 6624SOL    HW220772   6.913   4.284   5.658
 6625SOL     OW20773   5.056   1.973   5.026
 6625SOL    HW120774   5.114   2.054   5.015
 6625SOL    HW220775   5.071   1.933   5.116
 6626SOL     OW20776   3.653   5.957   5.486
 6626SOL    HW120777   3.569   5.969   5.538
 6626SOL    HW220778   3.708   6.040   5.490
 6627SOL     OW20779   1.883   6.261   5.860
 6627SOL    HW120780   1.954   6.191   5.865
 6627SOL    HW220781   1.795   6.217   5.842
 6628SOL     OW20782   6.258   5.229   4.528
 6628SOL    HW120783   6.264   5.134   4.559
 6628SOL    HW220784   6.315   5.286   4.586
 6629SOL     OW20785   4.734   6.467   6.383
 6629SOL    HW120786   4.772   6.476   6.292
 6629SOL    HW220787   4.800   6.421   6.443
 6630SOL     OW20788   3.327   1.580   1.044
 6630SOL    HW120789   3.249   1.518   1.035
 6630SOL    HW220790   3.303   1.654   1.107
 6631SOL     OW20791   2.565   5.704   4.172
 6631SOL    HW120792   2.594   5.628   4.115
 6631SOL    HW220793   2.502   5.671   4.242
 6632SOL     OW20794   0.879   0.296   1.252
 6632SOL    HW120795   0.861   0.391   1.279
 6632SOL    HW220796   0.978   0.280   1.252
 6633SOL     OW20797   1.828   4.605   6.667
 6633SOL    HW120798   1.746   4.600   6.724
 6633SOL    HW220799   1.812   4.669   6.591
 6634SOL     OW20800   4.960   1.268   5.034
 6634SOL    HW120801   5.051   1.268   4.993
 6634SOL    HW220802   4.945   1.353   5.083
 6635SOL     OW20803   4.662   4.326   2.872
 6635SOL    HW120804   4.730   4.254   2.888
 6635SOL    HW220805   4.702   4.398   2.816
 6636SOL     OW20806   4.783   1.724   6.566
 6636SOL    HW120807   4.714   1.657   6.593
 6636SOL    HW220808   4.829   1.694   6.482
 6637SOL     OW20809   0.469   6.908   6.653
 6637SOL    HW120810   0.551   6.861   6.685
 6637SOL    HW220811   0.421   6.851   6.587
 6638SOL     OW20812   3.329   3.756   3.035
 6638SOL    HW120813   3.393   3.741   2.958
 6638SOL    HW220814   3.281   3.671   3.054
 6639SOL     OW20815   4.810   4.696   6.907
 6639SOL    HW120816   4.769   4.740   6.827
 6639SOL    HW220817   4.770   4.733   6.990
 6640SOL     OW20818   0.029   1.847   4.746
 6640SOL    HW120819   0.015   1.940   4.712
 6640SOL    HW220820   0.001   1.781   4.676
 6641SOL     OW20821   2.526   1.240   6.610
 6641SOL    HW120822   2.469   1.315   6.577
 6641SOL    HW220823   2.614   1.277   6.640
 6642SOL     OW20824   2.216   6.206   6.712
 6642SOL    HW120825   2.197   6.209   6.810
 6642SOL    HW220826   2.133   6.180   6.662
 6643SOL     OW20827   5.547   5.985   0.227
 6643SOL    HW120828   5.525   6.082   0.229
 6643SOL    HW220829   5.470   5.934   0.188
 6644SOL     OW20830   2.697   5.057   1.140
 6644SOL    HW120831   2.648   4.970   1.126
 6644SOL    HW220832   2.634   5.133   1.127
 6645SOL     OW20833   6.129   3.909   0.633
 6645SOL    HW120834   6.211   3.877   0.680
 6645SOL    HW220835   6.151   3.926   0.537
 6646SOL     OW20836   4.540   0.834   5.250
 6646SOL    HW120837   4.618   0.771   5.256
 6646SOL    HW220838   4.514   0.845   5.154
 6647SOL     OW20839   5.201   0.322   1.141
 6647SOL    HW120840   5.110   0.319   1.100
 6647SOL    HW220841   5.200   0.386   1.218
 6648SOL     OW20842   3.253   6.333   3.664
 6648SOL    HW120843   3.189   6.398   3.705
 6648SOL    HW220844   3.208   6.244   3.653
 6649SOL     OW20845   5.563   1.847   6.866
 6649SOL    HW120846   5.504   1.811   6.793
 6649SOL    HW220847   5.563   1.782   6.943
 6650SOL     OW20848   4.077   1.450   5.559
 6650SOL    HW120849   4.172   1.469   5.532
 6650SOL    HW220850   4.077   1.393   5.642
 6651SOL     OW20851   2.717   0.785   6.276
 6651SOL    HW120852   2.692   0.869   6.324
 6651SOL    HW220853   2.709   0.799   6.177
 6652SOL     OW20854   0.410   4.291   6.982
 6652SOL    HW120855   0.476   4.254   0.025
 6652SOL    HW220856   0.375   4.378   7.017
 6653SOL     OW20857   4.098   4.089   1.464
 6653SOL    HW120858   4.158   4.094   1.384
 6653SOL    HW220859   4.020   4.031   1.443
 6654SOL     OW20860   1.568   5.046   1.159
 6654SOL    HW120861   1.514   4.989   1.221
 6654SOL    HW220862   1.512   5.122   1.126
 6655SOL     OW20863   1.226   6.516   3.918
 6655SOL    HW120864   1.142   6.464   3.931
 6655SOL    HW220865   1.294   6.487   3.986
 6656SOL     OW20866   5.050   2.278   3.597
 6656SOL    HW120867   5.025   2.332   3.517
 6656SOL    HW220868   5.065   2.183   3.570
 6657SOL     OW20869   5.576   4.928   6.320
 6657SOL    HW120870   5.602   4.866   6.246
 6657SOL    HW220871   5.519   4.879   6.386
 6658SOL     OW20872   5.534   1.160   4.367
 6658SOL    HW120873   5.484   1.124   4.289
 6658SOL    HW220874   5.598   1.091   4.401
 6659SOL     OW20875   2.472   2.964   0.085
 6659SOL    HW120876   2.472   2.872   0.126
 6659SOL    HW220877   2.474   2.956   7.008
 6660SOL     OW20878   1.358   4.525   1.246
 6660SOL    HW120879   1.410   4.553   1.166
 6660SOL    HW220880   1.376   4.589   1.322
 6661SOL     OW20881   1.714   0.161   5.277
 6661SOL    HW120882   1.764   0.243   5.303
 6661SOL    HW220883   1.767   0.080   5.301
 6662SOL     OW20884   0.970   0.425   0.435
 6662SOL    HW120885   1.032   0.491   0.477
 6662SOL    HW220886   0.960   0.345   0.495
 6663SOL     OW20887   6.274   6.084   4.518
 6663SOL    HW120888   6.213   6.163   4.512
 6663SOL    HW220889   6.244   6.025   4.594
 6664SOL     OW20890   2.218   6.786   0.604
 6664SOL    HW120891   2.173   6.715   0.551
 6664SOL    HW220892   2.289   6.829   0.549
 6665SOL     OW20893   1.636   6.136   4.466
 6665SOL    HW120894   1.641   6.235   4.463
 6665SOL    HW220895   1.542   6.108   4.484
 6666SOL     OW20896   5.841   6.290   6.195
 6666SOL    HW120897   5.883   6.292   6.104
 6666SOL    HW220898   5.900   6.336   6.261
 6667SOL     OW20899   6.041   6.662   6.268
 6667SOL    HW120900   6.023   6.583   6.327
 6667SOL    HW220901   6.084   6.631   6.183
 6668SOL     OW20902   6.872   5.703   0.846
 6668SOL    HW120903   6.819   5.662   0.773
 6668SOL    HW220904   6.963   5.727   0.811
 6669SOL     OW20905   2.551   2.120   2.277
 6669SOL    HW120906   2.462   2.121   2.323
 6669SOL    HW220907   2.595   2.209   2.287
 6670SOL     OW20908   3.151   1.666   5.366
 6670SOL    HW120909   3.151   1.588   5.303
 6670SOL    HW220910   3.213   1.648   5.442
 6671SOL     OW20911   4.421   6.668   0.381
 6671SOL    HW120912   4.334   6.690   0.338
 6671SOL    HW220913   4.486   6.635   0.312
 6672SOL     OW20914   6.503   2.948   6.494
 6672SOL    HW120915   6.514   2.859   6.539
 6672SOL    HW220916   6.414   2.987   6.517
 6673SOL     OW20917   4.703   4.563   4.050
 6673SOL    HW120918   4.782   4.540   3.993
 6673SOL    HW220919   4.703   4.505   4.131
 6674SOL     OW20920   0.944   3.780   0.048
 6674SOL    HW120921   0.937   3.752   0.144
 6674SOL    HW220922   0.856   3.768   0.003
 6675SOL     OW20923   5.963   3.587   0.411
 6675SOL    HW120924   6.051   3.574   0.364
 6675SOL    HW220925   5.895   3.616   0.345
 6676SOL     OW20926   0.821   3.773   5.521
 6676SOL    HW120927   0.787   3.696   5.574
 6676SOL    HW220928   0.916   3.757   5.496
 6677SOL     OW20929   1.136   1.770   6.183
 6677SOL    HW120930   1.113   1.837   6.254
 6677SOL    HW220931   1.070   1.694   6.186
 6678SOL     OW20932   3.184   3.422   7.013
 6678SOL    HW120933   3.089   3.440   0.015
 6678SOL    HW220934   3.234   3.509   7.007
 6679SOL     OW20935   3.271   0.936   4.116
 6679SOL    HW120936   3.263   0.883   4.200
 6679SOL    HW220937   3.293   1.031   4.138
 6680SOL     OW20938   4.687   6.552   6.934
 6680SOL    HW120939   4.715   6.483   7.000
 6680SOL    HW220940   4.718   6.642   6.965
 6681SOL     OW20941   4.203   5.292   1.242
 6681SOL    HW120942   4.174   5.349   1.165
 6681SOL    HW220943   4.288   5.328   1.280
 6682SOL     OW20944   1.687   4.055   1.020
 6682SOL    HW120945   1.719   3.989   1.088
 6682SOL    HW220946   1.765   4.103   0.980
 6683SOL     OW20947   5.428   3.734   5.043
 6683SOL    HW120948   5.411   3.686   4.957
 6683SOL    HW220949   5.520   3.713   5.076
 6684SOL     OW20950   3.335   5.975   1.859
 6684SOL    HW120951   3.240   5.951   1.878
 6684SOL    HW220952   3.342   6.074   1.846
 6685SOL     OW20953   5.930   2.923   6.047
 6685SOL    HW120954   5.952   2.998   5.985
 6685SOL    HW220955   5.857   2.950   6.109
 6686SOL     OW20956   4.951   5.388   4.116
 6686SOL    HW120957   4.953   5.443   4.199
 6686SOL    HW220958   5.031   5.410   4.060
 6687SOL     OW20959   0.947   3.209   1.289
 6687SOL    HW120960   1.026   3.255   1.249
 6687SOL    HW220961   0.886   3.276   1.329
 6688SOL     OW20962   6.416   4.619   1.792
 6688SOL    HW120963   6.378   4.637   1.883
 6688SOL    HW220964   6.407   4.522   1.771
 6689SOL     OW20965   3.774   3.524   6.637
 6689SOL    HW120966   3.808   3.461   6.707
 6689SOL    HW220967   3.674   3.529   6.641
 6690SOL     OW20968   0.359   0.930   0.618
 6690SOL    HW120969   0.391   0.865   0.687
 6690SOL    HW220970   0.289   0.887   0.561
 6691SOL     OW20971   2.681   6.968   2.101
 6691SOL    HW120972   2.648   0.029   2.146
 6691SOL    HW220973   2.708   6.990   2.007
 6692SOL     OW20974   3.952   3.080   3.935
 6692SOL    HW120975   4.018   3.155   3.921
 6692SOL    HW220976   3.912   3.088   4.026
 6693SOL     OW20977   3.694   2.160   5.137
 6693SOL    HW120978   3.690   2.254   5.170
 6693SOL    HW220979   3.621   2.107   5.180
 6694SOL     OW20980   4.210   5.610   1.217
 6694SOL    HW120981   4.285   5.576   1.274
 6694SOL    HW220982   4.186   5.703   1.246
 6695SOL     OW20983   2.703   2.291   6.687
 6695SOL    HW120984   2.634   2.337   6.742
 6695SOL    HW220985   2.765   2.240   6.747
 6696SOL     OW20986   3.175   3.340   4.750
 6696SOL    HW120987   3.209   3.423   4.795
 6696SOL    HW220988   3.147   3.274   4.819
 6697SOL     OW20989   4.611   2.235   3.158
 6697SOL    HW120990   4.579   2.191   3.074
 6697SOL    HW220991   4.645   2.166   3.221
 6698SOL     OW20992   3.189   2.176   0.554
 6698SOL    HW120993   3.172   2.272   0.532
 6698SOL    HW220994   3.281   2.166   0.592
 6699SOL     OW20995   2.799   5.737   5.726
 6699SOL    HW120996   2.888   5.693   5.739
 6699SOL    HW220997   2.795   5.777   5.635
 6700SOL     OW20998   0.834   0.766   1.152
 6700SOL    HW120999   0.850   0.813   1.239
 6700SOL    HW221000   0.920   0.730   1.116
 6701SOL     OW21001   5.705   5.149   2.148
 6701SOL    HW121002   5.722   5.180   2.054
 6701SOL    HW221003   5.625   5.090   2.149
 6702SOL     OW21004   2.827   2.060   1.557
 6702SOL    HW121005   2.893   2.005   1.506
 6702SOL    HW221006   2.873   2.103   1.635
 6703SOL     OW21007   6.057   1.090   0.448
 6703SOL    HW121008   6.081   1.054   0.357
 6703SOL    HW221009   6.056   1.190   0.444
 6704SOL     OW21010   3.932   1.754   3.486
 6704SOL    HW121011   3.887   1.840   3.464
 6704SOL    HW221012   3.909   1.685   3.417
 6705SOL     OW21013   6.425   4.137   1.352
 6705SOL    HW121014   6.423   4.233   1.382
 6705SOL    HW221015   6.402   4.132   1.255
 6706SOL     OW21016   1.592   4.393   1.321
 6706SOL    HW121017   1.634   4.397   1.412
 6706SOL    HW221018   1.505   4.442   1.323
 6707SOL     OW21019   6.358   6.490   3.629
 6707SOL    HW121020   6.259   6.489   3.613
 6707SOL    HW221021   6.402   6.545   3.557
 6708SOL     OW21022   0.052   4.800   0.728
 6708SOL    HW121023   0.090   4.867   0.664
 6708SOL    HW221024   0.084   4.820   0.821
 6709SOL     OW21025   2.522   6.497   2.406
 6709SOL    HW121026   2.428   6.522   2.383
 6709SOL    HW221027   2.574   6.580   2.426
 6710SOL     OW21028   3.993   1.673   6.321
 6710SOL    HW121029   4.039   1.611   6.384
 6710SOL    HW221030   4.061   1.717   6.262
 6711SOL     OW21031   4.911   6.155   6.036
 6711SOL    HW121032   4.982   6.092   6.005
 6711SOL    HW221033   4.898   6.227   5.967
 6712SOL     OW21034   5.687   4.104   0.424
 6712SOL    HW121035   5.715   4.177   0.486
 6712SOL    HW221036   5.631   4.038   0.473
 6713SOL     OW21037   2.223   0.176   2.490
 6713SOL    HW121038   2.185   0.135   2.407
 6713SOL    HW221039   2.282   0.253   2.465
 6714SOL     OW21040   6.854   0.968   5.674
 6714SOL    HW121041   6.790   1.037   5.707
 6714SOL    HW221042   6.947   1.006   5.672
 6715SOL     OW21043   0.420   0.208   0.364
 6715SOL    HW121044   0.465   0.145   0.301
 6715SOL    HW221045   0.488   0.258   0.416
 6716SOL     OW21046   6.971   5.726   2.262
 6716SOL    HW121047   6.941   5.704   2.354
 6716SOL    HW221048   6.987   5.824   2.254
 6717SOL     OW21049   3.696   2.499   6.638
 6717SOL    HW121050   3.694   2.433   6.714
 6717SOL    HW221051   3.676   2.591   6.673
 6718SOL     OW21052   5.279   0.891   0.850
 6718SOL    HW121053   5.316   0.804   0.818
 6718SOL    HW221054   5.353   0.948   0.887
 6719SOL     OW21055   2.792   6.656   6.429
 6719SOL    HW121056   2.808   6.565   6.391
 6719SOL    HW221057   2.704   6.657   6.477
 6720SOL     OW21058   1.623   0.602   4.390
 6720SOL    HW121059   1.666   0.514   4.370
 6720SOL    HW221060   1.580   0.598   4.480
 6721SOL     OW21061   6.681   6.579   0.334
 6721SOL    HW121062   6.591   6.568   0.376
 6721SOL    HW221063   6.739   6.501   0.358
 6722SOL     OW21064   0.132   2.831   1.373
 6722SOL    HW121065   0.108   2.924   1.347
 6722SOL    HW221066   0.065   2.767   1.334
 6723SOL     OW21067   1.995   6.136   4.193
 6723SOL    HW121068   1.897   6.146   4.209
 6723SOL    HW221069   2.046   6.194   4.257
 6724SOL     OW21070   2.073   3.603   6.009
 6724SOL    HW121071   2.007   3.538   6.046
 6724SOL    HW221072   2.117   3.653   6.084
 6725SOL     OW21073   0.152   3.655   1.973
 6725SOL    HW121074   0.117   3.610   1.891
 6725SOL    HW221075   0.165   3.588   2.046
 6726SOL     OW21076   1.244   2.357   5.242
 6726SOL    HW121077   1.160   2.348   5.296
 6726SOL    HW221078   1.310   2.288   5.272
 6727SOL     OW21079   0.737   4.896   5.133
 6727SOL    HW121080   0.770   4.874   5.041
 6727SOL    HW221081   0.668   4.829   5.160
 6728SOL     OW21082   3.418   2.056   2.342
 6728SOL    HW121083   3.388   2.121   2.411
 6728SOL    HW221084   3.360   1.975   2.345
 6729SOL     OW21085   6.328   0.893   2.656
 6729SOL    HW121086   6.258   0.964   2.656
 6729SOL    HW221087   6.286   0.804   2.641
 6730SOL     OW21088   1.774   6.513   1.267
 6730SOL    HW121089   1.793   6.475   1.357
 6730SOL    HW221090   1.817   6.457   1.197
 6731SOL     OW21091   1.314   6.264   1.096
 6731SOL    HW121092   1.249   6.245   1.022
 6731SOL    HW221093   1.276   6.230   1.183
 6732SOL     OW21094   5.683   4.671   4.868
 6732SOL    HW121095   5.697   4.639   4.962
 6732SOL    HW221096   5.746   4.746   4.849
 6733SOL     OW21097   3.857   5.510   6.312
 6733SOL    HW121098   3.799   5.435   6.345
 6733SOL    HW221099   3.906   5.550   6.389
 6734SOL     OW21100   5.571   2.946   4.329
 6734SOL    HW121101   5.652   2.892   4.350
 6734SOL    HW221102   5.588   3.042   4.351
 6735SOL     OW21103   6.637   4.287   4.818
 6735SOL    HW121104   6.657   4.227   4.741
 6735SOL    HW221105   6.627   4.232   4.901
 6736SOL     OW21106   3.508   3.741   0.335
 6736SOL    HW121107   3.454   3.815   0.373
 6736SOL    HW221108   3.498   3.740   0.235
 6737SOL     OW21109   1.496   2.372   0.816
 6737SOL    HW121110   1.554   2.391   0.736
 6737SOL    HW221111   1.528   2.287   0.860
 6738SOL     OW21112   1.173   5.916   3.170
 6738SOL    HW121113   1.136   5.824   3.188
 6738SOL    HW221114   1.201   5.922   3.075
 6739SOL     OW21115   4.531   6.041   4.274
 6739SOL    HW121116   4.478   6.004   4.198
 6739SOL    HW221117   4.566   6.131   4.249
 6740SOL     OW21118   1.141   0.517   4.883
 6740SOL    HW121119   1.184   0.508   4.973
 6740SOL    HW221120   1.070   0.447   4.872
 6741SOL     OW21121   4.250   1.915   4.972
 6741SOL    HW121122   4.340   1.891   5.007
 6741SOL    HW221123   4.214   1.994   5.021
 6742SOL     OW21124   5.432   5.912   2.844
 6742SOL    HW121125   5.361   5.842   2.853
 6742SOL    HW221126   5.461   5.942   2.935
 6743SOL     OW21127   4.384   4.974   6.466
 6743SOL    HW121128   4.410   5.006   6.557
 6743SOL    HW221129   4.307   4.912   6.473
 6744SOL     OW21130   5.814   4.518   6.027
 6744SOL    HW121131   5.814   4.503   5.928
 6744SOL    HW221132   5.802   4.615   6.046
 6745SOL     OW21133   0.124   6.530   3.532
 6745SOL    HW121134   0.029   6.498   3.529
 6745SOL    HW221135   0.155   6.535   3.627
 6746SOL     OW21136   1.183   1.162   3.498
 6746SOL    HW121137   1.174   1.157   3.597
 6746SOL    HW221138   1.095   1.189   3.457
 6747SOL     OW21139   5.268   1.376   4.656
 6747SOL    HW121140   5.258   1.293   4.710
 6747SOL    HW221141   5.226   1.453   4.705
 6748SOL     OW21142   3.052   1.509   4.460
 6748SOL    HW121143   3.135   1.468   4.421
 6748SOL    HW221144   3.078   1.573   4.533
 6749SOL     OW21145   3.635   5.091   0.236
 6749SOL    HW121146   3.594   5.000   0.231
 6749SOL    HW221147   3.735   5.082   0.241
 6750SOL     OW21148   3.765   1.843   5.089
 6750SOL    HW121149   3.739   1.879   5.179
 6750SOL    HW221150   3.863   1.859   5.074
 6751SOL     OW21151   4.872   6.939   3.102
 6751SOL    HW121152   4.860   6.872   3.175
 6751SOL    HW221153   4.968   6.942   3.075
 6752SOL     OW21154   1.293   1.015   3.253
 6752SOL    HW121155   1.250   1.098   3.289
 6752SOL    HW221156   1.390   1.014   3.280
 6753SOL     OW21157   2.962   0.733   6.378
 6753SOL    HW121158   2.888   0.737   6.312
 6753SOL    HW221159   2.951   0.804   6.447
 6754SOL     OW21160   6.894   1.881   0.890
 6754SOL    HW121161   6.798   1.854   0.887
 6754SOL    HW221162   6.944   1.833   0.818
 6755SOL     OW21163   4.069   1.005   2.776
 6755SOL    HW121164   4.127   1.002   2.858
 6755SOL    HW221165   3.981   0.963   2.796
 6756SOL     OW21166   4.102   5.729   4.988
 6756SOL    HW121167   4.089   5.698   4.894
 6756SOL    HW221168   4.173   5.675   5.032
 6757SOL     OW21169   4.148   2.371   0.824
 6757SOL    HW121170   4.165   2.275   0.804
 6757SOL    HW221171   4.167   2.389   0.921
 6758SOL     OW21172   6.172   1.555   2.213
 6758SOL    HW121173   6.154   1.645   2.253
 6758SOL    HW221174   6.088   1.502   2.211
 6759SOL     OW21175   1.371   4.101   4.588
 6759SOL    HW121176   1.304   4.096   4.514
 6759SOL    HW221177   1.426   4.184   4.578
 6760SOL     OW21178   6.526   4.074   2.715
 6760SOL    HW121179   6.511   3.977   2.696
 6760SOL    HW221180   6.446   4.126   2.686
 6761SOL     OW21181   6.772   2.803   5.644
 6761SOL    HW121182   6.703   2.768   5.581
 6761SOL    HW221183   6.772   2.748   5.727
 6762SOL     OW21184   0.862   5.130   5.169
 6762SOL    HW121185   0.951   5.113   5.126
 6762SOL    HW221186   0.801   5.052   5.152
 6763SOL     OW21187   0.806   5.387   3.230
 6763SOL    HW121188   0.733   5.416   3.292
 6763SOL    HW221189   0.895   5.402   3.273
 6764SOL     OW21190   1.289   5.246   1.161
 6764SOL    HW121191   1.269   5.159   1.117
 6764SOL    HW221192   1.254   5.246   1.254
 6765SOL     OW21193   5.741   4.391   3.918
 6765SOL    HW121194   5.763   4.338   3.836
 6765SOL    HW221195   5.768   4.340   4.000
 6766SOL     OW21196   5.082   6.607   6.200
 6766SOL    HW121197   5.133   6.522   6.217
 6766SOL    HW221198   5.062   6.652   6.287
 6767SOL     OW21199   2.082   1.826   1.379
 6767SOL    HW121200   2.119   1.874   1.300
 6767SOL    HW221201   1.983   1.818   1.370
 6768SOL     OW21202   1.554   6.773   4.316
 6768SOL    HW121203   1.623   6.841   4.290
 6768SOL    HW221204   1.597   6.683   4.324
 6769SOL     OW21205   3.050   0.700   6.010
 6769SOL    HW121206   3.084   0.627   6.069
 6769SOL    HW221207   3.126   0.753   5.974
 6770SOL     OW21208   5.362   1.971   3.368
 6770SOL    HW121209   5.316   1.909   3.305
 6770SOL    HW221210   5.432   2.023   3.320
 6771SOL     OW21211   3.601   1.823   2.584
 6771SOL    HW121212   3.681   1.875   2.614
 6771SOL    HW221213   3.610   1.729   2.615
 6772SOL     OW21214   4.580   2.575   2.257
 6772SOL    HW121215   4.611   2.518   2.182
 6772SOL    HW221216   4.610   2.669   2.242
 6773SOL     OW21217   0.377   5.899   1.809
 6773SOL    HW121218   0.456   5.847   1.842
 6773SOL    HW221219   0.409   5.978   1.756
 6774SOL     OW21220   0.999   4.133   5.394
 6774SOL    HW121221   1.057   4.085   5.461
 6774SOL    HW221222   1.050   4.145   5.309
 6775SOL     OW21223   2.549   2.173   2.716
 6775SOL    HW121224   2.629   2.207   2.667
 6775SOL    HW221225   2.502   2.249   2.761
 6776SOL     OW21226   4.316   3.082   0.192
 6776SOL    HW121227   4.386   3.149   0.168
 6776SOL    HW221228   4.358   3.006   0.241
 6777SOL     OW21229   4.884   4.732   0.820
 6777SOL    HW121230   4.808   4.765   0.764
 6777SOL    HW221231   4.959   4.703   0.761
 6778SOL     OW21232   6.925   5.554   1.600
 6778SOL    HW121233   7.019   5.574   1.574
 6778SOL    HW221234   6.915   5.564   1.699
 6779SOL     OW21235   5.239   5.695   5.804
 6779SOL    HW121236   5.172   5.707   5.877
 6779SOL    HW221237   5.307   5.769   5.809
 6780SOL     OW21238   1.916   2.526   2.353
 6780SOL    HW121239   1.997   2.560   2.305
 6780SOL    HW221240   1.903   2.577   2.438
 6781SOL     OW21241   6.238   2.448   4.629
 6781SOL    HW121242   6.161   2.487   4.680
 6781SOL    HW221243   6.324   2.471   4.674
 6782SOL     OW21244   0.995   1.256   3.296
 6782SOL    HW121245   0.924   1.202   3.250
 6782SOL    HW221246   0.952   1.313   3.366
 6783SOL     OW21247   6.913   1.375   6.129
 6783SOL    HW121248   6.990   1.318   6.103
 6783SOL    HW221249   6.925   1.467   6.090
 6784SOL     OW21250   1.816   3.310   0.790
 6784SOL    HW121251   1.817   3.373   0.713
 6784SOL    HW221252   1.898   3.254   0.789
 6785SOL     OW21253   6.279   5.655   4.837
 6785SOL    HW121254   6.227   5.630   4.756
 6785SOL    HW221255   6.225   5.636   4.919
 6786SOL     OW21256   1.878   1.866   0.908
 6786SOL    HW121257   1.869   1.954   0.954
 6786SOL    HW221258   1.974   1.840   0.904
 6787SOL     OW21259   2.788   2.663   0.066
 6787SOL    HW121260   2.870   2.692   0.017
 6787SOL    HW221261   2.727   2.614   0.003
 6788SOL     OW21262   1.125   4.074   1.161
 6788SOL    HW121263   1.169   4.022   1.234
 6788SOL    HW221264   1.051   4.129   1.199
 6789SOL     OW21265   1.262   5.105   3.269
 6789SOL    HW121266   1.276   5.067   3.178
 6789SOL    HW221267   1.167   5.093   3.297
 6790SOL     OW21268   0.960   3.921   0.344
 6790SOL    HW121269   0.875   3.890   0.302
 6790SOL    HW221270   1.020   3.959   0.273
 6791SOL     OW21271   3.711   2.070   2.297
 6791SOL    HW121272   3.710   2.062   2.198
 6791SOL    HW221273   3.617   2.079   2.331
 6792SOL     OW21274   5.549   6.847   4.795
 6792SOL    HW121275   5.498   6.925   4.831
 6792SOL    HW221276   5.643   6.874   4.776
 6793SOL     OW21277   1.920   1.570   0.090
 6793SOL    HW121278   1.838   1.529   0.049
 6793SOL    HW221279   1.943   1.521   0.174
 6794SOL     OW21280   5.439   1.742   5.618
 6794SOL    HW121281   5.457   1.710   5.525
 6794SOL    HW221282   5.526   1.768   5.661
 6795SOL     OW21283   1.489   6.426   1.249
 6795SOL    HW121284   1.583   6.452   1.223
 6795SOL    HW221285   1.445   6.380   1.171
 6796SOL     OW21286   5.908   0.913   3.179
 6796SOL    HW121287   5.831   0.930   3.239
 6796SOL    HW221288   5.969   0.992   3.179
 6797SOL     OW21289   6.693   2.276   1.838
 6797SOL    HW121290   6.659   2.233   1.754
 6797SOL    HW221291   6.714   2.205   1.906
 6798SOL     OW21292   5.994   6.092   1.655
 6798SOL    HW121293   6.082   6.053   1.627
 6798SOL    HW221294   5.921   6.025   1.638
 6799SOL     OW21295   6.891   0.873   2.363
 6799SOL    HW121296   6.822   0.878   2.291
 6799SOL    HW221297   6.981   0.858   2.323
 6800SOL     OW21298   2.340   2.441   2.043
 6800SOL    HW121299   2.243   2.427   2.021
 6800SOL    HW221300   2.375   2.519   1.992
 6801SOL     OW21301   1.240   0.349   3.320
 6801SOL    HW121302   1.197   0.344   3.230
 6801SOL    HW221303   1.169   0.353   3.390
 6802SOL     OW21304   3.718   6.047   1.517
 6802SOL    HW121305   3.632   6.007   1.548
 6802SOL    HW221306   3.736   6.019   1.423
 6803SOL     OW21307   4.235   3.781   5.910
 6803SOL    HW121308   4.241   3.842   5.989
 6803SOL    HW221309   4.313   3.798   5.849
 6804SOL     OW21310   3.761   5.202   3.867
 6804SOL    HW121311   3.669   5.192   3.828
 6804SOL    HW221312   3.827   5.211   3.792
 6805SOL     OW21313   6.963   4.817   6.570
 6805SOL    HW121314   0.017   4.869   6.610
 6805SOL    HW221315   6.999   4.737   6.522
 6806SOL     OW21316   6.568   1.339   3.272
 6806SOL    HW121317   6.582   1.315   3.176
 6806SOL    HW221318   6.656   1.364   3.314
 6807SOL     OW21319   3.228   3.219   1.704
 6807SOL    HW121320   3.197   3.225   1.610
 6807SOL    HW221321   3.319   3.176   1.707
 6808SOL     OW21322   6.620   1.939   6.246
 6808SOL    HW121323   6.661   1.850   6.265
 6808SOL    HW221324   6.528   1.927   6.209
 6809SOL     OW21325   0.472   3.054   1.036
 6809SOL    HW121326   0.485   3.054   1.135
 6809SOL    HW221327   0.523   2.977   0.996
 6810SOL     OW21328   2.288   1.037   2.248
 6810SOL    HW121329   2.356   1.087   2.193
 6810SOL    HW221330   2.209   1.015   2.191
 6811SOL     OW21331   5.613   4.212   1.526
 6811SOL    HW121332   5.667   4.197   1.443
 6811SOL    HW221333   5.555   4.294   1.513
 6812SOL     OW21334   3.140   3.763   4.379
 6812SOL    HW121335   3.195   3.790   4.300
 6812SOL    HW221336   3.198   3.763   4.461
 6813SOL     OW21337   5.406   3.805   2.919
 6813SOL    HW121338   5.385   3.817   3.015
 6813SOL    HW221339   5.323   3.784   2.868
 6814SOL     OW21340   4.221   2.162   6.053
 6814SOL    HW121341   4.209   2.221   5.973
 6814SOL    HW221342   4.285   2.089   6.031
 6815SOL     OW21343   3.260   6.093   0.275
 6815SOL    HW121344   3.278   6.025   0.204
 6815SOL    HW221345   3.251   6.047   0.363
 6816SOL     OW21346   6.538   0.965   6.048
 6816SOL    HW121347   6.583   1.020   5.977
 6816SOL    HW221348   6.591   0.881   6.063
 6817SOL     OW21349   2.403   2.599   2.992
 6817SOL    HW121350   2.357   2.638   2.912
 6817SOL    HW221351   2.396   2.662   3.069
 6818SOL     OW21352   2.052   6.417   0.872
 6818SOL    HW121353   2.000   6.354   0.815
 6818SOL    HW221354   2.124   6.459   0.817
 6819SOL     OW21355   3.893   1.541   3.251
 6819SOL    HW121356   3.802   1.499   3.254
 6819SOL    HW221357   3.948   1.506   3.327
 6820SOL     OW21358   2.332   6.159   1.174
 6820SOL    HW121359   2.270   6.236   1.189
 6820SOL    HW221360   2.310   6.086   1.239
 6821SOL     OW21361   4.109   2.120   5.124
 6821SOL    HW121362   4.043   2.133   5.051
 6821SOL    HW221363   4.074   2.054   5.191
 6822SOL     OW21364   5.743   2.228   5.788
 6822SOL    HW121365   5.701   2.299   5.731
 6822SOL    HW221366   5.841   2.227   5.773
 6823SOL     OW21367   5.734   3.728   5.690
 6823SOL    HW121368   5.689   3.710   5.778
 6823SOL    HW221369   5.769   3.822   5.690
 6824SOL     OW21370   1.328   1.626   0.172
 6824SOL    HW121371   1.229   1.621   0.184
 6824SOL    HW221372   1.350   1.623   0.075
 6825SOL     OW21373   5.611   0.351   0.469
 6825SOL    HW121374   5.690   0.398   0.430
 6825SOL    HW221375   5.621   0.346   0.569
 6826SOL     OW21376   1.970   3.400   3.694
 6826SOL    HW121377   1.915   3.477   3.661
 6826SOL    HW221378   1.912   3.336   3.744
 6827SOL     OW21379   4.780   5.096   5.935
 6827SOL    HW121380   4.846   5.084   6.009
 6827SOL    HW221381   4.698   5.041   5.954
 6828SOL     OW21382   2.999   1.348   1.533
 6828SOL    HW121383   3.080   1.290   1.531
 6828SOL    HW221384   2.991   1.396   1.446
 6829SOL     OW21385   4.738   6.018   5.210
 6829SOL    HW121386   4.643   6.039   5.233
 6829SOL    HW221387   4.783   6.099   5.173
 6830SOL     OW21388   5.119   0.886   3.204
 6830SOL    HW121389   5.056   0.840   3.265
 6830SOL    HW221390   5.195   0.825   3.182
 6831SOL     OW21391   1.315   0.804   6.727
 6831SOL    HW121392   1.300   0.852   6.814
 6831SOL    HW221393   1.243   0.830   6.663
 6832SOL     OW21394   2.278   3.920   0.828
 6832SOL    HW121395   2.233   3.957   0.747
 6832SOL    HW221396   2.259   3.980   0.906
 6833SOL     OW21397   3.329   4.703   6.646
 6833SOL    HW121398   3.389   4.623   6.648
 6833SOL    HW221399   3.370   4.775   6.591
 6834SOL     OW21400   5.555   0.353   0.747
 6834SOL    HW121401   5.458   0.369   0.731
 6834SOL    HW221402   5.566   0.270   0.802
 6835SOL     OW21403   4.583   0.647   4.778
 6835SOL    HW121404   4.576   0.548   4.786
 6835SOL    HW221405   4.493   0.685   4.760
 6836SOL     OW21406   3.124   4.410   0.597
 6836SOL    HW121407   3.189   4.383   0.526
 6836SOL    HW221408   3.048   4.461   0.555
 6837SOL     OW21409   1.042   1.980   2.833
 6837SOL    HW121410   1.038   1.915   2.757
 6837SOL    HW221411   1.137   1.989   2.864
 6838SOL     OW21412   3.699   6.311   6.971
 6838SOL    HW121413   3.755   6.361   0.015
 6838SOL    HW221414   3.604   6.308   7.003
 6839SOL     OW21415   5.617   1.516   6.102
 6839SOL    HW121416   5.691   1.452   6.082
 6839SOL    HW221417   5.645   1.608   6.073
 6840SOL     OW21418   3.401   0.671   4.121
 6840SOL    HW121419   3.303   0.673   4.106
 6840SOL    HW221420   3.420   0.659   4.218
 6841SOL     OW21421   3.727   4.668   0.373
 6841SOL    HW121422   3.755   4.763   0.387
 6841SOL    HW221423   3.635   4.655   0.410
 6842SOL     OW21424   2.466   3.339   0.978
 6842SOL    HW121425   2.505   3.360   0.889
 6842SOL    HW221426   2.370   3.313   0.968
 6843SOL     OW21427   6.204   6.427   1.780
 6843SOL    HW121428   6.189   6.505   1.720
 6843SOL    HW221429   6.142   6.432   1.858
 6844SOL     OW21430   4.513   0.624   3.456
 6844SOL    HW121431   4.576   0.609   3.533
 6844SOL    HW221432   4.544   0.703   3.403
 6845SOL     OW21433   6.315   5.016   3.663
 6845SOL    HW121434   6.408   4.987   3.641
 6845SOL    HW221435   6.317   5.074   3.745
 6846SOL     OW21436   4.037   2.581   0.425
 6846SOL    HW121437   4.040   2.680   0.409
 6846SOL    HW221438   4.079   2.561   0.513
 6847SOL     OW21439   0.259   4.612   3.200
 6847SOL    HW121440   0.274   4.569   3.290
 6847SOL    HW221441   0.168   4.589   3.168
 6848SOL     OW21442   4.083   6.932   3.657
 6848SOL    HW121443   4.009   6.870   3.683
 6848SOL    HW221444   4.045   0.001   3.642
 6849SOL     OW21445   3.910   5.073   4.815
 6849SOL    HW121446   3.971   5.143   4.852
 6849SOL    HW221447   3.965   4.997   4.780
 6850SOL     OW21448   6.033   4.020   1.939
 6850SOL    HW121449   6.076   4.050   2.023
 6850SOL    HW221450   5.974   3.941   1.958
 6851SOL     OW21451   0.729   2.643   3.240
 6851SOL    HW121452   0.749   2.546   3.252
 6851SOL    HW221453   0.710   2.685   3.328
 6852SOL     OW21454   2.603   5.025   0.679
 6852SOL    HW121455   2.540   4.952   0.708
 6852SOL    HW221456   2.683   5.025   0.739
 6853SOL     OW21457   6.608   3.976   0.204
 6853SOL    HW121458   6.644   3.925   0.126
 6853SOL    HW221459   6.678   3.982   0.275
 6854SOL     OW21460   5.184   2.046   6.362
 6854SOL    HW121461   5.084   2.052   6.360
 6854SOL    HW221462   5.222   2.094   6.283
 6855SOL     OW21463   3.478   5.571   3.120
 6855SOL    HW121464   3.506   5.642   3.185
 6855SOL    HW221465   3.382   5.583   3.097
 6856SOL     OW21466   4.947   3.838   5.496
 6856SOL    HW121467   4.938   3.783   5.579
 6856SOL    HW221468   4.913   3.785   5.418
 6857SOL     OW21469   3.101   2.478   6.941
 6857SOL    HW121470   3.072   2.483   0.014
 6857SOL    HW221471   3.187   2.527   6.930
 6858SOL     OW21472   3.846   3.719   3.731
 6858SOL    HW121473   3.824   3.743   3.826
 6858SOL    HW221474   3.787   3.644   3.701
 6859SOL     OW21475   0.437   1.160   0.470
 6859SOL    HW121476   0.525   1.203   0.486
 6859SOL    HW221477   0.429   1.077   0.526
 6860SOL     OW21478   6.747   5.076   1.276
 6860SOL    HW121479   6.811   5.137   1.229
 6860SOL    HW221480   6.762   5.081   1.374
 6861SOL     OW21481   4.318   5.090   0.239
 6861SOL    HW121482   4.230   5.106   0.284
 6861SOL    HW221483   4.376   5.170   0.251
 6862SOL     OW21484   1.874   4.538   5.774
 6862SOL    HW121485   1.775   4.548   5.783
 6862SOL    HW221486   1.905   4.586   5.693
 6863SOL     OW21487   5.362   0.173   6.077
 6863SOL    HW121488   5.360   0.074   6.069
 6863SOL    HW221489   5.424   0.211   6.008
 6864SOL     OW21490   2.832   5.640   4.368
 6864SOL    HW121491   2.910   5.702   4.355
 6864SOL    HW221492   2.753   5.675   4.319
 6865SOL     OW21493   1.309   6.375   3.298
 6865SOL    HW121494   1.241   6.341   3.233
 6865SOL    HW221495   1.302   6.324   3.383
 6866SOL     OW21496   6.357   4.991   3.197
 6866SOL    HW121497   6.266   5.029   3.176
 6866SOL    HW221498   6.411   4.986   3.114
 6867SOL     OW21499   2.520   3.899   1.640
 6867SOL    HW121500   2.600   3.845   1.665
 6867SOL    HW221501   2.448   3.884   1.707
 6868SOL     OW21502   1.192   5.415   6.127
 6868SOL    HW121503   1.242   5.350   6.183
 6868SOL    HW221504   1.253   5.454   6.058
 6869SOL     OW21505   6.177   1.169   5.718
 6869SOL    HW121506   6.087   1.134   5.744
 6869SOL    HW221507   6.212   1.229   5.791
 6870SOL     OW21508   0.435   4.805   1.990
 6870SOL    HW121509   0.423   4.813   1.891
 6870SOL    HW221510   0.512   4.863   2.018
 6871SOL     OW21511   6.079   4.555   3.250
 6871SOL    HW121512   6.178   4.547   3.255
 6871SOL    HW221513   6.037   4.473   3.291
 6872SOL     OW21514   0.019   2.612   1.109
 6872SOL    HW121515   0.096   2.636   1.049
 6872SOL    HW221516   6.973   2.561   1.057
 6873SOL     OW21517   6.921   3.948   5.738
 6873SOL    HW121518   6.837   3.894   5.734
 6873SOL    HW221519   6.989   3.910   5.675
 6874SOL     OW21520   0.385   6.090   2.503
 6874SOL    HW121521   0.376   6.168   2.564
 6874SOL    HW221522   0.456   6.109   2.435
 6875SOL     OW21523   2.444   2.620   3.447
 6875SOL    HW121524   2.380   2.543   3.448
 6875SOL    HW221525   2.443   2.663   3.357
 6876SOL     OW21526   3.500   6.581   3.848
 6876SOL    HW121527   3.596   6.594   3.871
 6876SOL    HW221528   3.488   6.490   3.807
 6877SOL     OW21529   2.487   3.803   1.202
 6877SOL    HW121530   2.560   3.752   1.156
 6877SOL    HW221531   2.410   3.815   1.139
 6878SOL     OW21532   3.074   1.207   5.168
 6878SOL    HW121533   3.091   1.228   5.072
 6878SOL    HW221534   3.101   1.112   5.186
 6879SOL     OW21535   0.810   2.315   0.607
 6879SOL    HW121536   0.762   2.373   0.542
 6879SOL    HW221537   0.813   2.360   0.696
 6880SOL     OW21538   1.372   4.916   4.585
 6880SOL    HW121539   1.385   4.935   4.683
 6880SOL    HW221540   1.278   4.937   4.560
 6881SOL     OW21541   1.670   3.831   0.764
 6881SOL    HW121542   1.723   3.915   0.774
 6881SOL    HW221543   1.578   3.844   0.802
 6882SOL     OW21544   2.943   0.700   6.802
 6882SOL    HW121545   2.859   0.682   6.750
 6882SOL    HW221546   2.932   0.667   6.896
 6883SOL     OW21547   4.383   1.146   0.798
 6883SOL    HW121548   4.447   1.074   0.770
 6883SOL    HW221549   4.304   1.146   0.737
 6884SOL     OW21550   2.594   4.642   4.277
 6884SOL    HW121551   2.629   4.581   4.348
 6884SOL    HW221552   2.591   4.593   4.190
 6885SOL     OW21553   3.811   5.381   3.559
 6885SOL    HW121554   3.907   5.360   3.540
 6885SOL    HW221555   3.753   5.314   3.514
 6886SOL     OW21556   6.650   0.790   4.589
 6886SOL    HW121557   6.698   0.761   4.507
 6886SOL    HW221558   6.716   0.805   4.663
 6887SOL     OW21559   5.028   5.655   6.307
 6887SOL    HW121560   5.113   5.658   6.253
 6887SOL    HW221561   5.001   5.560   6.319
 6888SOL     OW21562   5.497   6.162   6.886
 6888SOL    HW121563   5.482   6.201   6.977
 6888SOL    HW221564   5.510   6.063   6.894
 6889SOL     OW21565   2.002   2.357   5.119
 6889SOL    HW121566   1.931   2.408   5.072
 6889SOL    HW221567   2.089   2.406   5.114
 6890SOL     OW21568   4.689   6.197   1.570
 6890SOL    HW121569   4.630   6.188   1.650
 6890SOL    HW221570   4.687   6.292   1.538
 6891SOL     OW21571   2.103   4.392   3.339
 6891SOL    HW121572   2.157   4.379   3.255
 6891SOL    HW221573   2.153   4.451   3.401
 6892SOL     OW21574   2.975   2.140   3.368
 6892SOL    HW121575   2.950   2.179   3.457
 6892SOL    HW221576   3.060   2.089   3.377
 6893SOL     OW21577   4.079   4.127   6.958
 6893SOL    HW121578   4.084   4.166   6.866
 6893SOL    HW221579   4.168   4.087   6.982
 6894SOL     OW21580   6.596   4.597   0.858
 6894SOL    HW121581   6.571   4.677   0.912
 6894SOL    HW221582   6.685   4.612   0.815
 6895SOL     OW21583   3.048   5.163   7.019
 6895SOL    HW121584   3.130   5.183   0.051
 6895SOL    HW221585   3.071   5.167   6.922
 6896SOL     OW21586   2.298   0.027   3.795
 6896SOL    HW121587   2.230   0.084   3.841
 6896SOL    HW221588   2.387   0.039   3.839
 6897SOL     OW21589   4.831   4.114   6.213
 6897SOL    HW121590   4.759   4.181   6.227
 6897SOL    HW221591   4.878   4.133   6.126
 6898SOL     OW21592   3.470   1.477   1.591
 6898SOL    HW121593   3.563   1.465   1.556
 6898SOL    HW221594   3.445   1.574   1.586
 6899SOL     OW21595   5.502   6.284   1.265
 6899SOL    HW121596   5.595   6.292   1.299
 6899SOL    HW221597   5.448   6.230   1.330
 6900SOL     OW21598   6.554   6.646   5.684
 6900SOL    HW121599   6.575   6.612   5.775
 6900SOL    HW221600   6.541   6.569   5.622
 6901SOL     OW21601   0.027   6.133   6.179
 6901SOL    HW121602   6.950   6.129   6.186
 6901SOL    HW221603   0.062   6.042   6.156
 6902SOL     OW21604   5.493   5.896   6.889
 6902SOL    HW121605   5.465   5.891   6.985
 6902SOL    HW221606   5.435   5.835   6.835
 6903SOL     OW21607   3.061   5.590   4.804
 6903SOL    HW121608   3.087   5.617   4.897
 6903SOL    HW221609   3.141   5.557   4.755
 6904SOL     OW21610   5.778   0.523   4.509
 6904SOL    HW121611   5.794   0.543   4.412
 6904SOL    HW221612   5.852   0.561   4.564
 6905SOL     OW21613   5.769   6.712   6.137
 6905SOL    HW121614   5.718   6.687   6.056
 6905SOL    HW221615   5.865   6.684   6.126
 6906SOL     OW21616   4.648   1.294   3.453
 6906SOL    HW121617   4.645   1.388   3.486
 6906SOL    HW221618   4.730   1.249   3.488
 6907SOL     OW21619   5.291   2.818   1.360
 6907SOL    HW121620   5.384   2.838   1.330
 6907SOL    HW221621   5.265   2.880   1.433
 6908SOL     OW21622   0.931   5.371   6.065
 6908SOL    HW121623   1.025   5.379   6.032
 6908SOL    HW221624   0.930   5.383   6.164
 6909SOL     OW21625   5.595   4.398   1.178
 6909SOL    HW121626   5.540   4.462   1.125
 6909SOL    HW221627   5.586   4.418   1.275
 6910SOL     OW21628   6.608   1.985   3.215
 6910SOL    HW121629   6.585   2.068   3.165
 6910SOL    HW221630   6.611   1.908   3.152
 6911SOL     OW21631   4.379   5.959   4.045
 6911SOL    HW121632   4.358   5.865   4.072
 6911SOL    HW221633   4.301   5.998   3.995
 6912SOL     OW21634   3.969   4.586   6.701
 6912SOL    HW121635   3.901   4.624   6.763
 6912SOL    HW221636   3.956   4.624   6.610
 6913SOL     OW21637   4.808   5.691   4.347
 6913SOL    HW121638   4.762   5.632   4.413
 6913SOL    HW221639   4.907   5.673   4.350
 6914SOL     OW21640   5.879   3.778   5.150
 6914SOL    HW121641   5.936   3.780   5.233
 6914SOL    HW221642   5.792   3.734   5.171
 6915SOL     OW21643   6.059   3.125   1.707
 6915SOL    HW121644   6.156   3.135   1.729
 6915SOL    HW221645   6.013   3.214   1.717
 6916SOL     OW21646   6.505   2.505   0.201
 6916SOL    HW121647   6.602   2.490   0.223
 6916SOL    HW221648   6.449   2.441   0.253
 6917SOL     OW21649   3.106   5.709   1.091
 6917SOL    HW121650   3.181   5.708   1.158
 6917SOL    HW221651   3.020   5.691   1.138
 6918SOL     OW21652   7.011   3.120   4.103
 6918SOL    HW121653   0.087   3.126   4.122
 6918SOL    HW221654   6.979   3.208   4.067
 6919SOL     OW21655   0.084   6.324   2.887
 6919SOL    HW121656   0.058   6.289   2.798
 6919SOL    HW221657   0.153   6.264   2.928
 6920SOL     OW21658   4.464   5.818   5.117
 6920SOL    HW121659   4.500   5.822   5.024
 6920SOL    HW221660   4.385   5.878   5.125
 6921SOL     OW21661   5.522   5.674   3.651
 6921SOL    HW121662   5.427   5.688   3.622
 6921SOL    HW221663   5.547   5.744   3.717
 6922SOL     OW21664   2.100   5.858   5.577
 6922SOL    HW121665   2.114   5.805   5.660
 6922SOL    HW221666   2.046   5.805   5.512
 6923SOL     OW21667   4.473   5.768   3.353
 6923SOL    HW121668   4.483   5.722   3.265
 6923SOL    HW221669   4.510   5.710   3.426
 6924SOL     OW21670   2.828   3.799   6.693
 6924SOL    HW121671   2.872   3.851   6.621
 6924SOL    HW221672   2.751   3.852   6.730
 6925SOL     OW21673   4.392   6.128   4.471
 6925SOL    HW121674   4.433   6.137   4.561
 6925SOL    HW221675   4.459   6.090   4.407
 6926SOL     OW21676   3.670   2.678   1.116
 6926SOL    HW121677   3.690   2.694   1.213
 6926SOL    HW221678   3.635   2.585   1.104
 6927SOL     OW21679   4.379   2.921   6.349
 6927SOL    HW121680   4.403   2.905   6.253
 6927SOL    HW221681   4.426   3.004   6.382
 6928SOL     OW21682   6.212   5.682   0.802
 6928SOL    HW121683   6.248   5.773   0.816
 6928SOL    HW221684   6.261   5.637   0.728
 6929SOL     OW21685   5.883   5.227   1.148
 6929SOL    HW121686   5.852   5.163   1.078
 6929SOL    HW221687   5.831   5.211   1.232
 6930SOL     OW21688   0.376   0.150   2.367
 6930SOL    HW121689   0.305   0.163   2.437
 6930SOL    HW221690   0.449   0.217   2.381
 6931SOL     OW21691   2.210   0.766   2.497
 6931SOL    HW121692   2.189   0.732   2.406
 6931SOL    HW221693   2.231   0.689   2.558
 6932SOL     OW21694   4.413   6.561   0.634
 6932SOL    HW121695   4.401   6.613   0.550
 6932SOL    HW221696   4.365   6.473   0.626
 6933SOL     OW21697   3.394   6.092   4.700
 6933SOL    HW121698   3.387   6.013   4.761
 6933SOL    HW221699   3.465   6.075   4.632
 6934SOL     OW21700   5.253   3.377   5.987
 6934SOL    HW121701   5.183   3.404   5.920
 6934SOL    HW221702   5.214   3.384   6.079
 6935SOL     OW21703   4.479   5.218   3.069
 6935SOL    HW121704   4.569   5.244   3.105
 6935SOL    HW221705   4.464   5.121   3.083
 6936SOL     OW21706   5.903   1.841   3.574
 6936SOL    HW121707   5.889   1.753   3.621
 6936SOL    HW221708   6.001   1.859   3.568
 6937SOL     OW21709   6.786   6.362   0.030
 6937SOL    HW121710   6.725   6.441   0.032
 6937SOL    HW221711   6.734   6.281   0.004
 6938SOL     OW21712   5.146   3.298   5.175
 6938SOL    HW121713   5.089   3.359   5.230
 6938SOL    HW221714   5.192   3.350   5.103
 6939SOL     OW21715   1.145   4.512   2.189
 6939SOL    HW121716   1.175   4.552   2.102
 6939SOL    HW221717   1.215   4.449   2.222
 6940SOL     OW21718   4.228   0.840   6.552
 6940SOL    HW121719   4.224   0.794   6.640
 6940SOL    HW221720   4.308   0.807   6.501
 6941SOL     OW21721   3.791   3.984   1.956
 6941SOL    HW121722   3.857   3.919   1.994
 6941SOL    HW221723   3.734   4.021   2.029
 6942SOL     OW21724   5.487   0.663   1.263
 6942SOL    HW121725   5.527   0.730   1.326
 6942SOL    HW221726   5.395   0.638   1.295
 6943SOL     OW21727   4.341   6.132   0.364
 6943SOL    HW121728   4.348   6.059   0.432
 6943SOL    HW221729   4.270   6.110   0.298
 6944SOL     OW21730   0.551   4.171   6.556
 6944SOL    HW121731   0.493   4.244   6.592
 6944SOL    HW221732   0.567   4.103   6.628
 6945SOL     OW21733   6.248   0.983   6.879
 6945SOL    HW121734   6.189   0.981   6.798
 6945SOL    HW221735   6.218   1.056   6.940
 6946SOL     OW21736   5.791   6.454   1.133
 6946SOL    HW121737   5.762   6.371   1.182
 6946SOL    HW221738   5.881   6.483   1.165
 6947SOL     OW21739   3.308   6.300   6.652
 6947SOL    HW121740   3.361   6.289   6.568
 6947SOL    HW221741   3.212   6.278   6.635
 6948SOL     OW21742   0.019   0.035   0.790
 6948SOL    HW121743   0.048   0.030   0.694
 6948SOL    HW221744   0.010   0.131   0.817
 6949SOL     OW21745   4.355   7.013   2.541
 6949SOL    HW121746   4.375   0.086   2.564
 6949SOL    HW221747   4.320   6.965   2.622
 6950SOL     OW21748   2.053   1.963   4.784
 6950SOL    HW121749   2.017   2.027   4.852
 6950SOL    HW221750   2.063   1.872   4.824
 6951SOL     OW21751   6.628   5.719   5.979
 6951SOL    HW121752   6.555   5.671   6.028
 6951SOL    HW221753   6.657   5.798   6.033
 6952SOL     OW21754   0.977   6.443   3.250
 6952SOL    HW121755   0.972   6.529   3.300
 6952SOL    HW221756   0.976   6.461   3.151
 6953SOL     OW21757   4.614   6.329   0.935
 6953SOL    HW121758   4.668   6.344   1.018
 6953SOL    HW221759   4.646   6.391   0.864
 6954SOL     OW21760   6.834   3.573   3.185
 6954SOL    HW121761   6.796   3.607   3.271
 6954SOL    HW221762   6.775   3.501   3.149
 6955SOL     OW21763   6.202   0.135   2.405
 6955SOL    HW121764   6.110   0.104   2.425
 6955SOL    HW221765   6.263   0.107   2.479
 6956SOL     OW21766   5.543   5.399   3.570
 6956SOL    HW121767   5.601   5.346   3.631
 6956SOL    HW221768   5.510   5.481   3.617
 6957SOL     OW21769   6.517   5.145   0.612
 6957SOL    HW121770   6.580   5.079   0.653
 6957SOL    HW221771   6.498   5.218   0.677
 6958SOL     OW21772   3.363   3.004   4.560
 6958SOL    HW121773   3.419   2.938   4.511
 6958SOL    HW221774   3.335   2.966   4.648
 6959SOL     OW21775   1.768   2.164   4.078
 6959SOL    HW121776   1.837   2.214   4.026
 6959SOL    HW221777   1.813   2.100   4.140
 6960SOL     OW21778   2.472   4.285   1.372
 6960SOL    HW121779   2.444   4.312   1.280
 6960SOL    HW221780   2.434   4.195   1.394
 6961SOL     OW21781   5.653   1.847   3.465
 6961SOL    HW121782   5.567   1.834   3.514
 6961SOL    HW221783   5.729   1.818   3.522
 6962SOL     OW21784   4.730   6.032   1.772
 6962SOL    HW121785   4.740   6.073   1.682
 6962SOL    HW221786   4.793   6.077   1.836
 6963SOL     OW21787   5.564   6.228   0.946
 6963SOL    HW121788   5.552   6.189   1.038
 6963SOL    HW221789   5.582   6.326   0.953
 6964SOL     OW21790   3.495   0.544   5.097
 6964SOL    HW121791   3.470   0.635   5.065
 6964SOL    HW221792   3.590   0.525   5.072
 6965SOL     OW21793   1.045   2.117   0.746
 6965SOL    HW121794   1.063   2.030   0.701
 6965SOL    HW221795   1.023   2.101   0.842
 6966SOL     OW21796   0.014   2.111   3.118
 6966SOL    HW121797   0.094   2.051   3.107
 6966SOL    HW221798   6.988   2.086   3.202
 6967SOL     OW21799   2.402   0.443   5.316
 6967SOL    HW121800   2.478   0.507   5.326
 6967SOL    HW221801   2.410   0.371   5.385
 6968SOL     OW21802   4.445   6.635   2.555
 6968SOL    HW121803   4.470   6.539   2.561
 6968SOL    HW221804   4.495   6.687   2.624
 6969SOL     OW21805   3.519   2.456   1.120
 6969SOL    HW121806   3.512   2.446   1.220
 6969SOL    HW221807   3.479   2.375   1.076
 6970SOL     OW21808   4.113   4.327   5.966
 6970SOL    HW121809   4.104   4.332   5.867
 6970SOL    HW221810   4.036   4.374   6.009
 6971SOL     OW21811   6.577   4.179   2.106
 6971SOL    HW121812   6.601   4.124   2.186
 6971SOL    HW221813   6.611   4.134   2.023
 6972SOL     OW21814   4.666   4.258   3.273
 6972SOL    HW121815   4.692   4.296   3.362
 6972SOL    HW221816   4.634   4.332   3.214
 6973SOL     OW21817   0.568   3.144   4.539
 6973SOL    HW121818   0.598   3.224   4.487
 6973SOL    HW221819   0.531   3.174   4.627
 6974SOL     OW21820   2.969   3.765   2.868
 6974SOL    HW121821   2.969   3.784   2.966
 6974SOL    HW221822   3.026   3.685   2.850
 6975SOL     OW21823   2.190   6.283   6.247
 6975SOL    HW121824   2.266   6.248   6.192
 6975SOL    HW221825   2.116   6.216   6.246
 6976SOL     OW21826   5.562   5.554   4.723
 6976SOL    HW121827   5.537   5.517   4.634
 6976SOL    HW221828   5.595   5.648   4.712
 6977SOL     OW21829   3.758   3.148   1.843
 6977SOL    HW121830   3.846   3.150   1.796
 6977SOL    HW221831   3.767   3.191   1.933
 6978SOL     OW21832   5.446   1.391   1.936
 6978SOL    HW121833   5.394   1.427   2.014
 6978SOL    HW221834   5.420   1.441   1.853
 6979SOL     OW21835   0.364   4.081   1.406
 6979SOL    HW121836   0.308   4.010   1.448
 6979SOL    HW221837   0.402   4.048   1.319
 6980SOL     OW21838   1.901   0.655   4.217
 6980SOL    HW121839   1.958   0.690   4.292
 6980SOL    HW221840   1.808   0.642   4.250
 6981SOL     OW21841   3.789   2.299   5.570
 6981SOL    HW121842   3.844   2.355   5.632
 6981SOL    HW221843   3.698   2.284   5.610
 6982SOL     OW21844   1.470   0.491   4.952
 6982SOL    HW121845   1.402   0.426   4.986
 6982SOL    HW221846   1.559   0.447   4.950
 6983SOL     OW21847   3.491   2.150   3.987
 6983SOL    HW121848   3.508   2.248   3.980
 6983SOL    HW221849   3.557   2.101   3.931
 6984SOL     OW21850   2.126   2.043   3.191
 6984SOL    HW121851   2.208   2.049   3.248
 6984SOL    HW221852   2.099   2.135   3.162
 6985SOL     OW21853   5.856   5.070   1.501
 6985SOL    HW121854   5.941   5.049   1.452
 6985SOL    HW221855   5.862   5.033   1.594
 6986SOL     OW21856   2.076   0.135   5.456
 6986SOL    HW121857   2.039   0.183   5.376
 6986SOL    HW221858   2.109   0.044   5.428
 6987SOL     OW21859   5.825   1.372   5.942
 6987SOL    HW121860   5.896   1.305   5.964
 6987SOL    HW221861   5.772   1.340   5.863
 6988SOL     OW21862   0.449   0.694   5.430
 6988SOL    HW121863   0.453   0.709   5.331
 6988SOL    HW221864   0.441   0.782   5.477
 6989SOL     OW21865   0.955   3.725   3.175
 6989SOL    HW121866   1.005   3.770   3.101
 6989SOL    HW221867   0.887   3.789   3.212
 6990SOL     OW21868   4.846   2.445   1.120
 6990SOL    HW121869   4.749   2.443   1.147
 6990SOL    HW221870   4.858   2.510   1.044
 6991SOL     OW21871   4.178   4.688   3.111
 6991SOL    HW121872   4.175   4.718   3.016
 6991SOL    HW221873   4.094   4.636   3.133
 6992SOL     OW21874   5.165   6.071   6.434
 6992SOL    HW121875   5.083   6.104   6.387
 6992SOL    HW221876   5.187   6.133   6.509
 6993SOL     OW21877   5.191   0.582   2.658
 6993SOL    HW121878   5.093   0.571   2.678
 6993SOL    HW221879   5.224   0.667   2.697
 6994SOL     OW21880   0.286   2.364   4.392
 6994SOL    HW121881   0.279   2.266   4.375
 6994SOL    HW221882   0.383   2.391   4.393
 6995SOL     OW21883   6.694   4.721   6.204
 6995SOL    HW121884   6.783   4.707   6.160
 6995SOL    HW221885   6.633   4.646   6.181
 6996SOL     OW21886   1.522   6.948   6.830
 6996SOL    HW121887   1.439   6.934   6.776
 6996SOL    HW221888   1.601   6.952   6.769
 6997SOL     OW21889   6.979   6.040   4.996
 6997SOL    HW121890   0.020   5.968   5.023
 6997SOL    HW221891   6.891   6.025   5.042
 6998SOL     OW21892   2.019   0.642   1.975
 6998SOL    HW121893   2.094   0.654   1.909
 6998SOL    HW221894   1.936   0.681   1.936
 6999SOL     OW21895   2.668   2.093   6.488
 6999SOL    HW121896   2.650   2.000   6.521
 6999SOL    HW221897   2.656   2.158   6.563
 7000SOL     OW21898   5.020   6.750   1.003
 7000SOL    HW121899   4.971   6.824   0.956
 7000SOL    HW221900   5.072   6.788   1.080
 7001SOL     OW21901   1.674   3.443   5.735
 7001SOL    HW121902   1.687   3.535   5.773
 7001SOL    HW221903   1.762   3.396   5.731
 7002SOL     OW21904   2.006   5.327   4.551
 7002SOL    HW121905   1.911   5.296   4.554
 7002SOL    HW221906   2.066   5.252   4.580
 7003SOL     OW21907   4.121   5.251   0.381
 7003SOL    HW121908   4.136   5.309   0.461
 7003SOL    HW221909   4.143   5.302   0.298
 7004SOL     OW21910   1.266   4.828   2.572
 7004SOL    HW121911   1.273   4.927   2.558
 7004SOL    HW221912   1.226   4.786   2.491
 7005SOL     OW21913   1.498   0.312   0.996
 7005SOL    HW121914   1.410   0.332   0.953
 7005SOL    HW221915   1.527   0.390   1.051
 7006SOL     OW21916   5.233   4.754   4.031
 7006SOL    HW121917   5.312   4.715   4.078
 7006SOL    HW221918   5.156   4.761   4.094
 7007SOL     OW21919   4.104   0.682   3.718
 7007SOL    HW121920   4.046   0.629   3.656
 7007SOL    HW221921   4.191   0.703   3.672
 7008SOL     OW21922   0.420   3.506   4.908
 7008SOL    HW121923   0.430   3.606   4.908
 7008SOL    HW221924   0.350   3.480   4.974
 7009SOL     OW21925   5.734   6.013   1.999
 7009SOL    HW121926   5.677   6.047   2.074
 7009SOL    HW221927   5.676   5.971   1.930
 7010SOL     OW21928   5.433   4.182   4.039
 7010SOL    HW121929   5.334   4.166   4.037
 7010SOL    HW221930   5.474   4.124   4.109
 7011SOL     OW21931   3.072   6.748   6.147
 7011SOL    HW121932   3.004   6.795   6.203
 7011SOL    HW221933   3.118   6.815   6.087
 7012SOL     OW21934   0.358   2.221   1.493
 7012SOL    HW121935   0.457   2.207   1.506
 7012SOL    HW221936   0.313   2.132   1.482
 7013SOL     OW21937   0.275   0.399   0.205
 7013SOL    HW121938   0.253   0.357   0.117
 7013SOL    HW221939   0.315   0.330   0.265
 7014SOL     OW21940   4.161   3.615   0.803
 7014SOL    HW121941   4.224   3.553   0.851
 7014SOL    HW221942   4.143   3.579   0.711
 7015SOL     OW21943   6.445   4.714   2.275
 7015SOL    HW121944   6.448   4.614   2.288
 7015SOL    HW221945   6.396   4.756   2.351
 7016SOL     OW21946   3.395   4.954   1.507
 7016SOL    HW121947   3.354   4.880   1.453
 7016SOL    HW221948   3.462   4.915   1.570
 7017SOL     OW21949   2.407   5.017   2.580
 7017SOL    HW121950   2.338   5.069   2.528
 7017SOL    HW221951   2.496   5.027   2.536
 7018SOL     OW21952   5.437   3.829   4.632
 7018SOL    HW121953   5.450   3.911   4.688
 7018SOL    HW221954   5.340   3.805   4.630
 7019SOL     OW21955   3.710   4.101   0.381
 7019SOL    HW121956   3.758   4.041   0.445
 7019SOL    HW221957   3.734   4.197   0.401
 7020SOL     OW21958   6.632   5.109   6.508
 7020SOL    HW121959   6.693   5.145   6.579
 7020SOL    HW221960   6.682   5.043   6.452
 7021SOL     OW21961   1.071   1.789   5.641
 7021SOL    HW121962   1.083   1.764   5.737
 7021SOL    HW221963   1.145   1.851   5.614
 7022SOL     OW21964   4.858   6.757   5.848
 7022SOL    HW121965   4.837   6.830   5.783
 7022SOL    HW221966   4.938   6.706   5.816
 7023SOL     OW21967   6.791   2.433   4.200
 7023SOL    HW121968   6.771   2.339   4.227
 7023SOL    HW221969   6.888   2.442   4.179
 7024SOL     OW21970   2.616   3.756   5.310
 7024SOL    HW121971   2.560   3.811   5.248
 7024SOL    HW221972   2.713   3.773   5.291
 7025SOL     OW21973   2.843   1.014   0.610
 7025SOL    HW121974   2.843   0.968   0.522
 7025SOL    HW221975   2.936   1.046   0.631
 7026SOL     OW21976   3.013   1.480   2.141
 7026SOL    HW121977   3.024   1.408   2.209
 7026SOL    HW221978   2.924   1.472   2.096
 7027SOL     OW21979   3.248   5.444   4.348
 7027SOL    HW121980   3.195   5.365   4.318
 7027SOL    HW221981   3.233   5.520   4.286
 7028SOL     OW21982   3.228   2.069   4.466
 7028SOL    HW121983   3.217   2.027   4.557
 7028SOL    HW221984   3.167   2.147   4.458
 7029SOL     OW21985   5.033   5.159   5.232
 7029SOL    HW121986   5.081   5.118   5.309
 7029SOL    HW221987   5.095   5.218   5.181
 7030SOL     OW21988   1.395   0.752   4.921
 7030SOL    HW121989   1.311   0.749   4.865
 7030SOL    HW221990   1.411   0.662   4.961
 7031SOL     OW21991   3.344   5.516   5.611
 7031SOL    HW121992   3.335   5.459   5.530
 7031SOL    HW221993   3.434   5.559   5.613
 7032SOL     OW21994   3.885   1.032   3.587
 7032SOL    HW121995   3.979   0.999   3.596
 7032SOL    HW221996   3.879   1.126   3.622
 7033SOL     OW21997   1.655   2.360   3.767
 7033SOL    HW121998   1.667   2.366   3.667
 7033SOL    HW221999   1.739   2.392   3.812
 7034SOL     OW22000   6.676   0.683   3.891
 7034SOL    HW122001   6.625   0.722   3.968
 7034SOL    HW222002   6.614   0.636   3.829
 7035SOL     OW22003   1.219   6.798   1.029
 7035SOL    HW122004   1.186   6.705   1.014
 7035SOL    HW222005   1.305   6.811   0.979
 7036SOL     OW22006   0.181   0.589   3.038
 7036SOL    HW122007   0.198   0.649   2.960
 7036SOL    HW222008   0.267   0.548   3.068
 7037SOL     OW22009   1.574   1.633   6.509
 7037SOL    HW122010   1.541   1.564   6.573
 7037SOL    HW222011   1.581   1.721   6.555
 7038SOL     OW22012   2.322   3.122   5.378
 7038SOL    HW122013   2.248   3.177   5.341
 7038SOL    HW222014   2.368   3.074   5.303
 7039SOL     OW22015   1.891   5.207   1.813
 7039SOL    HW122016   1.947   5.148   1.871
 7039SOL    HW222017   1.943   5.289   1.789
 7040SOL     OW22018   6.019   1.586   6.020
 7040SOL    HW122019   5.996   1.659   5.956
 7040SOL    HW222020   5.976   1.501   5.991
 7041SOL     OW22021   6.138   0.992   2.239
 7041SOL    HW122022   6.227   0.977   2.282
 7041SOL    HW222023   6.087   1.059   2.291
 7042SOL     OW22024   4.577   4.878   5.098
 7042SOL    HW122025   4.591   4.916   5.006
 7042SOL    HW222026   4.655   4.901   5.156
 7043SOL     OW22027   2.474   4.458   2.806
 7043SOL    HW122028   2.506   4.483   2.897
 7043SOL    HW222029   2.464   4.359   2.800
 7044SOL     OW22030   5.441   4.987   4.226
 7044SOL    HW122031   5.423   4.927   4.304
 7044SOL    HW222032   5.357   4.998   4.173
 7045SOL     OW22033   5.272   5.581   3.384
 7045SOL    HW122034   5.331   5.531   3.320
 7045SOL    HW222035   5.195   5.523   3.410
 7046SOL     OW22036   2.920   0.961   3.022
 7046SOL    HW122037   2.904   0.862   3.012
 7046SOL    HW222038   2.843   1.002   3.071
 7047SOL     OW22039   6.117   1.429   2.541
 7047SOL    HW122040   6.159   1.342   2.564
 7047SOL    HW222041   6.188   1.494   2.514
 7048SOL     OW22042   5.361   6.883   3.411
 7048SOL    HW122043   5.460   6.879   3.426
 7048SOL    HW222044   5.339   6.838   3.325
 7049SOL     OW22045   3.245   1.808   0.392
 7049SOL    HW122046   3.159   1.773   0.357
 7049SOL    HW222047   3.227   1.879   0.460
 7050SOL     OW22048   4.379   3.487   1.707
 7050SOL    HW122049   4.353   3.486   1.804
 7050SOL    HW222050   4.370   3.395   1.669
 7051SOL     OW22051   6.137   6.698   0.993
 7051SOL    HW122052   6.172   6.710   1.086
 7051SOL    HW222053   6.078   6.617   0.990
 7052SOL     OW22054   5.552   2.130   3.181
 7052SOL    HW122055   5.639   2.101   3.220
 7052SOL    HW222056   5.554   2.229   3.165
 7053SOL     OW22057   1.381   3.290   5.375
 7053SOL    HW122058   1.296   3.274   5.426
 7053SOL    HW222059   1.459   3.271   5.434
 7054SOL     OW22060   6.982   6.656   0.379
 7054SOL    HW122061   6.903   6.702   0.338
 7054SOL    HW222062   0.003   6.718   0.444
 7055SOL     OW22063   2.808   0.066   5.981
 7055SOL    HW122064   2.768   0.074   6.072
 7055SOL    HW222065   2.745   0.017   5.921
 7056SOL     OW22066   6.931   4.290   2.120
 7056SOL    HW122067   7.022   4.326   2.139
 7056SOL    HW222068   6.878   4.358   2.070
 7057SOL     OW22069   2.606   5.168   4.555
 7057SOL    HW122070   2.652   5.136   4.472
 7057SOL    HW222071   2.655   5.133   4.635
 7058SOL     OW22072   5.482   4.459   5.119
 7058SOL    HW122073   5.414   4.481   5.189
 7058SOL    HW222074   5.436   4.438   5.033
 7059SOL     OW22075   6.931   1.591   4.025
 7059SOL    HW122076   6.886   1.610   4.112
 7059SOL    HW222077   7.018   1.545   4.042
 7060SOL     OW22078   3.717   0.068   1.318
 7060SOL    HW122079   3.746   0.090   1.411
 7060SOL    HW222080   3.798   0.045   1.262
 7061SOL     OW22081   0.502   3.428   3.814
 7061SOL    HW122082   0.427   3.375   3.773
 7061SOL    HW222083   0.564   3.458   3.742
 7062SOL     OW22084   4.349   1.096   5.437
 7062SOL    HW122085   4.347   1.164   5.510
 7062SOL    HW222086   4.407   1.019   5.464
 7063SOL     OW22087   1.529   0.035   1.985
 7063SOL    HW122088   1.585   6.982   1.950
 7063SOL    HW222089   1.436   0.027   1.950
 7064SOL     OW22090   3.647   1.956   0.171
 7064SOL    HW122091   3.718   1.977   0.103
 7064SOL    HW222092   3.558   1.949   0.125
 7065SOL     OW22093   5.437   3.866   5.736
 7065SOL    HW122094   5.421   3.770   5.757
 7065SOL    HW222095   5.518   3.898   5.787
 7066SOL     OW22096   4.671   0.336   6.967
 7066SOL    HW122097   4.650   0.360   0.040
 7066SOL    HW222098   4.599   0.373   6.907
 7067SOL     OW22099   1.397   2.915   5.956
 7067SOL    HW122100   1.316   2.965   5.985
 7067SOL    HW222101   1.432   2.860   6.032
 7068SOL     OW22102   6.599   4.881   4.778
 7068SOL    HW122103   6.670   4.931   4.728
 7068SOL    HW222104   6.554   4.818   4.716
 7069SOL     OW22105   5.406   2.089   4.163
 7069SOL    HW122106   5.354   2.065   4.082
 7069SOL    HW222107   5.469   2.164   4.142
 7070SOL     OW22108   0.448   6.840   4.968
 7070SOL    HW122109   0.538   6.845   4.925
 7070SOL    HW222110   0.458   6.836   5.067
 7071SOL     OW22111   3.490   5.772   5.354
 7071SOL    HW122112   3.571   5.815   5.393
 7071SOL    HW222113   3.409   5.801   5.405
 7072SOL     OW22114   1.579   6.521   0.289
 7072SOL    HW122115   1.490   6.565   0.280
 7072SOL    HW222116   1.641   6.557   0.219
 7073SOL     OW22117   5.376   6.929   4.169
 7073SOL    HW122118   5.450   6.873   4.132
 7073SOL    HW222119   5.304   6.869   4.204
 7074SOL     OW22120   5.335   2.551   1.638
 7074SOL    HW122121   5.315   2.457   1.668
 7074SOL    HW222122   5.276   2.614   1.688
 7075SOL     OW22123   1.893   4.097   5.092
 7075SOL    HW122124   1.957   4.025   5.118
 7075SOL    HW222125   1.892   4.107   4.992
 7076SOL     OW22126   5.879   2.516   6.455
 7076SOL    HW122127   5.936   2.434   6.452
 7076SOL    HW222128   5.808   2.510   6.385
 7077SOL     OW22129   2.516   4.872   3.900
 7077SOL    HW122130   2.533   4.788   3.848
 7077SOL    HW222131   2.514   4.950   3.839
 7078SOL     OW22132   6.423   6.767   1.692
 7078SOL    HW122133   6.324   6.784   1.685
 7078SOL    HW222134   6.439   6.669   1.694
 7079SOL     OW22135   6.885   5.933   4.501
 7079SOL    HW122136   6.981   5.958   4.517
 7079SOL    HW222137   6.874   5.904   4.405
 7080SOL     OW22138   3.548   0.948   4.805
 7080SOL    HW122139   3.569   0.860   4.762
 7080SOL    HW222140   3.631   1.002   4.814
 7081SOL     OW22141   2.140   6.183   7.004
 7081SOL    HW122142   2.211   6.212   0.045
 7081SOL    HW222143   2.051   6.214   0.014
 7082SOL     OW22144   6.582   4.271   6.960
 7082SOL    HW122145   6.673   4.265   6.999
 7082SOL    HW222146   6.579   4.343   6.891
 7083SOL     OW22147   1.697   6.766   1.379
 7083SOL    HW122148   1.715   6.681   1.328
 7083SOL    HW222149   1.774   6.784   1.441
 7084SOL     OW22150   0.311   4.971   5.096
 7084SOL    HW122151   0.392   4.967   5.038
 7084SOL    HW222152   0.254   5.048   5.067
 7085SOL     OW22153   0.859   1.351   2.280
 7085SOL    HW122154   0.781   1.290   2.264
 7085SOL    HW222155   0.898   1.332   2.370
 7086SOL     OW22156   6.048   7.014   5.962
 7086SOL    HW122157   6.007   6.923   5.955
 7086SOL    HW222158   6.059   0.016   6.058
 7087SOL     OW22159   6.229   3.953   4.329
 7087SOL    HW122160   6.289   3.921   4.402
 7087SOL    HW222161   6.270   4.033   4.284
 7088SOL     OW22162   5.317   3.096   3.932
 7088SOL    HW122163   5.334   3.121   4.028
 7088SOL    HW222164   5.229   3.050   3.925
 7089SOL     OW22165   2.628   2.421   4.601
 7089SOL    HW122166   2.558   2.393   4.536
 7089SOL    HW222167   2.637   2.521   4.600
 7090SOL     OW22168   1.959   0.463   6.983
 7090SOL    HW122169   1.879   0.424   0.009
 7090SOL    HW222170   2.042   0.419   7.017
 7091SOL     OW22171   0.323   2.113   0.809
 7091SOL    HW122172   0.423   2.113   0.800
 7091SOL    HW222173   0.288   2.022   0.786
 7092SOL     OW22174   3.725   3.093   5.862
 7092SOL    HW122175   3.704   3.019   5.799
 7092SOL    HW222176   3.698   3.181   5.823
 7093SOL     OW22177   3.236   4.076   2.277
 7093SOL    HW122178   3.264   4.022   2.198
 7093SOL    HW222179   3.194   4.161   2.246
 7094SOL     OW22180   0.067   5.697   5.541
 7094SOL    HW122181   0.163   5.707   5.517
 7094SOL    HW222182   0.044   5.762   5.614
 7095SOL     OW22183   3.558   4.494   5.608
 7095SOL    HW122184   3.547   4.475   5.705
 7095SOL    HW222185   3.524   4.416   5.555
 7096SOL     OW22186   6.961   1.312   3.340
 7096SOL    HW122187   6.948   1.360   3.254
 7096SOL    HW222188   0.032   1.328   3.373
 7097SOL     OW22189   4.694   1.494   1.821
 7097SOL    HW122190   4.751   1.561   1.774
 7097SOL    HW222191   4.695   1.513   1.919
 7098SOL     OW22192   2.125   5.268   5.938
 7098SOL    HW122193   2.218   5.248   5.908
 7098SOL    HW222194   2.069   5.291   5.858
 7099SOL     OW22195   3.589   1.124   5.332
 7099SOL    HW122196   3.514   1.179   5.367
 7099SOL    HW222197   3.654   1.183   5.284
 7100SOL     OW22198   0.058   3.868   0.188
 7100SOL    HW122199   7.020   3.837   0.115
 7100SOL    HW222200   0.008   3.866   0.275
 7101SOL     OW22201   2.082   1.787   5.538
 7101SOL    HW122202   2.149   1.849   5.497
 7101SOL    HW222203   2.113   1.761   5.630
 7102SOL     OW22204   5.061   6.983   0.748
 7102SOL    HW122205   5.108   6.896   0.762
 7102SOL    HW222206   5.119   0.021   0.693
 7103SOL     OW22207   5.457   5.051   2.196
 7103SOL    HW122208   5.398   5.053   2.115
 7103SOL    HW222209   5.431   5.125   2.258
 7104SOL     OW22210   6.954   3.930   3.405
 7104SOL    HW122211   6.941   3.871   3.326
 7104SOL    HW222212   6.903   3.894   3.483
 7105SOL     OW22213   3.014   3.438   5.101
 7105SOL    HW122214   3.108   3.409   5.117
 7105SOL    HW222215   3.013   3.516   5.039
 7106SOL     OW22216   3.467   3.543   2.228
 7106SOL    HW122217   3.562   3.553   2.199
 7106SOL    HW222218   3.464   3.514   2.324
 7107SOL     OW22219   4.736   1.211   0.427
 7107SOL    HW122220   4.778   1.153   0.498
 7107SOL    HW222221   4.665   1.268   0.469
 7108SOL     OW22222   3.117   6.528   2.481
 7108SOL    HW122223   3.065   6.554   2.562
 7108SOL    HW222224   3.055   6.483   2.416
 7109SOL     OW22225   2.364   0.020   5.971
 7109SOL    HW122226   2.377   0.114   6.002
 7109SOL    HW222227   2.430   7.021   5.900
 7110SOL     OW22228   3.052   5.855   4.349
 7110SOL    HW122229   2.971   5.913   4.352
 7110SOL    HW222230   3.076   5.826   4.442
 7111SOL     OW22231   1.372   2.588   5.234
 7111SOL    HW122232   1.318   2.504   5.237
 7111SOL    HW222233   1.384   2.622   5.327
 7112SOL     OW22234   2.034   5.211   4.915
 7112SOL    HW122235   1.962   5.275   4.943
 7112SOL    HW222236   2.002   5.156   4.838
 7113SOL     OW22237   3.636   4.126   4.379
 7113SOL    HW122238   3.569   4.195   4.354
 7113SOL    HW222239   3.675   4.086   4.296
 7114SOL     OW22240   5.527   5.790   0.760
 7114SOL    HW122241   5.593   5.779   0.834
 7114SOL    HW222242   5.452   5.725   0.772
 7115SOL     OW22243   5.188   2.765   0.191
 7115SOL    HW122244   5.270   2.748   0.246
 7115SOL    HW222245   5.108   2.766   0.251
 7116SOL     OW22246   5.899   4.457   2.728
 7116SOL    HW122247   5.913   4.377   2.785
 7116SOL    HW222248   5.899   4.539   2.785
 7117SOL     OW22249   0.899   6.469   4.755
 7117SOL    HW122250   0.804   6.499   4.748
 7117SOL    HW222251   0.935   6.453   4.663
 7118SOL     OW22252   3.093   4.787   0.127
 7118SOL    HW122253   3.153   4.839   0.066
 7118SOL    HW222254   3.122   4.799   0.221
 7119SOL     OW22255   4.432   1.605   3.801
 7119SOL    HW122256   4.398   1.593   3.894
 7119SOL    HW222257   4.503   1.675   3.800
 7120SOL     OW22258   3.202   1.953   2.058
 7120SOL    HW122259   3.155   1.919   1.976
 7120SOL    HW222260   3.300   1.958   2.040
 7121SOL     OW22261   0.440   0.102   3.486
 7121SOL    HW122262   0.351   0.065   3.512
 7121SOL    HW222263   0.512   0.042   3.519
 7122SOL     OW22264   1.703   0.786   6.130
 7122SOL    HW122265   1.624   0.759   6.076
 7122SOL    HW222266   1.706   0.732   6.215
 7123SOL     OW22267   1.309   4.666   3.482
 7123SOL    HW122268   1.392   4.627   3.441
 7123SOL    HW222269   1.272   4.602   3.549
 7124SOL     OW22270   6.658   1.786   1.626
 7124SOL    HW122271   6.642   1.864   1.566
 7124SOL    HW222272   6.736   1.805   1.686
 7125SOL     OW22273   0.631   0.259   0.530
 7125SOL    HW122274   0.614   0.286   0.624
 7125SOL    HW222275   0.729   0.251   0.514
 7126SOL     OW22276   3.712   5.208   0.006
 7126SOL    HW122277   3.668   5.166   0.085
 7126SOL    HW222278   3.644   5.223   6.957
 7127SOL     OW22279   2.092   5.328   6.192
 7127SOL    HW122280   2.022   5.271   6.234
 7127SOL    HW222281   2.114   5.293   6.101
 7128SOL     OW22282   3.168   4.394   6.840
 7128SOL    HW122283   3.167   4.493   6.826
 7128SOL    HW222284   3.171   4.347   6.752
 7129SOL     OW22285   2.357   1.373   0.616
 7129SOL    HW122286   2.325   1.467   0.623
 7129SOL    HW222287   2.293   1.320   0.560
 7130SOL     OW22288   3.780   5.805   4.282
 7130SOL    HW122289   3.832   5.887   4.259
 7130SOL    HW222290   3.715   5.826   4.355
 7131SOL     OW22291   2.270   0.860   1.507
 7131SOL    HW122292   2.220   0.867   1.421
 7131SOL    HW222293   2.219   0.906   1.579
 7132SOL     OW22294   3.506   3.698   0.839
 7132SOL    HW122295   3.573   3.627   0.863
 7132SOL    HW222296   3.504   3.768   0.910
 7133SOL     OW22297   4.597   5.132   5.354
 7133SOL    HW122298   4.625   5.094   5.442
 7133SOL    HW222299   4.673   5.127   5.289
 7134SOL     OW22300   4.761   6.772   1.302
 7134SOL    HW122301   4.672   6.790   1.343
 7134SOL    HW222302   4.750   6.737   1.209
 7135SOL     OW22303   1.515   2.651   3.513
 7135SOL    HW122304   1.486   2.703   3.433
 7135SOL    HW222305   1.604   2.609   3.496
 7136SOL     OW22306   2.275   1.695   0.314
 7136SOL    HW122307   2.346   1.625   0.310
 7136SOL    HW222308   2.208   1.680   0.241
 7137SOL     OW22309   2.940   1.021   6.525
 7137SOL    HW122310   3.025   1.071   6.541
 7137SOL    HW222311   2.882   1.027   6.607
 7138SOL     OW22312   2.637   2.207   0.154
 7138SOL    HW122313   2.689   2.156   0.086
 7138SOL    HW222314   2.663   2.178   0.246
 7139SOL     OW22315   6.230   4.374   1.690
 7139SOL    HW122316   6.162   4.301   1.689
 7139SOL    HW222317   6.241   4.409   1.597
 7140SOL     OW22318   6.678   3.741   2.087
 7140SOL    HW122319   6.668   3.738   1.988
 7140SOL    HW222320   6.665   3.835   2.119
 7141SOL     OW22321   3.838   6.392   0.423
 7141SOL    HW122322   3.758   6.427   0.473
 7141SOL    HW222323   3.838   6.292   0.425
 7142SOL     OW22324   3.613   6.511   3.231
 7142SOL    HW122325   3.633   6.603   3.262
 7142SOL    HW222326   3.699   6.460   3.222
 7143SOL     OW22327   1.896   2.654   6.413
 7143SOL    HW122328   1.989   2.645   6.377
 7143SOL    HW222329   1.888   2.740   6.464
 7144SOL     OW22330   1.982   2.069   2.849
 7144SOL    HW122331   1.926   2.017   2.913
 7144SOL    HW222332   2.043   2.006   2.800
 7145SOL     OW22333   3.920   0.265   6.433
 7145SOL    HW122334   3.948   0.279   6.338
 7145SOL    HW222335   3.902   0.168   6.448
 7146SOL     OW22336   1.685   6.784   6.393
 7146SOL    HW122337   1.705   6.818   6.300
 7146SOL    HW222338   1.630   6.852   6.441
 7147SOL     OW22339   6.921   6.489   3.306
 7147SOL    HW122340   6.824   6.499   3.285
 7147SOL    HW222341   6.953   6.400   3.274
 7148SOL     OW22342   0.067   6.746   1.253
 7148SOL    HW122343   7.014   6.802   1.217
 7148SOL    HW222344   0.119   6.800   1.319
 7149SOL     OW22345   0.164   6.463   3.789
 7149SOL    HW122346   0.258   6.439   3.766
 7149SOL    HW222347   0.155   6.473   3.888
 7150SOL     OW22348   3.975   2.756   0.860
 7150SOL    HW122349   3.948   2.787   0.769
 7150SOL    HW222350   4.071   2.779   0.876
 7151SOL     OW22351   3.410   6.718   0.657
 7151SOL    HW122352   3.447   6.729   0.565
 7151SOL    HW222353   3.339   6.787   0.672
 7152SOL     OW22354   6.771   0.480   5.175
 7152SOL    HW122355   6.701   0.481   5.104
 7152SOL    HW222356   6.749   0.548   5.245
 7153SOL     OW22357   4.225   5.199   1.711
 7153SOL    HW122358   4.200   5.289   1.677
 7153SOL    HW222359   4.157   5.132   1.680
 7154SOL     OW22360   4.636   6.968   2.977
 7154SOL    HW122361   4.550   6.977   3.027
 7154SOL    HW222362   4.711   6.951   3.041
 7155SOL     OW22363   2.450   2.672   1.049
 7155SOL    HW122364   2.437   2.749   0.986
 7155SOL    HW222365   2.502   2.703   1.129
 7156SOL     OW22366   6.942   3.184   3.582
 7156SOL    HW122367   6.975   3.269   3.541
 7156SOL    HW222368   6.843   3.178   3.573
 7157SOL     OW22369   0.283   3.824   1.506
 7157SOL    HW122370   0.297   3.743   1.564
 7157SOL    HW222371   0.186   3.831   1.483
 7158SOL     OW22372   0.998   0.572   4.582
 7158SOL    HW122373   0.909   0.553   4.540
 7158SOL    HW222374   1.026   0.494   4.638
 7159SOL     OW22375   0.641   4.873   3.730
 7159SOL    HW122376   0.660   4.804   3.800
 7159SOL    HW222377   0.714   4.872   3.661
 7160SOL     OW22378   5.890   0.189   2.568
 7160SOL    HW122379   5.885   0.124   2.644
 7160SOL    HW222380   5.895   0.139   2.482
 7161SOL     OW22381   3.238   4.011   3.089
 7161SOL    HW122382   3.270   4.064   3.010
 7161SOL    HW222383   3.273   3.918   3.083
 7162SOL     OW22384   1.456   5.038   6.363
 7162SOL    HW122385   1.377   4.978   6.348
 7162SOL    HW222386   1.533   4.984   6.398
 7163SOL     OW22387   2.695   0.213   2.384
 7163SOL    HW122388   2.637   0.202   2.303
 7163SOL    HW222389   2.637   0.226   2.464
 7164SOL     OW22390   3.267   0.468   4.397
 7164SOL    HW122391   3.170   0.443   4.393
 7164SOL    HW222392   3.316   0.405   4.457
 7165SOL     OW22393   6.424   0.059   2.564
 7165SOL    HW122394   6.421   6.995   2.514
 7165SOL    HW222395   6.494   0.119   2.525
 7166SOL     OW22396   4.788   1.545   0.936
 7166SOL    HW122397   4.746   1.585   1.017
 7166SOL    HW222398   4.869   1.598   0.911
 7167SOL     OW22399   5.130   3.073   4.480
 7167SOL    HW122400   5.182   2.995   4.515
 7167SOL    HW222401   5.053   3.091   4.541
 7168SOL     OW22402   1.760   2.884   2.914
 7168SOL    HW122403   1.784   2.828   2.834
 7168SOL    HW222404   1.810   2.971   2.909
 7169SOL     OW22405   0.134   3.713   5.927
 7169SOL    HW122406   0.078   3.712   5.844
 7169SOL    HW222407   0.108   3.637   5.986
 7170SOL     OW22408   4.905   0.073   2.689
 7170SOL    HW122409   4.849   0.115   2.760
 7170SOL    HW222410   4.903   6.996   2.698
 7171SOL     OW22411   6.192   4.003   6.908
 7171SOL    HW122412   6.166   3.983   7.003
 7171SOL    HW222413   6.181   4.101   6.891
 7172SOL     OW22414   1.884   0.197   4.899
 7172SOL    HW122415   1.885   0.120   4.835
 7172SOL    HW222416   1.918   0.167   4.988
 7173SOL     OW22417   6.549   4.484   6.786
 7173SOL    HW122418   6.598   4.569   6.808
 7173SOL    HW222419   6.457   4.506   6.753
 7174SOL     OW22420   1.257   3.290   0.510
 7174SOL    HW122421   1.307   3.254   0.589
 7174SOL    HW222422   1.321   3.312   0.436
 7175SOL     OW22423   5.367   3.174   5.767
 7175SOL    HW122424   5.432   3.155   5.694
 7175SOL    HW222425   5.416   3.201   5.850
 7176SOL     OW22426   6.765   1.314   3.541
 7176SOL    HW122427   6.719   1.402   3.525
 7176SOL    HW222428   6.853   1.314   3.493
 7177SOL     OW22429   1.136   4.759   5.245
 7177SOL    HW122430   1.049   4.712   5.232
 7177SOL    HW222431   1.211   4.694   5.230
 7178SOL     OW22432   6.811   1.269   5.553
 7178SOL    HW122433   6.874   1.270   5.475
 7178SOL    HW222434   6.799   1.176   5.585
 7179SOL     OW22435   2.148   3.330   4.321
 7179SOL    HW122436   2.064   3.276   4.321
 7179SOL    HW222437   2.147   3.394   4.244
 7180SOL     OW22438   2.193   5.248   6.752
 7180SOL    HW122439   2.211   5.312   6.826
 7180SOL    HW222440   2.242   5.162   6.770
 7181SOL     OW22441   1.949   0.203   0.394
 7181SOL    HW122442   1.952   0.107   0.422
 7181SOL    HW222443   1.887   0.213   0.316
 7182SOL     OW22444   0.035   3.324   4.332
 7182SOL    HW122445   6.972   3.314   4.281
 7182SOL    HW222446   0.112   3.295   4.275
 7183SOL     OW22447   1.460   5.348   1.415
 7183SOL    HW122448   1.522   5.381   1.343
 7183SOL    HW222449   1.453   5.417   1.487
 7184SOL     OW22450   6.713   1.010   4.104
 7184SOL    HW122451   6.631   0.959   4.078
 7184SOL    HW222452   6.704   1.105   4.074
 7185SOL     OW22453   5.741   1.127   4.909
 7185SOL    HW122454   5.669   1.181   4.866
 7185SOL    HW222455   5.830   1.158   4.876
 7186SOL     OW22456   6.431   1.955   1.992
 7186SOL    HW122457   6.398   1.954   1.898
 7186SOL    HW222458   6.415   2.046   2.031
 7187SOL     OW22459   2.779   4.157   5.293
 7187SOL    HW122460   2.688   4.166   5.334
 7187SOL    HW222461   2.773   4.103   5.209
 7188SOL     OW22462   5.224   6.988   6.966
 7188SOL    HW122463   5.164   6.909   6.957
 7188SOL    HW222464   5.224   0.017   6.879
 7189SOL     OW22465   6.048   1.496   5.292
 7189SOL    HW122466   6.107   1.442   5.352
 7189SOL    HW222467   6.088   1.500   5.201
 7190SOL     OW22468   6.774   4.939   1.710
 7190SOL    HW122469   6.694   4.915   1.766
 7190SOL    HW222470   6.836   4.997   1.764
 7191SOL     OW22471   1.709   4.567   2.548
 7191SOL    HW122472   1.689   4.472   2.575
 7191SOL    HW222473   1.642   4.596   2.480
 7192SOL     OW22474   2.243   3.905   5.856
 7192SOL    HW122475   2.300   3.902   5.938
 7192SOL    HW222476   2.229   4.000   5.829
 7193SOL     OW22477   1.302   2.662   2.420
 7193SOL    HW122478   1.342   2.753   2.429
 7193SOL    HW222479   1.359   2.605   2.361
 7194SOL     OW22480   2.332   2.152   0.844
 7194SOL    HW122481   2.423   2.152   0.803
 7194SOL    HW222482   2.333   2.206   0.928
 7195SOL     OW22483   0.834   4.126   6.899
 7195SOL    HW122484   0.913   4.185   6.907
 7195SOL    HW222485   0.859   4.044   6.847
 7196SOL     OW22486   2.346   3.603   1.650
 7196SOL    HW122487   2.261   3.549   1.645
 7196SOL    HW222488   2.408   3.560   1.715
 7197SOL     OW22489   0.757   2.505   5.792
 7197SOL    HW122490   0.844   2.553   5.785
 7197SOL    HW222491   0.773   2.410   5.821
 7198SOL     OW22492   0.699   0.552   0.389
 7198SOL    HW122493   0.779   0.495   0.407
 7198SOL    HW222494   0.693   0.571   0.291
 7199SOL     OW22495   1.733   0.132   1.764
 7199SOL    HW122496   1.737   0.045   1.813
 7199SOL    HW222497   1.826   0.160   1.739
 7200SOL     OW22498   2.247   2.920   6.608
 7200SOL    HW122499   2.265   2.979   6.529
 7200SOL    HW222500   2.247   2.824   6.579
 7201SOL     OW22501   1.020   6.355   3.973
 7201SOL    HW122502   0.969   6.371   4.057
 7201SOL    HW222503   0.964   6.303   3.909
 7202SOL     OW22504   5.680   6.531   0.366
 7202SOL    HW122505   5.683   6.570   0.274
 7202SOL    HW222506   5.770   6.541   0.408
 7203SOL     OW22507   0.218   1.338   0.612
 7203SOL    HW122508   0.161   1.256   0.612
 7203SOL    HW222509   0.299   1.322   0.555
 7204SOL     OW22510   0.271   0.455   6.019
 7204SOL    HW122511   0.249   0.366   5.978
 7204SOL    HW222512   0.252   0.528   5.953
 7205SOL     OW22513   1.807   3.944   4.355
 7205SOL    HW122514   1.894   3.903   4.381
 7205SOL    HW222515   1.753   3.963   4.437
 7206SOL     OW22516   1.311   0.219   1.928
 7206SOL    HW122517   1.279   0.135   1.972
 7206SOL    HW222518   1.411   0.221   1.930
 7207SOL     OW22519   3.169   0.432   2.958
 7207SOL    HW122520   3.141   0.519   2.999
 7207SOL    HW222521   3.261   0.441   2.921
 7208SOL     OW22522   3.867   0.033   3.388
 7208SOL    HW122523   3.946   0.031   3.327
 7208SOL    HW222524   3.789   7.013   3.342
 7209SOL     OW22525   2.604   3.110   1.698
 7209SOL    HW122526   2.638   3.173   1.767
 7209SOL    HW222527   2.633   3.142   1.607
 7210SOL     OW22528   4.306   1.006   3.014
 7210SOL    HW122529   4.262   1.096   3.015
 7210SOL    HW222530   4.364   0.998   2.933
 7211SOL     OW22531   2.002   0.035   4.605
 7211SOL    HW122532   1.921   0.094   4.595
 7211SOL    HW222533   2.012   7.002   4.522
 7212SOL     OW22534   6.986   6.255   4.832
 7212SOL    HW122535   6.994   6.175   4.892
 7212SOL    HW222536   0.022   6.242   4.752
 7213SOL     OW22537   4.052   6.169   6.592
 7213SOL    HW122538   4.094   6.102   6.531
 7213SOL    HW222539   4.037   6.127   6.682
 7214SOL     OW22540   6.859   0.534   4.804
 7214SOL    HW122541   6.770   0.559   4.845
 7214SOL    HW222542   6.930   0.594   4.841
 7215SOL     OW22543   0.252   3.096   3.572
 7215SOL    HW122544   0.155   3.104   3.551
 7215SOL    HW222545   0.305   3.105   3.488
 7216SOL     OW22546   2.824   0.445   0.297
 7216SOL    HW122547   2.890   0.461   0.224
 7216SOL    HW222548   2.866   0.467   0.385
 7217SOL     OW22549   2.114   3.923   3.784
 7217SOL    HW122550   2.018   3.950   3.785
 7217SOL    HW222551   2.136   3.879   3.697
 7218SOL     OW22552   6.035   2.817   5.001
 7218SOL    HW122553   5.956   2.784   4.948
 7218SOL    HW222554   6.118   2.771   4.968
 7219SOL     OW22555   4.295   0.128   2.861
 7219SOL    HW122556   4.252   0.051   2.814
 7219SOL    HW222557   4.254   0.213   2.829
 7220SOL     OW22558   0.322   4.092   4.541
 7220SOL    HW122559   0.391   4.029   4.507
 7220SOL    HW222560   0.244   4.040   4.577
 7221SOL     OW22561   3.304   5.895   4.238
 7221SOL    HW122562   3.210   5.887   4.270
 7221SOL    HW222563   3.335   5.807   4.202
 7222SOL     OW22564   6.089   6.920   3.025
 7222SOL    HW122565   6.125   6.859   2.954
 7222SOL    HW222566   6.160   6.934   3.095
 7223SOL     OW22567   3.113   1.374   1.063
 7223SOL    HW122568   3.034   1.401   1.007
 7223SOL    HW222569   3.145   1.284   1.034
 7224SOL     OW22570   5.064   1.883   4.122
 7224SOL    HW122571   5.118   1.963   4.094
 7224SOL    HW222572   5.119   1.800   4.112
 7225SOL     OW22573   1.055   5.968   0.549
 7225SOL    HW122574   1.070   5.934   0.641
 7225SOL    HW222575   1.113   5.918   0.485
 7226SOL     OW22576   6.144   0.698   2.195
 7226SOL    HW122577   6.161   0.796   2.185
 7226SOL    HW222578   6.174   0.668   2.285
 7227SOL     OW22579   2.649   2.224   1.020
 7227SOL    HW122580   2.644   2.317   0.983
 7227SOL    HW222581   2.678   2.229   1.116
 7228SOL     OW22582   1.164   2.242   2.758
 7228SOL    HW122583   1.134   2.176   2.689
 7228SOL    HW222584   1.154   2.335   2.721
 7229SOL     OW22585   1.433   6.179   4.798
 7229SOL    HW122586   1.422   6.198   4.700
 7229SOL    HW222587   1.455   6.264   4.846
 7230SOL     OW22588   3.370   5.236   4.723
 7230SOL    HW122589   3.453   5.196   4.685
 7230SOL    HW222590   3.290   5.204   4.672
 7231SOL     OW22591   4.015   0.928   6.414
 7231SOL    HW122592   4.098   0.900   6.462
 7231SOL    HW222593   3.940   0.941   6.479
 7232SOL     OW22594   4.782   5.988   3.118
 7232SOL    HW122595   4.800   5.948   3.207
 7232SOL    HW222596   4.864   5.985   3.061
 7233SOL     OW22597   1.205   1.510   3.534
 7233SOL    HW122598   1.113   1.480   3.557
 7233SOL    HW222599   1.242   1.567   3.607
 7234SOL     OW22600   5.287   2.625   3.857
 7234SOL    HW122601   5.203   2.663   3.894
 7234SOL    HW222602   5.309   2.540   3.906
 7235SOL     OW22603   0.127   5.109   2.466
 7235SOL    HW122604   0.094   5.016   2.451
 7235SOL    HW222605   0.099   5.167   2.389
 7236SOL     OW22606   2.779   1.886   1.964
 7236SOL    HW122607   2.749   1.980   1.945
 7236SOL    HW222608   2.756   1.863   2.059
 7237SOL     OW22609   3.873   0.059   4.874
 7237SOL    HW122610   3.837   0.136   4.822
 7237SOL    HW222611   3.837   0.063   4.968
 7238SOL     OW22612   4.050   1.507   6.955
 7238SOL    HW122613   3.974   1.553   7.001
 7238SOL    HW222614   4.121   1.573   6.933
 7239SOL     OW22615   1.416   2.227   2.589
 7239SOL    HW122616   1.333   2.184   2.556
 7239SOL    HW222617   1.413   2.325   2.570
 7240SOL     OW22618   1.294   0.468   6.113
 7240SOL    HW122619   1.200   0.454   6.144
 7240SOL    HW222620   1.356   0.464   6.192
 7241SOL     OW22621   1.328   0.567   0.978
 7241SOL    HW122622   1.353   0.648   0.925
 7241SOL    HW222623   1.397   0.551   1.049
 7242SOL     OW22624   6.792   5.863   0.133
 7242SOL    HW122625   6.888   5.882   0.154
 7242SOL    HW222626   6.735   5.939   0.163
 7243SOL     OW22627   6.136   4.485   6.214
 7243SOL    HW122628   6.202   4.466   6.142
 7243SOL    HW222629   6.179   4.541   6.285
 7244SOL     OW22630   6.711   1.026   1.806
 7244SOL    HW122631   6.690   1.096   1.737
 7244SOL    HW222632   6.630   1.009   1.862
 7245SOL     OW22633   1.382   3.043   5.711
 7245SOL    HW122634   1.378   3.015   5.807
 7245SOL    HW222635   1.463   3.004   5.669
 7246SOL     OW22636   0.628   0.000   4.113
 7246SOL    HW122637   0.725   0.011   4.130
 7246SOL    HW222638   0.581   6.997   4.198
 7247SOL     OW22639   3.009   1.063   4.203
 7247SOL    HW122640   3.097   1.073   4.156
 7247SOL    HW222641   2.935   1.092   4.143
 7248SOL     OW22642   2.458   1.521   2.995
 7248SOL    HW122643   2.377   1.542   2.940
 7248SOL    HW222644   2.539   1.519   2.935
 7249SOL     OW22645   6.939   5.331   2.318
 7249SOL    HW122646   7.011   5.308   2.253
 7249SOL    HW222647   6.877   5.398   2.277
 7250SOL     OW22648   5.010   6.886   6.424
 7250SOL    HW122649   4.913   6.887   6.401
 7250SOL    HW222650   5.043   6.980   6.433
 7251SOL     OW22651   0.563   6.634   5.669
 7251SOL    HW122652   0.597   6.611   5.761
 7251SOL    HW222653   0.546   6.550   5.618
 7252SOL     OW22654   3.684   3.333   2.372
 7252SOL    HW122655   3.753   3.390   2.417
 7252SOL    HW222656   3.597   3.342   2.421
 7253SOL     OW22657   1.336   6.055   6.477
 7253SOL    HW122658   1.316   6.039   6.381
 7253SOL    HW222659   1.431   6.030   6.497
 7254SOL     OW22660   4.664   5.185   3.898
 7254SOL    HW122661   4.741   5.242   3.926
 7254SOL    HW222662   4.668   5.169   3.800
 7255SOL     OW22663   2.976   4.244   1.204
 7255SOL    HW122664   2.963   4.328   1.152
 7255SOL    HW222665   2.902   4.234   1.271
 7256SOL     OW22666   3.267   5.479   4.640
 7256SOL    HW122667   3.304   5.393   4.676
 7256SOL    HW222668   3.202   5.458   4.566
 7257SOL     OW22669   5.792   2.375   3.357
 7257SOL    HW122670   5.788   2.275   3.366
 7257SOL    HW222671   5.737   2.417   3.428
 7258SOL     OW22672   4.876   1.469   3.333
 7258SOL    HW122673   4.910   1.419   3.413
 7258SOL    HW222674   4.954   1.510   3.285
 7259SOL     OW22675   1.948   3.495   0.999
 7259SOL    HW122676   2.025   3.481   1.061
 7259SOL    HW222677   1.967   3.450   0.911
 7260SOL     OW22678   3.973   1.903   1.431
 7260SOL    HW122679   3.940   1.852   1.352
 7260SOL    HW222680   4.000   1.995   1.403
 7261SOL     OW22681   1.393   2.279   1.466
 7261SOL    HW122682   1.483   2.272   1.421
 7261SOL    HW222683   1.392   2.221   1.547
 7262SOL     OW22684   5.382   2.348   5.963
 7262SOL    HW122685   5.399   2.276   6.030
 7262SOL    HW222686   5.443   2.336   5.884
 7263SOL     OW22687   1.009   0.829   0.253
 7263SOL    HW122688   0.950   0.868   0.324
 7263SOL    HW222689   0.990   0.874   0.165
 7264SOL     OW22690   5.393   2.232   6.901
 7264SOL    HW122691   5.317   2.203   6.844
 7264SOL    HW222692   5.479   2.224   6.849
 7265SOL     OW22693   5.927   5.665   5.460
 7265SOL    HW122694   5.903   5.755   5.497
 7265SOL    HW222695   5.850   5.629   5.407
 7266SOL     OW22696   5.392   6.114   1.757
 7266SOL    HW122697   5.422   6.039   1.817
 7266SOL    HW222698   5.412   6.201   1.801
 7267SOL     OW22699   6.347   6.336   5.156
 7267SOL    HW122700   6.271   6.365   5.097
 7267SOL    HW222701   6.425   6.396   5.141
 7268SOL     OW22702   5.908   5.294   3.377
 7268SOL    HW122703   5.968   5.280   3.456
 7268SOL    HW222704   5.825   5.239   3.389
 7269SOL     OW22705   6.873   6.582   6.601
 7269SOL    HW122706   6.930   6.622   6.530
 7269SOL    HW222707   6.778   6.580   6.570
 7270SOL     OW22708   1.284   3.960   5.323
 7270SOL    HW122709   1.312   4.000   5.236
 7270SOL    HW222710   1.195   3.916   5.312
 7271SOL     OW22711   0.891   5.944   3.169
 7271SOL    HW122712   0.881   5.868   3.105
 7271SOL    HW222713   0.986   5.977   3.168
 7272SOL     OW22714   5.834   5.835   2.193
 7272SOL    HW122715   5.813   5.905   2.125
 7272SOL    HW222716   5.900   5.872   2.259
 7273SOL     OW22717   6.099   4.559   1.988
 7273SOL    HW122718   6.055   4.516   2.067
 7273SOL    HW222719   6.028   4.594   1.926
 7274SOL     OW22720   0.827   5.733   6.577
 7274SOL    HW122721   0.797   5.818   6.533
 7274SOL    HW222722   0.919   5.711   6.546
 7275SOL     OW22723   6.914   6.768   2.685
 7275SOL    HW122724   6.824   6.727   2.669
 7275SOL    HW222725   6.985   6.698   2.672
 7276SOL     OW22726   3.617   1.062   2.694
 7276SOL    HW122727   3.570   1.013   2.621
 7276SOL    HW222728   3.560   1.138   2.727
 7277SOL     OW22729   4.131   0.768   3.381
 7277SOL    HW122730   4.126   0.671   3.359
 7277SOL    HW222731   4.209   0.809   3.334
 7278SOL     OW22732   3.240   2.923   1.432
 7278SOL    HW122733   3.164   2.987   1.446
 7278SOL    HW222734   3.314   2.970   1.384
 7279SOL     OW22735   3.690   4.152   5.593
 7279SOL    HW122736   3.754   4.223   5.563
 7279SOL    HW222737   3.728   4.105   5.673
 7280SOL     OW22738   0.205   1.753   3.404
 7280SOL    HW122739   0.125   1.803   3.437
 7280SOL    HW222740   0.252   1.710   3.481
 7281SOL     OW22741   1.903   0.996   0.561
 7281SOL    HW122742   1.913   1.061   0.636
 7281SOL    HW222743   1.855   1.039   0.485
 7282SOL     OW22744   6.337   6.072   1.561
 7282SOL    HW122745   6.330   6.161   1.517
 7282SOL    HW222746   6.336   6.084   1.660
 7283SOL     OW22747   4.854   0.617   1.986
 7283SOL    HW122748   4.790   0.602   1.910
 7283SOL    HW222749   4.809   0.596   2.072
 7284SOL     OW22750   6.834   2.492   5.776
 7284SOL    HW122751   6.791   2.562   5.833
 7284SOL    HW222752   6.795   2.402   5.798
 7285SOL     OW22753   5.539   2.986   2.095
 7285SOL    HW122754   5.461   2.925   2.096
 7285SOL    HW222755   5.542   3.036   2.008
 7286SOL     OW22756   1.425   1.135   1.076
 7286SOL    HW122757   1.438   1.128   1.175
 7286SOL    HW222758   1.333   1.104   1.053
 7287SOL     OW22759   0.000   2.668   5.918
 7287SOL    HW122760   0.080   2.686   5.861
 7287SOL    HW222761   6.954   2.618   5.864
 7288SOL     OW22762   1.519   1.829   1.641
 7288SOL    HW122763   1.551   1.871   1.726
 7288SOL    HW222764   1.433   1.780   1.659
 7289SOL     OW22765   5.512   2.204   3.594
 7289SOL    HW122766   5.570   2.174   3.518
 7289SOL    HW222767   5.416   2.197   3.567
 7290SOL     OW22768   3.010   1.804   5.548
 7290SOL    HW122769   2.933   1.863   5.523
 7290SOL    HW222770   3.014   1.726   5.485
 7291SOL     OW22771   1.180   0.111   0.283
 7291SOL    HW122772   1.103   0.075   0.335
 7291SOL    HW222773   1.198   0.205   0.311
 7292SOL     OW22774   3.318   6.919   3.396
 7292SOL    HW122775   3.319   6.903   3.297
 7292SOL    HW222776   3.228   6.953   3.424
 7293SOL     OW22777   1.435   1.453   4.698
 7293SOL    HW122778   1.349   1.427   4.654
 7293SOL    HW222779   1.415   1.494   4.787
 7294SOL     OW22780   2.760   4.178   0.099
 7294SOL    HW122781   2.788   4.225   0.015
 7294SOL    HW222782   2.758   4.244   0.174
 7295SOL     OW22783   6.481   3.841   0.906
 7295SOL    HW122784   6.552   3.775   0.928
 7295SOL    HW222785   6.511   3.897   0.828
 7296SOL     OW22786   2.828   6.058   1.390
 7296SOL    HW122787   2.907   5.998   1.401
 7296SOL    HW222788   2.859   6.152   1.377
 7297SOL     OW22789   3.719   6.727   1.301
 7297SOL    HW122790   3.699   6.763   1.210
 7297SOL    HW222791   3.637   6.733   1.358
 7298SOL     OW22792   4.894   5.351   5.959
 7298SOL    HW122793   4.847   5.434   5.930
 7298SOL    HW222794   4.841   5.271   5.931
 7299SOL     OW22795   0.638   2.196   1.220
 7299SOL    HW122796   0.632   2.151   1.131
 7299SOL    HW222797   0.730   2.182   1.258
 7300SOL     OW22798   0.131   6.876   2.401
 7300SOL    HW122799   0.175   6.879   2.311
 7300SOL    HW222800   0.144   6.964   2.447
 7301SOL     OW22801   6.115   2.166   4.899
 7301SOL    HW122802   6.016   2.155   4.889
 7301SOL    HW222803   6.147   2.109   4.975
 7302SOL     OW22804   6.947   2.630   6.180
 7302SOL    HW122805   6.911   2.715   6.218
 7302SOL    HW222806   6.994   2.648   6.094
 7303SOL     OW22807   4.001   1.032   6.914
 7303SOL    HW122808   4.038   1.100   6.978
 7303SOL    HW222809   3.942   1.078   6.847
 7304SOL     OW22810   3.035   5.235   1.343
 7304SOL    HW122811   3.001   5.141   1.330
 7304SOL    HW222812   2.960   5.293   1.376
 7305SOL     OW22813   5.014   1.965   1.349
 7305SOL    HW122814   5.031   2.051   1.300
 7305SOL    HW222815   4.942   1.980   1.417
 7306SOL     OW22816   3.756   1.575   1.312
 7306SOL    HW122817   3.843   1.537   1.282
 7306SOL    HW222818   3.756   1.674   1.302
 7307SOL     OW22819   2.839   6.637   2.283
 7307SOL    HW122820   2.919   6.697   2.279
 7307SOL    HW222821   2.868   6.543   2.265
 7308SOL     OW22822   6.801   2.303   4.732
 7308SOL    HW122823   6.817   2.204   4.734
 7308SOL    HW222824   6.749   2.330   4.813
 7309SOL     OW22825   3.480   5.609   0.617
 7309SOL    HW122826   3.574   5.574   0.618
 7309SOL    HW222827   3.422   5.548   0.671
 7310SOL     OW22828   2.189   3.975   6.793
 7310SOL    HW122829   2.281   3.948   6.764
 7310SOL    HW222830   2.190   3.994   6.891
 7311SOL     OW22831   1.983   1.533   1.421
 7311SOL    HW122832   2.018   1.545   1.329
 7311SOL    HW222833   1.941   1.619   1.452
 7312SOL     OW22834   0.496   2.902   4.913
 7312SOL    HW122835   0.595   2.897   4.922
 7312SOL    HW222836   0.469   2.877   4.820
 7313SOL     OW22837   2.151   0.842   1.244
 7313SOL    HW122838   2.078   0.848   1.177
 7313SOL    HW222839   2.211   0.765   1.222
 7314SOL     OW22840   6.985   4.636   6.156
 7314SOL    HW122841   0.010   4.651   6.242
 7314SOL    HW222842   0.024   4.589   6.092
 7315SOL     OW22843   5.238   5.523   1.810
 7315SOL    HW122844   5.211   5.498   1.903
 7315SOL    HW222845   5.275   5.443   1.763
 7316SOL     OW22846   3.608   3.351   6.880
 7316SOL    HW122847   3.520   3.306   6.893
 7316SOL    HW222848   3.595   3.449   6.869
 7317SOL     OW22849   4.355   1.698   1.520
 7317SOL    HW122850   4.344   1.621   1.457
 7317SOL    HW222851   4.265   1.728   1.551
 7318SOL     OW22852   3.112   0.316   2.077
 7318SOL    HW122853   3.070   0.382   2.015
 7318SOL    HW222854   3.069   0.322   2.167
 7319SOL     OW22855   6.892   3.765   0.015
 7319SOL    HW122856   6.916   3.717   6.953
 7319SOL    HW222857   6.820   3.832   7.017
 7320SOL     OW22858   1.187   3.605   2.255
 7320SOL    HW122859   1.127   3.530   2.284
 7320SOL    HW222860   1.262   3.568   2.201
 7321SOL     OW22861   1.245   6.482   6.159
 7321SOL    HW122862   1.178   6.552   6.182
 7321SOL    HW222863   1.317   6.480   6.228
 7322SOL     OW22864   6.755   3.046   3.038
 7322SOL    HW122865   6.825   3.004   3.095
 7322SOL    HW222866   6.668   3.050   3.088
 7323SOL     OW22867   2.092   2.569   1.392
 7323SOL    HW122868   2.076   2.569   1.491
 7323SOL    HW222869   2.165   2.633   1.370
 7324SOL     OW22870   5.677   6.082   1.559
 7324SOL    HW122871   5.733   6.009   1.599
 7324SOL    HW222872   5.628   6.047   1.480
 7325SOL     OW22873   2.482   0.352   6.300
 7325SOL    HW122874   2.490   0.270   6.357
 7325SOL    HW222875   2.422   0.418   6.345
 7326SOL     OW22876   3.057   6.218   6.601
 7326SOL    HW122877   3.069   6.182   6.509
 7326SOL    HW222878   2.983   6.168   6.647
 7327SOL     OW22879   6.458   2.360   5.971
 7327SOL    HW122880   6.380   2.406   5.927
 7327SOL    HW222881   6.424   2.282   6.023
 7328SOL     OW22882   4.280   0.263   6.711
 7328SOL    HW122883   4.207   0.281   6.646
 7328SOL    HW222884   4.314   0.170   6.699
 7329SOL     OW22885   1.174   3.894   0.723
 7329SOL    HW122886   1.167   3.988   0.687
 7329SOL    HW222887   1.098   3.840   0.687
 7330SOL     OW22888   2.023   2.900   0.046
 7330SOL    HW122889   2.090   2.906   0.120
 7330SOL    HW222890   1.933   2.879   0.083
 7331SOL     OW22891   5.693   6.727   1.503
 7331SOL    HW122892   5.749   6.677   1.569
 7331SOL    HW222893   5.707   6.691   1.411
 7332SOL     OW22894   3.422   5.863   6.984
 7332SOL    HW122895   3.384   5.941   6.935
 7332SOL    HW222896   3.364   5.842   0.041
 7333SOL     OW22897   6.027   3.418   3.585
 7333SOL    HW122898   6.102   3.398   3.648
 7333SOL    HW222899   5.944   3.437   3.638
 7334SOL     OW22900   2.009   6.074   6.313
 7334SOL    HW122901   2.059   5.987   6.319
 7334SOL    HW222902   1.913   6.056   6.290
 7335SOL     OW22903   0.675   2.245   3.425
 7335SOL    HW122904   0.596   2.254   3.365
 7335SOL    HW222905   0.649   2.273   3.518
 7336SOL     OW22906   2.051   6.672   2.522
 7336SOL    HW122907   2.053   6.757   2.574
 7336SOL    HW222908   1.981   6.611   2.560
 7337SOL     OW22909   1.259   2.397   1.885
 7337SOL    HW122910   1.209   2.318   1.851
 7337SOL    HW222911   1.229   2.479   1.835
 7338SOL     OW22912   4.917   1.697   1.772
 7338SOL    HW122913   5.004   1.692   1.820
 7338SOL    HW222914   4.881   1.790   1.778
 7339SOL     OW22915   6.145   0.804   5.036
 7339SOL    HW122916   6.116   0.717   5.075
 7339SOL    HW222917   6.119   0.808   4.939
 7340SOL     OW22918   2.890   1.363   0.155
 7340SOL    HW122919   2.962   1.301   0.185
 7340SOL    HW222920   2.801   1.317   0.159
 7341SOL     OW22921   0.428   4.302   5.364
 7341SOL    HW122922   0.475   4.231   5.312
 7341SOL    HW222923   0.495   4.356   5.415
 7342SOL     OW22924   0.497   0.266   6.487
 7342SOL    HW122925   0.404   0.242   6.457
 7342SOL    HW222926   0.506   0.250   6.585
 7343SOL     OW22927   5.702   4.585   1.424
 7343SOL    HW122928   5.735   4.540   1.507
 7343SOL    HW222929   5.709   4.684   1.434
 7344SOL     OW22930   1.024   0.871   6.182
 7344SOL    HW122931   1.097   0.818   6.138
 7344SOL    HW222932   0.938   0.820   6.177
 7345SOL     OW22933   4.947   5.704   5.037
 7345SOL    HW122934   4.869   5.708   4.975
 7345SOL    HW222935   4.928   5.758   5.118
 7346SOL     OW22936   4.591   4.727   1.428
 7346SOL    HW122937   4.623   4.784   1.504
 7346SOL    HW222938   4.510   4.768   1.387
 7347SOL     OW22939   0.535   2.536   0.857
 7347SOL    HW122940   0.509   2.470   0.786
 7347SOL    HW222941   0.630   2.520   0.885
 7348SOL     OW22942   1.316   3.878   3.900
 7348SOL    HW122943   1.348   3.878   3.805
 7348SOL    HW222944   1.229   3.927   3.906
 7349SOL     OW22945   4.725   1.941   0.758
 7349SOL    HW122946   4.806   1.904   0.802
 7349SOL    HW222947   4.694   2.022   0.808
 7350SOL     OW22948   1.584   3.234   5.555
 7350SOL    HW122949   1.612   3.314   5.609
 7350SOL    HW222950   1.620   3.151   5.597
 7351SOL     OW22951   4.897   6.700   5.287
 7351SOL    HW122952   4.980   6.725   5.337
 7351SOL    HW222953   4.819   6.699   5.350
 7352SOL     OW22954   2.014   2.711   3.608
 7352SOL    HW122955   2.113   2.699   3.610
 7352SOL    HW222956   1.980   2.697   3.514
 7353SOL     OW22957   0.930   0.735   5.946
 7353SOL    HW122958   0.985   0.807   5.904
 7353SOL    HW222959   0.939   0.651   5.893
 7354SOL     OW22960   0.206   1.558   5.906
 7354SOL    HW122961   0.239   1.464   5.912
 7354SOL    HW222962   0.129   1.571   5.969
 7355SOL     OW22963   2.193   1.221   0.452
 7355SOL    HW122964   2.137   1.225   0.370
 7355SOL    HW222965   2.197   1.128   0.487
 7356SOL     OW22966   3.773   3.534   6.126
 7356SOL    HW122967   3.814   3.542   6.217
 7356SOL    HW222968   3.745   3.439   6.110
 7357SOL     OW22969   4.719   6.474   1.570
 7357SOL    HW122970   4.652   6.537   1.531
 7357SOL    HW222971   4.719   6.483   1.670
 7358SOL     OW22972   6.266   3.397   2.983
 7358SOL    HW122973   6.228   3.305   2.991
 7358SOL    HW222974   6.301   3.411   2.890
 7359SOL     OW22975   2.236   2.135   5.985
 7359SOL    HW122976   2.269   2.171   5.898
 7359SOL    HW222977   2.303   2.072   6.023
 7360SOL     OW22978   3.266   3.892   5.382
 7360SOL    HW122979   3.219   3.960   5.326
 7360SOL    HW222980   3.336   3.937   5.437
 7361SOL     OW22981   4.518   6.798   1.410
 7361SOL    HW122982   4.461   6.856   1.469
 7361SOL    HW222983   4.468   6.777   1.326
 7362SOL     OW22984   1.092   4.851   4.828
 7362SOL    HW122985   1.058   4.765   4.866
 7362SOL    HW222986   1.192   4.854   4.835
 7363SOL     OW22987   4.512   1.854   1.332
 7363SOL    HW122988   4.451   1.830   1.407
 7363SOL    HW222989   4.459   1.893   1.256
 7364SOL     OW22990   4.481   0.792   1.492
 7364SOL    HW122991   4.384   0.810   1.508
 7364SOL    HW222992   4.491   0.717   1.427
 7365SOL     OW22993   1.439   6.213   1.870
 7365SOL    HW122994   1.353   6.265   1.874
 7365SOL    HW222995   1.434   6.135   1.933
 7366SOL     OW22996   1.942   5.632   6.658
 7366SOL    HW122997   1.934   5.621   6.757
 7366SOL    HW222998   2.036   5.658   6.635
 7367SOL     OW22999   5.045   3.069   0.803
 7367SOL    HW123000   4.949   3.041   0.798
 7367SOL    HW223001   5.090   3.021   0.878
 7368SOL     OW23002   3.764   2.915   2.819
 7368SOL    HW123003   3.847   2.859   2.816
 7368SOL    HW223004   3.741   2.934   2.915
 7369SOL     OW23005   3.689   3.147   6.715
 7369SOL    HW123006   3.700   3.234   6.763
 7369SOL    HW223007   3.682   3.073   6.782
 7370SOL     OW23008   2.360   0.688   4.206
 7370SOL    HW123009   2.312   0.706   4.121
 7370SOL    HW223010   2.445   0.741   4.208
 7371SOL     OW23011   1.707   6.201   4.120
 7371SOL    HW123012   1.744   6.286   4.082
 7371SOL    HW223013   1.662   6.149   4.047
 7372SOL     OW23014   4.380   1.097   4.943
 7372SOL    HW123015   4.386   1.179   4.886
 7372SOL    HW223016   4.463   1.043   4.934
 7373SOL     OW23017   5.861   2.298   4.279
 7373SOL    HW123018   5.927   2.240   4.325
 7373SOL    HW223019   5.834   2.373   4.340
 7374SOL     OW23020   2.368   1.290   5.622
 7374SOL    HW123021   2.407   1.268   5.532
 7374SOL    HW223022   2.326   1.380   5.619
 7375SOL     OW23023   1.944   3.492   3.271
 7375SOL    HW123024   1.855   3.456   3.300
 7375SOL    HW223025   1.983   3.432   3.201
 7376SOL     OW23026   3.014   1.554   0.642
 7376SOL    HW123027   3.022   1.591   0.735
 7376SOL    HW223028   2.955   1.613   0.588
 7377SOL     OW23029   5.821   4.308   0.600
 7377SOL    HW123030   5.877   4.349   0.528
 7377SOL    HW223031   5.774   4.380   0.651
 7378SOL     OW23032   0.061   1.150   6.099
 7378SOL    HW123033   0.116   1.157   6.016
 7378SOL    HW223034   0.090   1.068   6.151
 7379SOL     OW23035   3.633   1.629   3.061
 7379SOL    HW123036   3.640   1.605   3.158
 7379SOL    HW223037   3.540   1.660   3.042
 7380SOL     OW23038   6.459   4.673   4.647
 7380SOL    HW123039   6.364   4.648   4.667
 7380SOL    HW223040   6.485   4.635   4.559
 7381SOL     OW23041   4.461   3.997   1.600
 7381SOL    HW123042   4.438   3.974   1.506
 7381SOL    HW223043   4.515   4.081   1.602
 7382SOL     OW23044   6.660   6.229   6.142
 7382SOL    HW123045   6.627   6.264   6.230
 7382SOL    HW223046   6.698   6.138   6.155
 7383SOL     OW23047   1.610   0.014   1.384
 7383SOL    HW123048   1.636   6.940   1.387
 7383SOL    HW223049   1.591   0.046   1.476
 7384SOL     OW23050   5.367   0.383   2.830
 7384SOL    HW123051   5.280   0.334   2.825
 7384SOL    HW223052   5.396   0.409   2.738
 7385SOL     OW23053   4.304   6.148   1.958
 7385SOL    HW123054   4.219   6.096   1.971
 7385SOL    HW223055   4.320   6.205   2.038
 7386SOL     OW23056   0.406   2.187   5.759
 7386SOL    HW123057   0.503   2.164   5.767
 7386SOL    HW223058   0.351   2.113   5.800
 7387SOL     OW23059   5.162   6.263   4.488
 7387SOL    HW123060   5.150   6.238   4.584
 7387SOL    HW223061   5.097   6.212   4.432
 7388SOL     OW23062   0.409   5.033   2.310
 7388SOL    HW123063   0.335   4.986   2.262
 7388SOL    HW223064   0.375   5.120   2.347
 7389SOL     OW23065   6.965   3.670   6.769
 7389SOL    HW123066   0.027   3.671   6.715
 7389SOL    HW223067   6.922   3.580   6.763
 7390SOL     OW23068   1.350   1.621   6.863
 7390SOL    HW123069   1.306   1.706   6.891
 7390SOL    HW223070   1.340   1.610   6.764
 7391SOL     OW23071   4.150   3.343   4.786
 7391SOL    HW123072   4.241   3.350   4.829
 7391SOL    HW223073   4.126   3.431   4.744
 7392SOL     OW23074   2.613   6.109   0.400
 7392SOL    HW123075   2.546   6.062   0.343
 7392SOL    HW223076   2.704   6.075   0.378
 7393SOL     OW23077   6.174   4.952   2.893
 7393SOL    HW123078   6.096   4.923   2.947
 7393SOL    HW223079   6.204   4.877   2.835
 7394SOL     OW23080   2.520   2.603   5.745
 7394SOL    HW123081   2.530   2.522   5.804
 7394SOL    HW223082   2.442   2.658   5.778
 7395SOL     OW23083   1.313   2.397   0.257
 7395SOL    HW123084   1.329   2.490   0.289
 7395SOL    HW223085   1.401   2.355   0.230
 7396SOL     OW23086   0.887   0.133   0.543
 7396SOL    HW123087   0.823   0.059   0.523
 7396SOL    HW223088   0.942   0.110   0.623
 7397SOL     OW23089   4.391   5.545   4.652
 7397SOL    HW123090   4.415   5.629   4.603
 7397SOL    HW223091   4.317   5.498   4.604
 7398SOL     OW23092   2.417   4.894   4.519
 7398SOL    HW123093   2.496   4.866   4.574
 7398SOL    HW223094   2.449   4.936   4.434
 7399SOL     OW23095   1.357   2.460   5.518
 7399SOL    HW123096   1.269   2.416   5.540
 7399SOL    HW223097   1.431   2.397   5.541
 7400SOL     OW23098   3.911   2.067   5.651
 7400SOL    HW123099   3.858   2.151   5.646
 7400SOL    HW223100   3.856   1.994   5.690
 7401SOL     OW23101   1.306   1.537   4.950
 7401SOL    HW123102   1.393   1.520   4.997
 7401SOL    HW223103   1.234   1.547   5.018
 7402SOL     OW23104   2.828   5.726   6.459
 7402SOL    HW123105   2.781   5.690   6.540
 7402SOL    HW223106   2.765   5.785   6.408
 7403SOL     OW23107   2.170   3.786   2.341
 7403SOL    HW123108   2.084   3.736   2.351
 7403SOL    HW223109   2.199   3.782   2.245
 7404SOL     OW23110   2.467   5.366   1.689
 7404SOL    HW123111   2.516   5.316   1.760
 7404SOL    HW223112   2.398   5.425   1.731
 7405SOL     OW23113   3.600   4.931   4.491
 7405SOL    HW123114   3.626   4.994   4.565
 7405SOL    HW223115   3.680   4.907   4.438
 7406SOL     OW23116   0.242   2.316   3.069
 7406SOL    HW123117   0.159   2.261   3.077
 7406SOL    HW223118   0.306   2.270   3.008
 7407SOL     OW23119   1.134   0.022   4.599
 7407SOL    HW123120   1.167   6.961   4.554
 7407SOL    HW223121   1.167   0.102   4.550
 7408SOL     OW23122   3.222   3.729   0.014
 7408SOL    HW123123   3.179   3.748   6.948
 7408SOL    HW223124   3.314   3.769   0.016
 7409SOL     OW23125   6.477   2.230   6.763
 7409SOL    HW123126   6.548   2.279   6.712
 7409SOL    HW223127   6.414   2.185   6.700
 7410SOL     OW23128   0.211   6.980   0.217
 7410SOL    HW123129   0.309   7.000   0.206
 7410SOL    HW223130   0.186   6.903   0.158
 7411SOL     OW23131   2.478   0.285   5.970
 7411SOL    HW123132   2.540   0.272   5.893
 7411SOL    HW223133   2.480   0.381   5.999
 7412SOL     OW23134   4.622   0.224   1.676
 7412SOL    HW123135   4.623   0.194   1.771
 7412SOL    HW223136   4.713   0.209   1.635
 7413SOL     OW23137   5.255   6.084   3.942
 7413SOL    HW123138   5.235   5.999   3.993
 7413SOL    HW223139   5.206   6.082   3.855
 7414SOL     OW23140   0.293   0.481   4.107
 7414SOL    HW123141   0.318   0.384   4.106
 7414SOL    HW223142   0.343   0.529   4.036
 7415SOL     OW23143   2.238   4.668   4.516
 7415SOL    HW123144   2.330   4.708   4.525
 7415SOL    HW223145   2.174   4.738   4.485
 7416SOL     OW23146   1.809   1.049   2.979
 7416SOL    HW123147   1.866   1.075   2.901
 7416SOL    HW223148   1.787   1.131   3.032
 7417SOL     OW23149   1.679   0.690   0.032
 7417SOL    HW123150   1.676   0.666   0.129
 7417SOL    HW223151   1.703   0.608   7.001
 7418SOL     OW23152   2.711   5.728   0.789
 7418SOL    HW123153   2.697   5.826   0.779
 7418SOL    HW223154   2.796   5.701   0.743
 7419SOL     OW23155   6.268   2.571   5.094
 7419SOL    HW123156   6.316   2.640   5.149
 7419SOL    HW223157   6.327   2.543   5.017
 7420SOL     OW23158   0.663   6.753   1.780
 7420SOL    HW123159   0.639   6.660   1.753
 7420SOL    HW223160   0.663   6.812   1.698
 7421SOL     OW23161   3.509   4.332   0.588
 7421SOL    HW123162   3.559   4.245   0.579
 7421SOL    HW223163   3.507   4.358   0.685
 7422SOL     OW23164   6.813   3.143   2.796
 7422SOL    HW123165   6.805   3.118   2.893
 7422SOL    HW223166   6.864   3.072   2.747
 7423SOL     OW23167   5.644   3.640   5.168
 7423SOL    HW123168   5.673   3.553   5.129
 7423SOL    HW223169   5.589   3.623   5.250
 7424SOL     OW23170   6.649   6.601   5.938
 7424SOL    HW123171   6.746   6.577   5.945
 7424SOL    HW223172   6.638   6.699   5.952
 7425SOL     OW23173   4.152   5.863   6.603
 7425SOL    HW123174   4.086   5.891   6.673
 7425SOL    HW223175   4.212   5.793   6.640
 7426SOL     OW23176   3.282   1.553   5.609
 7426SOL    HW123177   3.310   1.648   5.623
 7426SOL    HW223178   3.358   1.492   5.631
 7427SOL     OW23179   4.093   0.286   3.414
 7427SOL    HW123180   4.069   0.201   3.367
 7427SOL    HW223181   4.170   0.270   3.476
 7428SOL     OW23182   4.342   1.947   5.731
 7428SOL    HW123183   4.249   1.933   5.765
 7428SOL    HW223184   4.392   2.006   5.795
 7429SOL     OW23185   0.457   6.934   4.338
 7429SOL    HW123186   0.431   6.987   4.419
 7429SOL    HW223187   0.383   6.937   4.272
 7430SOL     OW23188   1.080   2.659   0.294
 7430SOL    HW123189   1.077   2.701   0.384
 7430SOL    HW223190   1.161   2.690   0.244
 7431SOL     OW23191   1.389   2.815   3.342
 7431SOL    HW123192   1.291   2.836   3.335
 7431SOL    HW223193   1.433   2.830   3.254
 7432SOL     OW23194   1.136   1.095   2.714
 7432SOL    HW123195   1.080   1.057   2.788
 7432SOL    HW223196   1.120   1.193   2.706
 7433SOL     OW23197   4.593   6.130   5.932
 7433SOL    HW123198   4.654   6.209   5.942
 7433SOL    HW223199   4.622   6.076   5.853
 7434SOL     OW23200   5.421   5.896   5.815
 7434SOL    HW123201   5.394   5.992   5.820
 7434SOL    HW223202   5.495   5.885   5.748
 7435SOL     OW23203   3.852   5.782   0.505
 7435SOL    HW123204   3.796   5.778   0.588
 7435SOL    HW223205   3.795   5.807   0.427
 7436SOL     OW23206   5.102   3.939   6.199
 7436SOL    HW123207   5.171   3.946   6.126
 7436SOL    HW223208   5.047   4.022   6.200
 7437SOL     OW23209   1.144   6.029   6.905
 7437SOL    HW123210   1.190   6.108   6.946
 7437SOL    HW223211   1.057   6.013   6.950
 7438SOL     OW23212   1.194   5.913   6.659
 7438SOL    HW123213   1.186   5.945   6.753
 7438SOL    HW223214   1.254   5.974   6.607
 7439SOL     OW23215   2.130   5.706   5.856
 7439SOL    HW123216   2.039   5.682   5.889
 7439SOL    HW223217   2.173   5.769   5.921
 7440SOL     OW23218   6.529   3.336   3.634
 7440SOL    HW123219   6.567   3.340   3.542
 7440SOL    HW223220   6.573   3.264   3.686
 7441SOL     OW23221   5.510   6.528   4.100
 7441SOL    HW123222   5.505   6.542   4.199
 7441SOL    HW223223   5.423   6.490   4.067
 7442SOL     OW23224   6.373   1.135   6.216
 7442SOL    HW123225   6.454   1.189   6.239
 7442SOL    HW223226   6.395   1.073   6.141
 7443SOL     OW23227   6.908   6.254   1.992
 7443SOL    HW123228   6.909   6.154   1.994
 7443SOL    HW223229   6.961   6.286   1.914
 7444SOL     OW23230   5.546   2.672   5.627
 7444SOL    HW123231   5.575   2.753   5.576
 7444SOL    HW223232   5.482   2.699   5.699
 7445SOL     OW23233   3.901   0.672   0.891
 7445SOL    HW123234   3.891   0.635   0.799
 7445SOL    HW223235   3.816   0.660   0.942
 7446SOL     OW23236   5.582   3.033   0.383
 7446SOL    HW123237   5.673   2.998   0.359
 7446SOL    HW223238   5.587   3.080   0.471
 7447SOL     OW23239   0.607   3.585   6.747
 7447SOL    HW123240   0.612   3.569   6.649
 7447SOL    HW223241   0.511   3.590   6.775
 7448SOL     OW23242   6.513   6.612   5.258
 7448SOL    HW123243   6.559   6.562   5.186
 7448SOL    HW223244   6.525   6.711   5.243
 7449SOL     OW23245   0.484   3.544   2.106
 7449SOL    HW123246   0.483   3.469   2.172
 7449SOL    HW223247   0.396   3.592   2.108
 7450SOL     OW23248   5.260   2.578   4.552
 7450SOL    HW123249   5.195   2.507   4.577
 7450SOL    HW223250   5.232   2.620   4.466
 7451SOL     OW23251   6.718   0.090   3.035
 7451SOL    HW123252   6.670   0.174   3.009
 7451SOL    HW223253   6.736   0.036   2.953
 7452SOL     OW23254   6.884   6.589   4.665
 7452SOL    HW123255   6.796   6.581   4.619
 7452SOL    HW223256   6.946   6.520   4.629
 7453SOL     OW23257   5.066   0.382   6.082
 7453SOL    HW123258   5.036   0.475   6.102
 7453SOL    HW223259   5.166   0.377   6.089
 7454SOL     OW23260   0.416   2.357   2.375
 7454SOL    HW123261   0.484   2.420   2.413
 7454SOL    HW223262   0.326   2.401   2.376
 7455SOL     OW23263   7.015   2.247   2.458
 7455SOL    HW123264   6.977   2.278   2.372
 7455SOL    HW223265   0.031   2.325   2.508
 7456SOL     OW23266   0.912   1.569   3.851
 7456SOL    HW123267   0.939   1.493   3.792
 7456SOL    HW223268   0.840   1.539   3.913
 7457SOL     OW23269   3.749   0.570   6.143
 7457SOL    HW123270   3.680   0.575   6.215
 7457SOL    HW223271   3.753   0.658   6.095
 7458SOL     OW23272   1.735   6.455   5.762
 7458SOL    HW123273   1.815   6.404   5.792
 7458SOL    HW223274   1.664   6.450   5.832
 7459SOL     OW23275   4.574   0.472   2.284
 7459SOL    HW123276   4.588   0.570   2.299
 7459SOL    HW223277   4.659   0.423   2.300
 7460SOL     OW23278   1.468   5.062   0.713
 7460SOL    HW123279   1.411   5.102   0.785
 7460SOL    HW223280   1.494   5.133   0.648
 7461SOL     OW23281   5.786   1.110   6.593
 7461SOL    HW123282   5.807   1.208   6.603
 7461SOL    HW223283   5.697   1.100   6.548
 7462SOL     OW23284   2.216   3.956   2.567
 7462SOL    HW123285   2.213   3.900   2.484
 7462SOL    HW223286   2.198   3.898   2.647
 7463SOL     OW23287   2.350   4.658   0.409
 7463SOL    HW123288   2.402   4.588   0.359
 7463SOL    HW223289   2.391   4.747   0.393
 7464SOL     OW23290   5.037   0.288   6.557
 7464SOL    HW123291   4.938   0.275   6.555
 7464SOL    HW223292   5.068   0.300   6.651
 7465SOL     OW23293   1.228   5.502   6.651
 7465SOL    HW123294   1.320   5.500   6.611
 7465SOL    HW223295   1.229   5.453   6.738
 7466SOL     OW23296   0.010   0.381   5.054
 7466SOL    HW123297   6.946   0.430   5.046
 7466SOL    HW223298   7.022   0.289   5.016
 7467SOL     OW23299   0.470   1.492   1.211
 7467SOL    HW123300   0.385   1.481   1.263
 7467SOL    HW223301   0.548   1.475   1.271
 7468SOL     OW23302   5.725   3.093   3.641
 7468SOL    HW123303   5.762   3.146   3.564
 7468SOL    HW223304   5.638   3.133   3.670
 7469SOL     OW23305   6.941   1.201   0.659
 7469SOL    HW123306   6.935   1.178   0.756
 7469SOL    HW223307   6.851   1.194   0.617
 7470SOL     OW23308   6.389   3.650   3.404
 7470SOL    HW123309   6.449   3.598   3.465
 7470SOL    HW223310   6.305   3.599   3.389
 7471SOL     OW23311   5.639   6.569   6.369
 7471SOL    HW123312   5.687   6.619   6.296
 7471SOL    HW223313   5.635   6.627   6.451
 7472SOL     OW23314   6.467   6.859   4.657
 7472SOL    HW123315   6.471   6.942   4.711
 7472SOL    HW223316   6.386   6.806   4.683
 7473SOL     OW23317   5.706   5.084   3.773
 7473SOL    HW123318   5.769   5.162   3.770
 7473SOL    HW223319   5.640   5.097   3.847
 7474SOL     OW23320   1.051   1.429   5.412
 7474SOL    HW123321   1.017   1.523   5.418
 7474SOL    HW223322   0.973   1.367   5.400
 7475SOL     OW23323   4.946   2.069   2.153
 7475SOL    HW123324   4.915   2.063   2.247
 7475SOL    HW223325   4.960   2.165   2.128
 7476SOL     OW23326   3.297   0.527   3.628
 7476SOL    HW123327   3.391   0.494   3.622
 7476SOL    HW223328   3.297   0.627   3.633
 7477SOL     OW23329   0.387   0.957   5.257
 7477SOL    HW123330   0.424   0.930   5.168
 7477SOL    HW223331   0.396   1.056   5.267
 7478SOL     OW23332   4.934   4.825   5.711
 7478SOL    HW123333   4.956   4.918   5.740
 7478SOL    HW223334   4.867   4.786   5.775
 7479SOL     OW23335   4.249   2.305   2.232
 7479SOL    HW123336   4.184   2.231   2.250
 7479SOL    HW223337   4.247   2.329   2.135
 7480SOL     OW23338   0.627   4.041   2.174
 7480SOL    HW123339   0.656   3.963   2.230
 7480SOL    HW223340   0.612   4.010   2.080
 7481SOL     OW23341   6.497   5.904   1.186
 7481SOL    HW123342   6.473   5.981   1.128
 7481SOL    HW223343   6.422   5.884   1.249
 7482SOL     OW23344   4.627   2.630   3.109
 7482SOL    HW123345   4.698   2.666   3.049
 7482SOL    HW223346   4.624   2.684   3.193
 7483SOL     OW23347   4.732   2.742   4.103
 7483SOL    HW123348   4.661   2.706   4.163
 7483SOL    HW223349   4.690   2.782   4.022
 7484SOL     OW23350   1.683   7.000   4.254
 7484SOL    HW123351   1.776   0.005   4.230
 7484SOL    HW223352   1.629   6.987   4.171
 7485SOL     OW23353   3.593   0.065   4.763
 7485SOL    HW123354   3.611   6.998   4.804
 7485SOL    HW223355   3.530   0.054   4.686
 7486SOL     OW23356   1.879   6.566   0.586
 7486SOL    HW123357   1.909   6.498   0.653
 7486SOL    HW223358   1.891   6.657   0.624
 7487SOL     OW23359   1.797   6.757   3.576
 7487SOL    HW123360   1.715   6.706   3.550
 7487SOL    HW223361   1.794   6.848   3.533
 7488SOL     OW23362   2.607   0.033   3.661
 7488SOL    HW123363   2.555   6.981   3.618
 7488SOL    HW223364   2.591   0.032   3.760
 7489SOL     OW23365   4.851   2.731   5.349
 7489SOL    HW123366   4.826   2.810   5.405
 7489SOL    HW223367   4.924   2.680   5.395
 7490SOL     OW23368   1.268   0.408   2.466
 7490SOL    HW123369   1.271   0.313   2.499
 7490SOL    HW223370   1.176   0.428   2.433
 7491SOL     OW23371   5.355   2.660   6.439
 7491SOL    HW123372   5.352   2.702   6.530
 7491SOL    HW223373   5.392   2.567   6.447
 7492SOL     OW23374   2.074   0.657   3.273
 7492SOL    HW123375   2.013   0.726   3.312
 7492SOL    HW223376   2.020   0.584   3.231
 7493SOL     OW23377   0.675   3.785   6.983
 7493SOL    HW123378   0.599   3.847   7.001
 7493SOL    HW223379   0.657   3.736   6.897
 7494SOL     OW23380   5.327   1.191   2.697
 7494SOL    HW123381   5.380   1.191   2.782
 7494SOL    HW223382   5.315   1.285   2.666
 7495SOL     OW23383   1.521   2.226   6.586
 7495SOL    HW123384   1.458   2.225   6.509
 7495SOL    HW223385   1.553   2.320   6.601
 7496SOL     OW23386   6.050   3.461   5.082
 7496SOL    HW123387   6.028   3.551   5.043
 7496SOL    HW223388   6.023   3.390   5.017
 7497SOL     OW23389   2.554   4.194   6.124
 7497SOL    HW123390   2.476   4.253   6.109
 7497SOL    HW223391   2.639   4.244   6.107
 7498SOL     OW23392   3.306   0.246   5.203
 7498SOL    HW123393   3.334   0.211   5.114
 7498SOL    HW223394   3.282   0.343   5.195
 7499SOL     OW23395   3.102   1.488   2.852
 7499SOL    HW123396   3.173   1.469   2.920
 7499SOL    HW223397   3.114   1.581   2.817
 7500SOL     OW23398   3.504   5.659   2.773
 7500SOL    HW123399   3.407   5.642   2.785
 7500SOL    HW223400   3.557   5.590   2.823
 7501SOL     OW23401   5.133   3.842   4.927
 7501SOL    HW123402   5.033   3.842   4.916
 7501SOL    HW223403   5.158   3.774   4.996
 7502SOL     OW23404   3.215   0.794   4.344
 7502SOL    HW123405   3.185   0.848   4.423
 7502SOL    HW223406   3.146   0.725   4.323
 7503SOL     OW23407   1.711   0.346   1.519
 7503SOL    HW123408   1.767   0.392   1.588
 7503SOL    HW223409   1.644   0.287   1.563
 7504SOL     OW23410   1.134   6.910   3.367
 7504SOL    HW123411   1.091   6.960   3.291
 7504SOL    HW223412   1.222   6.873   3.336
 7505SOL     OW23413   1.510   2.566   6.008
 7505SOL    HW123414   1.425   2.524   5.975
 7505SOL    HW223415   1.520   2.548   6.106
 7506SOL     OW23416   5.215   1.102   3.363
 7506SOL    HW123417   5.276   1.039   3.411
 7506SOL    HW223418   5.153   1.050   3.304
 7507SOL     OW23419   0.318   1.457   2.691
 7507SOL    HW123420   0.406   1.501   2.675
 7507SOL    HW223421   0.246   1.511   2.648
 7508SOL     OW23422   1.197   6.824   1.627
 7508SOL    HW123423   1.136   6.903   1.628
 7508SOL    HW223424   1.211   6.795   1.532
 7509SOL     OW23425   6.089   4.667   0.535
 7509SOL    HW123426   6.009   4.722   0.513
 7509SOL    HW223427   6.163   4.690   0.472
 7510SOL     OW23428   3.896   3.607   5.762
 7510SOL    HW123429   3.854   3.678   5.819
 7510SOL    HW223430   3.934   3.536   5.822
 7511SOL     OW23431   2.366   6.046   3.566
 7511SOL    HW123432   2.360   5.950   3.537
 7511SOL    HW223433   2.457   6.081   3.546
 7512SOL     OW23434   2.997   6.694   0.002
 7512SOL    HW123435   2.976   6.658   0.094
 7512SOL    HW223436   2.985   6.793   0.002
 7513SOL     OW23437   1.894   0.868   1.476
 7513SOL    HW123438   1.940   0.792   1.522
 7513SOL    HW223439   1.959   0.942   1.461
 7514SOL     OW23440   2.430   5.738   1.578
 7514SOL    HW123441   2.484   5.711   1.658
 7514SOL    HW223442   2.461   5.687   1.498
 7515SOL     OW23443   6.778   5.150   3.748
 7515SOL    HW123444   6.852   5.110   3.693
 7515SOL    HW223445   6.801   5.141   3.845
 7516SOL     OW23446   6.978   6.173   5.454
 7516SOL    HW123447   0.012   6.115   5.512
 7516SOL    HW223448   0.013   6.226   5.392
 7517SOL     OW23449   0.215   2.613   0.451
 7517SOL    HW123450   0.123   2.573   0.440
 7517SOL    HW223451   0.280   2.561   0.395
 7518SOL     OW23452   4.367   4.874   3.772
 7518SOL    HW123453   4.399   4.926   3.852
 7518SOL    HW223454   4.374   4.931   3.690
 7519SOL     OW23455   0.614   6.259   3.424
 7519SOL    HW123456   0.564   6.197   3.485
 7519SOL    HW223457   0.640   6.210   3.341
 7520SOL     OW23458   2.156   6.856   2.234
 7520SOL    HW123459   2.129   6.860   2.138
 7520SOL    HW223460   2.115   6.775   2.277
 7521SOL     OW23461   4.918   4.267   5.609
 7521SOL    HW123462   4.826   4.305   5.619
 7521SOL    HW223463   4.963   4.267   5.699
 7522SOL     OW23464   1.560   1.252   5.912
 7522SOL    HW123465   1.584   1.348   5.892
 7522SOL    HW223466   1.555   1.201   5.827
 7523SOL     OW23467   5.810   0.577   6.504
 7523SOL    HW123468   5.863   0.569   6.420
 7523SOL    HW223469   5.778   0.671   6.515
 7524SOL     OW23470   1.438   2.708   5.482
 7524SOL    HW123471   1.404   2.614   5.491
 7524SOL    HW223472   1.497   2.729   5.559
 7525SOL     OW23473   3.785   1.085   5.956
 7525SOL    HW123474   3.793   1.161   5.891
 7525SOL    HW223475   3.839   1.105   6.038
 7526SOL     OW23476   3.254   3.475   1.445
 7526SOL    HW123477   3.212   3.390   1.414
 7526SOL    HW223478   3.194   3.521   1.509
 7527SOL     OW23479   3.166   6.111   3.193
 7527SOL    HW123480   3.108   6.180   3.150
 7527SOL    HW223481   3.181   6.136   3.289
 7528SOL     OW23482   5.885   2.485   0.798
 7528SOL    HW123483   5.963   2.441   0.753
 7528SOL    HW223484   5.873   2.447   0.890
 7529SOL     OW23485   4.898   1.565   4.771
 7529SOL    HW123486   4.876   1.545   4.675
 7529SOL    HW223487   4.832   1.630   4.808
 7530SOL     OW23488   0.178   3.062   2.275
 7530SOL    HW123489   0.221   3.145   2.239
 7530SOL    HW223490   0.239   2.984   2.260
 7531SOL     OW23491   5.453   3.124   4.675
 7531SOL    HW123492   5.392   3.052   4.642
 7531SOL    HW223493   5.407   3.213   4.667
 7532SOL     OW23494   4.514   5.735   6.633
 7532SOL    HW123495   4.495   5.639   6.655
 7532SOL    HW223496   4.576   5.740   6.554
 7533SOL     OW23497   3.172   0.927   1.441
 7533SOL    HW123498   3.161   0.849   1.380
 7533SOL    HW223499   3.123   0.909   1.527
 7534SOL     OW23500   4.530   6.705   5.582
 7534SOL    HW123501   4.531   6.803   5.602
 7534SOL    HW223502   4.462   6.685   5.512
 7535SOL     OW23503   2.127   0.572   4.893
 7535SOL    HW123504   2.166   0.644   4.836
 7535SOL    HW223505   2.198   0.534   4.952
 7536SOL     OW23506   4.592   4.808   4.383
 7536SOL    HW123507   4.509   4.804   4.328
 7536SOL    HW223508   4.619   4.716   4.410
 7537SOL     OW23509   2.762   5.686   1.530
 7537SOL    HW123510   2.688   5.677   1.463
 7537SOL    HW223511   2.728   5.662   1.621
 7538SOL     OW23512   1.658   2.271   1.370
 7538SOL    HW123513   1.715   2.197   1.405
 7538SOL    HW223514   1.711   2.357   1.369
 7539SOL     OW23515   1.773   3.747   3.940
 7539SOL    HW123516   1.742   3.657   3.909
 7539SOL    HW223517   1.698   3.794   3.987
 7540SOL     OW23518   4.595   0.574   4.465
 7540SOL    HW123519   4.515   0.513   4.469
 7540SOL    HW223520   4.581   0.651   4.527
 7541SOL     OW23521   0.595   4.697   5.253
 7541SOL    HW123522   0.643   4.658   5.331
 7541SOL    HW223523   0.511   4.645   5.236
 7542SOL     OW23524   1.205   5.041   6.874
 7542SOL    HW123525   1.198   4.958   6.819
 7542SOL    HW223526   1.229   5.118   6.814
 7543SOL     OW23527   4.206   1.907   6.428
 7543SOL    HW123528   4.172   1.896   6.335
 7543SOL    HW223529   4.251   1.996   6.437
 7544SOL     OW23530   6.805   2.365   2.840
 7544SOL    HW123531   6.889   2.314   2.823
 7544SOL    HW223532   6.733   2.333   2.779
 7545SOL     OW23533   0.220   5.259   0.372
 7545SOL    HW123534   0.209   5.334   0.437
 7545SOL    HW223535   0.201   5.172   0.418
 7546SOL     OW23536   3.546   2.460   1.661
 7546SOL    HW123537   3.588   2.551   1.659
 7546SOL    HW223538   3.590   2.404   1.731
 7547SOL     OW23539   4.937   1.869   0.341
 7547SOL    HW123540   4.893   1.780   0.344
 7547SOL    HW223541   4.867   1.940   0.326
 7548SOL     OW23542   4.790   1.347   6.560
 7548SOL    HW123543   4.709   1.402   6.543
 7548SOL    HW223544   4.766   1.270   6.620
 7549SOL     OW23545   3.761   2.757   6.777
 7549SOL    HW123546   3.817   2.726   6.854
 7549SOL    HW223547   3.820   2.788   6.703
 7550SOL     OW23548   2.630   5.085   3.267
 7550SOL    HW123549   2.621   5.185   3.269
 7550SOL    HW223550   2.676   5.055   3.351
 7551SOL     OW23551   5.434   3.550   6.242
 7551SOL    HW123552   5.357   3.487   6.252
 7551SOL    HW223553   5.516   3.509   6.282
 7552SOL     OW23554   1.358   5.717   2.816
 7552SOL    HW123555   1.379   5.619   2.814
 7552SOL    HW223556   1.443   5.769   2.819
 7553SOL     OW23557   4.600   6.368   5.586
 7553SOL    HW123558   4.655   6.448   5.610
 7553SOL    HW223559   4.503   6.393   5.586
 7554SOL     OW23560   4.672   1.215   0.169
 7554SOL    HW123561   4.573   1.214   0.187
 7554SOL    HW223562   4.721   1.221   0.255
 7555SOL     OW23563   2.209   4.692   6.035
 7555SOL    HW123564   2.170   4.630   5.967
 7555SOL    HW223565   2.297   4.657   6.065
 7556SOL     OW23566   2.218   2.833   0.460
 7556SOL    HW123567   2.179   2.756   0.409
 7556SOL    HW223568   2.306   2.806   0.498
 7557SOL     OW23569   5.508   1.343   5.639
 7557SOL    HW123570   5.494   1.331   5.737
 7557SOL    HW223571   5.426   1.382   5.598
 7558SOL     OW23572   1.577   2.338   4.156
 7558SOL    HW123573   1.647   2.280   4.114
 7558SOL    HW223574   1.594   2.433   4.132
 7559SOL     OW23575   5.135   3.965   0.463
 7559SOL    HW123576   5.140   3.965   0.563
 7559SOL    HW223577   5.215   4.013   0.426
 7560SOL     OW23578   5.490   6.673   1.064
 7560SOL    HW123579   5.419   6.617   1.106
 7560SOL    HW223580   5.561   6.693   1.131
 7561SOL     OW23581   1.041   2.954   6.773
 7561SOL    HW123582   1.136   2.984   6.759
 7561SOL    HW223583   0.979   3.025   6.742
 7562SOL     OW23584   0.269   5.665   4.336
 7562SOL    HW123585   0.334   5.644   4.409
 7562SOL    HW223586   0.300   5.626   4.250
 7563SOL     OW23587   3.035   7.001   1.169
 7563SOL    HW123588   3.043   0.002   1.266
 7563SOL    HW223589   2.947   0.011   1.134
 7564SOL     OW23590   4.143   6.780   3.269
 7564SOL    HW123591   4.068   6.749   3.326
 7564SOL    HW223592   4.132   6.877   3.247
 7565SOL     OW23593   5.396   2.790   0.403
 7565SOL    HW123594   5.461   2.717   0.384
 7565SOL    HW223595   5.445   2.875   0.423
 7566SOL     OW23596   6.699   4.400   3.020
 7566SOL    HW123597   6.761   4.478   3.015
 7566SOL    HW223598   6.646   4.394   2.935
 7567SOL     OW23599   1.647   1.825   5.206
 7567SOL    HW123600   1.550   1.803   5.208
 7567SOL    HW223601   1.681   1.838   5.299
 7568SOL     OW23602   5.046   6.207   3.432
 7568SOL    HW123603   4.965   6.239   3.382
 7568SOL    HW223604   5.093   6.285   3.473
 7569SOL     OW23605   3.862   4.871   6.139
 7569SOL    HW123606   3.808   4.955   6.137
 7569SOL    HW223607   3.959   4.894   6.148
 7570SOL     OW23608   5.194   3.733   5.194
 7570SOL    HW123609   5.274   3.747   5.135
 7570SOL    HW223610   5.215   3.766   5.286
 7571SOL     OW23611   4.179   4.891   3.439
 7571SOL    HW123612   4.118   4.923   3.367
 7571SOL    HW223613   4.245   4.826   3.401
 7572SOL     OW23614   4.187   1.112   1.484
 7572SOL    HW123615   4.187   1.104   1.384
 7572SOL    HW223616   4.233   1.197   1.510
 7573SOL     OW23617   0.529   0.379   5.233
 7573SOL    HW123618   0.440   0.367   5.276
 7573SOL    HW223619   0.599   0.393   5.303
 7574SOL     OW23620   5.265   0.390   5.366
 7574SOL    HW123621   5.224   0.358   5.281
 7574SOL    HW223622   5.335   0.458   5.346
 7575SOL     OW23623   5.542   0.987   6.236
 7575SOL    HW123624   5.573   0.994   6.142
 7575SOL    HW223625   5.482   0.908   6.246
 7576SOL     OW23626   4.607   3.452   0.516
 7576SOL    HW123627   4.553   3.536   0.515
 7576SOL    HW223628   4.683   3.462   0.581
 7577SOL     OW23629   1.036   6.785   7.022
 7577SOL    HW123630   1.052   6.745   6.932
 7577SOL    HW223631   1.123   6.813   0.040
 7578SOL     OW23632   2.592   4.929   1.456
 7578SOL    HW123633   2.512   4.987   1.441
 7578SOL    HW223634   2.587   4.849   1.396
 7579SOL     OW23635   0.708   1.208   2.491
 7579SOL    HW123636   0.697   1.114   2.460
 7579SOL    HW223637   0.618   1.251   2.498
 7580SOL     OW23638   0.758   3.990   4.483
 7580SOL    HW123639   0.702   3.939   4.549
 7580SOL    HW223640   0.833   3.933   4.452
 7581SOL     OW23641   6.951   1.547   2.240
 7581SOL    HW123642   6.908   1.573   2.154
 7581SOL    HW223643   7.010   1.621   2.272
 7582SOL     OW23644   3.955   1.065   1.647
 7582SOL    HW123645   3.864   1.094   1.615
 7582SOL    HW223646   4.022   1.080   1.574
 7583SOL     OW23647   5.976   2.939   2.322
 7583SOL    HW123648   5.882   2.915   2.297
 7583SOL    HW223649   5.984   2.943   2.421
 7584SOL     OW23650   3.642   0.302   2.058
 7584SOL    HW123651   3.682   0.363   1.990
 7584SOL    HW223652   3.543   0.297   2.046
 7585SOL     OW23653   2.017   2.860   6.793
 7585SOL    HW123654   2.101   2.901   6.758
 7585SOL    HW223655   2.021   2.856   6.893
 7586SOL     OW23656   3.072   0.526   3.417
 7586SOL    HW123657   3.077   0.438   3.370
 7586SOL    HW223658   3.164   0.552   3.448
 7587SOL     OW23659   2.469   2.366   6.776
 7587SOL    HW123660   2.375   2.401   6.784
 7587SOL    HW223661   2.467   2.267   6.767
 7588SOL     OW23662   1.202   2.661   3.897
 7588SOL    HW123663   1.150   2.576   3.910
 7588SOL    HW223664   1.276   2.665   3.964
 7589SOL     OW23665   0.497   0.617   2.422
 7589SOL    HW123666   0.547   0.531   2.432
 7589SOL    HW223667   0.413   0.602   2.372
 7590SOL     OW23668   3.482   2.320   6.262
 7590SOL    HW123669   3.541   2.274   6.328
 7590SOL    HW223670   3.537   2.356   6.187
 7591SOL     OW23671   6.769   3.381   0.876
 7591SOL    HW123672   6.802   3.429   0.957
 7591SOL    HW223673   6.822   3.410   0.796
 7592SOL     OW23674   6.907   5.388   4.842
 7592SOL    HW123675   6.880   5.482   4.864
 7592SOL    HW223676   6.825   5.330   4.838
 7593SOL     OW23677   6.078   2.963   0.073
 7593SOL    HW123678   6.124   2.986   7.009
 7593SOL    HW223679   6.133   2.998   0.150
 7594SOL     OW23680   1.486   4.591   2.295
 7594SOL    HW123681   1.419   4.525   2.330
 7594SOL    HW223682   1.554   4.543   2.239
 7595SOL     OW23683   6.313   2.847   5.928
 7595SOL    HW123684   6.289   2.777   5.861
 7595SOL    HW223685   6.370   2.916   5.884
 7596SOL     OW23686   4.055   6.113   3.492
 7596SOL    HW123687   4.027   6.115   3.396
 7596SOL    HW223688   4.144   6.158   3.502
 7597SOL     OW23689   2.252   6.810   3.160
 7597SOL    HW123690   2.257   6.711   3.160
 7597SOL    HW223691   2.317   6.847   3.094
 7598SOL     OW23692   0.154   1.004   3.215
 7598SOL    HW123693   0.136   0.923   3.270
 7598SOL    HW223694   0.068   1.046   3.187
 7599SOL     OW23695   5.616   1.910   2.569
 7599SOL    HW123696   5.566   1.976   2.626
 7599SOL    HW223697   5.677   1.958   2.507
 7600SOL     OW23698   1.452   1.445   3.243
 7600SOL    HW123699   1.513   1.524   3.243
 7600SOL    HW223700   1.364   1.470   3.204
 7601SOL     OW23701   1.873   4.408   2.310
 7601SOL    HW123702   1.856   4.482   2.374
 7601SOL    HW223703   1.786   4.368   2.280
 7602SOL     OW23704   2.419   3.517   6.512
 7602SOL    HW123705   2.375   3.497   6.424
 7602SOL    HW223706   2.508   3.560   6.496
 7603SOL     OW23707   1.395   5.538   6.000
 7603SOL    HW123708   1.462   5.463   5.999
 7603SOL    HW223709   1.432   5.615   6.052
 7604SOL     OW23710   2.031   3.793   4.790
 7604SOL    HW123711   2.059   3.876   4.840
 7604SOL    HW223712   2.063   3.713   4.840
 7605SOL     OW23713   1.411   0.895   1.881
 7605SOL    HW123714   1.365   0.966   1.935
 7605SOL    HW223715   1.492   0.863   1.930
 7606SOL     OW23716   6.190   4.376   4.889
 7606SOL    HW123717   6.245   4.340   4.965
 7606SOL    HW223718   6.230   4.462   4.857
 7607SOL     OW23719   3.345   5.549   6.962
 7607SOL    HW123720   3.395   5.601   0.009
 7607SOL    HW223721   3.383   5.566   6.872
 7608SOL     OW23722   3.817   4.065   1.534
 7608SOL    HW123723   3.732   4.105   1.568
 7608SOL    HW223724   3.814   3.966   1.546
 7609SOL     OW23725   1.232   2.769   4.821
 7609SOL    HW123726   1.261   2.855   4.864
 7609SOL    HW223727   1.266   2.692   4.875
 7610SOL     OW23728   4.313   4.587   6.283
 7610SOL    HW123729   4.383   4.553   6.346
 7610SOL    HW223730   4.353   4.654   6.221
 7611SOL     OW23731   5.986   3.851   1.588
 7611SOL    HW123732   5.989   3.755   1.616
 7611SOL    HW223733   6.071   3.875   1.540
 7612SOL     OW23734   4.910   3.211   2.181
 7612SOL    HW123735   4.852   3.142   2.137
 7612SOL    HW223736   5.006   3.185   2.170
 7613SOL     OW23737   6.873   2.629   0.725
 7613SOL    HW123738   6.971   2.620   0.703
 7613SOL    HW223739   6.835   2.539   0.746
 7614SOL     OW23740   5.045   3.670   0.899
 7614SOL    HW123741   5.070   3.576   0.924
 7614SOL    HW223742   4.981   3.706   0.966
 7615SOL     OW23743   3.761   4.983   6.899
 7615SOL    HW123744   3.709   4.935   6.970
 7615SOL    HW223745   3.751   5.082   6.911
 7616SOL     OW23746   6.109   6.506   4.231
 7616SOL    HW123747   6.172   6.437   4.197
 7616SOL    HW223748   6.077   6.562   4.154
 7617SOL     OW23749   4.169   6.599   2.463
 7617SOL    HW123750   4.260   6.639   2.461
 7617SOL    HW223751   4.102   6.669   2.490
 7618SOL     OW23752   0.061   1.998   5.669
 7618SOL    HW123753   0.063   1.917   5.728
 7618SOL    HW223754   6.990   2.031   5.661
 7619SOL     OW23755   6.400   3.276   5.131
 7619SOL    HW123756   6.364   3.195   5.085
 7619SOL    HW223757   6.394   3.355   5.069
 7620SOL     OW23758   3.982   5.640   1.501
 7620SOL    HW123759   3.916   5.591   1.444
 7620SOL    HW223760   4.007   5.726   1.456
 7621SOL     OW23761   6.714   1.276   1.247
 7621SOL    HW123762   6.724   1.374   1.267
 7621SOL    HW223763   6.766   1.254   1.164
 7622SOL     OW23764   4.456   5.048   6.710
 7622SOL    HW123765   4.486   4.957   6.738
 7622SOL    HW223766   4.529   5.114   6.726
 7623SOL     OW23767   4.981   3.280   6.928
 7623SOL    HW123768   5.078   3.259   6.928
 7623SOL    HW223769   4.932   3.213   6.872
 7624SOL     OW23770   0.004   3.731   4.933
 7624SOL    HW123771   0.047   3.693   5.015
 7624SOL    HW223772   0.057   3.703   4.853
 7625SOL     OW23773   4.967   0.767   1.388
 7625SOL    HW123774   4.883   0.713   1.397
 7625SOL    HW223775   4.970   0.808   1.296
 7626SOL     OW23776   6.548   0.269   4.141
 7626SOL    HW123777   6.607   0.284   4.061
 7626SOL    HW223778   6.496   0.185   4.128
 7627SOL     OW23779   4.954   3.394   0.137
 7627SOL    HW123780   4.974   3.365   0.044
 7627SOL    HW223781   4.862   3.435   0.141
 7628SOL     OW23782   3.455   2.182   1.826
 7628SOL    HW123783   3.533   2.245   1.833
 7628SOL    HW223784   3.452   2.124   1.907
 7629SOL     OW23785   0.345   5.435   3.307
 7629SOL    HW123786   0.411   5.505   3.279
 7629SOL    HW223787   0.359   5.353   3.251
 7630SOL     OW23788   0.581   6.947   1.533
 7630SOL    HW123789   0.668   6.949   1.484
 7630SOL    HW223790   0.508   6.978   1.472
 7631SOL     OW23791   0.843   1.097   6.007
 7631SOL    HW123792   0.806   1.013   6.047
 7631SOL    HW223793   0.841   1.170   6.075
 7632SOL     OW23794   4.710   4.374   1.495
 7632SOL    HW123795   4.673   4.303   1.556
 7632SOL    HW223796   4.778   4.334   1.434
 7633SOL     OW23797   5.288   0.016   1.741
 7633SOL    HW123798   5.379   6.997   1.741
 7633SOL    HW223799   5.248   0.010   1.832
 7634SOL     OW23800   1.784   1.573   2.403
 7634SOL    HW123801   1.748   1.515   2.331
 7634SOL    HW223802   1.880   1.594   2.384
 7635SOL     OW23803   3.504   4.968   5.468
 7635SOL    HW123804   3.577   4.903   5.491
 7635SOL    HW223805   3.428   4.918   5.426
 7636SOL     OW23806   1.852   2.748   4.045
 7636SOL    HW123807   1.925   2.759   4.112
 7636SOL    HW223808   1.767   2.723   4.092
 7637SOL     OW23809   2.797   5.873   2.178
 7637SOL    HW123810   2.888   5.876   2.137
 7637SOL    HW223811   2.763   5.966   2.190
 7638SOL     OW23812   2.303   5.915   1.317
 7638SOL    HW123813   2.297   5.828   1.267
 7638SOL    HW223814   2.399   5.934   1.339
 7639SOL     OW23815   0.318   1.742   1.027
 7639SOL    HW123816   0.334   1.653   1.071
 7639SOL    HW223817   0.381   1.810   1.065
 7640SOL     OW23818   2.929   1.447   5.638
 7640SOL    HW123819   2.947   1.447   5.540
 7640SOL    HW223820   2.874   1.367   5.662
 7641SOL     OW23821   1.651   3.645   2.290
 7641SOL    HW123822   1.615   3.612   2.377
 7641SOL    HW223823   1.661   3.744   2.293
 7642SOL     OW23824   3.606   2.136   2.711
 7642SOL    HW123825   3.665   2.090   2.645
 7642SOL    HW223826   3.628   2.105   2.803
 7643SOL     OW23827   4.406   2.362   3.292
 7643SOL    HW123828   4.397   2.452   3.250
 7643SOL    HW223829   4.479   2.311   3.247
 7644SOL     OW23830   4.583   2.113   1.810
 7644SOL    HW123831   4.620   2.145   1.723
 7644SOL    HW223832   4.492   2.073   1.794
 7645SOL     OW23833   4.883   4.170   5.375
 7645SOL    HW123834   4.960   4.121   5.334
 7645SOL    HW223835   4.898   4.181   5.473
 7646SOL     OW23836   1.542   3.060   3.854
 7646SOL    HW123837   1.617   2.998   3.829
 7646SOL    HW223838   1.455   3.015   3.835
 7647SOL     OW23839   6.340   2.569   3.393
 7647SOL    HW123840   6.414   2.596   3.455
 7647SOL    HW223841   6.337   2.469   3.386
 7648SOL     OW23842   2.953   1.415   3.222
 7648SOL    HW123843   2.910   1.466   3.148
 7648SOL    HW223844   2.999   1.335   3.185
 7649SOL     OW23845   1.028   0.811   3.657
 7649SOL    HW123846   1.107   0.759   3.689
 7649SOL    HW223847   1.035   0.905   3.689
 7650SOL     OW23848   5.381   1.338   0.508
 7650SOL    HW123849   5.421   1.260   0.460
 7650SOL    HW223850   5.377   1.416   0.446
 7651SOL     OW23851   2.102   0.681   3.613
 7651SOL    HW123852   2.098   0.595   3.561
 7651SOL    HW223853   2.181   0.734   3.583
 7652SOL     OW23854   5.530   3.315   5.308
 7652SOL    HW123855   5.609   3.307   5.247
 7652SOL    HW223856   5.456   3.257   5.273
 7653SOL     OW23857   0.632   1.957   6.769
 7653SOL    HW123858   0.664   1.864   6.784
 7653SOL    HW223859   0.669   2.017   6.841
 7654SOL     OW23860   4.813   2.986   4.251
 7654SOL    HW123861   4.809   2.986   4.351
 7654SOL    HW223862   4.790   2.895   4.217
 7655SOL     OW23863   4.350   6.479   3.318
 7655SOL    HW123864   4.325   6.528   3.402
 7655SOL    HW223865   4.273   6.478   3.255
 7656SOL     OW23866   3.656   4.052   6.638
 7656SOL    HW123867   3.727   4.020   6.575
 7656SOL    HW223868   3.671   4.012   6.729
 7657SOL     OW23869   1.146   2.113   3.484
 7657SOL    HW123870   1.181   2.177   3.552
 7657SOL    HW223871   1.060   2.148   3.446
 7658SOL     OW23872   3.329   0.320   6.751
 7658SOL    HW123873   3.295   0.406   6.789
 7658SOL    HW223874   3.341   0.254   6.825
 7659SOL     OW23875   5.680   4.800   6.788
 7659SOL    HW123876   5.743   4.774   6.715
 7659SOL    HW223877   5.654   4.719   6.840
 7660SOL     OW23878   0.298   5.793   3.478
 7660SOL    HW123879   0.250   5.797   3.390
 7660SOL    HW223880   0.243   5.837   3.548
 7661SOL     OW23881   5.225   2.250   4.951
 7661SOL    HW123882   5.297   2.194   4.991
 7661SOL    HW223883   5.234   2.250   4.851
 7662SOL     OW23884   1.499   2.884   4.392
 7662SOL    HW123885   1.544   2.944   4.458
 7662SOL    HW223886   1.524   2.789   4.411
 7663SOL     OW23887   6.756   5.596   5.770
 7663SOL    HW123888   6.707   5.643   5.843
 7663SOL    HW223889   6.802   5.662   5.712
 7664SOL     OW23890   3.970   0.502   1.494
 7664SOL    HW123891   4.059   0.484   1.451
 7664SOL    HW223892   3.978   0.583   1.552
 7665SOL     OW23893   6.043   0.637   4.417
 7665SOL    HW123894   6.103   0.611   4.341
 7665SOL    HW223895   6.090   0.618   4.503
 7666SOL     OW23896   0.462   5.429   1.720
 7666SOL    HW123897   0.456   5.519   1.679
 7666SOL    HW223898   0.480   5.438   1.818
 7667SOL     OW23899   4.200   0.048   2.050
 7667SOL    HW123900   4.113   0.087   2.020
 7667SOL    HW223901   4.231   0.097   2.132
 7668SOL     OW23902   3.287   4.983   0.650
 7668SOL    HW123903   3.265   4.891   0.619
 7668SOL    HW223904   3.384   4.988   0.673
 7669SOL     OW23905   4.618   1.082   5.295
 7669SOL    HW123906   4.602   1.131   5.209
 7669SOL    HW223907   4.592   0.986   5.285
 7670SOL     OW23908   0.856   4.441   0.667
 7670SOL    HW123909   0.933   4.388   0.705
 7670SOL    HW223910   0.792   4.465   0.740
 7671SOL     OW23911   3.614   1.235   1.791
 7671SOL    HW123912   3.538   1.299   1.782
 7671SOL    HW223913   3.617   1.175   1.711
 7672SOL     OW23914   0.120   6.615   2.633
 7672SOL    HW123915   0.176   6.648   2.557
 7672SOL    HW223916   0.093   6.520   2.615
 7673SOL     OW23917   1.018   6.520   1.210
 7673SOL    HW123918   1.101   6.575   1.204
 7673SOL    HW223919   0.954   6.548   1.138
 7674SOL     OW23920   4.934   0.715   3.336
 7674SOL    HW123921   5.007   0.661   3.293
 7674SOL    HW223922   4.920   0.684   3.430
 7675SOL     OW23923   6.146   6.822   2.733
 7675SOL    HW123924   6.055   6.863   2.719
 7675SOL    HW223925   6.162   6.752   2.663
 7676SOL     OW23926   2.355   1.984   0.532
 7676SOL    HW123927   2.447   1.973   0.568
 7676SOL    HW223928   2.357   1.977   0.432
 7677SOL     OW23929   1.038   4.924   1.404
 7677SOL    HW123930   0.968   4.900   1.471
 7677SOL    HW223931   1.040   4.856   1.331
 7678SOL     OW23932   2.510   2.770   5.277
 7678SOL    HW123933   2.496   2.867   5.256
 7678SOL    HW223934   2.576   2.732   5.213
 7679SOL     OW23935   3.345   6.313   5.841
 7679SOL    HW123936   3.246   6.312   5.832
 7679SOL    HW223937   3.372   6.372   5.916
 7680SOL     OW23938   1.677   1.104   0.380
 7680SOL    HW123939   1.613   1.060   0.444
 7680SOL    HW223940   1.630   1.124   0.294
 7681SOL     OW23941   2.518   0.606   0.899
 7681SOL    HW123942   2.523   0.576   0.804
 7681SOL    HW223943   2.431   0.652   0.915
 7682SOL     OW23944   3.716   0.538   1.612
 7682SOL    HW123945   3.792   0.498   1.560
 7682SOL    HW223946   3.630   0.498   1.583
 7683SOL     OW23947   5.859   2.293   4.576
 7683SOL    HW123948   5.916   2.324   4.652
 7683SOL    HW223949   5.904   2.217   4.529
 7684SOL     OW23950   3.574   1.862   1.211
 7684SOL    HW123951   3.503   1.886   1.278
 7684SOL    HW223952   3.530   1.826   1.129
 7685SOL     OW23953   2.809   1.971   5.746
 7685SOL    HW123954   2.823   1.917   5.830
 7685SOL    HW223955   2.888   2.031   5.731
 7686SOL     OW23956   0.075   6.793   3.154
 7686SOL    HW123957   0.016   6.713   3.160
 7686SOL    HW223958   0.123   6.805   3.241
 7687SOL     OW23959   6.016   5.156   3.802
 7687SOL    HW123960   5.978   5.090   3.868
 7687SOL    HW223961   6.111   5.175   3.825
 7688SOL     OW23962   1.084   6.445   4.960
 7688SOL    HW123963   1.172   6.469   4.919
 7688SOL    HW223964   1.012   6.457   4.892
 7689SOL     OW23965   5.616   6.259   2.171
 7689SOL    HW123966   5.617   6.336   2.234
 7689SOL    HW223967   5.540   6.198   2.193
 7690SOL     OW23968   5.723   4.574   0.415
 7690SOL    HW123969   5.690   4.484   0.388
 7690SOL    HW223970   5.823   4.577   0.409
 7691SOL     OW23971   4.963   3.772   4.179
 7691SOL    HW123972   4.920   3.682   4.175
 7691SOL    HW223973   5.026   3.775   4.257
 7692SOL     OW23974   0.769   6.279   1.968
 7692SOL    HW123975   0.789   6.277   2.066
 7692SOL    HW223976   0.688   6.335   1.951
 7693SOL     OW23977   3.369   6.798   1.653
 7693SOL    HW123978   3.425   6.874   1.620
 7693SOL    HW223979   3.337   6.744   1.574
 7694SOL     OW23980   5.245   4.035   4.307
 7694SOL    HW123981   5.309   4.109   4.329
 7694SOL    HW223982   5.177   4.068   4.241
 7695SOL     OW23983   4.818   6.901   0.870
 7695SOL    HW123984   4.882   6.902   0.794
 7695SOL    HW223985   4.757   6.980   0.863
 7696SOL     OW23986   0.259   0.619   6.241
 7696SOL    HW123987   0.356   0.632   6.259
 7696SOL    HW223988   0.246   0.537   6.185
 7697SOL     OW23989   2.507   6.897   2.981
 7697SOL    HW123990   2.595   6.918   3.023
 7697SOL    HW223991   2.521   6.861   2.888
 7698SOL     OW23992   5.624   1.616   4.290
 7698SOL    HW123993   5.564   1.641   4.214
 7698SOL    HW223994   5.610   1.520   4.314
 7699SOL     OW23995   3.282   5.835   6.262
 7699SOL    HW123996   3.380   5.819   6.263
 7699SOL    HW223997   3.236   5.758   6.217
 7700SOL     OW23998   4.581   5.783   2.978
 7700SOL    HW123999   4.526   5.717   3.029
 7700SOL    HW224000   4.544   5.875   2.992
 7701SOL     OW24001   6.341   2.065   0.582
 7701SOL    HW124002   6.351   2.145   0.641
 7701SOL    HW224003   6.422   2.056   0.524
 7702SOL     OW24004   3.662   6.212   4.790
 7702SOL    HW124005   3.685   6.131   4.735
 7702SOL    HW224006   3.572   6.200   4.831
 7703SOL     OW24007   6.280   5.801   6.386
 7703SOL    HW124008   6.184   5.825   6.395
 7703SOL    HW224009   6.313   5.828   6.295
 7704SOL     OW24010   5.965   0.276   4.583
 7704SOL    HW124011   5.979   0.216   4.504
 7704SOL    HW224012   5.886   0.335   4.566
 7705SOL     OW24013   2.579   6.184   0.657
 7705SOL    HW124014   2.530   6.110   0.704
 7705SOL    HW224015   2.600   6.156   0.564
 7706SOL     OW24016   3.731   3.724   4.736
 7706SOL    HW124017   3.803   3.791   4.756
 7706SOL    HW224018   3.723   3.712   4.637
 7707SOL     OW24019   0.261   4.796   5.645
 7707SOL    HW124020   0.188   4.859   5.617
 7707SOL    HW224021   0.312   4.836   5.722
 7708SOL     OW24022   0.906   6.733   6.069
 7708SOL    HW124023   0.989   6.788   6.060
 7708SOL    HW224024   0.825   6.792   6.060
 7709SOL     OW24025   6.675   4.422   2.285
 7709SOL    HW124026   6.638   4.355   2.222
 7709SOL    HW224027   6.757   4.464   2.245
 7710SOL     OW24028   3.168   2.360   0.203
 7710SOL    HW124029   3.202   2.451   0.226
 7710SOL    HW224030   3.068   2.363   0.193
 7711SOL     OW24031   5.371   6.852   6.113
 7711SOL    HW124032   5.340   6.761   6.140
 7711SOL    HW224033   5.379   6.857   6.013
 7712SOL     OW24034   0.148   5.184   1.662
 7712SOL    HW124035   0.237   5.165   1.622
 7712SOL    HW224036   0.110   5.099   1.701
 7713SOL     OW24037   1.448   3.957   0.888
 7713SOL    HW124038   1.381   4.022   0.852
 7713SOL    HW224039   1.527   4.007   0.924
 7714SOL     OW24040   0.116   4.283   5.107
 7714SOL    HW124041   0.072   4.237   5.030
 7714SOL    HW224042   0.134   4.216   5.180
 7715SOL     OW24043   3.196   2.472   0.523
 7715SOL    HW124044   3.271   2.497   0.583
 7715SOL    HW224045   3.225   2.477   0.428
 7716SOL     OW24046   0.197   4.871   1.813
 7716SOL    HW124047   0.119   4.825   1.855
 7716SOL    HW224048   0.255   4.804   1.768
 7717SOL     OW24049   2.069   0.911   6.090
 7717SOL    HW124050   2.070   0.976   6.166
 7717SOL    HW224051   2.107   0.824   6.121
 7718SOL     OW24052   6.546   3.902   3.323
 7718SOL    HW124053   6.550   3.861   3.232
 7718SOL    HW224054   6.489   3.845   3.383
 7719SOL     OW24055   0.197   4.190   5.401
 7719SOL    HW124056   0.278   4.241   5.374
 7719SOL    HW224057   0.217   4.137   5.483
 7720SOL     OW24058   6.614   2.033   6.503
 7720SOL    HW124059   6.516   2.033   6.523
 7720SOL    HW224060   6.628   2.027   6.404
 7721SOL     OW24061   0.417   5.429   2.257
 7721SOL    HW124062   0.466   5.485   2.323
 7721SOL    HW224063   0.332   5.395   2.297
 7722SOL     OW24064   1.213   4.035   3.338
 7722SOL    HW124065   1.236   4.100   3.412
 7722SOL    HW224066   1.165   3.957   3.377
 7723SOL     OW24067   4.759   3.547   6.235
 7723SOL    HW124068   4.665   3.553   6.201
 7723SOL    HW224069   4.811   3.481   6.180
 7724SOL     OW24070   2.639   3.664   1.010
 7724SOL    HW124071   2.732   3.683   1.042
 7724SOL    HW224072   2.643   3.629   0.916
 7725SOL     OW24073   6.390   1.814   2.313
 7725SOL    HW124074   6.406   1.837   2.217
 7725SOL    HW224075   6.473   1.772   2.351
 7726SOL     OW24076   1.726   5.352   5.794
 7726SOL    HW124077   1.742   5.441   5.753
 7726SOL    HW224078   1.813   5.314   5.825
 7727SOL     OW24079   0.237   2.184   2.684
 7727SOL    HW124080   0.216   2.089   2.663
 7727SOL    HW224081   0.288   2.224   2.608
 7728SOL     OW24082   2.160   2.913   5.172
 7728SOL    HW124083   2.152   2.958   5.262
 7728SOL    HW224084   2.253   2.924   5.138
 7729SOL     OW24085   6.047   1.954   1.716
 7729SOL    HW124086   6.032   2.038   1.663
 7729SOL    HW224087   5.960   1.927   1.758
 7730SOL     OW24088   6.774   4.969   7.012
 7730SOL    HW124089   6.854   5.027   6.999
 7730SOL    HW224090   6.706   5.018   0.045
 7731SOL     OW24091   6.123   1.179   0.005
 7731SOL    HW124092   6.039   1.225   6.999
 7731SOL    HW224093   6.101   1.104   0.067
 7732SOL     OW24094   4.843   6.850   0.317
 7732SOL    HW124095   4.757   6.889   0.349
 7732SOL    HW224096   4.904   6.835   0.394
 7733SOL     OW24097   5.148   5.976   2.480
 7733SOL    HW124098   5.223   6.037   2.506
 7733SOL    HW224099   5.069   5.992   2.540
 7734SOL     OW24100   1.434   4.841   4.089
 7734SOL    HW124101   1.427   4.940   4.081
 7734SOL    HW224102   1.441   4.815   4.185
 7735SOL     OW24103   4.940   6.408   6.545
 7735SOL    HW124104   5.039   6.399   6.552
 7735SOL    HW224105   4.899   6.404   6.636
 7736SOL     OW24106   2.750   2.932   6.785
 7736SOL    HW124107   2.788   2.979   6.706
 7736SOL    HW224108   2.823   2.880   6.831
 7737SOL     OW24109   2.696   6.615   2.668
 7737SOL    HW124110   2.651   6.525   2.669
 7737SOL    HW224111   2.671   6.663   2.583
 7738SOL     OW24112   3.020   5.713   0.156
 7738SOL    HW124113   2.996   5.730   0.060
 7738SOL    HW224114   2.992   5.620   0.182
 7739SOL     OW24115   6.867   1.915   1.745
 7739SOL    HW124116   6.941   1.967   1.702
 7739SOL    HW224117   6.853   1.950   1.838
 7740SOL     OW24118   2.632   1.107   3.099
 7740SOL    HW124119   2.700   1.141   3.033
 7740SOL    HW224120   2.542   1.145   3.077
 7741SOL     OW24121   0.067   5.058   6.175
 7741SOL    HW124122   0.072   5.134   6.110
 7741SOL    HW224123   0.025   4.979   6.131
 7742SOL     OW24124   4.026   2.020   2.898
 7742SOL    HW124125   4.117   2.021   2.855
 7742SOL    HW224126   4.027   2.077   2.980
 7743SOL     OW24127   5.145   2.004   0.176
 7743SOL    HW124128   5.167   1.927   0.117
 7743SOL    HW224129   5.074   1.977   0.241
 7744SOL     OW24130   0.679   0.261   4.507
 7744SOL    HW124131   0.675   0.166   4.476
 7744SOL    HW224132   0.667   0.263   4.606
 7745SOL     OW24133   4.068   1.499   6.634
 7745SOL    HW124134   4.131   1.509   6.712
 7745SOL    HW224135   4.001   1.573   6.636
 7746SOL     OW24136   0.718   0.627   0.735
 7746SOL    HW124137   0.683   0.571   0.660
 7746SOL    HW224138   0.649   0.695   0.760
 7747SOL     OW24139   5.783   6.217   1.282
 7747SOL    HW124140   5.809   6.179   1.370
 7747SOL    HW224141   5.855   6.200   1.215
 7748SOL     OW24142   2.968   3.915   4.542
 7748SOL    HW124143   2.906   3.857   4.594
 7748SOL    HW224144   3.016   3.860   4.473
 7749SOL     OW24145   3.467   3.445   5.443
 7749SOL    HW124146   3.487   3.536   5.479
 7749SOL    HW224147   3.372   3.442   5.411
 7750SOL     OW24148   7.013   5.729   0.455
 7750SOL    HW124149   6.977   5.814   0.415
 7750SOL    HW224150   7.021   5.660   0.383
 7751SOL     OW24151   1.880   2.951   2.421
 7751SOL    HW124152   1.866   3.028   2.358
 7751SOL    HW224153   1.976   2.948   2.450
 7752SOL     OW24154   6.048   6.541   5.472
 7752SOL    HW124155   6.119   6.610   5.458
 7752SOL    HW224156   5.959   6.581   5.451
 7753SOL     OW24157   2.143   0.325   4.461
 7753SOL    HW124158   2.102   0.321   4.552
 7753SOL    HW224159   2.182   0.416   4.446
 7754SOL     OW24160   4.725   6.620   1.789
 7754SOL    HW124161   4.752   6.713   1.766
 7754SOL    HW224162   4.799   6.576   1.840
 7755SOL     OW24163   0.993   2.173   6.113
 7755SOL    HW124164   1.037   2.257   6.083
 7755SOL    HW224165   1.058   2.121   6.169
 7756SOL     OW24166   2.904   5.953   1.744
 7756SOL    HW124167   2.935   5.870   1.791
 7756SOL    HW224168   2.808   5.944   1.719
 7757SOL     OW24169   5.955   5.863   5.655
 7757SOL    HW124170   6.045   5.819   5.658
 7757SOL    HW224171   5.962   5.950   5.608
 7758SOL     OW24172   1.363   1.613   5.749
 7758SOL    HW124173   1.297   1.539   5.758
 7758SOL    HW224174   1.328   1.694   5.798
 7759SOL     OW24175   0.978   1.684   5.408
 7759SOL    HW124176   0.996   1.757   5.341
 7759SOL    HW224177   1.005   1.716   5.499
 7760SOL     OW24178   5.405   3.482   2.433
 7760SOL    HW124179   5.307   3.480   2.418
 7760SOL    HW224180   5.439   3.388   2.445
 7761SOL     OW24181   1.061   0.561   5.717
 7761SOL    HW124182   1.057   0.496   5.641
 7761SOL    HW224183   1.129   0.530   5.784
 7762SOL     OW24184   4.640   0.629   3.693
 7762SOL    HW124185   4.606   0.696   3.758
 7762SOL    HW224186   4.618   0.537   3.726
 7763SOL     OW24187   0.951   0.950   0.041
 7763SOL    HW124188   0.961   0.920   6.969
 7763SOL    HW224189   0.893   1.031   0.045
 7764SOL     OW24190   3.442   2.937   3.261
 7764SOL    HW124191   3.437   2.897   3.169
 7764SOL    HW224192   3.537   2.938   3.292
 7765SOL     OW24193   6.285   2.830   4.347
 7765SOL    HW124194   6.252   2.854   4.256
 7765SOL    HW224195   6.250   2.740   4.373
 7766SOL     OW24196   6.290   3.100   6.667
 7766SOL    HW124197   6.228   3.026   6.640
 7766SOL    HW224198   6.253   3.187   6.636
 7767SOL     OW24199   4.690   5.744   2.569
 7767SOL    HW124200   4.614   5.692   2.531
 7767SOL    HW224201   4.757   5.763   2.497
 7768SOL     OW24202   4.364   4.622   2.267
 7768SOL    HW124203   4.422   4.541   2.261
 7768SOL    HW224204   4.288   4.613   2.204
 7769SOL     OW24205   4.826   2.929   3.059
 7769SOL    HW124206   4.845   3.024   3.084
 7769SOL    HW224207   4.736   2.903   3.092
 7770SOL     OW24208   1.631   4.208   2.685
 7770SOL    HW124209   1.554   4.165   2.638
 7770SOL    HW224210   1.652   4.158   2.769
 7771SOL     OW24211   3.343   2.262   5.365
 7771SOL    HW124212   3.287   2.318   5.304
 7771SOL    HW224213   3.394   2.321   5.428
 7772SOL     OW24214   5.395   0.092   2.014
 7772SOL    HW124215   5.375   0.087   2.112
 7772SOL    HW224216   5.443   0.177   1.994
 7773SOL     OW24217   2.488   6.091   5.095
 7773SOL    HW124218   2.474   6.118   5.190
 7773SOL    HW224219   2.583   6.063   5.081
 7774SOL     OW24220   5.503   2.388   5.700
 7774SOL    HW124221   5.422   2.356   5.650
 7774SOL    HW224222   5.506   2.488   5.696
 7775SOL     OW24223   5.245   5.689   1.359
 7775SOL    HW124224   5.299   5.664   1.278
 7775SOL    HW224225   5.304   5.688   1.439
 7776SOL     OW24226   1.755   4.952   6.779
 7776SOL    HW124227   1.713   5.042   6.769
 7776SOL    HW224228   1.853   4.963   6.794
 7777SOL     OW24229   0.001   6.920   4.632
 7777SOL    HW124230   6.968   6.884   4.557
 7777SOL    HW224231   0.038   6.845   4.686
 7778SOL     OW24232   5.306   3.884   1.002
 7778SOL    HW124233   5.364   3.819   0.953
 7778SOL    HW224234   5.362   3.936   1.067
 7779SOL     OW24235   2.476   2.598   1.860
 7779SOL    HW124236   2.502   2.695   1.858
 7779SOL    HW224237   2.555   2.542   1.835
 7780SOL     OW24238   0.848   4.463   5.081
 7780SOL    HW124239   0.867   4.513   5.165
 7780SOL    HW224240   0.915   4.390   5.069
 7781SOL     OW24241   1.141   4.507   0.143
 7781SOL    HW124242   1.172   4.537   0.233
 7781SOL    HW224243   1.069   4.567   0.110
 7782SOL     OW24244   6.321   4.938   4.373
 7782SOL    HW124245   6.290   4.938   4.469
 7782SOL    HW224246   6.306   4.847   4.334
 7783SOL     OW24247   1.261   6.072   5.009
 7783SOL    HW124248   1.322   6.109   4.938
 7783SOL    HW224249   1.292   5.981   5.035
 7784SOL     OW24250   3.214   2.201   1.680
 7784SOL    HW124251   3.298   2.167   1.722
 7784SOL    HW224252   3.135   2.159   1.725
 7785SOL     OW24253   2.179   5.588   4.690
 7785SOL    HW124254   2.180   5.578   4.790
 7785SOL    HW224255   2.239   5.519   4.649
 7786SOL     OW24256   2.947   6.610   0.269
 7786SOL    HW124257   3.015   6.569   0.330
 7786SOL    HW224258   2.897   6.680   0.319
 7787SOL     OW24259   2.219   3.089   6.383
 7787SOL    HW124260   2.222   3.028   6.304
 7787SOL    HW224261   2.125   3.098   6.415
 7788SOL     OW24262   2.478   5.251   1.084
 7788SOL    HW124263   2.462   5.312   1.160
 7788SOL    HW224264   2.524   5.300   1.010
 7789SOL     OW24265   1.995   6.663   6.356
 7789SOL    HW124266   1.940   6.590   6.395
 7789SOL    HW224267   1.963   6.682   6.263
 7790SOL     OW24268   5.637   5.916   3.471
 7790SOL    HW124269   5.636   5.817   3.456
 7790SOL    HW224270   5.729   5.943   3.500
 7791SOL     OW24271   2.714   5.326   3.591
 7791SOL    HW124272   2.724   5.367   3.681
 7791SOL    HW224273   2.650   5.380   3.536
 7792SOL     OW24274   1.837   5.391   4.943
 7792SOL    HW124275   1.833   5.443   4.858
 7792SOL    HW224276   1.846   5.454   5.021
 7793SOL     OW24277   3.355   0.921   0.724
 7793SOL    HW124278   3.328   0.837   0.772
 7793SOL    HW224279   3.279   0.952   0.668
 7794SOL     OW24280   6.042   3.970   3.145
 7794SOL    HW124281   5.998   3.959   3.055
 7794SOL    HW224282   5.983   4.025   3.204
 7795SOL     OW24283   2.291   4.422   5.754
 7795SOL    HW124284   2.212   4.414   5.814
 7795SOL    HW224285   2.341   4.335   5.751
 7796SOL     OW24286   3.796   3.412   3.622
 7796SOL    HW124287   3.726   3.387   3.689
 7796SOL    HW224288   3.879   3.360   3.641
 7797SOL     OW24289   1.399   6.903   2.745
 7797SOL    HW124290   1.476   6.874   2.687
 7797SOL    HW224291   1.429   6.978   2.804
 7798SOL     OW24292   2.016   3.902   5.535
 7798SOL    HW124293   2.100   3.958   5.535
 7798SOL    HW224294   2.001   3.865   5.627
 7799SOL     OW24295   0.999   6.144   2.833
 7799SOL    HW124296   1.053   6.061   2.845
 7799SOL    HW224297   1.060   6.221   2.811
 7800SOL     OW24298   0.710   5.413   1.205
 7800SOL    HW124299   0.807   5.389   1.206
 7800SOL    HW224300   0.700   5.512   1.217
 7801SOL     OW24301   2.431   1.969   2.008
 7801SOL    HW124302   2.469   2.010   2.091
 7801SOL    HW224303   2.384   1.883   2.032
 7802SOL     OW24304   5.940   2.761   0.792
 7802SOL    HW124305   5.919   2.804   0.880
 7802SOL    HW224306   5.905   2.667   0.792
 7803SOL     OW24307   4.887   1.940   5.897
 7803SOL    HW124308   4.956   1.878   5.859
 7803SOL    HW224309   4.868   2.013   5.831
 7804SOL     OW24310   4.573   1.832   3.784
 7804SOL    HW124311   4.565   1.874   3.874
 7804SOL    HW224312   4.652   1.872   3.736
 7805SOL     OW24313   5.560   2.854   1.380
 7805SOL    HW124314   5.648   2.889   1.347
 7805SOL    HW224315   5.575   2.795   1.459
 7806SOL     OW24316   6.113   2.106   0.410
 7806SOL    HW124317   6.184   2.087   0.478
 7806SOL    HW224318   6.128   2.049   0.330
 7807SOL     OW24319   1.172   5.085   5.611
 7807SOL    HW124320   1.192   5.008   5.550
 7807SOL    HW224321   1.079   5.077   5.646
 7808SOL     OW24322   6.330   3.629   3.785
 7808SOL    HW124323   6.310   3.667   3.695
 7808SOL    HW224324   6.245   3.608   3.833
 7809SOL     OW24325   3.162   4.933   4.112
 7809SOL    HW124326   3.114   4.845   4.122
 7809SOL    HW224327   3.259   4.920   4.131
 7810SOL     OW24328   3.614   0.258   4.287
 7810SOL    HW124329   3.567   0.174   4.313
 7810SOL    HW224330   3.566   0.300   4.210
 7811SOL     OW24331   1.838   5.295   2.250
 7811SOL    HW124332   1.884   5.262   2.168
 7811SOL    HW224333   1.846   5.228   2.323
 7812SOL     OW24334   6.706   1.953   4.075
 7812SOL    HW124335   6.804   1.936   4.064
 7812SOL    HW224336   6.656   1.867   4.065
 7813SOL     OW24337   5.156   2.603   6.999
 7813SOL    HW124338   5.202   2.660   0.045
 7813SOL    HW224339   5.119   2.521   0.021
 7814SOL     OW24340   0.593   3.638   3.423
 7814SOL    HW124341   0.638   3.624   3.512
 7814SOL    HW224342   0.612   3.560   3.364
 7815SOL     OW24343   5.797   1.429   5.281
 7815SOL    HW124344   5.895   1.447   5.281
 7815SOL    HW224345   5.767   1.406   5.373
 7816SOL     OW24346   1.720   2.453   6.457
 7816SOL    HW124347   1.814   2.486   6.467
 7816SOL    HW224348   1.667   2.479   6.537
 7817SOL     OW24349   4.958   4.686   3.318
 7817SOL    HW124350   4.980   4.774   3.275
 7817SOL    HW224351   4.867   4.693   3.360
 7818SOL     OW24352   4.227   1.122   1.991
 7818SOL    HW124353   4.277   1.153   1.910
 7818SOL    HW224354   4.267   1.037   2.025
 7819SOL     OW24355   0.159   3.457   2.161
 7819SOL    HW124356   0.101   3.473   2.241
 7819SOL    HW224357   0.243   3.410   2.190
 7820SOL     OW24358   0.814   1.528   5.829
 7820SOL    HW124359   0.911   1.536   5.807
 7820SOL    HW224360   0.788   1.600   5.894
 7821SOL     OW24361   5.813   5.571   0.710
 7821SOL    HW124362   5.836   5.491   0.654
 7821SOL    HW224363   5.769   5.541   0.794
 7822SOL     OW24364   1.910   2.305   6.253
 7822SOL    HW124365   1.878   2.335   6.342
 7822SOL    HW224366   1.832   2.279   6.196
 7823SOL     OW24367   2.523   3.472   5.332
 7823SOL    HW124368   2.573   3.427   5.406
 7823SOL    HW224369   2.576   3.551   5.299
 7824SOL     OW24370   6.226   0.295   3.878
 7824SOL    HW124371   6.139   0.252   3.852
 7824SOL    HW224372   6.217   0.334   3.970
 7825SOL     OW24373   1.381   2.929   0.987
 7825SOL    HW124374   1.308   2.892   1.045
 7825SOL    HW224375   1.342   2.966   0.903
 7826SOL     OW24376   6.102   1.444   0.893
 7826SOL    HW124377   6.074   1.349   0.901
 7826SOL    HW224378   6.027   1.504   0.920
 7827SOL     OW24379   2.931   5.128   1.040
 7827SOL    HW124380   2.933   5.228   1.037
 7827SOL    HW224381   2.853   5.098   1.094
 7828SOL     OW24382   1.133   4.485   6.515
 7828SOL    HW124383   1.052   4.483   6.457
 7828SOL    HW224384   1.160   4.391   6.538
 7829SOL     OW24385   2.484   3.343   1.267
 7829SOL    HW124386   2.463   3.420   1.327
 7829SOL    HW224387   2.485   3.373   1.172
 7830SOL     OW24388   2.529   4.653   5.726
 7830SOL    HW124389   2.519   4.555   5.711
 7830SOL    HW224390   2.559   4.671   5.820
 7831SOL     OW24391   1.624   6.094   1.276
 7831SOL    HW124392   1.662   6.010   1.237
 7831SOL    HW224393   1.552   6.129   1.216
 7832SOL     OW24394   4.948   1.103   3.213
 7832SOL    HW124395   4.986   1.177   3.158
 7832SOL    HW224396   4.996   1.018   3.193
 7833SOL     OW24397   0.742   0.883   6.494
 7833SOL    HW124398   0.817   0.935   6.534
 7833SOL    HW224399   0.733   0.907   6.397
 7834SOL     OW24400   6.294   1.707   4.218
 7834SOL    HW124401   6.212   1.727   4.164
 7834SOL    HW224402   6.316   1.610   4.209
 7835SOL     OW24403   3.260   1.993   5.521
 7835SOL    HW124404   3.214   2.082   5.523
 7835SOL    HW224405   3.196   1.922   5.493
 7836SOL     OW24406   3.283   2.918   4.825
 7836SOL    HW124407   3.271   2.860   4.906
 7836SOL    HW224408   3.220   2.994   4.828
 7837SOL     OW24409   6.578   5.484   0.747
 7837SOL    HW124410   6.606   5.426   0.823
 7837SOL    HW224411   6.619   5.574   0.757
 7838SOL     OW24412   4.208   6.777   0.086
 7838SOL    HW124413   4.173   6.766   0.180
 7838SOL    HW224414   4.165   6.856   0.044
 7839SOL     OW24415   6.200   4.968   4.642
 7839SOL    HW124416   6.102   4.955   4.657
 7839SOL    HW224417   6.247   4.969   4.730
 7840SOL     OW24418   6.106   2.789   3.778
 7840SOL    HW124419   6.034   2.720   3.769
 7840SOL    HW224420   6.132   2.822   3.687
 7841SOL     OW24421   3.788   2.176   6.731
 7841SOL    HW124422   3.800   2.263   6.779
 7841SOL    HW224423   3.856   2.168   6.659
 7842SOL     OW24424   1.967   1.686   2.948
 7842SOL    HW124425   2.032   1.726   2.883
 7842SOL    HW224426   1.881   1.737   2.944
 7843SOL     OW24427   6.361   5.619   2.673
 7843SOL    HW124428   6.269   5.618   2.711
 7843SOL    HW224429   6.381   5.531   2.630
 7844SOL     OW24430   3.898   6.505   2.121
 7844SOL    HW124431   3.828   6.544   2.062
 7844SOL    HW224432   3.968   6.575   2.140
 7845SOL     OW24433   5.086   1.835   3.709
 7845SOL    HW124434   5.024   1.821   3.787
 7845SOL    HW224435   5.091   1.752   3.655
 7846SOL     OW24436   1.028   0.847   2.377
 7846SOL    HW124437   0.946   0.876   2.329
 7846SOL    HW224438   1.100   0.915   2.364
 7847SOL     OW24439   0.272   1.994   3.077
 7847SOL    HW124440   0.228   1.909   3.103
 7847SOL    HW224441   0.318   1.982   2.989
 7848SOL     OW24442   3.568   3.280   0.332
 7848SOL    HW124443   3.554   3.356   0.395
 7848SOL    HW224444   3.640   3.302   0.267
 7849SOL     OW24445   5.905   4.445   3.598
 7849SOL    HW124446   5.966   4.421   3.522
 7849SOL    HW224447   5.842   4.369   3.615
 7850SOL     OW24448   0.373   2.387   5.337
 7850SOL    HW124449   0.415   2.477   5.351
 7850SOL    HW224450   0.281   2.388   5.375
 7851SOL     OW24451   6.794   1.250   2.105
 7851SOL    HW124452   6.817   1.225   2.011
 7851SOL    HW224453   6.813   1.348   2.118
 7852SOL     OW24454   2.647   1.768   5.972
 7852SOL    HW124455   2.686   1.754   5.880
 7852SOL    HW224456   2.722   1.779   6.037
 7853SOL     OW24457   4.599   2.133   0.930
 7853SOL    HW124458   4.548   2.207   0.885
 7853SOL    HW224459   4.540   2.052   0.937
 7854SOL     OW24460   3.867   3.540   0.040
 7854SOL    HW124461   3.834   3.533   0.134
 7854SOL    HW224462   3.966   3.534   0.039
 7855SOL     OW24463   4.634   5.538   4.490
 7855SOL    HW124464   4.613   5.466   4.424
 7855SOL    HW224465   4.634   5.501   4.582
 7856SOL     OW24466   6.350   4.989   4.861
 7856SOL    HW124467   6.444   4.973   4.832
 7856SOL    HW224468   6.318   4.911   4.916
 7857SOL     OW24469   5.517   2.074   5.590
 7857SOL    HW124470   5.494   2.111   5.680
 7857SOL    HW224471   5.455   1.997   5.570
 7858SOL     OW24472   5.408   6.280   4.371
 7858SOL    HW124473   5.465   6.209   4.414
 7858SOL    HW224474   5.318   6.280   4.413
 7859SOL     OW24475   4.613   2.684   6.451
 7859SOL    HW124476   4.525   2.653   6.486
 7859SOL    HW224477   4.686   2.623   6.483
 7860SOL     OW24478   3.779   0.066   2.442
 7860SOL    HW124479   3.680   0.067   2.426
 7860SOL    HW224480   3.823   0.006   2.376
 7861SOL     OW24481   3.622   4.904   1.694
 7861SOL    HW124482   3.674   4.973   1.743
 7861SOL    HW224483   3.597   4.830   1.757
 7862SOL     OW24484   2.436   3.571   1.381
 7862SOL    HW124485   2.446   3.659   1.334
 7862SOL    HW224486   2.410   3.587   1.476
 7863SOL     OW24487   0.948   5.274   3.918
 7863SOL    HW124488   1.029   5.311   3.874
 7863SOL    HW224489   0.924   5.329   3.998
 7864SOL     OW24490   0.503   5.355   5.046
 7864SOL    HW124491   0.431   5.420   5.020
 7864SOL    HW224492   0.476   5.306   5.128
 7865SOL     OW24493   6.063   6.403   3.750
 7865SOL    HW124494   6.130   6.328   3.747
 7865SOL    HW224495   5.975   6.370   3.717
 7866SOL     OW24496   1.492   1.355   6.412
 7866SOL    HW124497   1.562   1.314   6.470
 7866SOL    HW224498   1.496   1.455   6.420
 7867SOL     OW24499   5.980   6.066   3.250
 7867SOL    HW124500   6.021   6.154   3.275
 7867SOL    HW224501   5.881   6.071   3.259
 7868SOL     OW24502   5.822   6.654   1.733
 7868SOL    HW124503   5.826   6.739   1.785
 7868SOL    HW224504   5.743   6.601   1.762
 7869SOL     OW24505   6.391   3.767   0.203
 7869SOL    HW124506   6.476   3.751   0.254
 7869SOL    HW224507   6.413   3.782   0.106
 7870SOL     OW24508   4.064   4.842   3.772
 7870SOL    HW124509   4.008   4.834   3.690
 7870SOL    HW224510   4.156   4.874   3.746
 7871SOL     OW24511   4.833   2.968   2.326
 7871SOL    HW124512   4.755   2.911   2.349
 7871SOL    HW224513   4.834   2.985   2.227
 7872SOL     OW24514   2.304   4.534   3.573
 7872SOL    HW124515   2.354   4.558   3.490
 7872SOL    HW224516   2.231   4.601   3.588
 7873SOL     OW24517   5.599   0.759   6.024
 7873SOL    HW124518   5.596   0.727   5.929
 7873SOL    HW224519   5.694   0.772   6.051
 7874SOL     OW24520   5.447   2.038   0.088
 7874SOL    HW124521   5.404   1.948   0.088
 7874SOL    HW224522   5.413   2.091   0.010
 7875SOL     OW24523   5.296   2.792   6.686
 7875SOL    HW124524   5.352   2.730   6.740
 7875SOL    HW224525   5.226   2.833   6.744
 7876SOL     OW24526   0.957   0.240   4.842
 7876SOL    HW124527   0.957   0.171   4.914
 7876SOL    HW224528   0.863   0.268   4.823
 7877SOL     OW24529   0.807   2.362   3.219
 7877SOL    HW124530   0.859   2.290   3.174
 7877SOL    HW224531   0.739   2.322   3.281
 7878SOL     OW24532   5.848   5.048   4.501
 7878SOL    HW124533   5.791   5.103   4.440
 7878SOL    HW224534   5.901   5.109   4.560
 7879SOL     OW24535   4.691   4.822   3.961
 7879SOL    HW124536   4.695   4.729   3.996
 7879SOL    HW224537   4.607   4.866   3.994
 7880SOL     OW24538   1.773   4.985   0.998
 7880SOL    HW124539   1.709   5.021   1.066
 7880SOL    HW224540   1.817   4.902   1.033
 7881SOL     OW24541   6.206   4.362   4.405
 7881SOL    HW124542   6.181   4.443   4.352
 7881SOL    HW224543   6.285   4.318   4.364
 7882SOL     OW24544   0.997   3.074   1.792
 7882SOL    HW124545   1.022   2.993   1.846
 7882SOL    HW224546   0.980   3.047   1.697
 7883SOL     OW24547   1.059   0.934   0.661
 7883SOL    HW124548   1.002   0.944   0.580
 7883SOL    HW224549   1.120   0.855   0.650
 7884SOL     OW24550   2.201   3.865   4.126
 7884SOL    HW124551   2.271   3.821   4.070
 7884SOL    HW224552   2.193   3.961   4.100
 7885SOL     OW24553   6.891   5.005   2.164
 7885SOL    HW124554   6.853   5.085   2.211
 7885SOL    HW224555   6.827   4.929   2.169
 7886SOL     OW24556   3.479   5.260   6.844
 7886SOL    HW124557   3.397   5.298   6.888
 7886SOL    HW224558   3.452   5.189   6.779
 7887SOL     OW24559   3.303   2.634   5.321
 7887SOL    HW124560   3.256   2.663   5.404
 7887SOL    HW224561   3.251   2.560   5.278
 7888SOL     OW24562   6.642   0.162   4.960
 7888SOL    HW124563   6.599   0.172   5.049
 7888SOL    HW224564   6.736   0.130   4.971
 7889SOL     OW24565   1.436   5.097   0.263
 7889SOL    HW124566   1.375   5.022   0.235
 7889SOL    HW224567   1.456   5.089   0.360
 7890SOL     OW24568   1.144   2.808   3.658
 7890SOL    HW124569   1.210   2.884   3.657
 7890SOL    HW224570   1.162   2.750   3.737
 7891SOL     OW24571   2.537   4.561   3.784
 7891SOL    HW124572   2.439   4.553   3.771
 7891SOL    HW224573   2.580   4.591   3.699
 7892SOL     OW24574   1.861   1.084   3.904
 7892SOL    HW124575   1.934   1.016   3.904
 7892SOL    HW224576   1.893   1.168   3.860
 7893SOL     OW24577   6.747   6.355   2.461
 7893SOL    HW124578   6.669   6.334   2.403
 7893SOL    HW224579   6.794   6.437   2.426
 7894SOL     OW24580   3.863   6.827   0.162
 7894SOL    HW124581   3.877   6.804   0.066
 7894SOL    HW224582   3.884   6.748   0.219
 7895SOL     OW24583   5.755   0.639   5.228
 7895SOL    HW124584   5.757   0.736   5.253
 7895SOL    HW224585   5.772   0.630   5.130
 7896SOL     OW24586   4.339   3.532   1.330
 7896SOL    HW124587   4.427   3.539   1.378
 7896SOL    HW224588   4.271   3.587   1.377
 7897SOL     OW24589   3.282   3.853   0.475
 7897SOL    HW124590   3.227   3.769   0.477
 7897SOL    HW224591   3.238   3.920   0.415
 7898SOL     OW24592   3.787   1.887   3.038
 7898SOL    HW124593   3.802   1.791   3.013
 7898SOL    HW224594   3.868   1.941   3.016
 7899SOL     OW24595   5.509   0.041   1.508
 7899SOL    HW124596   5.500   0.106   1.584
 7899SOL    HW224597   5.475   0.084   1.424
 7900SOL     OW24598   1.455   4.846   2.208
 7900SOL    HW124599   1.479   4.764   2.261
 7900SOL    HW224600   1.461   4.927   2.267
 7901SOL     OW24601   5.038   1.757   6.376
 7901SOL    HW124602   5.077   1.849   6.380
 7901SOL    HW224603   5.020   1.733   6.281
 7902SOL     OW24604   6.013   6.541   1.283
 7902SOL    HW124605   6.022   6.512   1.378
 7902SOL    HW224606   6.078   6.615   1.264
 7903SOL     OW24607   5.199   1.231   1.338
 7903SOL    HW124608   5.131   1.199   1.404
 7903SOL    HW224609   5.210   1.163   1.266
 7904SOL     OW24610   5.677   0.232   3.423
 7904SOL    HW124611   5.634   0.282   3.498
 7904SOL    HW224612   5.773   0.257   3.417
 7905SOL     OW24613   4.851   2.710   0.088
 7905SOL    HW124614   4.826   2.795   0.041
 7905SOL    HW224615   4.917   2.660   0.033
 7906SOL     OW24616   0.717   5.656   0.706
 7906SOL    HW124617   0.755   5.565   0.719
 7906SOL    HW224618   0.767   5.703   0.632
 7907SOL     OW24619   5.280   2.201   2.591
 7907SOL    HW124620   5.180   2.206   2.593
 7907SOL    HW224621   5.309   2.129   2.528
 7908SOL     OW24622   1.470   1.193   5.652
 7908SOL    HW124623   1.419   1.267   5.610
 7908SOL    HW224624   1.563   1.191   5.615
 7909SOL     OW24625   5.797   4.413   4.598
 7909SOL    HW124626   5.838   4.357   4.670
 7909SOL    HW224627   5.724   4.362   4.554
 7910SOL     OW24628   2.871   3.342   5.699
 7910SOL    HW124629   2.910   3.323   5.789
 7910SOL    HW224630   2.828   3.433   5.701
 7911SOL     OW24631   2.098   3.739   0.146
 7911SOL    HW124632   2.133   3.711   0.057
 7911SOL    HW224633   2.034   3.671   0.181
 7912SOL     OW24634   0.163   4.999   1.123
 7912SOL    HW124635   0.193   5.045   1.206
 7912SOL    HW224636   0.173   5.061   1.045
 7913SOL     OW24637   1.793   4.285   0.790
 7913SOL    HW124638   1.779   4.317   0.884
 7913SOL    HW224639   1.845   4.199   0.792
 7914SOL     OW24640   0.323   4.078   0.401
 7914SOL    HW124641   0.235   4.114   0.432
 7914SOL    HW224642   0.308   3.999   0.342
 7915SOL     OW24643   4.828   2.389   1.610
 7915SOL    HW124644   4.763   2.461   1.586
 7915SOL    HW224645   4.802   2.304   1.564
 7916SOL     OW24646   0.788   4.086   5.001
 7916SOL    HW124647   0.862   4.146   4.971
 7916SOL    HW224648   0.703   4.112   4.956
 7917SOL     OW24649   4.117   3.632   4.784
 7917SOL    HW124650   4.168   3.626   4.869
 7917SOL    HW224651   4.080   3.724   4.773
 7918SOL     OW24652   0.150   1.353   5.597
 7918SOL    HW124653   0.096   1.423   5.644
 7918SOL    HW224654   0.241   1.390   5.577
 7919SOL     OW24655   2.129   4.051   3.231
 7919SOL    HW124656   2.154   4.148   3.223
 7919SOL    HW224657   2.145   4.020   3.324
 7920SOL     OW24658   0.231   6.347   0.575
 7920SOL    HW124659   0.142   6.305   0.558
 7920SOL    HW224660   0.279   6.297   0.647
 7921SOL     OW24661   5.501   6.467   0.757
 7921SOL    HW124662   5.465   6.378   0.730
 7921SOL    HW224663   5.476   6.535   0.688
 7922SOL     OW24664   6.935   6.611   0.683
 7922SOL    HW124665   6.891   6.532   0.641
 7922SOL    HW224666   0.012   6.602   0.678
 7923SOL     OW24667   3.616   0.131   1.658
 7923SOL    HW124668   3.533   0.120   1.604
 7923SOL    HW224669   3.594   0.125   1.756
 7924SOL     OW24670   4.321   6.890   1.610
 7924SOL    HW124671   4.336   6.833   1.690
 7924SOL    HW224672   4.228   6.876   1.576
 7925SOL     OW24673   0.831   1.579   6.429
 7925SOL    HW124674   0.883   1.567   6.344
 7925SOL    HW224675   0.891   1.559   6.507
 7926SOL     OW24676   4.781   1.780   5.539
 7926SOL    HW124677   4.874   1.817   5.541
 7926SOL    HW224678   4.777   1.705   5.473
 7927SOL     OW24679   4.229   5.798   2.325
 7927SOL    HW124680   4.262   5.781   2.232
 7927SOL    HW224681   4.142   5.847   2.320
 7928SOL     OW24682   1.369   1.788   4.493
 7928SOL    HW124683   1.336   1.754   4.581
 7928SOL    HW224684   1.314   1.867   4.465
 7929SOL     OW24685   4.205   4.723   5.983
 7929SOL    HW124686   4.176   4.783   6.058
 7929SOL    HW224687   4.305   4.720   5.981
 7930SOL     OW24688   4.183   5.384   4.842
 7930SOL    HW124689   4.255   5.322   4.813
 7930SOL    HW224690   4.152   5.358   4.934
 7931SOL     OW24691   2.253   2.484   0.107
 7931SOL    HW124692   2.179   2.417   0.099
 7931SOL    HW224693   2.334   2.439   0.143
 7932SOL     OW24694   1.444   6.523   6.350
 7932SOL    HW124695   1.534   6.515   6.393
 7932SOL    HW224696   1.386   6.581   6.407
 7933SOL     OW24697   0.404   6.097   6.030
 7933SOL    HW124698   0.468   6.174   6.038
 7933SOL    HW224699   0.330   6.122   5.968
 7934SOL     OW24700   2.535   5.183   0.123
 7934SOL    HW124701   2.465   5.136   0.177
 7934SOL    HW224702   2.492   5.239   0.053
 7935SOL     OW24703   6.047   5.571   0.374
 7935SOL    HW124704   6.108   5.623   0.435
 7935SOL    HW224705   5.980   5.522   0.429
 7936SOL     OW24706   4.032   6.262   2.212
 7936SOL    HW124707   3.996   6.204   2.139
 7936SOL    HW224708   3.988   6.351   2.208
 7937SOL     OW24709   6.910   6.201   3.246
 7937SOL    HW124710   7.007   6.182   3.264
 7937SOL    HW224711   6.854   6.131   3.291
 7938SOL     OW24712   6.281   5.205   3.901
 7938SOL    HW124713   6.259   5.205   3.999
 7938SOL    HW224714   6.338   5.285   3.880
 7939SOL     OW24715   1.545   2.788   5.760
 7939SOL    HW124716   1.600   2.711   5.793
 7939SOL    HW224717   1.466   2.800   5.821
 7940SOL     OW24718   1.676   3.189   1.999
 7940SOL    HW124719   1.586   3.220   2.029
 7940SOL    HW224720   1.675   3.174   1.900
 7941SOL     OW24721   5.421   1.198   0.916
 7941SOL    HW124722   5.497   1.138   0.941
 7941SOL    HW224723   5.445   1.292   0.938
 7942SOL     OW24724   6.460   6.003   2.595
 7942SOL    HW124725   6.535   6.069   2.599
 7942SOL    HW224726   6.388   6.038   2.535
 7943SOL     OW24727   6.222   3.259   0.447
 7943SOL    HW124728   6.298   3.324   0.443
 7943SOL    HW224729   6.205   3.223   0.355
 7944SOL     OW24730   0.313   2.402   1.288
 7944SOL    HW124731   0.331   2.337   1.361
 7944SOL    HW224732   0.320   2.357   1.199
 7945SOL     OW24733   6.007   5.578   1.520
 7945SOL    HW124734   6.057   5.502   1.477
 7945SOL    HW224735   6.008   5.657   1.458
 7946SOL     OW24736   2.368   1.290   5.356
 7946SOL    HW124737   2.424   1.267   5.277
 7946SOL    HW224738   2.352   1.389   5.359
 7947SOL     OW24739   4.130   1.861   6.156
 7947SOL    HW124740   4.214   1.908   6.127
 7947SOL    HW224741   4.056   1.884   6.093
 7948SOL     OW24742   1.032   0.004   0.981
 7948SOL    HW124743   1.130   7.020   1.001
 7948SOL    HW224744   0.980   7.015   1.066
 7949SOL     OW24745   4.363   4.797   4.851
 7949SOL    HW124746   4.460   4.782   4.833
 7949SOL    HW224747   4.327   4.720   4.904
 7950SOL     OW24748   5.498   5.474   4.482
 7950SOL    HW124749   5.405   5.511   4.484
 7950SOL    HW224750   5.499   5.390   4.428
 7951SOL     OW24751   2.190   4.101   1.779
 7951SOL    HW124752   2.175   4.134   1.685
 7951SOL    HW224753   2.228   4.009   1.776
 7952SOL     OW24754   0.629   3.408   6.996
 7952SOL    HW124755   0.728   3.413   7.005
 7952SOL    HW224756   0.592   3.498   6.971
 7953SOL     OW24757   2.148   2.367   4.187
 7953SOL    HW124758   2.111   2.418   4.265
 7953SOL    HW224759   2.243   2.394   4.172
 7954SOL     OW24760   4.399   4.298   6.066
 7954SOL    HW124761   4.302   4.312   6.082
 7954SOL    HW224762   4.433   4.371   6.006
 7955SOL     OW24763   1.446   6.673   6.960
 7955SOL    HW124764   1.482   6.747   6.904
 7955SOL    HW224765   1.426   6.594   6.903
 7956SOL     OW24766   3.687   6.035   2.648
 7956SOL    HW124767   3.776   6.061   2.685
 7956SOL    HW224768   3.621   6.028   2.723
 7957SOL     OW24769   1.088   0.638   1.971
 7957SOL    HW124770   1.124   0.570   1.908
 7957SOL    HW224771   0.988   0.635   1.971
 7958SOL     OW24772   3.563   5.012   4.953
 7958SOL    HW124773   3.581   5.090   5.014
 7958SOL    HW224774   3.521   5.045   4.869
 7959SOL     OW24775   4.385   5.930   0.914
 7959SOL    HW124776   4.365   6.013   0.967
 7959SOL    HW224777   4.319   5.859   0.937
 7960SOL     OW24778   2.468   1.075   6.930
 7960SOL    HW124779   2.473   0.976   6.926
 7960SOL    HW224780   2.543   1.114   6.877
 7961SOL     OW24781   0.133   0.844   1.055
 7961SOL    HW124782   0.202   0.912   1.029
 7961SOL    HW224783   0.045   0.890   1.065
 7962SOL     OW24784   1.049   0.626   6.925
 7962SOL    HW124785   0.984   0.620   7.000
 7962SOL    HW224786   1.125   0.685   6.951
 7963SOL     OW24787   6.670   6.939   3.882
 7963SOL    HW124788   6.601   6.983   3.940
 7963SOL    HW224789   6.711   6.862   3.931
 7964SOL     OW24790   0.377   4.782   3.704
 7964SOL    HW124791   0.346   4.758   3.796
 7964SOL    HW224792   0.469   4.822   3.708
 7965SOL     OW24793   3.688   2.330   6.005
 7965SOL    HW124794   3.677   2.231   6.019
 7965SOL    HW224795   3.785   2.354   6.011
 7966SOL     OW24796   1.136   2.791   5.546
 7966SOL    HW124797   1.183   2.878   5.559
 7966SOL    HW224798   1.204   2.717   5.542
 7967SOL     OW24799   2.530   6.326   3.307
 7967SOL    HW124800   2.436   6.358   3.318
 7967SOL    HW224801   2.555   6.269   3.386
 7968SOL     OW24802   1.965   2.997   3.661
 7968SOL    HW124803   1.993   2.901   3.670
 7968SOL    HW224804   2.042   3.056   3.685
 7969SOL     OW24805   4.251   5.724   0.627
 7969SOL    HW124806   4.203   5.792   0.572
 7969SOL    HW224807   4.293   5.656   0.565
 7970SOL     OW24808   6.684   2.675   2.619
 7970SOL    HW124809   6.585   2.676   2.628
 7970SOL    HW224810   6.726   2.668   2.710
 7971SOL     OW24811   4.270   2.130   0.487
 7971SOL    HW124812   4.327   2.056   0.452
 7971SOL    HW224813   4.268   2.126   0.587
 7972SOL     OW24814   2.017   3.077   0.784
 7972SOL    HW124815   2.076   2.998   0.766
 7972SOL    HW224816   1.929   3.045   0.820
 7973SOL     OW24817   4.428   5.044   3.969
 7973SOL    HW124818   4.368   5.109   4.016
 7973SOL    HW224819   4.510   5.092   3.937
 7974SOL     OW24820   6.224   1.547   5.574
 7974SOL    HW124821   6.135   1.578   5.609
 7974SOL    HW224822   6.215   1.455   5.537
 7975SOL     OW24823   6.037   1.175   2.393
 7975SOL    HW124824   5.942   1.185   2.362
 7975SOL    HW224825   6.088   1.258   2.373
 7976SOL     OW24826   0.835   0.593   6.300
 7976SOL    HW124827   0.786   0.587   6.387
 7976SOL    HW224828   0.771   0.577   6.224
 7977SOL     OW24829   4.914   6.142   1.915
 7977SOL    HW124830   4.941   6.160   2.009
 7977SOL    HW224831   4.960   6.205   1.853
 7978SOL     OW24832   6.229   3.346   6.652
 7978SOL    HW124833   6.168   3.372   6.727
 7978SOL    HW224834   6.286   3.425   6.627
 7979SOL     OW24835   4.097   6.363   5.210
 7979SOL    HW124836   4.076   6.270   5.180
 7979SOL    HW224837   4.032   6.391   5.281
 7980SOL     OW24838   2.820   4.994   6.744
 7980SOL    HW124839   2.753   5.068   6.730
 7980SOL    HW224840   2.825   4.972   6.841
 7981SOL     OW24841   0.608   5.719   1.693
 7981SOL    HW124842   0.659   5.656   1.752
 7981SOL    HW224843   0.604   5.809   1.737
 7982SOL     OW24844   0.127   1.523   0.101
 7982SOL    HW124845   0.119   1.596   0.033
 7982SOL    HW224846   0.175   1.445   0.060
 7983SOL     OW24847   5.860   1.841   1.855
 7983SOL    HW124848   5.907   1.763   1.896
 7983SOL    HW224849   5.766   1.844   1.888
 7984SOL     OW24850   1.657   1.095   0.889
 7984SOL    HW124851   1.740   1.140   0.921
 7984SOL    HW224852   1.577   1.134   0.935
 7985SOL     OW24853   2.663   0.665   3.618
 7985SOL    HW124854   2.631   0.655   3.712
 7985SOL    HW224855   2.743   0.725   3.616
 7986SOL     OW24856   3.250   1.461   6.962
 7986SOL    HW124857   3.321   1.392   6.953
 7986SOL    HW224858   3.250   1.498   0.032
 7987SOL     OW24859   1.569   2.842   6.627
 7987SOL    HW124860   1.510   2.774   6.584
 7987SOL    HW224861   1.514   2.919   6.659
 7988SOL     OW24862   0.942   2.426   4.019
 7988SOL    HW124863   0.974   2.351   4.077
 7988SOL    HW224864   0.934   2.395   3.925
 7989SOL     OW24865   3.614   2.947   5.406
 7989SOL    HW124866   3.596   2.871   5.344
 7989SOL    HW224867   3.678   3.011   5.363
 7990SOL     OW24868   7.015   2.900   3.747
 7990SOL    HW124869   6.915   2.889   3.749
 7990SOL    HW224870   0.016   2.990   3.711
 7991SOL     OW24871   6.049   6.761   3.668
 7991SOL    HW124872   6.084   6.730   3.757
 7991SOL    HW224873   6.103   6.839   3.636
 7992SOL     OW24874   1.545   6.282   1.648
 7992SOL    HW124875   1.525   6.248   1.740
 7992SOL    HW224876   1.460   6.311   1.604
 7993SOL     OW24877   0.418   6.966   6.358
 7993SOL    HW124878   0.348   7.001   6.296
 7993SOL    HW224879   0.423   0.001   6.439
 7994SOL     OW24880   4.517   6.468   3.107
 7994SOL    HW124881   4.458   6.498   3.181
 7994SOL    HW224882   4.534   6.370   3.115
 7995SOL     OW24883   4.863   5.148   3.683
 7995SOL    HW124884   4.956   5.121   3.706
 7995SOL    HW224885   4.856   5.248   3.686
 7996SOL     OW24886   3.356   0.072   4.630
 7996SOL    HW124887   3.259   0.048   4.620
 7996SOL    HW224888   3.368   0.170   4.615
 7997SOL     OW24889   0.470   1.560   1.592
 7997SOL    HW124890   0.401   1.604   1.649
 7997SOL    HW224891   0.546   1.624   1.577
 7998SOL     OW24892   3.030   5.807   1.462
 7998SOL    HW124893   2.949   5.781   1.513
 7998SOL    HW224894   3.062   5.730   1.407
 7999SOL     OW24895   0.361   0.018   5.969
 7999SOL    HW124896   0.318   0.086   5.910
 7999SOL    HW224897   0.460   0.022   5.956
 8000SOL     OW24898   5.063   0.477   7.011
 8000SOL    HW124899   5.147   0.488   0.042
 8000SOL    HW224900   5.032   0.382   7.018
 8001SOL     OW24901   3.436   5.673   1.058
 8001SOL    HW124902   3.426   5.734   0.980
 8001SOL    HW224903   3.530   5.638   1.061
 8002SOL     OW24904   0.719   2.583   6.166
 8002SOL    HW124905   0.731   2.558   6.070
 8002SOL    HW224906   0.705   2.682   6.173
 8003SOL     OW24907   3.230   5.180   2.582
 8003SOL    HW124908   3.200   5.132   2.499
 8003SOL    HW224909   3.329   5.171   2.591
 8004SOL     OW24910   2.222   3.130   3.952
 8004SOL    HW124911   2.279   3.161   4.027
 8004SOL    HW224912   2.227   3.030   3.946
 8005SOL     OW24913   3.406   0.534   1.939
 8005SOL    HW124914   3.350   0.529   2.021
 8005SOL    HW224915   3.480   0.600   1.952
 8006SOL     OW24916   2.021   0.198   6.555
 8006SOL    HW124917   2.090   0.147   6.503
 8006SOL    HW224918   2.040   0.190   6.652
 8007SOL     OW24919   6.500   0.912   4.397
 8007SOL    HW124920   6.542   0.863   4.473
 8007SOL    HW224921   6.536   1.005   4.393
 8008SOL     OW24922   4.822   5.944   5.603
 8008SOL    HW124923   4.812   5.858   5.654
 8008SOL    HW224924   4.736   5.994   5.607
 8009SOL     OW24925   5.881   1.313   3.116
 8009SOL    HW124926   5.788   1.291   3.148
 8009SOL    HW224927   5.875   1.384   3.045
 8010SOL     OW24928   0.813   1.183   0.044
 8010SOL    HW124929   0.801   1.250   0.117
 8010SOL    HW224930   0.729   1.129   0.035
 8011SOL     OW24931   3.405   2.291   0.720
 8011SOL    HW124932   3.377   2.340   0.802
 8011SOL    HW224933   3.463   2.350   0.664
 8012SOL     OW24934   1.915   4.020   1.379
 8012SOL    HW124935   1.989   3.978   1.327
 8012SOL    HW224936   1.909   3.976   1.469
 8013SOL     OW24937   1.190   5.239   3.547
 8013SOL    HW124938   1.210   5.170   3.477
 8013SOL    HW224939   1.091   5.256   3.549
 8014SOL     OW24940   1.564   6.706   5.213
 8014SOL    HW124941   1.509   6.785   5.186
 8014SOL    HW224942   1.548   6.631   5.149
 8015SOL     OW24943   2.497   0.744   0.161
 8015SOL    HW124944   2.481   0.831   0.207
 8015SOL    HW224945   2.485   0.755   0.063
 8016SOL     OW24946   5.675   0.377   6.109
 8016SOL    HW124947   5.641   0.307   6.171
 8016SOL    HW224948   5.666   0.467   6.152
 8017SOL     OW24949   6.216   6.905   0.825
 8017SOL    HW124950   6.295   6.965   0.839
 8017SOL    HW224951   6.219   6.830   0.891
 8018SOL     OW24952   3.050   2.111   5.732
 8018SOL    HW124953   3.021   2.151   5.645
 8018SOL    HW224954   3.101   2.026   5.714
 8019SOL     OW24955   2.276   4.453   6.305
 8019SOL    HW124956   2.322   4.469   6.218
 8019SOL    HW224957   2.207   4.382   6.295
 8020SOL     OW24958   5.957   6.978   0.748
 8020SOL    HW124959   6.054   6.956   0.754
 8020SOL    HW224960   5.939   0.043   0.793
 8021SOL     OW24961   1.492   2.148   1.191
 8021SOL    HW124962   1.552   2.215   1.235
 8021SOL    HW224963   1.506   2.152   1.092
 8022SOL     OW24964   5.163   6.443   2.738
 8022SOL    HW124965   5.164   6.350   2.777
 8022SOL    HW224966   5.125   6.506   2.805
 8023SOL     OW24967   6.203   5.357   3.110
 8023SOL    HW124968   6.262   5.424   3.154
 8023SOL    HW224969   6.173   5.290   3.178
 8024SOL     OW24970   2.833   4.737   6.664
 8024SOL    HW124971   2.743   4.714   6.628
 8024SOL    HW224972   2.831   4.829   6.704
 8025SOL     OW24973   2.405   6.504   0.013
 8025SOL    HW124974   2.369   6.584   0.062
 8025SOL    HW224975   2.505   6.507   0.013
 8026SOL     OW24976   0.830   4.297   6.653
 8026SOL    HW124977   0.903   4.230   6.668
 8026SOL    HW224978   0.741   4.251   6.654
 8027SOL     OW24979   4.827   0.792   5.496
 8027SOL    HW124980   4.849   0.851   5.419
 8027SOL    HW224981   4.796   0.848   5.573
 8028SOL     OW24982   3.150   5.180   4.578
 8028SOL    HW124983   3.110   5.187   4.487
 8028SOL    HW224984   3.076   5.175   4.646
 8029SOL     OW24985   4.976   2.995   1.303
 8029SOL    HW124986   4.999   3.000   1.206
 8029SOL    HW224987   4.898   2.933   1.315
 8030SOL     OW24988   4.355   4.433   0.343
 8030SOL    HW124989   4.311   4.522   0.333
 8030SOL    HW224990   4.357   4.387   0.255
 8031SOL     OW24991   5.630   6.754   2.625
 8031SOL    HW124992   5.554   6.696   2.597
 8031SOL    HW224993   5.595   6.835   2.673
 8032SOL     OW24994   6.424   4.985   0.247
 8032SOL    HW124995   6.503   5.031   0.287
 8032SOL    HW224996   6.354   5.052   0.224
 8033SOL     OW24997   4.969   2.425   5.771
 8033SOL    HW124998   5.046   2.487   5.755
 8033SOL    HW224999   4.986   2.371   5.853
 8034SOL     OW25000   6.141   0.219   5.081
 8034SOL    HW125001   6.122   0.242   5.176
 8034SOL    HW225002   6.055   0.205   5.032
 8035SOL     OW25003   5.005   2.028   4.352
 8035SOL    HW125004   4.913   2.016   4.390
 8035SOL    HW225005   5.011   1.980   4.264
 8036SOL     OW25006   0.726   4.283   2.576
 8036SOL    HW125007   0.680   4.258   2.662
 8036SOL    HW225008   0.765   4.374   2.585
 8037SOL     OW25009   1.626   2.977   1.199
 8037SOL    HW125010   1.568   2.970   1.281
 8037SOL    HW225011   1.614   3.067   1.158
 8038SOL     OW25012   3.535   0.368   2.617
 8038SOL    HW125013   3.623   0.369   2.569
 8038SOL    HW225014   3.501   0.461   2.626
 8039SOL     OW25015   0.519   1.944   4.418
 8039SOL    HW125016   0.582   1.949   4.496
 8039SOL    HW225017   0.571   1.957   4.333
 8040SOL     OW25018   1.679   6.158   0.074
 8040SOL    HW125019   1.616   6.169   0.151
 8040SOL    HW225020   1.705   6.062   0.065
 8041SOL     OW25021   3.029   0.911   2.086
 8041SOL    HW125022   3.121   0.915   2.047
 8041SOL    HW225023   3.003   1.002   2.118
 8042SOL     OW25024   3.015   3.517   3.575
 8042SOL    HW125025   2.959   3.524   3.657
 8042SOL    HW225026   3.064   3.604   3.562
 8043SOL     OW25027   4.193   6.920   2.361
 8043SOL    HW125028   4.105   6.960   2.384
 8043SOL    HW225029   4.261   6.944   2.431
 8044SOL     OW25030   4.015   2.821   1.211
 8044SOL    HW125031   4.021   2.722   1.200
 8044SOL    HW225032   4.071   2.849   1.289
 8045SOL     OW25033   5.033   1.055   1.915
 8045SOL    HW125034   4.980   1.140   1.923
 8045SOL    HW225035   5.125   1.076   1.882
 8046SOL     OW25036   0.403   5.495   0.829
 8046SOL    HW125037   0.429   5.580   0.875
 8046SOL    HW225038   0.307   5.500   0.801
 8047SOL     OW25039   3.995   5.572   4.558
 8047SOL    HW125040   4.048   5.656   4.559
 8047SOL    HW225041   4.056   5.494   4.549
 8048SOL     OW25042   5.446   1.287   5.919
 8048SOL    HW125043   5.403   1.376   5.932
 8048SOL    HW225044   5.387   1.215   5.956
 8049SOL     OW25045   0.563   0.229   6.758
 8049SOL    HW125046   0.646   0.196   6.802
 8049SOL    HW225047   0.486   0.171   6.786
 8050SOL     OW25048   1.632   3.573   3.037
 8050SOL    HW125049   1.545   3.622   3.042
 8050SOL    HW225050   1.702   3.623   3.088
 8051SOL     OW25051   4.329   5.660   2.829
 8051SOL    HW125052   4.330   5.685   2.733
 8051SOL    HW225053   4.361   5.566   2.839
 8052SOL     OW25054   4.409   1.870   1.921
 8052SOL    HW125055   4.364   1.881   1.832
 8052SOL    HW225056   4.361   1.926   1.989
 8053SOL     OW25057   2.993   3.871   3.106
 8053SOL    HW125058   3.063   3.942   3.104
 8053SOL    HW225059   2.981   3.838   3.200
 8054SOL     OW25060   4.987   0.395   4.710
 8054SOL    HW125061   4.995   0.313   4.766
 8054SOL    HW225062   4.893   0.404   4.676
 8055SOL     OW25063   0.524   0.072   5.288
 8055SOL    HW125064   0.440   0.072   5.342
 8055SOL    HW225065   0.530   0.159   5.237
 8056SOL     OW25066   3.337   1.857   4.284
 8056SOL    HW125067   3.282   1.910   4.348
 8056SOL    HW225068   3.426   1.899   4.272
 8057SOL     OW25069   2.838   1.807   3.383
 8057SOL    HW125070   2.927   1.841   3.351
 8057SOL    HW225071   2.779   1.790   3.305
 8058SOL     OW25072   4.679   0.573   1.802
 8058SOL    HW125073   4.617   0.494   1.801
 8058SOL    HW225074   4.626   0.657   1.786
 8059SOL     OW25075   3.984   1.561   4.879
 8059SOL    HW125076   4.034   1.588   4.797
 8059SOL    HW225077   3.886   1.556   4.858
 8060SOL     OW25078   6.455   2.268   3.620
 8060SOL    HW125079   6.425   2.300   3.530
 8060SOL    HW225080   6.510   2.185   3.609
 8061SOL     OW25081   0.576   1.226   2.864
 8061SOL    HW125082   0.632   1.272   2.933
 8061SOL    HW225083   0.572   1.128   2.884
 8062SOL     OW25084   3.469   5.202   4.297
 8062SOL    HW125085   3.432   5.109   4.299
 8062SOL    HW225086   3.566   5.199   4.322
 8063SOL     OW25087   0.916   2.145   1.306
 8063SOL    HW125088   0.907   2.193   1.393
 8063SOL    HW225089   1.012   2.126   1.287
 8064SOL     OW25090   0.498   4.261   1.941
 8064SOL    HW125091   0.449   4.276   2.027
 8064SOL    HW225092   0.541   4.171   1.942
 8065SOL     OW25093   2.839   5.860   4.129
 8065SOL    HW125094   2.855   5.920   4.207
 8065SOL    HW225095   2.784   5.908   4.061
 8066SOL     OW25096   0.203   2.300   5.610
 8066SOL    HW125097   0.289   2.288   5.660
 8066SOL    HW225098   0.165   2.211   5.589
 8067SOL     OW25099   4.587   2.724   1.794
 8067SOL    HW125100   4.617   2.819   1.806
 8067SOL    HW225101   4.649   2.663   1.843
 8068SOL     OW25102   0.262   4.056   0.989
 8068SOL    HW125103   0.197   4.121   1.028
 8068SOL    HW225104   0.256   4.059   0.889
 8069SOL     OW25105   1.862   6.351   1.071
 8069SOL    HW125106   1.836   6.260   1.040
 8069SOL    HW225107   1.932   6.389   1.010
 8070SOL     OW25108   3.358   3.145   0.226
 8070SOL    HW125109   3.414   3.204   0.285
 8070SOL    HW225110   3.274   3.120   0.274
 8071SOL     OW25111   2.822   6.203   5.074
 8071SOL    HW125112   2.777   6.138   5.013
 8071SOL    HW225113   2.874   6.269   5.020
 8072SOL     OW25114   3.242   0.848   0.098
 8072SOL    HW125115   3.234   0.806   0.007
 8072SOL    HW225116   3.199   0.939   0.096
 8073SOL     OW25117   3.430   5.864   4.931
 8073SOL    HW125118   3.510   5.820   4.889
 8073SOL    HW225119   3.458   5.911   5.014
 8074SOL     OW25120   3.910   2.461   0.696
 8074SOL    HW125121   3.844   2.459   0.771
 8074SOL    HW225122   4.002   2.446   0.732
 8075SOL     OW25123   0.078   0.986   0.517
 8075SOL    HW125124   0.039   1.028   0.600
 8075SOL    HW225125   0.015   1.000   0.440
 8076SOL     OW25126   5.766   1.959   5.536
 8076SOL    HW125127   5.678   1.986   5.575
 8076SOL    HW225128   5.760   1.957   5.436
 8077SOL     OW25129   2.546   5.531   1.410
 8077SOL    HW125130   2.479   5.490   1.347
 8077SOL    HW225131   2.558   5.471   1.489
 8078SOL     OW25132   6.485   1.648   0.357
 8078SOL    HW125133   6.449   1.722   0.301
 8078SOL    HW225134   6.564   1.607   0.312
 8079SOL     OW25135   4.675   1.411   3.162
 8079SOL    HW125136   4.762   1.448   3.194
 8079SOL    HW225137   4.625   1.371   3.240
 8080SOL     OW25138   0.400   2.947   0.349
 8080SOL    HW125139   0.396   2.855   0.309
 8080SOL    HW225140   0.398   2.940   0.449
 8081SOL     OW25141   5.011   6.769   4.723
 8081SOL    HW125142   4.957   6.686   4.707
 8081SOL    HW225143   5.059   6.761   4.810
 8082SOL     OW25144   4.897   6.494   1.954
 8082SOL    HW125145   4.827   6.429   1.984
 8082SOL    HW225146   4.941   6.534   2.034
 8083SOL     OW25147   5.093   4.066   2.647
 8083SOL    HW125148   5.178   4.066   2.593
 8083SOL    HW225149   5.102   4.003   2.723
 8084SOL     OW25150   4.931   0.354   0.485
 8084SOL    HW125151   4.879   0.290   0.427
 8084SOL    HW225152   4.937   0.442   0.439
 8085SOL     OW25153   6.045   6.572   2.299
 8085SOL    HW125154   6.129   6.525   2.269
 8085SOL    HW225155   6.012   6.631   2.225
 8086SOL     OW25156   4.656   0.818   3.344
 8086SOL    HW125157   4.739   0.779   3.305
 8086SOL    HW225158   4.666   0.917   3.352
 8087SOL     OW25159   2.560   1.093   0.527
 8087SOL    HW125160   2.625   1.049   0.590
 8087SOL    HW225161   2.517   1.170   0.573
 8088SOL     OW25162   5.147   2.676   1.790
 8088SOL    HW125163   5.104   2.746   1.733
 8088SOL    HW225164   5.120   2.689   1.885
 8089SOL     OW25165   5.203   2.298   0.549
 8089SOL    HW125166   5.202   2.391   0.513
 8089SOL    HW225167   5.271   2.244   0.500
 8090SOL     OW25168   4.919   1.635   6.918
 8090SOL    HW125169   4.973   1.570   6.865
 8090SOL    HW225170   4.855   1.584   6.976
 8091SOL     OW25171   2.490   3.749   6.155
 8091SOL    HW125172   2.455   3.670   6.105
 8091SOL    HW225173   2.590   3.750   6.150
 8092SOL     OW25174   6.644   2.706   5.010
 8092SOL    HW125175   6.616   2.641   5.080
 8092SOL    HW225176   6.717   2.666   4.954
 8093SOL     OW25177   4.714   4.988   2.807
 8093SOL    HW125178   4.740   5.038   2.890
 8093SOL    HW225179   4.614   4.988   2.798
 8094SOL     OW25180   1.568   3.560   4.990
 8094SOL    HW125181   1.623   3.478   4.968
 8094SOL    HW225182   1.628   3.639   4.997
 8095SOL     OW25183   6.504   4.426   5.255
 8095SOL    HW125184   6.492   4.477   5.340
 8095SOL    HW225185   6.561   4.478   5.192
 8096SOL     OW25186   2.618   6.212   3.534
 8096SOL    HW125187   2.620   6.266   3.618
 8096SOL    HW225188   2.699   6.153   3.530
 8097SOL     OW25189   4.469   6.829   3.799
 8097SOL    HW125190   4.562   6.794   3.797
 8097SOL    HW225191   4.418   6.784   3.872
 8098SOL     OW25192   2.079   6.767   3.608
 8098SOL    HW125193   1.987   6.734   3.587
 8098SOL    HW225194   2.110   6.829   3.536
 8099SOL     OW25195   4.438   0.271   4.129
 8099SOL    HW125196   4.350   0.232   4.156
 8099SOL    HW225197   4.445   0.364   4.165
 8100SOL     OW25198   5.855   6.935   0.375
 8100SOL    HW125199   5.885   6.874   0.448
 8100SOL    HW225200   5.794   7.004   0.412
 8101SOL     OW25201   2.086   0.359   3.631
 8101SOL    HW125202   2.000   0.328   3.672
 8101SOL    HW225203   2.091   0.330   3.536
 8102SOL     OW25204   0.626   4.929   4.186
 8102SOL    HW125205   0.688   4.954   4.112
 8102SOL    HW225206   0.543   4.888   4.148
 8103SOL     OW25207   4.276   0.250   1.247
 8103SOL    HW125208   4.259   0.257   1.346
 8103SOL    HW225209   4.244   0.334   1.203
 8104SOL     OW25210   3.182   0.525   6.187
 8104SOL    HW125211   3.256   0.480   6.138
 8104SOL    HW225212   3.170   0.481   6.276
 8105SOL     OW25213   0.856   2.288   3.736
 8105SOL    HW125214   0.756   2.278   3.739
 8105SOL    HW225215   0.879   2.385   3.736
 8106SOL     OW25216   2.105   6.235   2.813
 8106SOL    HW125217   2.166   6.244   2.734
 8106SOL    HW225218   2.010   6.251   2.784
 8107SOL     OW25219   0.503   5.675   4.494
 8107SOL    HW125220   0.533   5.653   4.587
 8107SOL    HW225221   0.581   5.674   4.432
 8108SOL     OW25222   6.199   3.418   5.306
 8108SOL    HW125223   6.123   3.415   5.241
 8108SOL    HW225224   6.279   3.374   5.266
 8109SOL     OW25225   1.980   3.733   4.211
 8109SOL    HW125226   1.909   3.741   4.141
 8109SOL    HW225227   2.060   3.786   4.184
 8110SOL     OW25228   3.070   6.405   0.605
 8110SOL    HW125229   2.991   6.429   0.661
 8110SOL    HW225230   3.038   6.364   0.519
 8111SOL     OW25231   3.966   0.500   4.382
 8111SOL    HW125232   3.919   0.576   4.337
 8111SOL    HW225233   3.903   0.424   4.394
 8112SOL     OW25234   2.330   2.425   4.629
 8112SOL    HW125235   2.344   2.400   4.533
 8112SOL    HW225236   2.366   2.517   4.645
 8113SOL     OW25237   3.206   3.186   1.199
 8113SOL    HW125238   3.245   3.096   1.179
 8113SOL    HW225239   3.209   3.242   1.117
 8114SOL     OW25240   2.291   3.842   1.769
 8114SOL    HW125241   2.319   3.766   1.711
 8114SOL    HW225242   2.251   3.806   1.853
 8115SOL     OW25243   3.409   0.199   0.318
 8115SOL    HW125244   3.407   0.257   0.236
 8115SOL    HW225245   3.335   0.226   0.379
 8116SOL     OW25246   4.501   6.116   5.276
 8116SOL    HW125247   4.466   6.090   5.367
 8116SOL    HW225248   4.427   6.107   5.209
 8117SOL     OW25249   1.818   1.185   4.161
 8117SOL    HW125250   1.812   1.284   4.155
 8117SOL    HW225251   1.860   1.148   4.078
 8118SOL     OW25252   5.628   3.672   5.944
 8118SOL    HW125253   5.676   3.625   6.018
 8118SOL    HW225254   5.549   3.720   5.980
 8119SOL     OW25255   6.208   6.325   5.413
 8119SOL    HW125256   6.157   6.409   5.432
 8119SOL    HW225257   6.272   6.341   5.337
 8120SOL     OW25258   2.449   4.715   6.744
 8120SOL    HW125259   2.389   4.644   6.706
 8120SOL    HW225260   2.472   4.781   6.673
 8121SOL     OW25261   0.492   4.713   1.490
 8121SOL    HW125262   0.558   4.779   1.527
 8121SOL    HW225263   0.536   4.662   1.415
 8122SOL     OW25264   1.689   5.851   2.122
 8122SOL    HW125265   1.728   5.848   2.030
 8122SOL    HW225266   1.731   5.779   2.178
 8123SOL     OW25267   0.002   0.373   6.878
 8123SOL    HW125268   7.021   0.355   6.976
 8123SOL    HW225269   0.041   0.463   6.861
 8124SOL     OW25270   0.093   6.048   0.973
 8124SOL    HW125271   0.112   6.085   1.064
 8124SOL    HW225272   0.004   6.004   0.973
 8125SOL     OW25273   1.255   0.738   3.764
 8125SOL    HW125274   1.315   0.712   3.689
 8125SOL    HW225275   1.310   0.767   3.843
 8126SOL     OW25276   5.638   4.501   2.600
 8126SOL    HW125277   5.610   4.455   2.684
 8126SOL    HW225278   5.737   4.519   2.604
 8127SOL     OW25279   2.887   6.426   6.851
 8127SOL    HW125280   2.892   6.346   6.791
 8127SOL    HW225281   2.906   6.509   6.799
 8128SOL     OW25282   2.851   2.386   1.528
 8128SOL    HW125283   2.823   2.386   1.624
 8128SOL    HW225284   2.947   2.414   1.521
 8129SOL     OW25285   4.496   0.688   5.911
 8129SOL    HW125286   4.397   0.698   5.918
 8129SOL    HW225287   4.519   0.593   5.889
 8130SOL     OW25288   0.216   4.091   6.971
 8130SOL    HW125289   0.136   4.102   0.008
 8130SOL    HW225290   0.280   4.166   6.987
 8131SOL     OW25291   3.485   1.798   0.943
 8131SOL    HW125292   3.494   1.794   0.844
 8131SOL    HW225293   3.414   1.735   0.973
 8132SOL     OW25294   5.562   6.411   6.120
 8132SOL    HW125295   5.650   6.364   6.128
 8132SOL    HW225296   5.518   6.417   6.210
 8133SOL     OW25297   2.952   4.858   1.570
 8133SOL    HW125298   3.004   4.897   1.646
 8133SOL    HW225299   2.878   4.801   1.606
 8134SOL     OW25300   1.223   2.153   5.485
 8134SOL    HW125301   1.293   2.083   5.474
 8134SOL    HW225302   1.169   2.135   5.567
 8135SOL     OW25303   2.313   6.014   0.913
 8135SOL    HW125304   2.334   6.052   1.003
 8135SOL    HW225305   2.224   6.047   0.883
 8136SOL     OW25306   5.030   4.940   3.230
 8136SOL    HW125307   5.042   5.038   3.209
 8136SOL    HW225308   5.118   4.902   3.261
 8137SOL     OW25309   2.984   1.292   4.653
 8137SOL    HW125310   2.994   1.275   4.555
 8137SOL    HW225311   2.965   1.389   4.668
 8138SOL     OW25312   5.675   2.341   0.372
 8138SOL    HW125313   5.757   2.290   0.346
 8138SOL    HW225314   5.686   2.376   0.465
 8139SOL     OW25315   1.617   1.396   4.311
 8139SOL    HW125316   1.627   1.393   4.410
 8139SOL    HW225317   1.541   1.337   4.283
 8140SOL     OW25318   4.543   0.051   0.857
 8140SOL    HW125319   4.535   0.145   0.892
 8140SOL    HW225320   4.515   0.049   0.761
 8141SOL     OW25321   4.559   6.723   5.170
 8141SOL    HW125322   4.598   6.642   5.213
 8141SOL    HW225323   4.473   6.700   5.126
 8142SOL     OW25324   1.568   5.176   0.013
 8142SOL    HW125325   1.504   5.185   0.089
 8142SOL    HW225326   1.653   5.133   0.045
 8143SOL     OW25327   6.514   4.824   0.052
 8143SOL    HW125328   6.594   4.861   0.005
 8143SOL    HW225329   6.489   4.883   0.129
 8144SOL     OW25330   0.422   6.763   5.998
 8144SOL    HW125331   0.373   6.839   5.954
 8144SOL    HW225332   0.418   6.682   5.940
 8145SOL     OW25333   5.845   5.108   0.851
 8145SOL    HW125334   5.750   5.086   0.832
 8145SOL    HW225335   5.904   5.040   0.807
 8146SOL     OW25336   5.621   0.673   5.766
 8146SOL    HW125337   5.545   0.691   5.703
 8146SOL    HW225338   5.672   0.593   5.733
 8147SOL     OW25339   6.519   1.023   1.992
 8147SOL    HW125340   6.575   0.972   2.058
 8147SOL    HW225341   6.471   1.097   2.040
 8148SOL     OW25342   5.317   4.802   0.833
 8148SOL    HW125343   5.324   4.888   0.784
 8148SOL    HW225344   5.396   4.745   0.812
 8149SOL     OW25345   2.287   6.385   3.402
 8149SOL    HW125346   2.201   6.436   3.404
 8149SOL    HW225347   2.298   6.335   3.487
 8150SOL     OW25348   2.191   3.257   0.919
 8150SOL    HW125349   2.161   3.339   0.870
 8150SOL    HW225350   2.138   3.178   0.887
 8151SOL     OW25351   5.954   4.914   3.024
 8151SOL    HW125352   5.929   5.008   3.050
 8151SOL    HW225353   5.964   4.858   3.107
 8152SOL     OW25354   6.513   3.055   3.158
 8152SOL    HW125355   6.452   2.976   3.148
 8152SOL    HW225356   6.462   3.131   3.199
 8153SOL     OW25357   1.048   1.723   4.084
 8153SOL    HW125358   1.140   1.683   4.076
 8153SOL    HW225359   1.001   1.716   3.996
 8154SOL     OW25360   3.437   6.175   2.348
 8154SOL    HW125361   3.410   6.120   2.426
 8154SOL    HW225362   3.387   6.261   2.348
 8155SOL     OW25363   1.445   3.274   2.103
 8155SOL    HW125364   1.365   3.272   2.043
 8155SOL    HW225365   1.466   3.368   2.129
 8156SOL     OW25366   4.672   6.449   0.676
 8156SOL    HW125367   4.582   6.460   0.634
 8156SOL    HW225368   4.730   6.394   0.615
 8157SOL     OW25369   6.596   4.761   5.930
 8157SOL    HW125370   6.610   4.813   6.014
 8157SOL    HW225371   6.682   4.752   5.881
 8158SOL     OW25372   4.786   4.362   0.483
 8158SOL    HW125373   4.853   4.288   0.475
 8158SOL    HW225374   4.824   4.446   0.445
 8159SOL     OW25375   2.514   5.436   3.000
 8159SOL    HW125376   2.502   5.439   2.901
 8159SOL    HW225377   2.443   5.378   3.040
 8160SOL     OW25378   5.417   0.511   3.833
 8160SOL    HW125379   5.339   0.457   3.866
 8160SOL    HW225380   5.460   0.558   3.911
 8161SOL     OW25381   6.302   3.005   6.304
 8161SOL    HW125382   6.210   3.039   6.324
 8161SOL    HW225383   6.368   3.080   6.315
 8162SOL     OW25384   5.796   6.643   6.786
 8162SOL    HW125385   5.799   6.584   6.867
 8162SOL    HW225386   5.871   6.619   6.725
 8163SOL     OW25387   2.583   4.628   5.120
 8163SOL    HW125388   2.589   4.581   5.208
 8163SOL    HW225389   2.676   4.651   5.089
 8164SOL     OW25390   5.269   2.460   0.236
 8164SOL    HW125391   5.238   2.387   0.175
 8164SOL    HW225392   5.359   2.493   0.205
 8165SOL     OW25393   0.298   3.917   5.869
 8165SOL    HW125394   0.386   3.884   5.833
 8165SOL    HW225395   0.237   3.839   5.884
 8166SOL     OW25396   1.201   0.489   3.959
 8166SOL    HW125397   1.221   0.449   3.870
 8166SOL    HW225398   1.267   0.561   3.978
 8167SOL     OW25399   0.105   0.562   3.852
 8167SOL    HW125400   0.082   0.618   3.772
 8167SOL    HW225401   0.084   0.614   3.935
 8168SOL     OW25402   2.709   1.548   2.293
 8168SOL    HW125403   2.754   1.569   2.379
 8168SOL    HW225404   2.679   1.633   2.250
 8169SOL     OW25405   4.854   2.368   0.335
 8169SOL    HW125406   4.886   2.292   0.392
 8169SOL    HW225407   4.754   2.368   0.331
 8170SOL     OW25408   1.352   5.451   2.030
 8170SOL    HW125409   1.342   5.437   1.931
 8170SOL    HW225410   1.407   5.376   2.068
 8171SOL     OW25411   1.661   2.197   6.099
 8171SOL    HW125412   1.639   2.218   6.004
 8171SOL    HW225413   1.642   2.100   6.117
 8172SOL     OW25414   0.399   1.804   2.691
 8172SOL    HW125415   0.446   1.716   2.679
 8172SOL    HW225416   0.446   1.857   2.761
 8173SOL     OW25417   5.617   1.942   1.943
 8173SOL    HW125418   5.682   2.016   1.959
 8173SOL    HW225419   5.531   1.980   1.908
 8174SOL     OW25420   6.583   1.165   2.677
 8174SOL    HW125421   6.621   1.196   2.591
 8174SOL    HW225422   6.602   1.067   2.689
 8175SOL     OW25423   0.322   3.476   6.275
 8175SOL    HW125424   0.407   3.447   6.230
 8175SOL    HW225425   0.249   3.412   6.253
 8176SOL     OW25426   2.231   4.842   1.396
 8176SOL    HW125427   2.220   4.885   1.485
 8176SOL    HW225428   2.160   4.876   1.334
 8177SOL     OW25429   3.549   6.714   3.619
 8177SOL    HW125430   3.522   6.733   3.713
 8177SOL    HW225431   3.500   6.633   3.586
 8178SOL     OW25432   3.131   6.839   0.506
 8178SOL    HW125433   3.059   6.782   0.545
 8178SOL    HW225434   3.166   6.902   0.575
 8179SOL     OW25435   4.788   1.649   4.515
 8179SOL    HW125436   4.863   1.685   4.459
 8179SOL    HW225437   4.710   1.712   4.510
 8180SOL     OW25438   6.402   1.042   5.669
 8180SOL    HW125439   6.381   1.002   5.579
 8180SOL    HW225440   6.323   1.096   5.700
 8181SOL     OW25441   1.470   1.783   0.352
 8181SOL    HW125442   1.405   1.841   0.400
 8181SOL    HW225443   1.426   1.742   0.272
 8182SOL     OW25444   3.378   3.393   5.891
 8182SOL    HW125445   3.366   3.406   5.990
 8182SOL    HW225446   3.289   3.379   5.848
 8183SOL     OW25447   6.410   2.531   4.860
 8183SOL    HW125448   6.475   2.598   4.896
 8183SOL    HW225449   6.439   2.439   4.886
 8184SOL     OW25450   6.453   0.498   0.634
 8184SOL    HW125451   6.399   0.576   0.664
 8184SOL    HW225452   6.505   0.522   0.552
 8185SOL     OW25453   1.813   0.137   0.060
 8185SOL    HW125454   1.792   0.142   6.985
 8185SOL    HW225455   1.905   0.100   0.074
 8186SOL     OW25456   3.601   4.455   5.285
 8186SOL    HW125457   3.515   4.504   5.302
 8186SOL    HW225458   3.580   4.360   5.260
 8187SOL     OW25459   2.084   1.665   5.273
 8187SOL    HW125460   2.072   1.728   5.350
 8187SOL    HW225461   2.027   1.696   5.197
 8188SOL     OW25462   5.518   3.060   3.418
 8188SOL    HW125463   5.591   3.025   3.479
 8188SOL    HW225464   5.439   2.999   3.423
 8189SOL     OW25465   5.108   5.329   2.999
 8189SOL    HW125466   5.054   5.304   3.079
 8189SOL    HW225467   5.053   5.385   2.937
 8190SOL     OW25468   5.002   4.533   4.609
 8190SOL    HW125469   5.102   4.535   4.611
 8190SOL    HW225470   4.970   4.526   4.515
 8191SOL     OW25471   3.762   6.269   1.692
 8191SOL    HW125472   3.762   6.194   1.625
 8191SOL    HW225473   3.696   6.248   1.764
 8192SOL     OW25474   3.398   5.258   0.597
 8192SOL    HW125475   3.456   5.243   0.678
 8192SOL    HW225476   3.382   5.170   0.551
 8193SOL     OW25477   6.734   5.912   5.660
 8193SOL    HW125478   6.707   5.932   5.754
 8193SOL    HW225479   6.729   5.995   5.605
 8194SOL     OW25480   4.895   2.283   0.847
 8194SOL    HW125481   4.856   2.358   0.794
 8194SOL    HW225482   4.849   2.277   0.935
 8195SOL     OW25483   1.478   0.082   2.955
 8195SOL    HW125484   1.474   0.167   2.903
 8195SOL    HW225485   1.554   0.086   3.020
 8196SOL     OW25486   4.183   5.838   5.846
 8196SOL    HW125487   4.261   5.826   5.909
 8196SOL    HW225488   4.108   5.778   5.875
 8197SOL     OW25489   4.565   1.845   0.174
 8197SOL    HW125490   4.518   1.802   0.097
 8197SOL    HW225491   4.505   1.845   0.254
 8198SOL     OW25492   2.974   6.616   2.688
 8198SOL    HW125493   3.005   6.582   2.777
 8198SOL    HW225494   2.874   6.623   2.689
 8199SOL     OW25495   5.750   3.249   6.232
 8199SOL    HW125496   5.721   3.253   6.328
 8199SOL    HW225497   5.745   3.154   6.200
 8200SOL     OW25498   5.907   4.937   1.739
 8200SOL    HW125499   5.898   4.840   1.717
 8200SOL    HW225500   5.980   4.949   1.806
 8201SOL     OW25501   5.842   0.841   3.860
 8201SOL    HW125502   5.856   0.940   3.865
 8201SOL    HW225503   5.918   0.794   3.906
 8202SOL     OW25504   0.180   5.766   3.973
 8202SOL    HW125505   0.263   5.748   3.919
 8202SOL    HW225506   0.169   5.694   4.042
 8203SOL     OW25507   3.938   2.639   6.963
 8203SOL    HW125508   3.928   2.575   0.017
 8203SOL    HW225509   4.035   2.653   6.944
 8204SOL     OW25510   3.354   5.054   6.732
 8204SOL    HW125511   3.365   5.011   6.642
 8204SOL    HW225512   3.256   5.064   6.751
 8205SOL     OW25513   0.895   4.701   0.934
 8205SOL    HW125514   0.884   4.612   0.890
 8205SOL    HW225515   0.876   4.773   0.867
 8206SOL     OW25516   5.055   2.480   6.414
 8206SOL    HW125517   5.026   2.452   6.322
 8206SOL    HW225518   5.041   2.579   6.424
 8207SOL     OW25519   3.054   3.942   4.111
 8207SOL    HW125520   3.145   3.903   4.095
 8207SOL    HW225521   3.059   4.012   4.182
 8208SOL     OW25522   1.819   0.244   1.287
 8208SOL    HW125523   1.796   0.148   1.300
 8208SOL    HW225524   1.796   0.295   1.370
 8209SOL     OW25525   0.427   1.253   5.309
 8209SOL    HW125526   0.484   1.303   5.243
 8209SOL    HW225527   0.431   1.299   5.398
 8210SOL     OW25528   1.985   1.272   1.442
 8210SOL    HW125529   1.925   1.242   1.368
 8210SOL    HW225530   1.978   1.372   1.452
 8211SOL     OW25531   3.822   4.221   1.777
 8211SOL    HW125532   3.732   4.262   1.786
 8211SOL    HW225533   3.832   4.147   1.844
 8212SOL     OW25534   2.035   1.603   2.254
 8212SOL    HW125535   2.080   1.522   2.292
 8212SOL    HW225536   2.098   1.681   2.258
 8213SOL     OW25537   6.921   4.502   2.578
 8213SOL    HW125538   6.991   4.468   2.642
 8213SOL    HW225539   6.909   4.436   2.504
 8214SOL     OW25540   6.478   5.594   5.206
 8214SOL    HW125541   6.561   5.540   5.187
 8214SOL    HW225542   6.404   5.561   5.147
 8215SOL     OW25543   2.600   5.860   6.327
 8215SOL    HW125544   2.601   5.939   6.266
 8215SOL    HW225545   2.515   5.861   6.381
 8216SOL     OW25546   5.217   5.311   3.869
 8216SOL    HW125547   5.205   5.260   3.783
 8216SOL    HW225548   5.274   5.258   3.931
 8217SOL     OW25549   1.870   3.648   0.765
 8217SOL    HW125550   1.785   3.700   0.759
 8217SOL    HW225551   1.879   3.610   0.857
 8218SOL     OW25552   0.225   6.835   5.323
 8218SOL    HW125553   0.320   6.841   5.295
 8218SOL    HW225554   0.171   6.795   5.249
 8219SOL     OW25555   3.807   3.557   0.549
 8219SOL    HW125556   3.727   3.522   0.598
 8219SOL    HW225557   3.889   3.533   0.599
 8220SOL     OW25558   2.963   3.676   4.067
 8220SOL    HW125559   2.989   3.603   4.129
 8220SOL    HW225560   2.958   3.763   4.117
 8221SOL     OW25561   5.810   6.326   3.333
 8221SOL    HW125562   5.904   6.313   3.302
 8221SOL    HW225563   5.770   6.406   3.288
 8222SOL     OW25564   5.264   1.434   0.865
 8222SOL    HW125565   5.324   1.445   0.786
 8222SOL    HW225566   5.259   1.337   0.891
 8223SOL     OW25567   0.568   4.123   5.225
 8223SOL    HW125568   0.589   4.143   5.130
 8223SOL    HW225569   0.644   4.072   5.266
 8224SOL     OW25570   5.388   1.994   2.414
 8224SOL    HW125571   5.340   1.997   2.326
 8224SOL    HW225572   5.467   1.933   2.407
 8225SOL     OW25573   3.247   1.795   1.194
 8225SOL    HW125574   3.290   1.853   1.263
 8225SOL    HW225575   3.194   1.853   1.131
 8226SOL     OW25576   3.853   6.453   0.154
 8226SOL    HW125577   3.951   6.437   0.144
 8226SOL    HW225578   3.827   6.439   0.250
 8227SOL     OW25579   0.397   1.316   2.392
 8227SOL    HW125580   0.337   1.395   2.396
 8227SOL    HW225581   0.360   1.242   2.449
 8228SOL     OW25582   6.553   1.887   5.789
 8228SOL    HW125583   6.621   1.898   5.716
 8228SOL    HW225584   6.587   1.821   5.856
 8229SOL     OW25585   4.676   3.482   0.849
 8229SOL    HW125586   4.707   3.575   0.828
 8229SOL    HW225587   4.601   3.485   0.914
 8230SOL     OW25588   3.402   0.216   4.944
 8230SOL    HW125589   3.386   0.311   4.918
 8230SOL    HW225590   3.492   0.187   4.910
 8231SOL     OW25591   2.898   3.192   1.026
 8231SOL    HW125592   2.818   3.236   1.069
 8231SOL    HW225593   2.973   3.187   1.092
 8232SOL     OW25594   4.349   1.971   1.656
 8232SOL    HW125595   4.433   1.921   1.638
 8232SOL    HW225596   4.270   1.911   1.638
 8233SOL     OW25597   0.681   6.575   5.893
 8233SOL    HW125598   0.675   6.542   5.988
 8233SOL    HW225599   0.777   6.584   5.867
 8234SOL     OW25600   2.800   3.344   6.788
 8234SOL    HW125601   2.881   3.369   6.734
 8234SOL    HW225602   2.746   3.276   6.738
 8235SOL     OW25603   0.718   2.448   0.149
 8235SOL    HW125604   0.802   2.400   0.123
 8235SOL    HW225605   0.668   2.474   0.067
 8236SOL     OW25606   0.699   4.464   0.928
 8236SOL    HW125607   0.650   4.484   1.013
 8236SOL    HW225608   0.691   4.366   0.908
 8237SOL     OW25609   4.847   6.337   5.833
 8237SOL    HW125610   4.818   6.376   5.746
 8237SOL    HW225611   4.807   6.389   5.908
 8238SOL     OW25612   0.687   5.201   6.413
 8238SOL    HW125613   0.629   5.200   6.495
 8238SOL    HW225614   0.642   5.152   6.339
 8239SOL     OW25615   0.531   0.967   5.669
 8239SOL    HW125616   0.589   0.906   5.724
 8239SOL    HW225617   0.582   0.996   5.588
 8240SOL     OW25618   3.724   3.771   2.536
 8240SOL    HW125619   3.668   3.834   2.591
 8240SOL    HW225620   3.751   3.816   2.451
 8241SOL     OW25621   3.590   6.207   5.902
 8241SOL    HW125622   3.576   6.173   5.995
 8241SOL    HW225623   3.504   6.245   5.868
 8242SOL     OW25624   0.086   4.230   6.213
 8242SOL    HW125625   0.171   4.179   6.210
 8242SOL    HW225626   0.086   4.300   6.142
 8243SOL     OW25627   0.516   3.162   0.558
 8243SOL    HW125628   0.430   3.209   0.579
 8243SOL    HW225629   0.508   3.066   0.583
 8244SOL     OW25630   0.380   1.010   3.932
 8244SOL    HW125631   0.329   0.927   3.951
 8244SOL    HW225632   0.404   1.056   4.018
 8245SOL     OW25633   3.997   2.186   2.058
 8245SOL    HW125634   3.903   2.218   2.062
 8245SOL    HW225635   4.021   2.142   2.145
 8246SOL     OW25636   0.960   3.626   5.925
 8246SOL    HW125637   0.967   3.586   5.834
 8246SOL    HW225638   0.969   3.726   5.919
 8247SOL     OW25639   2.042   0.588   2.944
 8247SOL    HW125640   1.973   0.653   2.974
 8247SOL    HW225641   2.015   0.549   2.855
 8248SOL     OW25642   6.792   5.027   4.629
 8248SOL    HW125643   6.732   5.106   4.632
 8248SOL    HW225644   6.837   5.024   4.539
 8249SOL     OW25645   1.786   2.387   5.758
 8249SOL    HW125646   1.857   2.393   5.828
 8249SOL    HW225647   1.781   2.474   5.708
 8250SOL     OW25648   2.896   3.057   1.518
 8250SOL    HW125649   2.810   3.105   1.501
 8250SOL    HW225650   2.900   3.029   1.614
 8251SOL     OW25651   4.921   3.176   4.629
 8251SOL    HW125652   4.873   3.112   4.689
 8251SOL    HW225653   4.901   3.269   4.657
 8252SOL     OW25654   3.544   1.422   5.663
 8252SOL    HW125655   3.582   1.349   5.605
 8252SOL    HW225656   3.612   1.494   5.673
 8253SOL     OW25657   4.541   5.430   6.035
 8253SOL    HW125658   4.444   5.429   6.011
 8253SOL    HW225659   4.583   5.512   5.998
 8254SOL     OW25660   4.398   4.376   5.400
 8254SOL    HW125661   4.344   4.314   5.457
 8254SOL    HW225662   4.356   4.383   5.309
 8255SOL     OW25663   1.786   6.811   5.120
 8255SOL    HW125664   1.784   6.808   5.020
 8255SOL    HW225665   1.700   6.776   5.156
 8256SOL     OW25666   7.012   6.167   1.671
 8256SOL    HW125667   6.982   6.077   1.703
 8256SOL    HW225668   7.008   6.170   1.571
 8257SOL     OW25669   5.328   4.102   2.519
 8257SOL    HW125670   5.361   4.020   2.474
 8257SOL    HW225671   5.358   4.183   2.468
 8258SOL     OW25672   5.172   2.966   1.030
 8258SOL    HW125673   5.228   2.933   0.955
 8258SOL    HW225674   5.154   2.890   1.093
 8259SOL     OW25675   3.701   1.616   4.880
 8259SOL    HW125676   3.727   1.678   4.954
 8259SOL    HW225677   3.621   1.653   4.832
 8260SOL     OW25678   1.864   6.748   0.829
 8260SOL    HW125679   1.883   6.763   0.926
 8260SOL    HW225680   1.899   6.825   0.776
 8261SOL     OW25681   5.236   6.684   2.299
 8261SOL    HW125682   5.333   6.661   2.301
 8261SOL    HW225683   5.188   6.633   2.371
 8262SOL     OW25684   0.731   2.796   0.268
 8262SOL    HW125685   0.711   2.872   0.330
 8262SOL    HW225686   0.825   2.766   0.281
 8263SOL     OW25687   0.121   2.602   6.355
 8263SOL    HW125688   0.133   2.688   6.403
 8263SOL    HW225689   0.052   2.613   6.283
 8264SOL     OW25690   1.990   5.935   1.139
 8264SOL    HW125691   1.968   5.949   1.043
 8264SOL    HW225692   2.032   5.845   1.151
 8265SOL     OW25693   6.802   0.839   1.225
 8265SOL    HW125694   6.848   0.760   1.184
 8265SOL    HW225695   6.850   0.923   1.200
 8266SOL     OW25696   2.303   1.174   4.573
 8266SOL    HW125697   2.316   1.075   4.576
 8266SOL    HW225698   2.262   1.205   4.659
 8267SOL     OW25699   1.752   3.781   1.130
 8267SOL    HW125700   1.662   3.774   1.088
 8267SOL    HW225701   1.750   3.739   1.221
 8268SOL     OW25702   2.203   6.606   6.098
 8268SOL    HW125703   2.222   6.565   6.187
 8268SOL    HW225704   2.175   6.535   6.034
 8269SOL     OW25705   4.177   1.425   2.054
 8269SOL    HW125706   4.173   1.329   2.083
 8269SOL    HW225707   4.252   1.470   2.102
 8270SOL     OW25708   3.291   6.353   4.576
 8270SOL    HW125709   3.337   6.302   4.648
 8270SOL    HW225710   3.237   6.427   4.617
 8271SOL     OW25711   0.496   6.804   3.078
 8271SOL    HW125712   0.463   6.881   3.024
 8271SOL    HW225713   0.586   6.825   3.115
 8272SOL     OW25714   6.551   1.751   2.985
 8272SOL    HW125715   6.576   1.821   2.919
 8272SOL    HW225716   6.455   1.724   2.970
 8273SOL     OW25717   2.318   1.050   1.167
 8273SOL    HW125718   2.273   0.970   1.207
 8273SOL    HW225719   2.266   1.132   1.189
 8274SOL     OW25720   4.361   5.276   4.277
 8274SOL    HW125721   4.353   5.363   4.229
 8274SOL    HW225722   4.439   5.278   4.339
 8275SOL     OW25723   5.671   0.784   4.337
 8275SOL    HW125724   5.608   0.714   4.372
 8275SOL    HW225725   5.734   0.742   4.272
 8276SOL     OW25726   0.334   2.175   4.743
 8276SOL    HW125727   0.304   2.245   4.808
 8276SOL    HW225728   0.426   2.196   4.711
 8277SOL     OW25729   0.910   6.212   6.215
 8277SOL    HW125730   0.832   6.233   6.274
 8277SOL    HW225731   0.949   6.124   6.243
 8278SOL     OW25732   3.462   1.095   6.683
 8278SOL    HW125733   3.434   0.999   6.689
 8278SOL    HW225734   3.419   1.147   6.757
 8279SOL     OW25735   0.894   6.506   4.451
 8279SOL    HW125736   0.841   6.423   4.465
 8279SOL    HW225737   0.879   6.540   4.358
 8280SOL     OW25738   2.657   2.805   0.359
 8280SOL    HW125739   2.589   2.783   0.428
 8280SOL    HW225740   2.709   2.723   0.336
 8281SOL     OW25741   2.168   4.184   1.533
 8281SOL    HW125742   2.100   4.248   1.499
 8281SOL    HW225743   2.227   4.155   1.457
 8282SOL     OW25744   4.763   4.092   0.030
 8282SOL    HW125745   4.800   4.032   0.100
 8282SOL    HW225746   4.679   4.052   7.014
 8283SOL     OW25747   1.472   5.034   5.381
 8283SOL    HW125748   1.393   5.095   5.373
 8283SOL    HW225749   1.544   5.063   5.318
 8284SOL     OW25750   0.869   3.501   1.564
 8284SOL    HW125751   0.846   3.447   1.483
 8284SOL    HW225752   0.814   3.470   1.641
 8285SOL     OW25753   3.339   4.118   4.676
 8285SOL    HW125754   3.428   4.105   4.720
 8285SOL    HW225755   3.268   4.129   4.745
 8286SOL     OW25756   5.199   1.879   4.815
 8286SOL    HW125757   5.283   1.873   4.870
 8286SOL    HW225758   5.125   1.914   4.872
 8287SOL     OW25759   1.086   4.922   4.554
 8287SOL    HW125760   1.046   4.886   4.638
 8287SOL    HW225761   1.124   5.013   4.571
 8288SOL     OW25762   2.793   2.290   2.322
 8288SOL    HW125763   2.834   2.212   2.368
 8288SOL    HW225764   2.837   2.304   2.233
 8289SOL     OW25765   0.681   6.677   6.451
 8289SOL    HW125766   0.603   6.679   6.389
 8289SOL    HW225767   0.742   6.754   6.431
 8290SOL     OW25768   5.535   1.713   1.018
 8290SOL    HW125769   5.510   1.654   0.941
 8290SOL    HW225770   5.465   1.706   1.089
 8291SOL     OW25771   4.879   5.391   4.914
 8291SOL    HW125772   4.856   5.425   4.822
 8291SOL    HW225773   4.972   5.354   4.913
 8292SOL     OW25774   3.147   6.414   6.368
 8292SOL    HW125775   3.153   6.382   6.463
 8292SOL    HW225776   3.074   6.482   6.360
 8293SOL     OW25777   1.631   5.333   0.963
 8293SOL    HW125778   1.702   5.302   0.899
 8293SOL    HW225779   1.546   5.285   0.944
 8294SOL     OW25780   5.571   3.919   5.407
 8294SOL    HW125781   5.489   3.910   5.462
 8294SOL    HW225782   5.607   3.828   5.385
 8295SOL     OW25783   5.096   4.441   1.817
 8295SOL    HW125784   5.030   4.435   1.742
 8295SOL    HW225785   5.126   4.349   1.842
 8296SOL     OW25786   2.284   4.927   0.056
 8296SOL    HW125787   2.320   4.834   0.063
 8296SOL    HW225788   2.280   4.954   6.983
 8297SOL     OW25789   0.063   3.203   2.964
 8297SOL    HW125790   0.039   3.298   2.949
 8297SOL    HW225791   0.048   3.179   3.060
 8298SOL     OW25792   6.102   1.801   1.194
 8298SOL    HW125793   6.038   1.808   1.270
 8298SOL    HW225794   6.116   1.704   1.171
 8299SOL     OW25795   0.839   2.226   2.528
 8299SOL    HW125796   0.906   2.296   2.554
 8299SOL    HW225797   0.799   2.186   2.611
 8300SOL     OW25798   0.095   5.868   3.662
 8300SOL    HW125799   0.019   5.822   3.617
 8300SOL    HW225800   0.124   5.815   3.742
 8301SOL     OW25801   3.829   1.002   0.485
 8301SOL    HW125802   3.757   1.018   0.553
 8301SOL    HW225803   3.903   0.949   0.526
 8302SOL     OW25804   5.463   6.988   6.361
 8302SOL    HW125805   5.383   6.992   6.421
 8302SOL    HW225806   5.438   6.943   6.275
 8303SOL     OW25807   5.983   0.549   3.611
 8303SOL    HW125808   6.063   0.549   3.672
 8303SOL    HW225809   5.900   0.559   3.666
 8304SOL     OW25810   5.824   3.331   1.322
 8304SOL    HW125811   5.874   3.351   1.406
 8304SOL    HW225812   5.868   3.378   1.245
 8305SOL     OW25813   4.558   4.417   3.867
 8305SOL    HW125814   4.475   4.459   3.830
 8305SOL    HW225815   4.599   4.478   3.935
 8306SOL     OW25816   5.331   1.677   4.190
 8306SOL    HW125817   5.367   1.662   4.098
 8306SOL    HW225818   5.338   1.593   4.243
 8307SOL     OW25819   3.614   5.166   1.559
 8307SOL    HW125820   3.572   5.174   1.469
 8307SOL    HW225821   3.597   5.075   1.596
 8308SOL     OW25822   2.074   5.312   0.423
 8308SOL    HW125823   2.104   5.382   0.488
 8308SOL    HW225824   2.121   5.226   0.443
 8309SOL     OW25825   6.591   5.853   3.304
 8309SOL    HW125826   6.500   5.845   3.347
 8309SOL    HW225827   6.581   5.888   3.211
 8310SOL     OW25828   0.767   5.660   1.356
 8310SOL    HW125829   0.753   5.634   1.451
 8310SOL    HW225830   0.821   5.745   1.352
 8311SOL     OW25831   0.023   2.545   5.607
 8311SOL    HW125832   0.089   2.469   5.610
 8311SOL    HW225833   6.963   2.520   5.657
 8312SOL     OW25834   4.419   0.640   0.231
 8312SOL    HW125835   4.376   0.641   0.140
 8312SOL    HW225836   4.486   0.715   0.237
 8313SOL     OW25837   5.378   6.853   6.710
 8313SOL    HW125838   5.463   6.857   6.763
 8313SOL    HW225839   5.332   6.941   6.715
 8314SOL     OW25840   5.375   6.560   6.730
 8314SOL    HW125841   5.369   6.655   6.700
 8314SOL    HW225842   5.467   6.525   6.714
 8315SOL     OW25843   3.756   3.271   2.090
 8315SOL    HW125844   3.747   3.281   2.189
 8315SOL    HW225845   3.731   3.357   2.046
 8316SOL     OW25846   1.443   2.536   2.234
 8316SOL    HW125847   1.422   2.614   2.176
 8316SOL    HW225848   1.541   2.514   2.226
 8317SOL     OW25849   1.271   2.477   2.630
 8317SOL    HW125850   1.298   2.538   2.555
 8317SOL    HW225851   1.350   2.461   2.689
 8318SOL     OW25852   4.095   1.952   5.816
 8318SOL    HW125853   4.037   1.921   5.891
 8318SOL    HW225854   4.038   1.994   5.745
 8319SOL     OW25855   1.034   1.287   1.275
 8319SOL    HW125856   1.033   1.259   1.371
 8319SOL    HW225857   1.073   1.213   1.219
 8320SOL     OW25858   3.028   3.977   2.674
 8320SOL    HW125859   3.019   3.891   2.724
 8320SOL    HW225860   2.958   4.042   2.705
 8321SOL     OW25861   6.247   6.799   6.595
 8321SOL    HW125862   6.206   6.830   6.681
 8321SOL    HW225863   6.329   6.745   6.614
 8322SOL     OW25864   6.556   0.334   0.838
 8322SOL    HW125865   6.651   0.356   0.858
 8322SOL    HW225866   6.525   0.388   0.759
 8323SOL     OW25867   5.083   5.198   2.085
 8323SOL    HW125868   5.070   5.110   2.130
 8323SOL    HW225869   5.168   5.196   2.032
 8324SOL     OW25870   6.056   6.611   1.626
 8324SOL    HW125871   6.086   6.701   1.597
 8324SOL    HW225872   5.965   6.618   1.667
 8325SOL     OW25873   1.736   3.368   4.964
 8325SOL    HW125874   1.787   3.364   4.878
 8325SOL    HW225875   1.797   3.346   5.040
 8326SOL     OW25876   4.539   3.803   5.876
 8326SOL    HW125877   4.611   3.857   5.920
 8326SOL    HW225878   4.578   3.753   5.799
 8327SOL     OW25879   0.334   0.438   5.422
 8327SOL    HW125880   0.363   0.530   5.445
 8327SOL    HW225881   0.246   0.442   5.375
 8328SOL     OW25882   2.747   5.848   6.861
 8328SOL    HW125883   2.834   5.799   6.860
 8328SOL    HW225884   2.687   5.812   6.790
 8329SOL     OW25885   0.830   2.865   5.907
 8329SOL    HW125886   0.858   2.786   5.852
 8329SOL    HW225887   0.837   2.948   5.852
 8330SOL     OW25888   2.889   1.057   6.270
 8330SOL    HW125889   2.915   1.026   6.362
 8330SOL    HW225890   2.839   0.984   6.224
 8331SOL     OW25891   3.212   0.706   0.851
 8331SOL    HW125892   3.238   0.616   0.886
 8331SOL    HW225893   3.237   0.776   0.917
 8332SOL     OW25894   5.425   5.506   2.578
 8332SOL    HW125895   5.499   5.440   2.563
 8332SOL    HW225896   5.359   5.499   2.503
 8333SOL     OW25897   0.548   5.089   6.212
 8333SOL    HW125898   0.531   4.991   6.206
 8333SOL    HW225899   0.533   5.131   6.123
 8334SOL     OW25900   3.698   1.542   4.560
 8334SOL    HW125901   3.681   1.612   4.629
 8334SOL    HW225902   3.769   1.480   4.592
 8335SOL     OW25903   5.171   1.146   0.322
 8335SOL    HW125904   5.269   1.131   0.336
 8335SOL    HW225905   5.125   1.058   0.310
 8336SOL     OW25906   0.644   4.921   3.317
 8336SOL    HW125907   0.698   4.989   3.266
 8336SOL    HW225908   0.616   4.848   3.255
 8337SOL     OW25909   1.633   5.901   3.318
 8337SOL    HW125910   1.564   5.967   3.286
 8337SOL    HW225911   1.616   5.879   3.414
 8338SOL     OW25912   3.883   5.251   1.771
 8338SOL    HW125913   3.828   5.190   1.826
 8338SOL    HW225914   3.924   5.201   1.694
 8339SOL     OW25915   6.563   0.898   1.498
 8339SOL    HW125916   6.552   0.882   1.400
 8339SOL    HW225917   6.594   0.814   1.542
 8340SOL     OW25918   5.116   3.418   0.988
 8340SOL    HW125919   5.033   3.366   0.968
 8340SOL    HW225920   5.196   3.362   0.965
 8341SOL     OW25921   3.045   6.996   0.032
 8341SOL    HW125922   3.045   0.074   0.034
 8341SOL    HW225923   3.133   6.962   0.065
 8342SOL     OW25924   4.749   6.755   0.094
 8342SOL    HW125925   4.795   6.786   0.177
 8342SOL    HW225926   4.695   6.831   0.056
 8343SOL     OW25927   0.468   5.443   4.178
 8343SOL    HW125928   0.389   5.457   4.118
 8343SOL    HW225929   0.436   5.412   4.268
 8344SOL     OW25930   5.581   6.290   4.932
 8344SOL    HW125931   5.567   6.199   4.970
 8344SOL    HW225932   5.521   6.355   4.979
 8345SOL     OW25933   3.956   2.136   2.489
 8345SOL    HW125934   3.879   2.197   2.469
 8345SOL    HW225935   3.929   2.071   2.561
 8346SOL     OW25936   4.006   4.852   0.022
 8346SOL    HW125937   3.927   4.862   6.983
 8346SOL    HW225938   3.992   4.773   0.081
 8347SOL     OW25939   3.826   6.262   3.898
 8347SOL    HW125940   3.869   6.192   3.841
 8347SOL    HW225941   3.749   6.222   3.948
 8348SOL     OW25942   2.157   1.262   1.226
 8348SOL    HW125943   2.090   1.266   1.300
 8348SOL    HW225944   2.119   1.305   1.144
 8349SOL     OW25945   6.642   6.737   1.851
 8349SOL    HW125946   6.546   6.750   1.826
 8349SOL    HW225947   6.682   6.666   1.794
 8350SOL     OW25948   3.067   0.022   6.044
 8350SOL    HW125949   3.116   0.020   5.956
 8350SOL    HW225950   2.970   0.040   6.027
 8351SOL     OW25951   5.959   5.198   4.882
 8351SOL    HW125952   5.991   5.218   4.790
 8351SOL    HW225953   5.879   5.255   4.903
 8352SOL     OW25954   0.146   6.839   3.776
 8352SOL    HW125955   0.049   6.837   3.749
 8352SOL    HW225956   0.156   6.798   3.866
 8353SOL     OW25957   6.900   3.620   1.332
 8353SOL    HW125958   6.952   3.697   1.296
 8353SOL    HW225959   6.941   3.590   1.418
 8354SOL     OW25960   4.099   0.355   5.002
 8354SOL    HW125961   4.071   0.271   5.047
 8354SOL    HW225962   4.121   0.336   4.906
 8355SOL     OW25963   2.785   0.854   6.005
 8355SOL    HW125964   2.753   0.948   5.992
 8355SOL    HW225965   2.884   0.850   5.993
 8356SOL     OW25966   0.395   0.052   1.367
 8356SOL    HW125967   0.389   0.023   1.272
 8356SOL    HW225968   0.473   0.113   1.379
 8357SOL     OW25969   3.505   6.907   5.297
 8357SOL    HW125970   3.581   6.848   5.268
 8357SOL    HW225971   3.431   6.902   5.230
 8358SOL     OW25972   1.560   4.620   4.656
 8358SOL    HW125973   1.523   4.712   4.673
 8358SOL    HW225974   1.652   4.613   4.694
 8359SOL     OW25975   3.378   0.488   4.847
 8359SOL    HW125976   3.345   0.560   4.787
 8359SOL    HW225977   3.385   0.522   4.941
 8360SOL     OW25978   3.850   6.130   0.681
 8360SOL    HW125979   3.839   6.221   0.720
 8360SOL    HW225980   3.881   6.138   0.586
 8361SOL     OW25981   3.448   0.050   1.867
 8361SOL    HW125982   3.414   0.132   1.912
 8361SOL    HW225983   3.473   7.004   1.936
 8362SOL     OW25984   3.961   1.321   1.148
 8362SOL    HW125985   3.998   1.373   1.071
 8362SOL    HW225986   3.992   1.362   1.234
 8363SOL     OW25987   5.205   3.121   6.806
 8363SOL    HW125988   5.153   3.037   6.822
 8363SOL    HW225989   5.275   3.130   6.876
 8364SOL     OW25990   0.938   2.541   3.711
 8364SOL    HW125991   0.899   2.626   3.675
 8364SOL    HW225992   1.037   2.541   3.697
 8365SOL     OW25993   1.705   2.810   2.277
 8365SOL    HW125994   1.620   2.862   2.289
 8365SOL    HW225995   1.768   2.832   2.351
 8366SOL     OW25996   1.795   5.632   1.272
 8366SOL    HW125997   1.868   5.619   1.205
 8366SOL    HW225998   1.828   5.687   1.348
 8367SOL     OW25999   4.690   6.183   4.589
 8367SOL    HW126000   4.728   6.098   4.553
 8367SOL    HW226001   4.701   6.256   4.521
 8368SOL     OW26002   1.528   6.968   6.506
 8368SOL    HW126003   1.480   6.881   6.504
 8368SOL    HW226004   1.502   0.001   6.427
 8369SOL     OW26005   0.661   0.241   6.240
 8369SOL    HW126006   0.605   0.289   6.307
 8369SOL    HW226007   0.724   0.179   6.288
 8370SOL     OW26008   3.099   1.189   5.661
 8370SOL    HW126009   3.118   1.265   5.598
 8370SOL    HW226010   3.108   1.221   5.755
 8371SOL     OW26011   2.123   4.614   0.592
 8371SOL    HW126012   2.203   4.641   0.537
 8371SOL    HW226013   2.066   4.552   0.538
 8372SOL     OW26014   1.239   4.609   1.948
 8372SOL    HW126015   1.211   4.637   1.856
 8372SOL    HW226016   1.232   4.687   2.010
 8373SOL     OW26017   1.959   0.267   4.223
 8373SOL    HW126018   1.984   0.275   4.319
 8373SOL    HW226019   2.023   0.319   4.167
 8374SOL     OW26020   0.075   1.127   4.830
 8374SOL    HW126021   0.043   1.063   4.900
 8374SOL    HW226022   0.077   1.219   4.869
 8375SOL     OW26023   3.233   6.457   5.239
 8375SOL    HW126024   3.138   6.452   5.210
 8375SOL    HW226025   3.242   6.523   5.313
 8376SOL     OW26026   0.398   1.170   4.259
 8376SOL    HW126027   0.303   1.201   4.254
 8376SOL    HW226028   0.407   1.102   4.332
 8377SOL     OW26029   4.970   6.033   0.652
 8377SOL    HW126030   4.932   6.098   0.717
 8377SOL    HW226031   5.035   5.973   0.699
 8378SOL     OW26032   4.743   5.318   3.106
 8378SOL    HW126033   4.736   5.396   3.168
 8378SOL    HW226034   4.788   5.348   3.021
 8379SOL     OW26035   5.416   3.276   1.326
 8379SOL    HW126036   5.453   3.256   1.235
 8379SOL    HW226037   5.442   3.204   1.389
 8380SOL     OW26038   0.675   0.798   2.774
 8380SOL    HW126039   0.767   0.805   2.735
 8380SOL    HW226040   0.610   0.840   2.712
 8381SOL     OW26041   0.164   3.415   4.553
 8381SOL    HW126042   0.092   3.379   4.493
 8381SOL    HW226043   0.226   3.342   4.578
 8382SOL     OW26044   2.726   6.941   2.682
 8382SOL    HW126045   2.689   6.849   2.679
 8382SOL    HW226046   2.774   6.956   2.768
 8383SOL     OW26047   2.590   7.014   5.818
 8383SOL    HW126048   2.571   0.044   5.735
 8383SOL    HW226049   2.545   6.924   5.812
 8384SOL     OW26050   6.678   1.161   1.504
 8384SOL    HW126051   6.627   1.075   1.491
 8384SOL    HW226052   6.681   1.211   1.417
 8385SOL     OW26053   5.683   2.459   0.606
 8385SOL    HW126054   5.759   2.463   0.670
 8385SOL    HW226055   5.611   2.400   0.642
 8386SOL     OW26056   2.010   5.436   1.769
 8386SOL    HW126057   1.987   5.506   1.837
 8386SOL    HW226058   2.017   5.479   1.679
 8387SOL     OW26059   1.094   1.192   1.530
 8387SOL    HW126060   1.178   1.175   1.582
 8387SOL    HW226061   1.017   1.151   1.578
 8388SOL     OW26062   2.095   6.600   0.425
 8388SOL    HW126063   2.011   6.582   0.476
 8388SOL    HW226064   2.166   6.534   0.453
 8389SOL     OW26065   0.069   3.595   3.280
 8389SOL    HW126066   7.004   3.591   3.231
 8389SOL    HW226067   0.142   3.619   3.216
 8390SOL     OW26068   4.270   1.038   0.398
 8390SOL    HW126069   4.306   1.110   0.339
 8390SOL    HW226070   4.232   0.965   0.342
 8391SOL     OW26071   6.281   4.982   0.865
 8391SOL    HW126072   6.343   4.925   0.919
 8391SOL    HW226073   6.314   5.077   0.866
 8392SOL     OW26074   6.658   4.611   5.118
 8392SOL    HW126075   6.753   4.580   5.117
 8392SOL    HW226076   6.619   4.603   5.026
 8393SOL     OW26077   0.662   6.896   2.773
 8393SOL    HW126078   0.639   6.808   2.732
 8393SOL    HW226079   0.583   6.957   2.769
 8394SOL     OW26080   6.167   2.822   2.175
 8394SOL    HW126081   6.209   2.896   2.121
 8394SOL    HW226082   6.089   2.859   2.227
 8395SOL     OW26083   1.973   6.546   4.958
 8395SOL    HW126084   2.030   6.623   4.928
 8395SOL    HW226085   1.949   6.558   5.054
 8396SOL     OW26086   4.331   5.273   2.621
 8396SOL    HW126087   4.270   5.353   2.626
 8396SOL    HW226088   4.395   5.285   2.545
 8397SOL     OW26089   2.576   0.184   2.638
 8397SOL    HW126090   2.627   0.099   2.626
 8397SOL    HW226091   2.495   0.167   2.694
 8398SOL     OW26092   4.334   1.870   6.677
 8398SOL    HW126093   4.426   1.907   6.666
 8398SOL    HW226094   4.279   1.890   6.596
 8399SOL     OW26095   5.927   5.917   6.911
 8399SOL    HW126096   5.890   5.949   6.998
 8399SOL    HW226097   5.868   5.844   6.874
 8400SOL     OW26098   1.662   1.368   4.586
 8400SOL    HW126099   1.570   1.368   4.626
 8400SOL    HW226100   1.699   1.275   4.588
 8401SOL     OW26101   2.847   1.405   6.357
 8401SOL    HW126102   2.891   1.459   6.285
 8401SOL    HW226103   2.802   1.467   6.422
 8402SOL     OW26104   4.147   1.755   5.448
 8402SOL    HW126105   4.245   1.736   5.434
 8402SOL    HW226106   4.093   1.692   5.392
 8403SOL     OW26107   0.824   2.087   4.614
 8403SOL    HW126108   0.827   1.989   4.593
 8403SOL    HW226109   0.906   2.131   4.578
 8404SOL     OW26110   4.548   6.973   5.715
 8404SOL    HW126111   4.511   6.890   5.757
 8404SOL    HW226112   4.503   0.031   5.754
 8405SOL     OW26113   1.981   0.724   5.535
 8405SOL    HW126114   2.011   0.760   5.623
 8405SOL    HW226115   2.059   0.686   5.486
 8406SOL     OW26116   5.702   0.080   0.520
 8406SOL    HW126117   5.677   0.075   0.617
 8406SOL    HW226118   5.674   0.168   0.483
 8407SOL     OW26119   3.530   6.307   3.757
 8407SOL    HW126120   3.433   6.306   3.735
 8407SOL    HW226121   3.583   6.270   3.680
 8408SOL     OW26122   5.795   3.854   1.785
 8408SOL    HW126123   5.866   3.866   1.715
 8408SOL    HW226124   5.837   3.856   1.876
 8409SOL     OW26125   5.625   2.513   3.574
 8409SOL    HW126126   5.583   2.422   3.572
 8409SOL    HW226127   5.591   2.564   3.653
 8410SOL     OW26128   5.456   0.841   2.099
 8410SOL    HW126129   5.405   0.757   2.081
 8410SOL    HW226130   5.518   0.859   2.022
 8411SOL     OW26131   0.665   4.511   0.108
 8411SOL    HW126132   0.591   4.571   0.137
 8411SOL    HW226133   0.656   4.492   0.010
 8412SOL     OW26134   2.726   1.282   1.263
 8412SOL    HW126135   2.676   1.298   1.178
 8412SOL    HW226136   2.711   1.189   1.294
 8413SOL     OW26137   4.506   5.493   6.791
 8413SOL    HW126138   4.571   5.430   6.748
 8413SOL    HW226139   4.413   5.465   6.768
 8414SOL     OW26140   3.500   4.855   3.314
 8414SOL    HW126141   3.495   4.858   3.214
 8414SOL    HW226142   3.487   4.761   3.345
 8415SOL     OW26143   7.006   6.062   4.111
 8415SOL    HW126144   6.987   6.152   4.152
 8415SOL    HW226145   6.940   6.044   4.038
 8416SOL     OW26146   5.303   3.756   2.081
 8416SOL    HW126147   5.385   3.811   2.094
 8416SOL    HW226148   5.301   3.720   1.988
 8417SOL     OW26149   1.222   4.082   5.541
 8417SOL    HW126150   1.263   4.015   5.479
 8417SOL    HW226151   1.277   4.165   5.542
 8418SOL     OW26152   6.027   4.927   0.738
 8418SOL    HW126153   6.121   4.953   0.757
 8418SOL    HW226154   6.018   4.828   0.743
 8419SOL     OW26155   5.468   0.068   2.334
 8419SOL    HW126156   5.479   7.001   2.376
 8419SOL    HW226157   5.471   0.139   2.404
 8420SOL     OW26158   4.329   0.089   0.279
 8420SOL    HW126159   4.379   0.008   0.249
 8420SOL    HW226160   4.232   0.065   0.293
 8421SOL     OW26161   1.177   5.329   6.851
 8421SOL    HW126162   1.201   5.379   6.935
 8421SOL    HW226163   1.095   5.275   6.867
 8422SOL     OW26164   4.071   1.487   0.904
 8422SOL    HW126165   4.047   1.392   0.883
 8422SOL    HW226166   4.031   1.547   0.835
 8423SOL     OW26167   3.168   4.411   5.599
 8423SOL    HW126168   3.113   4.345   5.650
 8423SOL    HW226169   3.205   4.367   5.516
 8424SOL     OW26170   2.225   2.342   2.558
 8424SOL    HW126171   2.222   2.336   2.658
 8424SOL    HW226172   2.265   2.430   2.532
 8425SOL     OW26173   4.983   5.065   6.348
 8425SOL    HW126174   4.936   5.054   6.436
 8425SOL    HW226175   5.079   5.043   6.359
 8426SOL     OW26176   3.590   3.758   3.505
 8426SOL    HW126177   3.668   3.722   3.454
 8426SOL    HW226178   3.508   3.755   3.448
 8427SOL     OW26179   3.994   3.891   4.748
 8427SOL    HW126180   3.946   3.896   4.835
 8427SOL    HW226181   4.007   3.983   4.711
 8428SOL     OW26182   0.879   4.834   1.601
 8428SOL    HW126183   0.838   4.743   1.613
 8428SOL    HW226184   0.887   4.879   1.690
 8429SOL     OW26185   1.770   5.498   4.226
 8429SOL    HW126186   1.692   5.486   4.287
 8429SOL    HW226187   1.854   5.509   4.281
 8430SOL     OW26188   3.780   5.173   3.334
 8430SOL    HW126189   3.706   5.222   3.287
 8430SOL    HW226190   3.868   5.201   3.296
 8431SOL     OW26191   3.064   4.600   0.365
 8431SOL    HW126192   3.010   4.671   0.412
 8431SOL    HW226193   3.007   4.555   0.297
 8432SOL     OW26194   5.724   6.937   6.292
 8432SOL    HW126195   5.629   6.962   6.310
 8432SOL    HW226196   5.727   6.864   6.224
 8433SOL     OW26197   4.855   2.500   0.594
 8433SOL    HW126198   4.844   2.598   0.609
 8433SOL    HW226199   4.923   2.484   0.522
 8434SOL     OW26200   2.707   6.496   4.906
 8434SOL    HW126201   2.658   6.550   4.974
 8434SOL    HW226202   2.653   6.492   4.822
 8435SOL     OW26203   6.306   1.188   2.121
 8435SOL    HW126204   6.226   1.133   2.145
 8435SOL    HW226205   6.368   1.194   2.199
 8436SOL     OW26206   3.450   7.002   3.639
 8436SOL    HW126207   3.398   6.948   3.706
 8436SOL    HW226208   3.441   6.960   3.549
 8437SOL     OW26209   2.243   0.572   4.411
 8437SOL    HW126210   2.179   0.633   4.456
 8437SOL    HW226211   2.287   0.620   4.335
 8438SOL     OW26212   2.453   4.491   2.257
 8438SOL    HW126213   2.485   4.516   2.348
 8438SOL    HW226214   2.524   4.509   2.189
 8439SOL     OW26215   6.828   5.190   2.535
 8439SOL    HW126216   6.842   5.091   2.528
 8439SOL    HW226217   6.866   5.236   2.455
 8440SOL     OW26218   1.374   2.236   3.932
 8440SOL    HW126219   1.429   2.189   4.001
 8440SOL    HW226220   1.397   2.333   3.931
 8441SOL     OW26221   6.075   6.600   0.527
 8441SOL    HW126222   6.009   6.673   0.546
 8441SOL    HW226223   6.168   6.635   0.542
 8442SOL     OW26224   3.094   1.673   5.021
 8442SOL    HW126225   3.163   1.741   4.995
 8442SOL    HW226226   3.140   1.587   5.045
 8443SOL     OW26227   2.777   5.085   3.791
 8443SOL    HW126228   2.818   5.046   3.874
 8443SOL    HW226229   2.680   5.101   3.806
 8444SOL     OW26230   2.450   6.226   3.952
 8444SOL    HW126231   2.521   6.246   3.884
 8444SOL    HW226232   2.472   6.272   4.038
 8445SOL     OW26233   4.045   6.539   0.780
 8445SOL    HW126234   4.063   6.458   0.725
 8445SOL    HW226235   4.054   6.516   0.877
 8446SOL     OW26236   4.603   4.332   6.683
 8446SOL    HW126237   4.675   4.326   6.753
 8446SOL    HW226238   4.631   4.397   6.612
 8447SOL     OW26239   4.878   1.834   2.062
 8447SOL    HW126240   4.839   1.832   1.970
 8447SOL    HW226241   4.891   1.929   2.091
 8448SOL     OW26242   4.137   5.809   4.509
 8448SOL    HW126243   4.210   5.804   4.440
 8448SOL    HW226244   4.083   5.892   4.494
 8449SOL     OW26245   6.762   2.876   3.580
 8449SOL    HW126246   6.669   2.863   3.547
 8449SOL    HW226247   6.825   2.879   3.502
 8450SOL     OW26248   0.459   6.297   0.934
 8450SOL    HW126249   0.482   6.313   1.030
 8450SOL    HW226250   0.527   6.343   0.876
 8451SOL     OW26251   4.075   1.759   0.445
 8451SOL    HW126252   4.142   1.729   0.377
 8451SOL    HW226253   3.983   1.758   0.404
 8452SOL     OW26254   5.728   1.646   2.656
 8452SOL    HW126255   5.774   1.584   2.592
 8452SOL    HW226256   5.687   1.721   2.606
 8453SOL     OW26257   0.354   4.277   6.699
 8453SOL    HW126258   0.343   4.264   6.798
 8453SOL    HW226259   0.301   4.207   6.651
 8454SOL     OW26260   6.775   6.559   1.714
 8454SOL    HW126261   6.856   6.565   1.773
 8454SOL    HW226262   6.774   6.471   1.668
 8455SOL     OW26263   6.291   2.602   1.859
 8455SOL    HW126264   6.284   2.690   1.905
 8455SOL    HW226265   6.372   2.553   1.892
 8456SOL     OW26266   3.959   5.601   2.985
 8456SOL    HW126267   3.999   5.634   3.070
 8456SOL    HW226268   3.928   5.679   2.931
 8457SOL     OW26269   6.620   6.652   4.576
 8457SOL    HW126270   6.575   6.587   4.637
 8457SOL    HW226271   6.567   6.737   4.574
 8458SOL     OW26272   3.334   1.557   6.707
 8458SOL    HW126273   3.431   1.538   6.690
 8458SOL    HW226274   3.302   1.501   6.783
 8459SOL     OW26275   2.592   5.767   2.006
 8459SOL    HW126276   2.673   5.796   2.056
 8459SOL    HW226277   2.545   5.847   1.970
 8460SOL     OW26278   4.245   4.155   5.568
 8460SOL    HW126279   4.223   4.060   5.546
 8460SOL    HW226280   4.319   4.158   5.635
 8461SOL     OW26281   0.346   3.987   4.164
 8461SOL    HW126282   0.276   3.953   4.227
 8461SOL    HW226283   0.433   3.995   4.213
 8462SOL     OW26284   2.839   2.958   6.503
 8462SOL    HW126285   2.753   2.950   6.452
 8462SOL    HW226286   2.856   3.054   6.525
 8463SOL     OW26287   6.592   0.359   1.445
 8463SOL    HW126288   6.606   0.390   1.351
 8463SOL    HW226289   6.556   0.434   1.500
 8464SOL     OW26290   5.708   3.413   4.530
 8464SOL    HW126291   5.776   3.351   4.567
 8464SOL    HW226292   5.657   3.455   4.605
 8465SOL     OW26293   0.814   2.736   0.739
 8465SOL    HW126294   0.894   2.741   0.679
 8465SOL    HW226295   0.737   2.698   0.688
 8466SOL     OW26296   0.193   7.002   4.268
 8466SOL    HW126297   0.182   0.076   4.243
 8466SOL    HW226298   0.193   6.993   4.368
 8467SOL     OW26299   4.507   6.860   0.622
 8467SOL    HW126300   4.496   6.812   0.710
 8467SOL    HW226301   4.471   6.803   0.548
 8468SOL     OW26302   3.608   2.229   6.485
 8468SOL    HW126303   3.671   2.179   6.544
 8468SOL    HW226304   3.606   2.326   6.512
 8469SOL     OW26305   3.295   1.809   6.528
 8469SOL    HW126306   3.216   1.783   6.472
 8469SOL    HW226307   3.333   1.727   6.571
 8470SOL     OW26308   1.639   3.501   0.016
 8470SOL    HW126309   1.570   3.519   0.085
 8470SOL    HW226310   1.677   3.587   7.005
 8471SOL     OW26311   3.331   1.126   3.319
 8471SOL    HW126312   3.427   1.152   3.310
 8471SOL    HW226313   3.324   1.028   3.337
 8472SOL     OW26314   6.934   1.014   5.042
 8472SOL    HW126315   6.884   1.099   5.025
 8472SOL    HW226316   6.903   0.974   5.128
 8473SOL     OW26317   6.525   5.848   6.897
 8473SOL    HW126318   6.614   5.802   6.895
 8473SOL    HW226319   6.485   5.847   6.806
 8474SOL     OW26320   3.610   2.899   1.562
 8474SOL    HW126321   3.634   2.990   1.527
 8474SOL    HW226322   3.512   2.894   1.578
 8475SOL     OW26323   6.831   2.210   3.552
 8475SOL    HW126324   6.819   2.210   3.651
 8475SOL    HW226325   6.880   2.292   3.523
 8476SOL     OW26326   7.019   2.182   1.250
 8476SOL    HW126327   6.999   2.239   1.170
 8476SOL    HW226328   6.967   2.216   1.329
 8477SOL     OW26329   5.003   6.411   0.771
 8477SOL    HW126330   4.929   6.478   0.775
 8477SOL    HW226331   5.085   6.449   0.814
 8478SOL     OW26332   0.969   6.599   5.851
 8478SOL    HW126333   1.023   6.519   5.877
 8478SOL    HW226334   0.966   6.664   5.927
 8479SOL     OW26335   0.889   2.386   1.139
 8479SOL    HW126336   0.976   2.434   1.140
 8479SOL    HW226337   0.893   2.306   1.199
 8480SOL     OW26338   4.271   1.542   0.237
 8480SOL    HW126339   4.353   1.492   0.266
 8480SOL    HW226340   4.190   1.492   0.267
 8481SOL     OW26341   4.014   2.161   4.051
 8481SOL    HW126342   4.092   2.222   4.067
 8481SOL    HW226343   3.993   2.159   3.953
 8482SOL     OW26344   4.283   5.835   1.812
 8482SOL    HW126345   4.350   5.824   1.739
 8482SOL    HW226346   4.225   5.914   1.792
 8483SOL     OW26347   4.586   6.389   2.590
 8483SOL    HW126348   4.619   6.331   2.516
 8483SOL    HW226349   4.663   6.433   2.635
 8484SOL     OW26350   0.728   5.900   3.423
 8484SOL    HW126351   0.807   5.846   3.452
 8484SOL    HW226352   0.750   5.949   3.339
 8485SOL     OW26353   3.762   3.237   0.066
 8485SOL    HW126354   3.728   3.324   0.033
 8485SOL    HW226355   3.731   3.163   0.006
 8486SOL     OW26356   3.567   0.697   2.878
 8486SOL    HW126357   3.491   0.634   2.861
 8486SOL    HW226358   3.534   0.776   2.929
 8487SOL     OW26359   5.470   1.910   6.062
 8487SOL    HW126360   5.544   1.889   6.125
 8487SOL    HW226361   5.508   1.939   5.974
 8488SOL     OW26362   5.779   5.705   6.851
 8488SOL    HW126363   5.680   5.690   6.860
 8488SOL    HW226364   5.826   5.660   6.927
 8489SOL     OW26365   5.997   1.787   1.457
 8489SOL    HW126366   6.028   1.830   1.542
 8489SOL    HW226367   5.964   1.695   1.476
 8490SOL     OW26368   4.323   6.687   3.975
 8490SOL    HW126369   4.242   6.674   4.032
 8490SOL    HW226370   4.359   6.598   3.948
 8491SOL     OW26371   2.378   5.970   0.199
 8491SOL    HW126372   2.380   6.054   0.143
 8491SOL    HW226373   2.453   5.910   0.171
 8492SOL     OW26374   4.779   4.001   6.450
 8492SOL    HW126375   4.785   3.910   6.409
 8492SOL    HW226376   4.801   4.070   6.380
 8493SOL     OW26377   2.473   2.765   6.217
 8493SOL    HW126378   2.495   2.862   6.219
 8493SOL    HW226379   2.379   2.752   6.186
 8494SOL     OW26380   3.318   5.498   0.891
 8494SOL    HW126381   3.221   5.506   0.868
 8494SOL    HW226382   3.339   5.557   0.969
 8495SOL     OW26383   6.659   5.095   2.316
 8495SOL    HW126384   6.681   4.998   2.314
 8495SOL    HW226385   6.673   5.130   2.409
 8496SOL     OW26386   0.627   1.929   2.138
 8496SOL    HW126387   0.615   1.899   2.044
 8496SOL    HW226388   0.569   2.009   2.155
 8497SOL     OW26389   6.061   1.133   3.247
 8497SOL    HW126390   6.047   1.159   3.342
 8497SOL    HW226391   6.022   1.203   3.187
 8498SOL     OW26392   0.172   6.853   2.794
 8498SOL    HW126393   0.076   6.851   2.764
 8498SOL    HW226394   0.184   6.789   2.871
 8499SOL     OW26395   2.311   4.537   6.573
 8499SOL    HW126396   2.322   4.535   6.474
 8499SOL    HW226397   2.216   4.516   6.597
 8500SOL     OW26398   1.960   6.365   5.280
 8500SOL    HW126399   1.885   6.331   5.337
 8500SOL    HW226400   1.941   6.458   5.252
 8501SOL     OW26401   0.699   1.689   6.886
 8501SOL    HW126402   0.789   1.714   6.851
 8501SOL    HW226403   0.671   1.602   6.846
 8502SOL     OW26404   1.492   4.174   1.188
 8502SOL    HW126405   1.557   4.128   1.127
 8502SOL    HW226406   1.540   4.240   1.245
 8503SOL     OW26407   1.900   0.022   4.127
 8503SOL    HW126408   1.926   0.003   4.032
 8503SOL    HW226409   1.914   0.119   4.146
 8504SOL     OW26410   2.654   5.521   2.405
 8504SOL    HW126411   2.675   5.524   2.308
 8504SOL    HW226412   2.685   5.435   2.444
 8505SOL     OW26413   4.872   3.127   3.647
 8505SOL    HW126414   4.868   3.209   3.705
 8505SOL    HW226415   4.841   3.151   3.555
 8506SOL     OW26416   6.980   1.375   6.490
 8506SOL    HW126417   0.035   1.354   6.431
 8506SOL    HW226418   6.931   1.291   6.512
 8507SOL     OW26419   3.468   0.893   5.418
 8507SOL    HW126420   3.546   0.835   5.444
 8507SOL    HW226421   3.502   0.982   5.387
 8508SOL     OW26422   6.199   2.020   5.440
 8508SOL    HW126423   6.203   1.938   5.382
 8508SOL    HW226424   6.155   1.997   5.526
 8509SOL     OW26425   4.332   1.644   3.414
 8509SOL    HW126426   4.307   1.662   3.318
 8509SOL    HW226427   4.431   1.650   3.425
 8510SOL     OW26428   5.799   4.007   3.482
 8510SOL    HW126429   5.749   4.001   3.396
 8510SOL    HW226430   5.789   4.099   3.520
 8511SOL     OW26431   6.668   3.700   1.787
 8511SOL    HW126432   6.766   3.695   1.773
 8511SOL    HW226433   6.634   3.790   1.757
 8512SOL     OW26434   3.587   2.064   1.554
 8512SOL    HW126435   3.668   2.029   1.601
 8512SOL    HW226436   3.519   2.094   1.621
 8513SOL     OW26437   5.249   4.221   1.071
 8513SOL    HW126438   5.199   4.176   0.997
 8513SOL    HW226439   5.314   4.156   1.111
 8514SOL     OW26440   2.539   2.321   3.829
 8514SOL    HW126441   2.512   2.393   3.765
 8514SOL    HW226442   2.457   2.273   3.861
 8515SOL     OW26443   5.632   1.936   0.876
 8515SOL    HW126444   5.607   1.864   0.941
 8515SOL    HW226445   5.549   1.976   0.837
 8516SOL     OW26446   6.345   2.309   1.561
 8516SOL    HW126447   6.306   2.309   1.469
 8516SOL    HW226448   6.380   2.401   1.582
 8517SOL     OW26449   1.741   3.054   6.156
 8517SOL    HW126450   1.811   3.078   6.223
 8517SOL    HW226451   1.698   2.968   6.183
 8518SOL     OW26452   4.882   3.981   0.257
 8518SOL    HW126453   4.946   3.904   0.262
 8518SOL    HW226454   4.934   4.067   0.257
 8519SOL     OW26455   1.060   4.106   1.582
 8519SOL    HW126456   1.119   4.158   1.644
 8519SOL    HW226457   1.056   4.011   1.612
 8520SOL     OW26458   3.704   3.001   6.958
 8520SOL    HW126459   3.626   2.959   7.005
 8520SOL    HW226460   3.753   2.931   6.906
 8521SOL     OW26461   1.857   5.066   6.168
 8521SOL    HW126462   1.802   4.983   6.160
 8521SOL    HW226463   1.867   5.091   6.264
 8522SOL     OW26464   1.355   6.618   1.756
 8522SOL    HW126465   1.296   6.670   1.694
 8522SOL    HW226466   1.318   6.527   1.770
 8523SOL     OW26467   1.850   6.626   6.707
 8523SOL    HW126468   1.944   6.594   6.699
 8523SOL    HW226469   1.790   6.567   6.652
 8524SOL     OW26470   0.430   2.627   5.038
 8524SOL    HW126471   0.481   2.684   4.974
 8524SOL    HW226472   0.337   2.614   5.005
 8525SOL     OW26473   5.929   3.960   2.820
 8525SOL    HW126474   5.890   4.010   2.743
 8525SOL    HW226475   6.018   3.923   2.794
 8526SOL     OW26476   3.803   5.912   6.384
 8526SOL    HW126477   3.869   5.856   6.334
 8526SOL    HW226478   3.825   6.009   6.371
 8527SOL     OW26479   2.979   1.264   6.144
 8527SOL    HW126480   2.956   1.195   6.212
 8527SOL    HW226481   2.904   1.329   6.136
 8528SOL     OW26482   3.727   1.626   6.366
 8528SOL    HW126483   3.672   1.581   6.436
 8528SOL    HW226484   3.824   1.620   6.391
 8529SOL     OW26485   1.195   0.629   1.306
 8529SOL    HW126486   1.132   0.630   1.228
 8529SOL    HW226487   1.250   0.712   1.306
 8530SOL     OW26488   3.114   3.915   4.964
 8530SOL    HW126489   3.069   3.827   4.950
 8530SOL    HW226490   3.105   3.971   4.882
 8531SOL     OW26491   6.506   5.390   2.386
 8531SOL    HW126492   6.424   5.426   2.341
 8531SOL    HW226493   6.580   5.383   2.319
 8532SOL     OW26494   3.959   4.871   4.552
 8532SOL    HW126495   3.906   4.796   4.593
 8532SOL    HW226496   3.914   4.902   4.469
 8533SOL     OW26497   1.477   0.409   6.623
 8533SOL    HW126498   1.556   0.458   6.660
 8533SOL    HW226499   1.394   0.443   6.667
 8534SOL     OW26500   6.270   3.035   3.831
 8534SOL    HW126501   6.312   3.031   3.922
 8534SOL    HW226502   6.226   2.948   3.810
 8535SOL     OW26503   6.453   1.740   4.618
 8535SOL    HW126504   6.407   1.818   4.576
 8535SOL    HW226505   6.532   1.772   4.670
 8536SOL     OW26506   6.457   2.935   4.971
 8536SOL    HW126507   6.513   2.852   4.976
 8536SOL    HW226508   6.386   2.930   5.041
 8537SOL     OW26509   5.400   1.603   2.150
 8537SOL    HW126510   5.470   1.558   2.206
 8537SOL    HW226511   5.322   1.626   2.208
 8538SOL     OW26512   0.378   0.851   6.754
 8538SOL    HW126513   0.379   0.819   6.849
 8538SOL    HW226514   0.383   0.951   6.752
 8539SOL     OW26515   5.545   0.788   2.361
 8539SOL    HW126516   5.532   0.866   2.300
 8539SOL    HW226517   5.466   0.727   2.355
 8540SOL     OW26518   4.667   0.799   6.930
 8540SOL    HW126519   4.706   0.888   6.953
 8540SOL    HW226520   4.722   0.727   6.971
 8541SOL     OW26521   2.727   1.763   4.704
 8541SOL    HW126522   2.781   1.679   4.704
 8541SOL    HW226523   2.630   1.741   4.699
 8542SOL     OW26524   4.157   4.822   6.506
 8542SOL    HW126525   4.077   4.873   6.538
 8542SOL    HW226526   4.128   4.732   6.473
 8543SOL     OW26527   3.274   0.652   0.568
 8543SOL    HW126528   3.339   0.582   0.537
 8543SOL    HW226529   3.255   0.638   0.665
 8544SOL     OW26530   5.297   3.330   4.620
 8544SOL    HW126531   5.201   3.347   4.596
 8544SOL    HW226532   5.355   3.393   4.569
 8545SOL     OW26533   4.655   6.687   4.866
 8545SOL    HW126534   4.649   6.730   4.956
 8545SOL    HW226535   4.708   6.746   4.805
 8546SOL     OW26536   0.102   0.929   3.597
 8546SOL    HW126537   0.069   0.838   3.618
 8546SOL    HW226538   0.061   0.962   3.512
 8547SOL     OW26539   1.193   6.561   6.483
 8547SOL    HW126540   1.140   6.593   6.404
 8547SOL    HW226541   1.145   6.487   6.528
 8548SOL     OW26542   6.059   3.653   5.330
 8548SOL    HW126543   6.102   3.562   5.328
 8548SOL    HW226544   6.091   3.703   5.411
 8549SOL     OW26545   1.099   3.229   4.464
 8549SOL    HW126546   1.174   3.232   4.529
 8549SOL    HW226547   1.034   3.157   4.490
 8550SOL     OW26548   1.710   4.839   0.005
 8550SOL    HW126549   1.703   4.865   6.931
 8550SOL    HW226550   1.738   4.918   0.059
 8551SOL     OW26551   2.892   3.506   6.477
 8551SOL    HW126552   2.967   3.525   6.414
 8551SOL    HW226553   2.840   3.427   6.443
 8552SOL     OW26554   2.559   0.601   3.851
 8552SOL    HW126555   2.522   0.523   3.801
 8552SOL    HW226556   2.557   0.581   3.949
 8553SOL     OW26557   4.297   3.950   6.709
 8553SOL    HW126558   4.345   3.911   6.631
 8553SOL    HW226559   4.361   4.003   6.764
 8554SOL     OW26560   1.114   4.407   0.493
 8554SOL    HW126561   1.165   4.475   0.546
 8554SOL    HW226562   1.177   4.354   0.437
 8555SOL     OW26563   2.258   1.470   3.615
 8555SOL    HW126564   2.233   1.416   3.535
 8555SOL    HW226565   2.331   1.423   3.665
 8556SOL     OW26566   1.711   6.049   4.873
 8556SOL    HW126567   1.809   6.065   4.862
 8556SOL    HW226568   1.665   6.062   4.786
 8557SOL     OW26569   5.634   6.600   2.876
 8557SOL    HW126570   5.670   6.644   2.794
 8557SOL    HW226571   5.571   6.527   2.849
 8558SOL     OW26572   2.581   4.608   3.013
 8558SOL    HW126573   2.571   4.707   2.997
 8558SOL    HW226574   2.629   4.593   3.100
 8559SOL     OW26575   1.517   0.152   2.549
 8559SOL    HW126576   1.506   0.125   2.453
 8559SOL    HW226577   1.430   0.143   2.596
 8560SOL     OW26578   6.770   6.329   1.584
 8560SOL    HW126579   6.770   6.385   1.502
 8560SOL    HW226580   6.846   6.264   1.581
 8561SOL     OW26581   3.093   0.594   2.672
 8561SOL    HW126582   3.027   0.550   2.611
 8561SOL    HW226583   3.047   0.624   2.755
 8562SOL     OW26584   4.272   6.385   5.646
 8562SOL    HW126585   4.196   6.433   5.690
 8562SOL    HW226586   4.294   6.302   5.698
 8563SOL     OW26587   1.656   4.390   0.092
 8563SOL    HW126588   1.720   4.324   0.052
 8563SOL    HW226589   1.654   4.473   0.036
 8564SOL     OW26590   3.367   0.774   4.971
 8564SOL    HW126591   3.414   0.847   4.922
 8564SOL    HW226592   3.271   0.771   4.943
 8565SOL     OW26593   3.691   5.485   1.202
 8565SOL    HW126594   3.643   5.514   1.285
 8565SOL    HW226595   3.786   5.462   1.224
 8566SOL     OW26596   1.994   0.459   1.275
 8566SOL    HW126597   1.955   0.369   1.292
 8566SOL    HW226598   1.921   0.527   1.270
 8567SOL     OW26599   0.580   2.556   2.872
 8567SOL    HW126600   0.589   2.644   2.919
 8567SOL    HW226601   0.486   2.544   2.841
 8568SOL     OW26602   5.229   1.163   6.669
 8568SOL    HW126603   5.168   1.172   6.591
 8568SOL    HW226604   5.231   1.068   6.701
 8569SOL     OW26605   5.120   0.827   6.012
 8569SOL    HW126606   5.120   0.819   5.912
 8569SOL    HW226607   5.039   0.781   6.049
 8570SOL     OW26608   1.384   1.776   5.251
 8570SOL    HW126609   1.342   1.820   5.172
 8570SOL    HW226610   1.353   1.681   5.257
 8571SOL     OW26611   1.771   5.959   5.163
 8571SOL    HW126612   1.713   5.936   5.241
 8571SOL    HW226613   1.789   5.877   5.109
 8572SOL     OW26614   3.332   4.448   6.371
 8572SOL    HW126615   3.260   4.513   6.347
 8572SOL    HW226616   3.406   4.497   6.417
 8573SOL     OW26617   3.144   5.876   6.704
 8573SOL    HW126618   3.201   5.854   6.625
 8573SOL    HW226619   3.180   5.957   6.750
 8574SOL     OW26620   0.044   5.738   5.944
 8574SOL    HW126621   0.116   5.668   5.937
 8574SOL    HW226622   0.008   5.739   6.037
 8575SOL     OW26623   2.238   2.881   4.573
 8575SOL    HW126624   2.151   2.842   4.542
 8575SOL    HW226625   2.237   2.980   4.558
 8576SOL     OW26626   1.567   5.299   5.988
 8576SOL    HW126627   1.519   5.214   5.964
 8576SOL    HW226628   1.628   5.325   5.914
 8577SOL     OW26629   0.529   6.451   5.054
 8577SOL    HW126630   0.554   6.408   5.140
 8577SOL    HW226631   0.444   6.410   5.020
 8578SOL     OW26632   5.547   6.787   4.000
 8578SOL    HW126633   5.540   6.693   4.034
 8578SOL    HW226634   5.643   6.811   3.986
 8579SOL     OW26635   1.764   6.985   2.348
 8579SOL    HW126636   1.692   6.920   2.322
 8579SOL    HW226637   1.786   0.020   2.269
 8580SOL     OW26638   2.104   6.264   1.987
 8580SOL    HW126639   2.088   6.298   2.079
 8580SOL    HW226640   2.032   6.199   1.962
 8581SOL     OW26641   3.302   3.940   2.043
 8581SOL    HW126642   3.367   3.863   2.040
 8581SOL    HW226643   3.219   3.915   1.994
 8582SOL     OW26644   4.319   4.686   3.350
 8582SOL    HW126645   4.395   4.622   3.344
 8582SOL    HW226646   4.270   4.688   3.263
 8583SOL     OW26647   5.820   0.462   3.948
 8583SOL    HW126648   5.878   0.387   3.916
 8583SOL    HW226649   5.786   0.514   3.870
 8584SOL     OW26650   1.312   4.379   5.496
 8584SOL    HW126651   1.400   4.338   5.470
 8584SOL    HW226652   1.324   4.476   5.513
 8585SOL     OW26653   0.729   6.373   5.604
 8585SOL    HW126654   0.735   6.324   5.691
 8585SOL    HW226655   0.633   6.378   5.575
 8586SOL     OW26656   2.610   6.700   2.106
 8586SOL    HW126657   2.634   6.794   2.081
 8586SOL    HW226658   2.685   6.660   2.159
 8587SOL     OW26659   1.226   6.781   3.941
 8587SOL    HW126660   1.185   6.694   3.914
 8587SOL    HW226661   1.316   6.790   3.898
 8588SOL     OW26662   2.639   1.222   0.248
 8588SOL    HW126663   2.560   1.258   0.197
 8588SOL    HW226664   2.615   1.210   0.344
 8589SOL     OW26665   4.697   3.140   5.361
 8589SOL    HW126666   4.617   3.198   5.378
 8589SOL    HW226667   4.697   3.064   5.426
 8590SOL     OW26668   6.786   6.022   3.957
 8590SOL    HW126669   6.753   6.085   4.027
 8590SOL    HW226670   6.713   6.007   3.890
 8591SOL     OW26671   0.633   3.998   0.313
 8591SOL    HW126672   0.538   4.010   0.342
 8591SOL    HW226673   0.692   3.999   0.393
 8592SOL     OW26674   6.427   3.334   6.254
 8592SOL    HW126675   6.344   3.376   6.292
 8592SOL    HW226676   6.409   3.303   6.161
 8593SOL     OW26677   2.361   0.654   1.206
 8593SOL    HW126678   2.314   0.632   1.121
 8593SOL    HW226679   2.437   0.590   1.220
 8594SOL     OW26680   4.381   2.384   5.394
 8594SOL    HW126681   4.439   2.355   5.471
 8594SOL    HW226682   4.386   2.483   5.384
 8595SOL     OW26683   0.455   2.019   3.268
 8595SOL    HW126684   0.456   2.115   3.296
 8595SOL    HW226685   0.382   2.004   3.202
 8596SOL     OW26686   1.035   5.459   3.361
 8596SOL    HW126687   1.134   5.471   3.363
 8596SOL    HW226688   1.003   5.435   3.453
 8597SOL     OW26689   3.937   1.776   1.181
 8597SOL    HW126690   4.030   1.740   1.174
 8597SOL    HW226691   3.902   1.798   1.090
 8598SOL     OW26692   5.979   0.146   1.035
 8598SOL    HW126693   5.962   0.083   1.111
 8598SOL    HW226694   5.895   0.194   1.012
 8599SOL     OW26695   0.835   2.777   4.647
 8599SOL    HW126696   0.822   2.818   4.738
 8599SOL    HW226697   0.847   2.679   4.656
 8600SOL     OW26698   5.139   5.171   4.729
 8600SOL    HW126699   5.233   5.155   4.697
 8600SOL    HW226700   5.141   5.200   4.825
 8601SOL     OW26701   0.975   1.050   4.650
 8601SOL    HW126702   1.070   1.021   4.641
 8601SOL    HW226703   0.919   0.971   4.676
 8602SOL     OW26704   2.786   5.086   1.940
 8602SOL    HW126705   2.866   5.082   1.880
 8602SOL    HW226706   2.718   5.019   1.909
 8603SOL     OW26707   4.400   5.953   0.645
 8603SOL    HW126708   4.367   5.862   0.620
 8603SOL    HW226709   4.409   5.959   0.745
 8604SOL     OW26710   0.403   2.874   5.350
 8604SOL    HW126711   0.477   2.863   5.283
 8604SOL    HW226712   0.329   2.927   5.309
 8605SOL     OW26713   2.842   6.246   4.013
 8605SOL    HW126714   2.895   6.265   4.095
 8605SOL    HW226715   2.772   6.178   4.034
 8606SOL     OW26716   1.612   3.729   6.539
 8606SOL    HW126717   1.701   3.746   6.496
 8606SOL    HW226718   1.613   3.763   6.633
 8607SOL     OW26719   3.618   6.041   0.804
 8607SOL    HW126720   3.697   6.091   0.771
 8607SOL    HW226721   3.619   6.038   0.904
 8608SOL     OW26722   4.018   5.001   2.734
 8608SOL    HW126723   3.949   4.931   2.752
 8608SOL    HW226724   4.037   5.004   2.636
 8609SOL     OW26725   4.737   0.581   2.692
 8609SOL    HW126726   4.822   0.530   2.676
 8609SOL    HW226727   4.695   0.549   2.777
 8610SOL     OW26728   1.897   2.513   2.930
 8610SOL    HW126729   1.857   2.508   3.021
 8610SOL    HW226730   1.874   2.431   2.878
 8611SOL     OW26731   2.894   1.493   5.028
 8611SOL    HW126732   2.850   1.490   5.118
 8611SOL    HW226733   2.939   1.581   5.017
 8612SOL     OW26734   3.131   3.204   1.441
 8612SOL    HW126735   3.154   3.186   1.346
 8612SOL    HW226736   3.035   3.183   1.457
 8613SOL     OW26737   2.373   1.979   1.750
 8613SOL    HW126738   2.421   2.064   1.727
 8613SOL    HW226739   2.406   1.944   1.838
 8614SOL     OW26740   1.000   2.522   2.265
 8614SOL    HW126741   1.009   2.481   2.356
 8614SOL    HW226742   0.905   2.515   2.235
 8615SOL     OW26743   4.713   1.537   5.403
 8615SOL    HW126744   4.615   1.555   5.410
 8615SOL    HW226745   4.730   1.439   5.417
 8616SOL     OW26746   3.133   4.631   1.683
 8616SOL    HW126747   3.063   4.587   1.739
 8616SOL    HW226748   3.090   4.675   1.604
 8617SOL     OW26749   6.516   1.089   6.551
 8617SOL    HW126750   6.438   1.050   6.600
 8617SOL    HW226751   6.599   1.077   6.607
 8618SOL     OW26752   5.995   5.771   0.608
 8618SOL    HW126753   6.045   5.744   0.690
 8618SOL    HW226754   5.917   5.710   0.595
 8619SOL     OW26755   3.744   4.905   2.049
 8619SOL    HW126756   3.838   4.891   2.017
 8619SOL    HW226757   3.685   4.833   2.012
 8620SOL     OW26758   1.743   0.884   3.695
 8620SOL    HW126759   1.709   0.978   3.690
 8620SOL    HW226760   1.706   0.839   3.776
 8621SOL     OW26761   5.496   1.706   2.966
 8621SOL    HW126762   5.512   1.805   2.968
 8621SOL    HW226763   5.484   1.672   3.059
 8622SOL     OW26764   5.314   3.592   0.622
 8622SOL    HW126765   5.390   3.619   0.563
 8622SOL    HW226766   5.257   3.672   0.642
 8623SOL     OW26767   1.241   3.752   4.629
 8623SOL    HW126768   1.324   3.782   4.581
 8623SOL    HW226769   1.265   3.678   4.692
 8624SOL     OW26770   1.312   3.575   4.828
 8624SOL    HW126771   1.234   3.593   4.888
 8624SOL    HW226772   1.396   3.573   4.882
 8625SOL     OW26773   4.588   0.417   5.823
 8625SOL    HW126774   4.505   0.414   5.767
 8625SOL    HW226775   4.668   0.415   5.763
 8626SOL     OW26776   3.809   3.185   5.362
 8626SOL    HW126777   3.824   3.140   5.450
 8626SOL    HW226778   3.854   3.274   5.363
 8627SOL     OW26779   1.015   1.377   3.669
 8627SOL    HW126780   0.959   1.319   3.610
 8627SOL    HW226781   1.049   1.324   3.746
 8628SOL     OW26782   6.629   6.499   0.674
 8628SOL    HW126783   6.673   6.423   0.722
 8628SOL    HW226784   6.612   6.574   0.739
 8629SOL     OW26785   1.331   5.784   5.027
 8629SOL    HW126786   1.270   5.737   4.963
 8629SOL    HW226787   1.425   5.754   5.012
 8630SOL     OW26788   5.425   4.345   3.579
 8630SOL    HW126789   5.448   4.289   3.659
 8630SOL    HW226790   5.493   4.417   3.569
 8631SOL     OW26791   1.060   4.796   6.242
 8631SOL    HW126792   1.013   4.711   6.270
 8631SOL    HW226793   1.139   4.811   6.301
 8632SOL     OW26794   3.801   5.550   4.175
 8632SOL    HW126795   3.837   5.499   4.253
 8632SOL    HW226796   3.774   5.641   4.204
 8633SOL     OW26797   5.091   1.481   6.007
 8633SOL    HW126798   5.091   1.383   5.991
 8633SOL    HW226799   5.170   1.506   6.062
 8634SOL     OW26800   5.158   3.824   0.702
 8634SOL    HW126801   5.237   3.852   0.756
 8634SOL    HW226802   5.098   3.767   0.758
 8635SOL     OW26803   5.414   4.345   6.301
 8635SOL    HW126804   5.331   4.309   6.344
 8635SOL    HW226805   5.400   4.440   6.274
 8636SOL     OW26806   5.086   5.582   0.959
 8636SOL    HW126807   5.065   5.485   0.970
 8636SOL    HW226808   5.024   5.622   0.891
 8637SOL     OW26809   2.132   1.312   0.149
 8637SOL    HW126810   2.063   1.244   0.124
 8637SOL    HW226811   2.092   1.380   0.210
 8638SOL     OW26812   2.481   3.009   5.851
 8638SOL    HW126813   2.479   3.031   5.754
 8638SOL    HW226814   2.402   3.051   5.897
 8639SOL     OW26815   5.520   2.758   1.078
 8639SOL    HW126816   5.548   2.710   1.161
 8639SOL    HW226817   5.556   2.851   1.079
 8640SOL     OW26818   4.576   3.849   6.977
 8640SOL    HW126819   4.501   3.840   6.912
 8640SOL    HW226820   4.651   3.788   6.949
 8641SOL     OW26821   5.036   4.794   4.195
 8641SOL    HW126822   5.095   4.818   4.271
 8641SOL    HW226823   4.960   4.859   4.190
 8642SOL     OW26824   2.161   6.301   3.057
 8642SOL    HW126825   2.137   6.255   2.972
 8642SOL    HW226826   2.079   6.314   3.113
 8643SOL     OW26827   3.018   6.985   6.613
 8643SOL    HW126828   2.964   6.953   6.535
 8643SOL    HW226829   2.970   6.963   6.698
 8644SOL     OW26830   5.629   2.276   5.173
 8644SOL    HW126831   5.640   2.375   5.166
 8644SOL    HW226832   5.588   2.241   5.088
 8645SOL     OW26833   4.451   4.485   1.528
 8645SOL    HW126834   4.534   4.494   1.473
 8645SOL    HW226835   4.476   4.481   1.624
 8646SOL     OW26836   6.874   1.568   1.661
 8646SOL    HW126837   6.829   1.482   1.685
 8646SOL    HW226838   6.805   1.637   1.639
 8647SOL     OW26839   3.095   5.639   6.507
 8647SOL    HW126840   3.023   5.701   6.539
 8647SOL    HW226841   3.053   5.563   6.458
 8648SOL     OW26842   6.438   0.850   3.360
 8648SOL    HW126843   6.352   0.871   3.312
 8648SOL    HW226844   6.515   0.876   3.301
 8649SOL     OW26845   5.373   5.321   5.894
 8649SOL    HW126846   5.382   5.355   5.800
 8649SOL    HW226847   5.458   5.334   5.943
 8650SOL     OW26848   2.346   5.182   4.787
 8650SOL    HW126849   2.258   5.211   4.825
 8650SOL    HW226850   2.343   5.083   4.770
 8651SOL     OW26851   3.719   0.263   0.045
 8651SOL    HW126852   3.751   0.353   0.015
 8651SOL    HW226853   3.620   0.263   0.052
 8652SOL     OW26854   1.888   4.742   4.160
 8652SOL    HW126855   1.943   4.823   4.182
 8652SOL    HW226856   1.805   4.771   4.113
 8653SOL     OW26857   5.639   0.368   6.581
 8653SOL    HW126858   5.698   0.449   6.573
 8653SOL    HW226859   5.677   0.306   6.649
 8654SOL     OW26860   1.244   4.933   1.581
 8654SOL    HW126861   1.319   4.996   1.561
 8654SOL    HW226862   1.175   4.940   1.509
 8655SOL     OW26863   6.700   1.285   4.071
 8655SOL    HW126864   6.718   1.309   3.976
 8655SOL    HW226865   6.786   1.284   4.122
 8656SOL     OW26866   6.533   0.464   1.102
 8656SOL    HW126867   6.568   0.380   1.060
 8656SOL    HW226868   6.605   0.532   1.106
 8657SOL     OW26869   5.490   4.469   0.552
 8657SOL    HW126870   5.558   4.532   0.514
 8657SOL    HW226871   5.457   4.504   0.639
 8658SOL     OW26872   5.284   6.660   0.226
 8658SOL    HW126873   5.278   6.565   0.255
 8658SOL    HW226874   5.192   6.694   0.205
 8659SOL     OW26875   4.586   2.024   2.531
 8659SOL    HW126876   4.486   2.017   2.528
 8659SOL    HW226877   4.625   1.932   2.524
 8660SOL     OW26878   6.575   4.309   1.801
 8660SOL    HW126879   6.526   4.224   1.821
 8660SOL    HW226880   6.633   4.333   1.879
 8661SOL     OW26881   6.302   3.670   0.997
 8661SOL    HW126882   6.384   3.727   0.989
 8661SOL    HW226883   6.241   3.708   1.065
 8662SOL     OW26884   4.359   5.452   1.387
 8662SOL    HW126885   4.290   5.456   1.459
 8662SOL    HW226886   4.450   5.468   1.427
 8663SOL     OW26887   3.488   5.850   1.599
 8663SOL    HW126888   3.450   5.849   1.692
 8663SOL    HW226889   3.417   5.879   1.534
 8664SOL     OW26890   1.399   5.936   0.798
 8664SOL    HW126891   1.422   6.007   0.731
 8664SOL    HW226892   1.417   5.970   0.890
 8665SOL     OW26893   5.147   6.453   4.839
 8665SOL    HW126894   5.221   6.494   4.786
 8665SOL    HW226895   5.082   6.524   4.865
 8666SOL     OW26896   4.887   1.519   3.679
 8666SOL    HW126897   4.870   1.578   3.600
 8666SOL    HW226898   4.806   1.464   3.697
 8667SOL     OW26899   4.185   2.205   3.350
 8667SOL    HW126900   4.245   2.124   3.345
 8667SOL    HW226901   4.241   2.288   3.342
 8668SOL     OW26902   4.893   3.603   3.146
 8668SOL    HW126903   4.876   3.542   3.069
 8668SOL    HW226904   4.982   3.582   3.186
 8669SOL     OW26905   1.680   6.499   6.491
 8669SOL    HW126906   1.693   6.598   6.489
 8669SOL    HW226907   1.767   6.455   6.470
 8670SOL     OW26908   3.876   4.124   5.217
 8670SOL    HW126909   3.924   4.201   5.259
 8670SOL    HW226910   3.906   4.039   5.261
 8671SOL     OW26911   5.025   1.415   2.750
 8671SOL    HW126912   5.065   1.504   2.730
 8671SOL    HW226913   5.009   1.366   2.664
 8672SOL     OW26914   1.768   4.879   4.606
 8672SOL    HW126915   1.766   4.792   4.556
 8672SOL    HW226916   1.711   4.946   4.558
 8673SOL     OW26917   6.149   2.712   0.133
 8673SOL    HW126918   6.096   2.790   0.100
 8673SOL    HW226919   6.226   2.696   0.072
 8674SOL     OW26920   5.650   6.095   3.263
 8674SOL    HW126921   5.627   6.045   3.346
 8674SOL    HW226922   5.685   6.186   3.288
 8675SOL     OW26923   3.070   2.211   4.030
 8675SOL    HW126924   2.976   2.208   4.063
 8675SOL    HW226925   3.122   2.280   4.081
 8676SOL     OW26926   4.467   0.189   2.206
 8676SOL    HW126927   4.502   0.282   2.207
 8676SOL    HW226928   4.387   0.182   2.265
 8677SOL     OW26929   2.329   5.530   5.838
 8677SOL    HW126930   2.261   5.603   5.839
 8677SOL    HW226931   2.289   5.445   5.872
 8678SOL     OW26932   6.886   0.626   1.043
 8678SOL    HW126933   6.957   0.595   0.980
 8678SOL    HW226934   6.883   0.566   1.123
 8679SOL     OW26935   6.853   2.068   3.301
 8679SOL    HW126936   6.764   2.032   3.271
 8679SOL    HW226937   6.838   2.135   3.374
 8680SOL     OW26938   0.900   3.744   0.929
 8680SOL    HW126939   0.814   3.786   0.902
 8680SOL    HW226940   0.973   3.813   0.924
 8681SOL     OW26941   5.288   5.529   0.176
 8681SOL    HW126942   5.216   5.501   0.113
 8681SOL    HW226943   5.257   5.515   0.270
 8682SOL     OW26944   4.937   6.349   2.377
 8682SOL    HW126945   4.866   6.409   2.341
 8682SOL    HW226946   4.907   6.308   2.463
 8683SOL     OW26947   1.454   2.173   3.500
 8683SOL    HW126948   1.400   2.245   3.544
 8683SOL    HW226949   1.538   2.158   3.552
 8684SOL     OW26950   6.723   2.957   5.108
 8684SOL    HW126951   6.665   2.883   5.074
 8684SOL    HW226952   6.667   3.021   5.161
 8685SOL     OW26953   0.473   1.677   6.282
 8685SOL    HW126954   0.410   1.711   6.352
 8685SOL    HW226955   0.451   1.719   6.194
 8686SOL     OW26956   6.992   1.802   2.451
 8686SOL    HW126957   6.976   1.795   2.353
 8686SOL    HW226958   6.920   1.857   2.493
 8687SOL     OW26959   4.624   4.915   1.655
 8687SOL    HW126960   4.617   5.009   1.691
 8687SOL    HW226961   4.634   4.851   1.731
 8688SOL     OW26962   2.463   5.297   6.906
 8688SOL    HW126963   2.504   5.226   6.849
 8688SOL    HW226964   2.461   5.383   6.856
 8689SOL     OW26965   3.945   3.821   1.607
 8689SOL    HW126966   4.020   3.810   1.542
 8689SOL    HW226967   3.974   3.882   1.681
 8690SOL     OW26968   1.639   3.663   3.366
 8690SOL    HW126969   1.553   3.671   3.416
 8690SOL    HW226970   1.645   3.738   3.299
 8691SOL     OW26971   2.995   1.793   5.831
 8691SOL    HW126972   3.002   1.794   5.731
 8691SOL    HW226973   3.023   1.704   5.866
 8692SOL     OW26974   2.464   1.785   4.761
 8692SOL    HW126975   2.468   1.784   4.861
 8692SOL    HW226976   2.381   1.831   4.731
 8693SOL     OW26977   6.112   0.989   0.207
 8693SOL    HW126978   6.069   0.900   0.190
 8693SOL    HW226979   6.211   0.977   0.216
 8694SOL     OW26980   4.875   0.969   5.221
 8694SOL    HW126981   4.797   1.019   5.184
 8694SOL    HW226982   4.904   0.898   5.156
 8695SOL     OW26983   3.935   3.046   6.037
 8695SOL    HW126984   3.872   3.045   5.959
 8695SOL    HW226985   3.883   3.037   6.122
 8696SOL     OW26986   2.026   4.953   6.734
 8696SOL    HW126987   2.019   5.040   6.684
 8696SOL    HW226988   2.041   4.878   6.670
 8697SOL     OW26989   6.593   2.850   6.256
 8697SOL    HW126990   6.538   2.885   6.332
 8697SOL    HW226991   6.555   2.764   6.224
 8698SOL     OW26992   5.286   6.377   5.651
 8698SOL    HW126993   5.369   6.429   5.630
 8698SOL    HW226994   5.274   6.305   5.583
 8699SOL     OW26995   1.812   2.486   5.382
 8699SOL    HW126996   1.776   2.459   5.293
 8699SOL    HW226997   1.818   2.406   5.442
 8700SOL     OW26998   0.988   1.407   4.388
 8700SOL    HW126999   1.062   1.444   4.445
 8700SOL    HW227000   0.923   1.359   4.446
 8701SOL     OW27001   0.550   1.334   0.659
 8701SOL    HW127002   0.515   1.405   0.598
 8701SOL    HW227003   0.625   1.372   0.715
 8702SOL     OW27004   5.779   5.161   1.860
 8702SOL    HW127005   5.835   5.241   1.882
 8702SOL    HW227006   5.839   5.081   1.848
 8703SOL     OW27007   2.759   4.915   6.393
 8703SOL    HW127008   2.855   4.921   6.421
 8703SOL    HW227009   2.746   4.967   6.308
 8704SOL     OW27010   0.423   3.776   3.246
 8704SOL    HW127011   0.493   3.733   3.303
 8704SOL    HW227012   0.364   3.705   3.207
 8705SOL     OW27013   5.534   1.474   6.469
 8705SOL    HW127014   5.458   1.482   6.533
 8705SOL    HW227015   5.516   1.532   6.389
 8706SOL     OW27016   4.906   1.933   6.989
 8706SOL    HW127017   4.920   1.835   7.002
 8706SOL    HW227018   4.903   1.979   0.056
 8707SOL     OW27019   6.822   1.598   6.454
 8707SOL    HW127020   6.877   1.515   6.465
 8707SOL    HW227021   6.745   1.595   6.517
 8708SOL     OW27022   4.542   2.098   2.909
 8708SOL    HW127023   4.449   2.109   2.944
 8708SOL    HW227024   4.558   2.161   2.833
 8709SOL     OW27025   6.854   6.826   0.006
 8709SOL    HW127026   6.953   6.817   0.017
 8709SOL    HW227027   6.825   6.918   0.032
 8710SOL     OW27028   1.986   3.289   3.992
 8710SOL    HW127029   2.066   3.235   3.967
 8710SOL    HW227030   2.015   3.380   4.023
 8711SOL     OW27031   1.722   6.693   3.148
 8711SOL    HW127032   1.713   6.594   3.136
 8711SOL    HW227033   1.652   6.740   3.094
 8712SOL     OW27034   4.141   2.208   4.803
 8712SOL    HW127035   4.159   2.281   4.869
 8712SOL    HW227036   4.058   2.159   4.830
 8713SOL     OW27037   6.246   3.299   3.721
 8713SOL    HW127038   6.337   3.315   3.683
 8713SOL    HW227039   6.232   3.201   3.733
 8714SOL     OW27040   0.702   0.560   6.055
 8714SOL    HW127041   0.646   0.512   5.988
 8714SOL    HW227042   0.782   0.598   6.010
 8715SOL     OW27043   4.634   0.306   0.596
 8715SOL    HW127044   4.669   0.267   0.682
 8715SOL    HW227045   4.708   0.310   0.529
 8716SOL     OW27046   6.773   6.815   1.544
 8716SOL    HW127047   6.758   6.727   1.590
 8716SOL    HW227048   6.686   6.848   1.508
 8717SOL     OW27049   3.359   3.165   4.270
 8717SOL    HW127050   3.456   3.148   4.255
 8717SOL    HW227051   3.337   3.152   4.367
 8718SOL     OW27052   1.325   3.934   5.024
 8718SOL    HW127053   1.318   3.835   5.029
 8718SOL    HW227054   1.421   3.960   5.010
 8719SOL     OW27055   3.541   0.623   6.720
 8719SOL    HW127056   3.552   0.542   6.663
 8719SOL    HW227057   3.631   0.655   6.750
 8720SOL     OW27058   6.741   5.336   5.820
 8720SOL    HW127059   6.752   5.433   5.797
 8720SOL    HW227060   6.716   5.285   5.737
 8721SOL     OW27061   6.754   3.098   2.351
 8721SOL    HW127062   6.829   3.116   2.415
 8721SOL    HW227063   6.686   3.039   2.394
 8722SOL     OW27064   3.801   1.603   0.017
 8722SOL    HW127065   3.750   1.550   6.972
 8722SOL    HW227066   3.753   1.689   0.036
 8723SOL     OW27067   5.475   5.953   1.106
 8723SOL    HW127068   5.375   5.953   1.101
 8723SOL    HW227069   5.512   5.897   1.032
 8724SOL     OW27070   4.757   0.119   5.252
 8724SOL    HW127071   4.757   0.122   5.352
 8724SOL    HW227072   4.699   0.043   5.221
 8725SOL     OW27073   1.766   6.007   6.237
 8725SOL    HW127074   1.701   6.082   6.240
 8725SOL    HW227075   1.726   5.926   6.279
 8726SOL     OW27076   6.929   1.093   3.153
 8726SOL    HW127077   6.900   1.115   3.060
 8726SOL    HW227078   6.938   1.178   3.206
 8727SOL     OW27079   6.254   6.476   2.194
 8727SOL    HW127080   6.348   6.482   2.162
 8727SOL    HW227081   6.196   6.437   2.122
 8728SOL     OW27082   6.456   0.712   2.318
 8728SOL    HW127083   6.487   0.626   2.279
 8728SOL    HW227084   6.357   0.708   2.333
 8729SOL     OW27085   4.176   6.056   4.877
 8729SOL    HW127086   4.105   6.036   4.945
 8729SOL    HW227087   4.211   5.970   4.840
 8730SOL     OW27088   6.758   4.160   2.641
 8730SOL    HW127089   6.663   4.128   2.642
 8730SOL    HW227090   6.798   4.147   2.732
 8731SOL     OW27091   1.984   2.534   2.637
 8731SOL    HW127092   2.074   2.542   2.680
 8731SOL    HW227093   1.946   2.444   2.655
 8732SOL     OW27094   6.369   5.231   1.774
 8732SOL    HW127095   6.410   5.270   1.691
 8732SOL    HW227096   6.348   5.135   1.758
 8733SOL     OW27097   1.463   5.105   1.545
 8733SOL    HW127098   1.437   5.190   1.499
 8733SOL    HW227099   1.536   5.124   1.611
 8734SOL     OW27100   1.309   4.265   2.124
 8734SOL    HW127101   1.374   4.318   2.069
 8734SOL    HW227102   1.304   4.172   2.089
 8735SOL     OW27103   1.372   2.646   0.674
 8735SOL    HW127104   1.441   2.575   0.687
 8735SOL    HW227105   1.405   2.713   0.607
 8736SOL     OW27106   0.463   5.824   6.569
 8736SOL    HW127107   0.476   5.785   6.478
 8736SOL    HW227108   0.366   5.846   6.581
 8737SOL     OW27109   1.661   6.263   6.606
 8737SOL    HW127110   1.645   6.351   6.560
 8737SOL    HW227111   1.705   6.280   6.694
 8738SOL     OW27112   2.571   5.560   4.802
 8738SOL    HW127113   2.660   5.590   4.768
 8738SOL    HW227114   2.580   5.470   4.844
 8739SOL     OW27115   5.392   5.389   6.345
 8739SOL    HW127116   5.488   5.364   6.349
 8739SOL    HW227117   5.375   5.448   6.266
 8740SOL     OW27118   4.912   1.318   4.354
 8740SOL    HW127119   4.996   1.369   4.370
 8740SOL    HW227120   4.933   1.233   4.306
 8741SOL     OW27121   2.626   1.233   2.518
 8741SOL    HW127122   2.609   1.157   2.581
 8741SOL    HW227123   2.599   1.319   2.561
 8742SOL     OW27124   5.844   5.873   1.560
 8742SOL    HW127125   5.883   5.888   1.470
 8742SOL    HW227126   5.794   5.786   1.561
 8743SOL     OW27127   1.461   0.092   2.276
 8743SOL    HW127128   1.519   0.101   2.195
 8743SOL    HW227129   1.367   0.072   2.248
 8744SOL     OW27130   3.709   2.757   6.027
 8744SOL    HW127131   3.692   2.696   5.950
 8744SOL    HW227132   3.634   2.823   6.035
 8745SOL     OW27133   6.081   2.689   6.776
 8745SOL    HW127134   6.096   2.770   6.719
 8745SOL    HW227135   6.143   2.692   6.855
 8746SOL     OW27136   4.612   5.282   4.375
 8746SOL    HW127137   4.662   5.251   4.294
 8746SOL    HW227138   4.640   5.229   4.454
 8747SOL     OW27139   0.622   2.793   3.028
 8747SOL    HW127140   0.670   2.742   3.100
 8747SOL    HW227141   0.685   2.855   2.983
 8748SOL     OW27142   6.302   1.536   4.817
 8748SOL    HW127143   6.391   1.566   4.850
 8748SOL    HW227144   6.291   1.564   4.721
 8749SOL     OW27145   2.599   0.672   5.216
 8749SOL    HW127146   2.527   0.682   5.147
 8749SOL    HW227147   2.562   0.695   5.306
 8750SOL     OW27148   3.317   3.691   5.191
 8750SOL    HW127149   3.393   3.631   5.218
 8750SOL    HW227150   3.295   3.753   5.266
 8751SOL     OW27151   5.550   1.262   2.305
 8751SOL    HW127152   5.505   1.173   2.313
 8751SOL    HW227153   5.521   1.321   2.380
 8752SOL     OW27154   3.032   3.086   0.570
 8752SOL    HW127155   3.062   3.066   0.476
 8752SOL    HW227156   2.994   3.178   0.574
 8753SOL     OW27157   4.210   2.316   5.828
 8753SOL    HW127158   4.170   2.246   5.769
 8753SOL    HW227159   4.246   2.391   5.772
 8754SOL     OW27160   1.926   3.355   5.753
 8754SOL    HW127161   1.946   3.452   5.748
 8754SOL    HW227162   1.933   3.323   5.848
 8755SOL     OW27163   1.949   0.708   0.653
 8755SOL    HW127164   1.954   0.807   0.666
 8755SOL    HW227165   2.034   0.666   0.683
 8756SOL     OW27166   0.720   3.128   3.868
 8756SOL    HW127167   0.626   3.153   3.847
 8756SOL    HW227168   0.725   3.088   3.959
 8757SOL     OW27169   4.087   5.739   6.351
 8757SOL    HW127170   4.083   5.772   6.446
 8757SOL    HW227171   4.178   5.758   6.313
 8758SOL     OW27172   5.449   6.048   2.182
 8758SOL    HW127173   5.427   5.992   2.262
 8758SOL    HW227174   5.433   5.996   2.099
 8759SOL     OW27175   4.645   2.547   0.178
 8759SOL    HW127176   4.662   2.458   0.137
 8759SOL    HW227177   4.716   2.612   0.150
 8760SOL     OW27178   2.209   0.971   4.982
 8760SOL    HW127179   2.160   0.927   4.907
 8760SOL    HW227180   2.304   0.937   4.984
 8761SOL     OW27181   6.119   2.008   1.990
 8761SOL    HW127182   6.216   1.992   2.008
 8761SOL    HW227183   6.100   1.990   1.893
 8762SOL     OW27184   1.679   4.107   2.938
 8762SOL    HW127185   1.756   4.132   2.996
 8762SOL    HW227186   1.595   4.147   2.975
 8763SOL     OW27187   6.904   6.477   5.921
 8763SOL    HW127188   6.906   6.448   5.826
 8763SOL    HW227189   6.976   6.544   5.937
 8764SOL     OW27190   5.115   0.656   4.864
 8764SOL    HW127191   5.108   0.746   4.823
 8764SOL    HW227192   5.062   0.590   4.810
 8765SOL     OW27193   5.107   6.712   3.620
 8765SOL    HW127194   5.198   6.695   3.657
 8765SOL    HW227195   5.064   6.787   3.670
 8766SOL     OW27196   4.750   4.222   3.998
 8766SOL    HW127197   4.656   4.244   3.974
 8766SOL    HW227198   4.774   4.132   3.963
 8767SOL     OW27199   4.847   5.767   3.313
 8767SOL    HW127200   4.942   5.783   3.288
 8767SOL    HW227201   4.826   5.816   3.397
 8768SOL     OW27202   1.598   2.177   0.467
 8768SOL    HW127203   1.509   2.189   0.511
 8768SOL    HW227204   1.646   2.100   0.508
 8769SOL     OW27205   0.087   0.639   4.202
 8769SOL    HW127206   0.006   0.630   4.144
 8769SOL    HW227207   0.161   0.583   4.165
 8770SOL     OW27208   4.873   4.408   2.479
 8770SOL    HW127209   4.820   4.423   2.396
 8770SOL    HW227210   4.970   4.424   2.460
 8771SOL     OW27211   0.990   1.486   6.659
 8771SOL    HW127212   1.069   1.458   6.605
 8771SOL    HW227213   0.947   1.405   6.700
 8772SOL     OW27214   5.317   0.831   6.215
 8772SOL    HW127215   5.261   0.834   6.132
 8772SOL    HW227216   5.257   0.813   6.294
 8773SOL     OW27217   4.438   2.429   3.546
 8773SOL    HW127218   4.443   2.367   3.624
 8773SOL    HW227219   4.408   2.379   3.465
 8774SOL     OW27220   1.237   0.738   0.105
 8774SOL    HW127221   1.161   0.716   0.166
 8774SOL    HW227222   1.323   0.707   0.146
 8775SOL     OW27223   5.754   0.020   5.147
 8775SOL    HW127224   5.659   7.020   5.126
 8775SOL    HW227225   5.786   0.089   5.082
 8776SOL     OW27226   3.673   2.761   6.434
 8776SOL    HW127227   3.586   2.711   6.437
 8776SOL    HW227228   3.741   2.706   6.385
 8777SOL     OW27229   0.177   4.335   2.140
 8777SOL    HW127230   0.193   4.237   2.137
 8777SOL    HW227231   0.264   4.384   2.142
 8778SOL     OW27232   5.396   2.831   5.113
 8778SOL    HW127233   5.435   2.779   5.190
 8778SOL    HW227234   5.468   2.851   5.047
 8779SOL     OW27235   2.794   5.260   2.411
 8779SOL    HW127236   2.720   5.199   2.441
 8779SOL    HW227237   2.834   5.225   2.326
 8780SOL     OW27238   0.873   6.432   2.505
 8780SOL    HW127239   0.892   6.530   2.511
 8780SOL    HW227240   0.847   6.397   2.595
 8781SOL     OW27241   5.643   1.310   3.299
 8781SOL    HW127242   5.600   1.387   3.345
 8781SOL    HW227243   5.587   1.228   3.311
 8782SOL     OW27244   6.593   6.240   1.241
 8782SOL    HW127245   6.621   6.157   1.289
 8782SOL    HW227246   6.571   6.311   1.309
 8783SOL     OW27247   6.347   4.449   3.396
 8783SOL    HW127248   6.438   4.423   3.428
 8783SOL    HW227249   6.356   4.514   3.320
 8784SOL     OW27250   6.428   3.930   6.142
 8784SOL    HW127251   6.485   3.854   6.175
 8784SOL    HW227252   6.417   3.922   6.043
 8785SOL     OW27253   5.855   3.929   0.262
 8785SOL    HW127254   5.825   3.977   0.345
 8785SOL    HW227255   5.829   3.833   0.267
 8786SOL     OW27256   2.149   0.384   0.450
 8786SOL    HW127257   2.240   0.343   0.448
 8786SOL    HW227258   2.082   0.316   0.420
 8787SOL     OW27259   3.789   2.213   1.405
 8787SOL    HW127260   3.871   2.200   1.461
 8787SOL    HW227261   3.708   2.185   1.458
 8788SOL     OW27262   6.746   1.636   5.904
 8788SOL    HW127263   6.698   1.556   5.867
 8788SOL    HW227264   6.769   1.699   5.830
 8789SOL     OW27265   6.445   0.018   4.849
 8789SOL    HW127266   6.372   0.082   4.870
 8789SOL    HW227267   6.532   0.053   4.884
 8790SOL     OW27268   0.927   0.578   6.653
 8790SOL    HW127269   0.965   0.493   6.690
 8790SOL    HW227270   0.829   0.566   6.639
 8791SOL     OW27271   5.320   6.693   4.791
 8791SOL    HW127272   5.255   6.731   4.857
 8791SOL    HW227273   5.407   6.740   4.800
 8792SOL     OW27274   2.480   6.503   2.895
 8792SOL    HW127275   2.552   6.535   2.833
 8792SOL    HW227276   2.511   6.419   2.940
 8793SOL     OW27277   1.191   4.282   3.496
 8793SOL    HW127278   1.186   4.352   3.568
 8793SOL    HW227279   1.105   4.280   3.446
 8794SOL     OW27280   4.754   0.159   2.471
 8794SOL    HW127281   4.825   0.151   2.541
 8794SOL    HW227282   4.793   0.204   2.390
 8795SOL     OW27283   1.594   5.299   5.567
 8795SOL    HW127284   1.498   5.316   5.590
 8795SOL    HW227285   1.649   5.298   5.650
 8796SOL     OW27286   3.766   1.924   4.810
 8796SOL    HW127287   3.683   1.979   4.806
 8796SOL    HW227288   3.766   1.872   4.896
 8797SOL     OW27289   6.830   0.027   6.793
 8797SOL    HW127290   6.838   6.950   6.806
 8797SOL    HW227291   6.818   0.071   6.882
 8798SOL     OW27292   5.021   5.736   5.974
 8798SOL    HW127293   4.963   5.723   6.055
 8798SOL    HW227294   5.055   5.830   5.972
 8799SOL     OW27295   2.657   4.674   3.562
 8799SOL    HW127296   2.743   4.723   3.573
 8799SOL    HW227297   2.581   4.737   3.576
 8800SOL     OW27298   6.150   3.996   5.695
 8800SOL    HW127299   6.169   4.084   5.740
 8800SOL    HW227300   6.062   4.001   5.649
 8801SOL     OW27301   0.009   1.531   4.871
 8801SOL    HW127302   0.024   1.616   4.921
 8801SOL    HW227303   0.052   1.455   4.920
 8802SOL     OW27304   2.192   6.682   0.182
 8802SOL    HW127305   2.165   6.672   0.278
 8802SOL    HW227306   2.114   6.659   0.124
 8803SOL     OW27307   6.539   6.117   0.007
 8803SOL    HW127308   6.565   6.022   7.008
 8803SOL    HW227309   6.496   6.120   0.097
 8804SOL     OW27310   2.318   6.682   2.055
 8804SOL    HW127311   2.409   6.641   2.062
 8804SOL    HW227312   2.315   6.767   2.107
 8805SOL     OW27313   2.751   6.540   4.172
 8805SOL    HW127314   2.764   6.634   4.204
 8805SOL    HW227315   2.805   6.525   4.090
 8806SOL     OW27316   3.211   5.843   2.385
 8806SOL    HW127317   3.290   5.805   2.337
 8806SOL    HW227318   3.151   5.768   2.414
 8807SOL     OW27319   4.922   0.589   0.343
 8807SOL    HW127320   4.911   0.597   0.243
 8807SOL    HW227321   4.909   0.679   0.385
 8808SOL     OW27322   5.897   3.154   6.984
 8808SOL    HW127323   5.804   3.122   7.001
 8808SOL    HW227324   5.960   3.107   0.024
 8809SOL     OW27325   5.264   5.753   3.596
 8809SOL    HW127326   5.243   5.692   3.519
 8809SOL    HW227327   5.279   5.845   3.562
 8810SOL     OW27328   6.110   0.850   5.337
 8810SOL    HW127329   6.190   0.880   5.390
 8810SOL    HW227330   6.112   0.892   5.246
 8811SOL     OW27331   2.888   0.671   2.844
 8811SOL    HW127332   2.849   0.600   2.902
 8811SOL    HW227333   2.826   0.691   2.768
 8812SOL     OW27334   1.550   0.515   1.150
 8812SOL    HW127335   1.527   0.502   1.246
 8812SOL    HW227336   1.642   0.555   1.142
 8813SOL     OW27337   2.537   4.594   1.650
 8813SOL    HW127338   2.625   4.626   1.683
 8813SOL    HW227339   2.511   4.645   1.567
 8814SOL     OW27340   5.358   6.845   1.376
 8814SOL    HW127341   5.396   6.922   1.427
 8814SOL    HW227342   5.427   6.773   1.367
 8815SOL     OW27343   5.718   0.218   1.043
 8815SOL    HW127344   5.675   0.303   1.073
 8815SOL    HW227345   5.663   0.140   1.073
 8816SOL     OW27346   1.189   6.444   0.128
 8816SOL    HW127347   1.153   6.409   0.215
 8816SOL    HW227348   1.252   6.520   0.147
 8817SOL     OW27349   0.313   5.006   3.870
 8817SOL    HW127350   0.333   5.099   3.901
 8817SOL    HW227351   0.354   4.991   3.780
 8818SOL     OW27352   0.431   4.696   4.527
 8818SOL    HW127353   0.456   4.605   4.495
 8818SOL    HW227354   0.373   4.740   4.458
 8819SOL     OW27355   5.767   5.388   5.177
 8819SOL    HW127356   5.848   5.443   5.197
 8819SOL    HW227357   5.755   5.318   5.247
 8820SOL     OW27358   2.351   0.506   5.041
 8820SOL    HW127359   2.439   0.476   5.003
 8820SOL    HW227360   2.328   0.451   5.121
 8821SOL     OW27361   1.769   6.091   0.949
 8821SOL    HW127362   1.681   6.132   0.926
 8821SOL    HW227363   1.755   6.010   1.005
 8822SOL     OW27364   0.846   7.018   4.522
 8822SOL    HW127365   0.851   6.945   4.590
 8822SOL    HW227366   0.923   0.058   4.535
 8823SOL     OW27367   2.457   0.807   2.283
 8823SOL    HW127368   2.540   0.846   2.325
 8823SOL    HW227369   2.379   0.867   2.302
 8824SOL     OW27370   1.330   1.969   0.509
 8824SOL    HW127371   1.352   2.065   0.526
 8824SOL    HW227372   1.283   1.931   0.588
 8825SOL     OW27373   2.563   1.458   1.465
 8825SOL    HW127374   2.604   1.496   1.382
 8825SOL    HW227375   2.565   1.526   1.538
 8826SOL     OW27376   6.534   3.452   0.089
 8826SOL    HW127377   6.546   3.525   0.156
 8826SOL    HW227378   6.532   3.491   7.019
 8827SOL     OW27379   4.012   1.624   2.165
 8827SOL    HW127380   4.026   1.699   2.100
 8827SOL    HW227381   4.061   1.543   2.134
 8828SOL     OW27382   4.609   6.113   5.668
 8828SOL    HW127383   4.526   6.074   5.628
 8828SOL    HW227384   4.598   6.212   5.677
 8829SOL     OW27385   5.347   3.294   0.896
 8829SOL    HW127386   5.403   3.359   0.844
 8829SOL    HW227387   5.295   3.237   0.832
 8830SOL     OW27388   1.646   1.734   2.911
 8830SOL    HW127389   1.631   1.644   2.871
 8830SOL    HW227390   1.586   1.801   2.867
 8831SOL     OW27391   3.792   2.136   4.335
 8831SOL    HW127392   3.829   2.135   4.242
 8831SOL    HW227393   3.864   2.162   4.400
 8832SOL     OW27394   0.384   6.201   2.885
 8832SOL    HW127395   0.406   6.253   2.968
 8832SOL    HW227396   0.350   6.111   2.910
 8833SOL     OW27397   2.627   4.927   5.836
 8833SOL    HW127398   2.622   5.027   5.841
 8833SOL    HW227399   2.550   4.893   5.782
 8834SOL     OW27400   5.445   4.032   4.812
 8834SOL    HW127401   5.363   4.090   4.816
 8834SOL    HW227402   5.487   4.027   4.902
 8835SOL     OW27403   5.204   1.097   5.746
 8835SOL    HW127404   5.299   1.116   5.720
 8835SOL    HW227405   5.142   1.134   5.676
 8836SOL     OW27406   5.075   2.553   0.409
 8836SOL    HW127407   5.155   2.521   0.357
 8836SOL    HW227408   5.044   2.640   0.372
 8837SOL     OW27409   0.158   6.226   2.226
 8837SOL    HW127410   0.173   6.248   2.322
 8837SOL    HW227411   0.134   6.309   2.176
 8838SOL     OW27412   2.246   5.354   3.530
 8838SOL    HW127413   2.237   5.255   3.538
 8838SOL    HW227414   2.173   5.399   3.582
 8839SOL     OW27415   5.893   5.074   2.709
 8839SOL    HW127416   5.898   5.033   2.618
 8839SOL    HW227417   5.985   5.093   2.742
 8840SOL     OW27418   6.870   2.036   2.584
 8840SOL    HW127419   6.788   2.083   2.551
 8840SOL    HW227420   6.952   2.086   2.554
 8841SOL     OW27421   0.665   0.802   5.253
 8841SOL    HW127422   0.612   0.885   5.239
 8841SOL    HW227423   0.725   0.787   5.175
 8842SOL     OW27424   3.204   2.938   2.641
 8842SOL    HW127425   3.214   2.913   2.545
 8842SOL    HW227426   3.285   2.908   2.692
 8843SOL     OW27427   1.884   3.492   5.359
 8843SOL    HW127428   1.862   3.430   5.283
 8843SOL    HW227429   1.931   3.441   5.431
 8844SOL     OW27430   0.167   1.313   6.303
 8844SOL    HW127431   0.119   1.259   6.233
 8844SOL    HW227432   0.223   1.383   6.258
 8845SOL     OW27433   3.690   3.519   0.889
 8845SOL    HW127434   3.639   3.433   0.894
 8845SOL    HW227435   3.787   3.499   0.872
 8846SOL     OW27436   3.615   5.519   4.003
 8846SOL    HW127437   3.687   5.521   4.072
 8846SOL    HW227438   3.657   5.522   3.912
 8847SOL     OW27439   2.687   0.746   3.131
 8847SOL    HW127440   2.752   0.717   3.201
 8847SOL    HW227441   2.623   0.813   3.169
 8848SOL     OW27442   2.748   1.813   2.218
 8848SOL    HW127443   2.847   1.803   2.231
 8848SOL    HW227444   2.709   1.863   2.295
 8849SOL     OW27445   2.911   6.511   3.543
 8849SOL    HW127446   2.863   6.424   3.547
 8849SOL    HW227447   2.846   6.586   3.552
 8850SOL     OW27448   1.166   1.816   6.969
 8850SOL    HW127449   1.099   1.801   6.896
 8850SOL    HW227450   1.129   1.783   0.033
 8851SOL     OW27451   1.516   4.467   2.747
 8851SOL    HW127452   1.561   4.385   2.713
 8851SOL    HW227453   1.427   4.442   2.785
 8852SOL     OW27454   5.361   3.092   5.247
 8852SOL    HW127455   5.341   3.002   5.208
 8852SOL    HW227456   5.289   3.156   5.223
 8853SOL     OW27457   2.582   1.009   0.971
 8853SOL    HW127458   2.632   1.096   0.975
 8853SOL    HW227459   2.498   1.017   1.025
 8854SOL     OW27460   3.167   2.377   5.755
 8854SOL    HW127461   3.179   2.283   5.722
 8854SOL    HW227462   3.116   2.430   5.687
 8855SOL     OW27463   0.134   5.480   1.497
 8855SOL    HW127464   0.151   5.413   1.425
 8855SOL    HW227465   0.204   5.551   1.493
 8856SOL     OW27466   0.251   6.260   6.332
 8856SOL    HW127467   0.156   6.271   6.360
 8856SOL    HW227468   0.258   6.186   6.265
 8857SOL     OW27469   6.289   1.882   4.409
 8857SOL    HW127470   6.290   1.814   4.337
 8857SOL    HW227471   6.241   1.964   4.377
 8858SOL     OW27472   0.701   3.310   5.549
 8858SOL    HW127473   0.760   3.345   5.476
 8858SOL    HW227474   0.741   3.226   5.587
 8859SOL     OW27475   0.399   0.214   4.141
 8859SOL    HW127476   0.380   0.183   4.048
 8859SOL    HW227477   0.496   0.203   4.161
 8860SOL     OW27478   6.751   2.648   2.879
 8860SOL    HW127479   6.768   2.549   2.884
 8860SOL    HW227480   6.838   2.697   2.881
 8861SOL     OW27481   4.319   1.514   6.106
 8861SOL    HW127482   4.269   1.560   6.032
 8861SOL    HW227483   4.381   1.447   6.067
 8862SOL     OW27484   5.351   0.252   3.916
 8862SOL    HW127485   5.448   0.270   3.902
 8862SOL    HW227486   5.334   0.154   3.910
 8863SOL     OW27487   2.058   4.833   4.427
 8863SOL    HW127488   1.977   4.775   4.433
 8863SOL    HW227489   2.049   4.895   4.350
 8864SOL     OW27490   3.047   4.892   6.448
 8864SOL    HW127491   3.134   4.934   6.476
 8864SOL    HW227492   3.066   4.812   6.391
 8865SOL     OW27493   3.044   0.112   5.682
 8865SOL    HW127494   2.998   0.167   5.751
 8865SOL    HW227495   2.979   0.085   5.611
 8866SOL     OW27496   5.107   0.227   2.825
 8866SOL    HW127497   5.034   0.174   2.781
 8866SOL    HW227498   5.151   0.171   2.896
 8867SOL     OW27499   5.780   4.188   2.967
 8867SOL    HW127500   5.832   4.201   3.051
 8867SOL    HW227501   5.744   4.094   2.964
 8868SOL     OW27502   6.580   2.511   1.221
 8868SOL    HW127503   6.592   2.607   1.196
 8868SOL    HW227504   6.483   2.493   1.239
 8869SOL     OW27505   4.310   5.568   5.068
 8869SOL    HW127506   4.328   5.495   5.002
 8869SOL    HW227507   4.396   5.607   5.099
 8870SOL     OW27508   2.787   0.394   0.740
 8870SOL    HW127509   2.743   0.472   0.695
 8870SOL    HW227510   2.798   0.320   0.674
 8871SOL     OW27511   2.542   1.253   4.013
 8871SOL    HW127512   2.581   1.333   3.967
 8871SOL    HW227513   2.453   1.278   4.051
 8872SOL     OW27514   1.349   4.514   4.888
 8872SOL    HW127515   1.253   4.504   4.863
 8872SOL    HW227516   1.404   4.450   4.834
 8873SOL     OW27517   0.312   6.529   1.961
 8873SOL    HW127518   0.340   6.620   1.932
 8873SOL    HW227519   0.268   6.482   1.884
 8874SOL     OW27520   2.144   6.578   2.803
 8874SOL    HW127521   2.126   6.490   2.846
 8874SOL    HW227522   2.150   6.567   2.704
 8875SOL     OW27523   0.126   3.646   5.181
 8875SOL    HW127524   0.206   3.703   5.197
 8875SOL    HW227525   0.156   3.555   5.152
 8876SOL     OW27526   2.183   6.457   5.441
 8876SOL    HW127527   2.114   6.408   5.387
 8876SOL    HW227528   2.148   6.548   5.464
 8877SOL     OW27529   2.998   2.209   4.408
 8877SOL    HW127530   2.948   2.243   4.329
 8877SOL    HW227531   2.951   2.237   4.492
 8878SOL     OW27532   6.312   4.757   0.394
 8878SOL    HW127533   6.373   4.678   0.386
 8878SOL    HW227534   6.351   4.834   0.344
 8879SOL     OW27535   4.949   4.790   2.946
 8879SOL    HW127536   4.855   4.798   2.980
 8879SOL    HW227537   4.988   4.882   2.935
 8880SOL     OW27538   4.879   6.534   4.819
 8880SOL    HW127539   4.881   6.439   4.791
 8880SOL    HW227540   4.784   6.563   4.835
 8881SOL     OW27541   4.912   6.766   3.932
 8881SOL    HW127542   4.999   6.716   3.925
 8881SOL    HW227543   4.918   6.831   4.008
 8882SOL     OW27544   5.172   1.040   1.141
 8882SOL    HW127545   5.251   1.017   1.083
 8882SOL    HW227546   5.094   0.985   1.113
 8883SOL     OW27547   1.549   6.218   6.238
 8883SOL    HW127548   1.541   6.294   6.302
 8883SOL    HW227549   1.460   6.174   6.226
 8884SOL     OW27550   6.641   4.176   5.275
 8884SOL    HW127551   6.662   4.153   5.180
 8884SOL    HW227552   6.580   4.256   5.277
 8885SOL     OW27553   6.053   4.119   1.659
 8885SOL    HW127554   6.004   4.087   1.741
 8885SOL    HW227555   6.098   4.041   1.615
 8886SOL     OW27556   3.096   6.177   4.674
 8886SOL    HW127557   3.159   6.128   4.734
 8886SOL    HW227558   3.148   6.230   4.607
 8887SOL     OW27559   3.815   0.524   0.275
 8887SOL    HW127560   3.736   0.481   0.319
 8887SOL    HW227561   3.897   0.470   0.295
 8888SOL     OW27562   1.810   1.625   5.654
 8888SOL    HW127563   1.907   1.616   5.630
 8888SOL    HW227564   1.794   1.589   5.746
 8889SOL     OW27565   6.607   0.310   0.209
 8889SOL    HW127566   6.668   0.332   0.133
 8889SOL    HW227567   6.543   0.239   0.180
 8890SOL     OW27568   0.072   5.818   5.066
 8890SOL    HW127569   0.170   5.798   5.074
 8890SOL    HW227570   0.028   5.809   5.155
 8891SOL     OW27571   4.191   2.987   6.770
 8891SOL    HW127572   4.118   2.926   6.740
 8891SOL    HW227573   4.154   3.053   6.836
 8892SOL     OW27574   3.834   5.513   2.688
 8892SOL    HW127575   3.776   5.487   2.765
 8892SOL    HW227576   3.822   5.610   2.668
 8893SOL     OW27577   0.850   5.452   4.121
 8893SOL    HW127578   0.820   5.368   4.167
 8893SOL    HW227579   0.932   5.487   4.166
 8894SOL     OW27580   3.442   2.608   6.440
 8894SOL    HW127581   3.386   2.542   6.490
 8894SOL    HW227582   3.426   2.597   6.342
 8895SOL     OW27583   6.568   2.906   2.431
 8895SOL    HW127584   6.468   2.897   2.431
 8895SOL    HW227585   6.606   2.847   2.502
 8896SOL     OW27586   2.664   3.315   5.522
 8896SOL    HW127587   2.709   3.260   5.452
 8896SOL    HW227588   2.729   3.334   5.596
 8897SOL     OW27589   2.206   3.121   3.221
 8897SOL    HW127590   2.291   3.170   3.199
 8897SOL    HW227591   2.134   3.148   3.158
 8898SOL     OW27592   5.039   3.694   2.275
 8898SOL    HW127593   5.123   3.714   2.226
 8898SOL    HW227594   4.986   3.627   2.223
 8899SOL     OW27595   1.507   4.696   1.830
 8899SOL    HW127596   1.499   4.614   1.886
 8899SOL    HW227597   1.464   4.773   1.876
 8900SOL     OW27598   5.558   2.840   2.580
 8900SOL    HW127599   5.502   2.866   2.502
 8900SOL    HW227600   5.628   2.775   2.551
 8901SOL     OW27601   1.845   0.788   4.639
 8901SOL    HW127602   1.813   0.825   4.726
 8901SOL    HW227603   1.780   0.812   4.567
 8902SOL     OW27604   1.595   6.593   0.554
 8902SOL    HW127605   1.572   6.544   0.470
 8902SOL    HW227606   1.694   6.599   0.563
 8903SOL     OW27607   0.238   1.831   4.512
 8903SOL    HW127608   0.258   1.775   4.593
 8903SOL    HW227609   0.278   1.787   4.432
 8904SOL     OW27610   6.343   0.578   4.668
 8904SOL    HW127611   6.429   0.527   4.660
 8904SOL    HW227612   6.358   0.659   4.724
 8905SOL     OW27613   1.901   3.942   3.510
 8905SOL    HW127614   1.863   3.961   3.600
 8905SOL    HW227615   1.840   3.979   3.439
 8906SOL     OW27616   0.384   6.136   6.923
 8906SOL    HW127617   0.420   6.064   6.864
 8906SOL    HW227618   0.284   6.131   6.925
 8907SOL     OW27619   2.888   2.694   5.429
 8907SOL    HW127620   2.889   2.781   5.381
 8907SOL    HW227621   2.794   2.662   5.437
 8908SOL     OW27622   1.129   5.092   0.097
 8908SOL    HW127623   1.034   5.061   0.099
 8908SOL    HW227624   1.168   5.075   0.006
 8909SOL     OW27625   2.377   1.331   5.948
 8909SOL    HW127626   2.454   1.286   5.902
 8909SOL    HW227627   2.323   1.263   5.997
 8910SOL     OW27628   0.475   2.960   5.798
 8910SOL    HW127629   0.526   2.912   5.726
 8910SOL    HW227630   0.515   3.051   5.812
 8911SOL     OW27631   4.467   2.177   4.750
 8911SOL    HW127632   4.385   2.144   4.703
 8911SOL    HW227633   4.457   2.274   4.772
 8912SOL     OW27634   3.505   3.609   6.749
 8912SOL    HW127635   3.446   3.667   6.693
 8912SOL    HW227636   3.526   3.655   6.835
 8913SOL     OW27637   4.413   5.580   5.788
 8913SOL    HW127638   4.338   5.514   5.787
 8913SOL    HW227639   4.410   5.635   5.704
 8914SOL     OW27640   4.338   0.074   4.847
 8914SOL    HW127641   4.396   0.146   4.885
 8914SOL    HW227642   4.349   0.073   4.747
 8915SOL     OW27643   0.742   2.627   4.119
 8915SOL    HW127644   0.653   2.604   4.079
 8915SOL    HW227645   0.809   2.558   4.091
 8916SOL     OW27646   6.657   2.801   0.804
 8916SOL    HW127647   6.722   2.728   0.782
 8916SOL    HW227648   6.675   2.881   0.747
 8917SOL     OW27649   6.271   3.288   0.051
 8917SOL    HW127650   6.295   3.199   0.012
 8917SOL    HW227651   6.335   3.310   0.125
 8918SOL     OW27652   6.751   3.749   1.016
 8918SOL    HW127653   6.733   3.785   1.108
 8918SOL    HW227654   6.796   3.661   1.024
 8919SOL     OW27655   3.800   4.311   0.896
 8919SOL    HW127656   3.768   4.246   0.827
 8919SOL    HW227657   3.836   4.262   0.975
 8920SOL     OW27658   0.316   1.123   6.753
 8920SOL    HW127659   0.278   1.118   6.845
 8920SOL    HW227660   0.274   1.199   6.703
 8921SOL     OW27661   1.957   2.257   2.074
 8921SOL    HW127662   1.944   2.216   2.164
 8921SOL    HW227663   2.006   2.193   2.015
 8922SOL     OW27664   4.378   4.886   1.303
 8922SOL    HW127665   4.303   4.820   1.306
 8922SOL    HW227666   4.373   4.946   1.383
 8923SOL     OW27667   1.912   2.188   6.531
 8923SOL    HW127668   1.932   2.248   6.608
 8923SOL    HW227669   1.884   2.098   6.565
 8924SOL     OW27670   4.134   5.872   5.507
 8924SOL    HW127671   4.162   5.783   5.471
 8924SOL    HW227672   4.075   5.859   5.586
 8925SOL     OW27673   1.162   1.439   3.196
 8925SOL    HW127674   1.160   1.531   3.237
 8925SOL    HW227675   1.133   1.372   3.264
 8926SOL     OW27676   6.522   3.069   5.881
 8926SOL    HW127677   6.549   3.072   5.785
 8926SOL    HW227678   6.597   3.031   5.935
 8927SOL     OW27679   0.075   0.883   4.371
 8927SOL    HW127680   0.028   0.802   4.337
 8927SOL    HW227681   0.043   0.964   4.322
 8928SOL     OW27682   1.026   6.645   6.295
 8928SOL    HW127683   0.995   6.672   6.204
 8928SOL    HW227684   0.955   6.664   6.362
 8929SOL     OW27685   5.717   1.965   4.704
 8929SOL    HW127686   5.763   1.978   4.616
 8929SOL    HW227687   5.784   1.976   4.778
 8930SOL     OW27688   2.054   3.400   4.757
 8930SOL    HW127689   1.964   3.409   4.715
 8930SOL    HW227690   2.057   3.318   4.814
 8931SOL     OW27691   2.555   2.968   0.710
 8931SOL    HW127692   2.510   3.041   0.658
 8931SOL    HW227693   2.637   3.003   0.754
 8932SOL     OW27694   6.224   1.299   1.392
 8932SOL    HW127695   6.267   1.371   1.447
 8932SOL    HW227696   6.291   1.262   1.328
 8933SOL     OW27697   2.143   2.653   6.352
 8933SOL    HW127698   2.198   2.611   6.425
 8933SOL    HW227699   2.175   2.620   6.263
 8934SOL     OW27700   3.043   5.174   4.317
 8934SOL    HW127701   3.099   5.128   4.248
 8934SOL    HW227702   2.947   5.169   4.291
 8935SOL     OW27703   0.327   4.359   0.807
 8935SOL    HW127704   0.335   4.364   0.907
 8935SOL    HW227705   0.372   4.277   0.774
 8936SOL     OW27706   1.418   3.156   2.351
 8936SOL    HW127707   1.321   3.133   2.345
 8936SOL    HW227708   1.447   3.201   2.267
 8937SOL     OW27709   0.699   0.221   5.678
 8937SOL    HW127710   0.603   0.239   5.654
 8937SOL    HW227711   0.754   0.217   5.594
 8938SOL     OW27712   0.424   6.710   1.004
 8938SOL    HW127713   0.493   6.739   0.938
 8938SOL    HW227714   0.357   6.650   0.959
 8939SOL     OW27715   5.557   3.973   4.187
 8939SOL    HW127716   5.604   3.939   4.268
 8939SOL    HW227717   5.477   3.915   4.168
 8940SOL     OW27718   6.919   0.940   1.650
 8940SOL    HW127719   6.981   0.871   1.686
 8940SOL    HW227720   6.828   0.928   1.691
 8941SOL     OW27721   5.617   2.549   5.137
 8941SOL    HW127722   5.694   2.605   5.168
 8941SOL    HW227723   5.537   2.568   5.194
 8942SOL     OW27724   6.263   5.511   5.851
 8942SOL    HW127725   6.335   5.505   5.782
 8942SOL    HW227726   6.174   5.518   5.806
 8943SOL     OW27727   3.769   5.460   0.101
 8943SOL    HW127728   3.779   5.523   0.024
 8943SOL    HW227729   3.775   5.366   0.068
 8944SOL     OW27730   5.399   5.531   5.665
 8944SOL    HW127731   5.331   5.576   5.722
 8944SOL    HW227732   5.491   5.558   5.695
 8945SOL     OW27733   1.214   0.767   3.352
 8945SOL    HW127734   1.233   0.850   3.300
 8945SOL    HW227735   1.116   0.747   3.349
 8946SOL     OW27736   2.467   1.566   5.093
 8946SOL    HW127737   2.480   1.505   5.014
 8946SOL    HW227738   2.513   1.653   5.077
 8947SOL     OW27739   2.160   3.049   5.879
 8947SOL    HW127740   2.151   3.148   5.875
 8947SOL    HW227741   2.101   3.013   5.952
 8948SOL     OW27742   5.902   6.102   4.695
 8948SOL    HW127743   5.827   6.064   4.749
 8948SOL    HW227744   5.906   6.055   4.607
 8949SOL     OW27745   2.998   6.229   0.389
 8949SOL    HW127746   3.081   6.193   0.345
 8949SOL    HW227747   2.955   6.157   0.442
 8950SOL     OW27748   4.819   4.053   6.707
 8950SOL    HW127749   4.829   3.959   6.739
 8950SOL    HW227750   4.809   4.053   6.607
 8951SOL     OW27751   1.561   1.441   5.033
 8951SOL    HW127752   1.544   1.345   5.055
 8951SOL    HW227753   1.659   1.454   5.014
 8952SOL     OW27754   1.499   6.016   2.107
 8952SOL    HW127755   1.417   5.986   2.156
 8952SOL    HW227756   1.567   5.942   2.109
 8953SOL     OW27757   1.566   3.971   6.719
 8953SOL    HW127758   1.657   3.935   6.738
 8953SOL    HW227759   1.506   3.953   6.797
 8954SOL     OW27760   0.779   6.786   4.649
 8954SOL    HW127761   0.728   6.722   4.705
 8954SOL    HW227762   0.742   6.785   4.556
 8955SOL     OW27763   0.160   5.355   2.807
 8955SOL    HW127764   0.253   5.318   2.815
 8955SOL    HW227765   0.094   5.280   2.813
 8956SOL     OW27766   2.051   1.254   6.653
 8956SOL    HW127767   2.104   1.300   6.581
 8956SOL    HW227768   2.114   1.221   6.723
 8957SOL     OW27769   2.371   4.604   0.815
 8957SOL    HW127770   2.287   4.646   0.781
 8957SOL    HW227771   2.401   4.532   0.752
 8958SOL     OW27772   0.123   2.081   4.579
 8958SOL    HW127773   0.200   2.127   4.622
 8958SOL    HW227774   0.152   1.990   4.548
 8959SOL     OW27775   1.619   4.316   2.265
 8959SOL    HW127776   1.548   4.272   2.211
 8959SOL    HW227777   1.646   4.255   2.340
 8960SOL     OW27778   4.444   4.982   2.689
 8960SOL    HW127779   4.422   5.077   2.668
 8960SOL    HW227780   4.461   4.932   2.604
 8961SOL     OW27781   2.859   0.847   3.594
 8961SOL    HW127782   2.838   0.856   3.692
 8961SOL    HW227783   2.932   0.911   3.569
 8962SOL     OW27784   6.666   5.642   2.756
 8962SOL    HW127785   6.611   5.647   2.673
 8962SOL    HW227786   6.630   5.707   2.823
 8963SOL     OW27787   4.085   6.741   4.651
 8963SOL    HW127788   4.022   6.667   4.677
 8963SOL    HW227789   4.147   6.709   4.580
 8964SOL     OW27790   5.147   3.828   2.817
 8964SOL    HW127791   5.093   3.830   2.902
 8964SOL    HW227792   5.105   3.766   2.752
 8965SOL     OW27793   2.701   4.478   0.676
 8965SOL    HW127794   2.740   4.394   0.716
 8965SOL    HW227795   2.601   4.472   0.677
 8966SOL     OW27796   0.136   4.263   0.451
 8966SOL    HW127797   0.141   4.333   0.522
 8966SOL    HW227798   0.081   4.186   0.485
 8967SOL     OW27799   4.477   6.943   1.105
 8967SOL    HW127800   4.542   6.986   1.168
 8967SOL    HW227801   4.490   6.981   1.013
 8968SOL     OW27802   4.447   5.586   3.134
 8968SOL    HW127803   4.378   5.554   3.199
 8968SOL    HW227804   4.451   5.523   3.056
 8969SOL     OW27805   5.980   0.914   4.398
 8969SOL    HW127806   5.951   0.819   4.385
 8969SOL    HW227807   6.080   0.918   4.398
 8970SOL     OW27808   2.727   3.074   0.005
 8970SOL    HW127809   2.710   3.046   6.933
 8970SOL    HW227810   2.640   3.087   0.052
 8971SOL     OW27811   6.144   5.037   1.482
 8971SOL    HW127812   6.216   5.004   1.422
 8971SOL    HW227813   6.175   5.032   1.577
 8972SOL     OW27814   5.036   3.846   0.001
 8972SOL    HW127815   5.110   3.781   0.017
 8972SOL    HW227816   4.951   3.796   7.007
 8973SOL     OW27817   0.474   3.183   3.073
 8973SOL    HW127818   0.496   3.203   2.977
 8973SOL    HW227819   0.450   3.267   3.121
 8974SOL     OW27820   1.088   4.447   4.795
 8974SOL    HW127821   1.028   4.526   4.785
 8974SOL    HW227822   1.097   4.401   4.707
 8975SOL     OW27823   1.648   6.379   6.038
 8975SOL    HW127824   1.698   6.415   6.117
 8975SOL    HW227825   1.587   6.306   6.068
 8976SOL     OW27826   0.100   5.412   5.602
 8976SOL    HW127827   0.178   5.462   5.565
 8976SOL    HW227828   0.022   5.473   5.613
 8977SOL     OW27829   6.843   3.162   6.769
 8977SOL    HW127830   6.814   3.120   6.683
 8977SOL    HW227831   6.797   3.116   6.845
 8978SOL     OW27832   5.156   6.417   3.562
 8978SOL    HW127833   5.232   6.381   3.616
 8978SOL    HW227834   5.107   6.486   3.616
 8979SOL     OW27835   0.970   3.819   4.578
 8979SOL    HW127836   1.070   3.806   4.577
 8979SOL    HW227837   0.935   3.801   4.670
 8980SOL     OW27838   3.900   2.893   5.288
 8980SOL    HW127839   3.911   2.951   5.369
 8980SOL    HW227840   3.969   2.821   5.290
 8981SOL     OW27841   4.222   1.061   6.004
 8981SOL    HW127842   4.196   0.975   6.048
 8981SOL    HW227843   4.287   1.042   5.930
 8982SOL     OW27844   0.990   1.873   1.691
 8982SOL    HW127845   1.050   1.877   1.610
 8982SOL    HW227846   1.027   1.808   1.757
 8983SOL     OW27847   1.067   5.659   6.236
 8983SOL    HW127848   1.116   5.571   6.237
 8983SOL    HW227849   0.982   5.650   6.287
 8984SOL     OW27850   6.534   6.858   3.632
 8984SOL    HW127851   6.586   6.807   3.700
 8984SOL    HW227852   6.595   6.917   3.580
 8985SOL     OW27853   2.601   1.986   0.933
 8985SOL    HW127854   2.602   2.086   0.941
 8985SOL    HW227855   2.544   1.947   1.006
 8986SOL     OW27856   4.167   5.042   1.919
 8986SOL    HW127857   4.143   5.096   2.000
 8986SOL    HW227858   4.185   5.104   1.843
 8987SOL     OW27859   5.463   6.806   0.832
 8987SOL    HW127860   5.465   6.731   0.897
 8987SOL    HW227861   5.507   6.778   0.747
 8988SOL     OW27862   1.411   4.112   6.263
 8988SOL    HW127863   1.373   4.038   6.208
 8988SOL    HW227864   1.499   4.084   6.302
 8989SOL     OW27865   5.096   3.941   2.013
 8989SOL    HW127866   5.167   3.874   2.034
 8989SOL    HW227867   5.041   3.959   2.094
 8990SOL     OW27868   2.141   5.616   2.674
 8990SOL    HW127869   2.145   5.704   2.626
 8990SOL    HW227870   2.081   5.624   2.753
 8991SOL     OW27871   1.846   2.072   0.123
 8991SOL    HW127872   1.753   2.094   0.152
 8991SOL    HW227873   1.912   2.121   0.180
 8992SOL     OW27874   6.521   2.060   0.319
 8992SOL    HW127875   6.487   1.973   0.284
 8992SOL    HW227876   6.592   2.096   0.258
 8993SOL     OW27877   4.541   2.350   1.977
 8993SOL    HW127878   4.547   2.257   1.941
 8993SOL    HW227879   4.447   2.382   1.968
 8994SOL     OW27880   1.626   5.134   4.800
 8994SOL    HW127881   1.705   5.092   4.846
 8994SOL    HW227882   1.567   5.062   4.764
 8995SOL     OW27883   0.673   2.404   6.863
 8995SOL    HW127884   0.679   2.317   6.911
 8995SOL    HW227885   0.758   2.420   6.813
 8996SOL     OW27886   6.486   5.183   1.271
 8996SOL    HW127887   6.562   5.135   1.315
 8996SOL    HW227888   6.499   5.282   1.279
 8997SOL     OW27889   4.589   1.197   6.333
 8997SOL    HW127890   4.494   1.213   6.304
 8997SOL    HW227891   4.645   1.277   6.311
 8998SOL     OW27892   6.852   3.724   5.225
 8998SOL    HW127893   6.779   3.663   5.194
 8998SOL    HW227894   6.939   3.675   5.220
 8999SOL     OW27895   4.913   6.475   0.175
 8999SOL    HW127896   4.925   6.573   0.193
 8999SOL    HW227897   4.996   6.438   0.136
 9000SOL     OW27898   2.838   3.928   0.389
 9000SOL    HW127899   2.761   3.894   0.335
 9000SOL    HW227900   2.867   3.857   0.453
 9001SOL     OW27901   1.247   5.108   2.539
 9001SOL    HW127902   1.198   5.108   2.452
 9001SOL    HW227903   1.301   5.192   2.547
 9002SOL     OW27904   7.009   4.867   5.499
 9002SOL    HW127905   0.059   4.847   5.433
 9002SOL    HW227906   6.921   4.871   5.451
 9003SOL     OW27907   5.208   2.971   1.667
 9003SOL    HW127908   5.121   2.934   1.635
 9003SOL    HW227909   5.194   3.018   1.754
 9004SOL     OW27910   4.453   6.306   1.234
 9004SOL    HW127911   4.437   6.405   1.230
 9004SOL    HW227912   4.518   6.280   1.163
 9005SOL     OW27913   4.916   2.381   4.278
 9005SOL    HW127914   4.945   2.367   4.372
 9005SOL    HW227915   4.889   2.476   4.264
 9006SOL     OW27916   2.911   6.537   0.802
 9006SOL    HW127917   2.824   6.542   0.851
 9006SOL    HW227918   2.986   6.560   0.864
 9007SOL     OW27919   4.431   0.941   4.122
 9007SOL    HW127920   4.340   0.898   4.121
 9007SOL    HW227921   4.427   1.026   4.175
 9008SOL     OW27922   0.605   5.795   2.965
 9008SOL    HW127923   0.555   5.810   3.050
 9008SOL    HW227924   0.601   5.878   2.909
 9009SOL     OW27925   2.865   1.298   0.505
 9009SOL    HW127926   2.782   1.347   0.532
 9009SOL    HW227927   2.943   1.335   0.557
 9010SOL     OW27928   1.454   6.457   4.064
 9010SOL    HW127929   1.429   6.490   4.155
 9010SOL    HW227930   1.526   6.388   4.072
 9011SOL     OW27931   4.555   2.394   1.415
 9011SOL    HW127932   4.621   2.464   1.443
 9011SOL    HW227933   4.558   2.384   1.315
 9012SOL     OW27934   2.736   4.154   1.364
 9012SOL    HW127935   2.645   4.168   1.326
 9012SOL    HW227936   2.733   4.163   1.463
 9013SOL     OW27937   6.952   6.363   5.085
 9013SOL    HW127938   6.875   6.326   5.138
 9013SOL    HW227939   6.977   6.297   5.014
 9014SOL     OW27940   0.031   1.549   0.361
 9014SOL    HW127941   0.084   1.526   0.279
 9014SOL    HW227942   0.080   1.618   0.414
 9015SOL     OW27943   5.419   1.910   1.273
 9015SOL    HW127944   5.349   1.980   1.254
 9015SOL    HW227945   5.505   1.937   1.231
 9016SOL     OW27946   0.964   0.040   6.957
 9016SOL    HW127947   1.052   0.085   6.952
 9016SOL    HW227948   0.977   6.963   6.954
 9017SOL     OW27949   4.426   2.032   2.162
 9017SOL    HW127950   4.522   2.026   2.137
 9017SOL    HW227951   4.412   2.111   2.221
 9018SOL     OW27952   3.919   1.870   6.531
 9018SOL    HW127953   3.976   1.842   6.454
 9018SOL    HW227954   3.941   1.964   6.556
 9019SOL     OW27955   1.202   0.127   2.206
 9019SOL    HW127956   1.147   0.049   2.237
 9019SOL    HW227957   1.152   0.212   2.224
 9020SOL     OW27958   0.491   3.621   1.589
 9020SOL    HW127959   0.515   3.716   1.605
 9020SOL    HW227960   0.538   3.588   1.507
 9021SOL     OW27961   6.518   0.830   4.075
 9021SOL    HW127962   6.427   0.810   4.040
 9021SOL    HW227963   6.516   0.834   4.175
 9022SOL     OW27964   2.898   1.807   6.994
 9022SOL    HW127965   2.883   1.803   6.896
 9022SOL    HW227966   2.994   1.827   7.013
 9023SOL     OW27967   3.292   3.708   2.501
 9023SOL    HW127968   3.205   3.710   2.550
 9023SOL    HW227969   3.275   3.687   2.404
 9024SOL     OW27970   0.282   4.979   4.811
 9024SOL    HW127971   0.256   4.888   4.845
 9024SOL    HW227972   0.203   5.021   4.766
 9025SOL     OW27973   0.644   5.197   0.023
 9025SOL    HW127974   0.544   5.197   0.026
 9025SOL    HW227975   0.675   5.240   6.960
 9026SOL     OW27976   4.037   3.289   1.119
 9026SOL    HW127977   4.058   3.275   1.216
 9026SOL    HW227978   4.034   3.201   1.072
 9027SOL     OW27979   1.055   2.224   4.189
 9027SOL    HW127980   1.046   2.125   4.197
 9027SOL    HW227981   1.149   2.251   4.206
 9028SOL     OW27982   2.550   3.542   5.658
 9028SOL    HW127983   2.465   3.592   5.641
 9028SOL    HW227984   2.552   3.460   5.601
 9029SOL     OW27985   3.173   5.951   4.867
 9029SOL    HW127986   3.108   5.983   4.936
 9029SOL    HW227987   3.251   5.907   4.911
 9030SOL     OW27988   2.115   2.332   3.253
 9030SOL    HW127989   2.140   2.425   3.280
 9030SOL    HW227990   2.138   2.318   3.157
 9031SOL     OW27991   4.280   5.795   4.754
 9031SOL    HW127992   4.229   5.800   4.668
 9031SOL    HW227993   4.332   5.710   4.756
 9032SOL     OW27994   3.731   3.523   0.272
 9032SOL    HW127995   3.642   3.570   0.272
 9032SOL    HW227996   3.770   3.525   0.363
 9033SOL     OW27997   0.975   4.502   3.857
 9033SOL    HW127998   0.897   4.498   3.919
 9033SOL    HW227999   0.995   4.598   3.835
 9034SOL     OW28000   2.931   0.444   5.642
 9034SOL    HW128001   2.939   0.540   5.667
 9034SOL    HW228002   2.927   0.388   5.724
 9035SOL     OW28003   1.232   4.665   6.057
 9035SOL    HW128004   1.173   4.711   5.991
 9035SOL    HW228005   1.211   4.698   6.150
 9036SOL     OW28006   2.162   1.137   5.967
 9036SOL    HW128007   2.092   1.194   5.924
 9036SOL    HW228008   2.121   1.049   5.994
 9037SOL     OW28009   1.753   3.905   5.420
 9037SOL    HW128010   1.694   3.830   5.452
 9037SOL    HW228011   1.849   3.880   5.435
 9038SOL     OW28012   4.371   6.792   6.185
 9038SOL    HW128013   4.377   6.750   6.094
 9038SOL    HW228014   4.385   6.722   6.255
 9039SOL     OW28015   3.012   4.855   5.162
 9039SOL    HW128016   2.943   4.806   5.110
 9039SOL    HW228017   3.059   4.791   5.223
 9040SOL     OW28018   3.046   2.044   2.958
 9040SOL    HW128019   3.038   2.071   2.863
 9040SOL    HW228020   2.987   2.102   3.015
 9041SOL     OW28021   1.042   2.228   1.789
 9041SOL    HW128022   1.060   2.129   1.788
 9041SOL    HW228023   0.971   2.248   1.856
 9042SOL     OW28024   3.337   0.230   3.957
 9042SOL    HW128025   3.396   0.279   4.022
 9042SOL    HW228026   3.300   0.295   3.890
 9043SOL     OW28027   1.796   1.405   6.701
 9043SOL    HW128028   1.783   1.355   6.615
 9043SOL    HW228029   1.889   1.389   6.735
 9044SOL     OW28030   5.537   0.958   1.018
 9044SOL    HW128031   5.565   0.964   1.114
 9044SOL    HW228032   5.513   0.864   0.996
 9045SOL     OW28033   2.274   1.182   2.474
 9045SOL    HW128034   2.300   1.138   2.560
 9045SOL    HW228035   2.283   1.116   2.400
 9046SOL     OW28036   3.444   3.605   3.691
 9046SOL    HW128037   3.445   3.506   3.704
 9046SOL    HW228038   3.532   3.634   3.652
 9047SOL     OW28039   1.114   3.042   5.969
 9047SOL    HW128040   1.150   3.010   6.057
 9047SOL    HW228041   1.031   2.990   5.947
 9048SOL     OW28042   5.664   2.022   6.299
 9048SOL    HW128043   5.614   2.100   6.262
 9048SOL    HW228044   5.626   1.996   6.388
 9049SOL     OW28045   3.640   6.968   6.010
 9049SOL    HW128046   3.568   6.971   6.079
 9049SOL    HW228047   3.629   6.886   5.953
 9050SOL     OW28048   0.355   3.545   0.152
 9050SOL    HW128049   0.445   3.519   0.187
 9050SOL    HW228050   0.311   3.465   0.111
 9051SOL     OW28051   4.379   6.226   0.875
 9051SOL    HW128052   4.473   6.261   0.871
 9051SOL    HW228053   4.328   6.259   0.796
 9052SOL     OW28054   1.973   2.533   4.387
 9052SOL    HW128055   2.007   2.626   4.371
 9052SOL    HW228056   1.980   2.511   4.484
 9053SOL     OW28057   1.899   1.406   3.023
 9053SOL    HW128058   1.945   1.493   3.004
 9053SOL    HW228059   1.810   1.404   2.976
 9054SOL     OW28060   1.573   6.195   2.616
 9054SOL    HW128061   1.486   6.148   2.600
 9054SOL    HW228062   1.645   6.151   2.562
 9055SOL     OW28063   5.986   3.022   4.027
 9055SOL    HW128064   6.006   2.986   3.936
 9055SOL    HW228065   5.894   2.992   4.054
 9056SOL     OW28066   0.842   0.948   2.173
 9056SOL    HW128067   0.815   1.034   2.130
 9056SOL    HW228068   0.766   0.884   2.170
 9057SOL     OW28069   5.628   5.321   5.729
 9057SOL    HW128070   5.702   5.284   5.672
 9057SOL    HW228071   5.637   5.420   5.736
 9058SOL     OW28072   2.395   1.833   3.005
 9058SOL    HW128073   2.386   1.746   2.956
 9058SOL    HW228074   2.315   1.847   3.062
 9059SOL     OW28075   1.079   2.175   4.547
 9059SOL    HW128076   1.105   2.255   4.600
 9059SOL    HW228077   1.142   2.164   4.470
 9060SOL     OW28078   6.026   2.986   3.462
 9060SOL    HW128079   5.965   2.917   3.501
 9060SOL    HW228080   5.979   3.074   3.458
 9061SOL     OW28081   2.277   5.483   1.834
 9061SOL    HW128082   2.191   5.433   1.829
 9061SOL    HW228083   2.260   5.576   1.867
 9062SOL     OW28084   1.916   6.049   1.912
 9062SOL    HW128085   1.817   6.049   1.903
 9062SOL    HW228086   1.957   6.083   1.827
 9063SOL     OW28087   2.023   6.873   2.687
 9063SOL    HW128088   1.947   6.936   2.675
 9063SOL    HW228089   2.045   6.865   2.784
 9064SOL     OW28090   6.329   2.592   5.712
 9064SOL    HW128091   6.256   2.610   5.645
 9064SOL    HW228092   6.371   2.504   5.693
 9065SOL     OW28093   3.258   6.649   5.779
 9065SOL    HW128094   3.181   6.600   5.738
 9065SOL    HW228095   3.240   6.748   5.775
 9066SOL     OW28096   5.088   6.090   0.424
 9066SOL    HW128097   5.089   6.190   0.423
 9066SOL    HW228098   5.036   6.058   0.504
 9067SOL     OW28099   6.333   0.659   4.397
 9067SOL    HW128100   6.351   0.602   4.477
 9067SOL    HW228101   6.384   0.744   4.405
 9068SOL     OW28102   2.531   6.791   4.984
 9068SOL    HW128103   2.542   6.810   4.886
 9068SOL    HW228104   2.621   6.786   5.027
 9069SOL     OW28105   1.862   2.670   2.086
 9069SOL    HW128106   1.932   2.741   2.084
 9069SOL    HW228107   1.788   2.698   2.148
 9070SOL     OW28108   1.617   4.214   4.790
 9070SOL    HW128109   1.568   4.156   4.855
 9070SOL    HW228110   1.562   4.294   4.767
 9071SOL     OW28111   5.353   7.006   1.022
 9071SOL    HW128112   5.348   0.066   0.966
 9071SOL    HW228113   5.397   6.933   0.970
 9072SOL     OW28114   0.336   1.561   1.997
 9072SOL    HW128115   0.247   1.516   2.004
 9072SOL    HW228116   0.404   1.508   2.048
 9073SOL     OW28117   3.509   6.918   2.393
 9073SOL    HW128118   3.430   6.873   2.434
 9073SOL    HW228119   3.502   7.017   2.408
 9074SOL     OW28120   2.246   1.270   1.959
 9074SOL    HW128121   2.239   1.361   1.918
 9074SOL    HW228122   2.341   1.253   1.984
 9075SOL     OW28123   1.566   0.945   2.882
 9075SOL    HW128124   1.647   1.001   2.901
 9075SOL    HW228125   1.574   0.904   2.791
 9076SOL     OW28126   5.997   2.522   5.040
 9076SOL    HW128127   6.089   2.556   5.058
 9076SOL    HW228128   5.931   2.573   5.095
 9077SOL     OW28129   5.333   0.054   0.617
 9077SOL    HW128130   5.405   0.071   0.684
 9077SOL    HW228131   5.362   7.005   0.554
 9078SOL     OW28132   4.437   3.818   6.228
 9078SOL    HW128133   4.407   3.892   6.167
 9078SOL    HW228134   4.484   3.748   6.174
 9079SOL     OW28135   3.444   0.398   4.132
 9079SOL    HW128136   3.373   0.385   4.201
 9079SOL    HW228137   3.429   0.484   4.084
 9080SOL     OW28138   4.636   2.661   6.825
 9080SOL    HW128139   4.681   2.720   6.758
 9080SOL    HW228140   4.703   2.600   6.867
 9081SOL     OW28141   3.598   6.362   2.583
 9081SOL    HW128142   3.510   6.405   2.562
 9081SOL    HW228143   3.583   6.267   2.609
 9082SOL     OW28144   2.145   0.551   5.782
 9082SOL    HW128145   2.112   0.457   5.773
 9082SOL    HW228146   2.215   0.555   5.853
 9083SOL     OW28147   2.915   5.942   6.112
 9083SOL    HW128148   2.871   5.864   6.157
 9083SOL    HW228149   2.955   5.912   6.025
 9084SOL     OW28150   2.901   3.601   4.445
 9084SOL    HW128151   2.960   3.665   4.396
 9084SOL    HW228152   2.934   3.507   4.431
 9085SOL     OW28153   2.898   5.591   1.267
 9085SOL    HW128154   2.899   5.557   1.362
 9085SOL    HW228155   2.819   5.652   1.255
 9086SOL     OW28156   1.355   4.300   0.393
 9086SOL    HW128157   1.387   4.303   0.299
 9086SOL    HW228158   1.432   4.288   0.455
 9087SOL     OW28159   4.958   2.814   1.589
 9087SOL    HW128160   4.949   2.744   1.519
 9087SOL    HW228161   4.886   2.883   1.576
 9088SOL     OW28162   6.339   6.574   0.819
 9088SOL    HW128163   6.260   6.576   0.881
 9088SOL    HW228164   6.357   6.480   0.790
 9089SOL     OW28165   5.065   5.993   5.389
 9089SOL    HW128166   5.003   6.070   5.407
 9089SOL    HW228167   5.106   6.005   5.298
 9090SOL     OW28168   0.032   1.203   3.920
 9090SOL    HW128169   6.958   1.226   3.905
 9090SOL    HW228170   0.082   1.286   3.944
 9091SOL     OW28171   3.350   4.297   7.017
 9091SOL    HW128172   3.319   4.355   0.071
 9091SOL    HW228173   3.309   4.331   6.932
 9092SOL     OW28174   0.226   1.143   0.293
 9092SOL    HW128175   0.303   1.159   0.355
 9092SOL    HW228176   0.169   1.069   0.330
 9093SOL     OW28177   1.295   6.457   5.634
 9093SOL    HW128178   1.357   6.430   5.561
 9093SOL    HW228179   1.345   6.508   5.703
 9094SOL     OW28180   6.685   5.060   2.825
 9094SOL    HW128181   6.784   5.057   2.814
 9094SOL    HW228182   6.662   5.087   2.918
 9095SOL     OW28183   5.081   4.615   5.812
 9095SOL    HW128184   5.038   4.688   5.759
 9095SOL    HW228185   5.180   4.623   5.805
 9096SOL     OW28186   6.023   4.416   2.466
 9096SOL    HW128187   6.056   4.322   2.480
 9096SOL    HW228188   5.979   4.448   2.550
 9097SOL     OW28189   1.150   1.504   1.129
 9097SOL    HW128190   1.082   1.434   1.152
 9097SOL    HW228191   1.242   1.465   1.139
 9098SOL     OW28192   3.503   1.623   5.202
 9098SOL    HW128193   3.462   1.712   5.185
 9098SOL    HW228194   3.590   1.617   5.153
 9099SOL     OW28195   3.471   2.484   5.574
 9099SOL    HW128196   3.383   2.528   5.593
 9099SOL    HW228197   3.511   2.525   5.492
 9100SOL     OW28198   0.111   3.250   3.296
 9100SOL    HW128199   0.055   3.332   3.307
 9100SOL    HW228200   0.208   3.274   3.300
 9101SOL     OW28201   2.710   2.366   2.555
 9101SOL    HW128202   2.735   2.356   2.459
 9101SOL    HW228203   2.792   2.386   2.609
 9102SOL     OW28204   3.126   6.205   1.620
 9102SOL    HW128205   3.100   6.255   1.537
 9102SOL    HW228206   3.086   6.114   1.617
 9103SOL     OW28207   6.740   3.078   6.494
 9103SOL    HW128208   6.763   3.156   6.436
 9103SOL    HW228209   6.655   3.036   6.463
 9104SOL     OW28210   0.225   5.892   2.374
 9104SOL    HW128211   0.262   5.970   2.425
 9104SOL    HW228212   0.166   5.926   2.300
 9105SOL     OW28213   0.837   1.249   6.232
 9105SOL    HW128214   0.743   1.221   6.254
 9105SOL    HW228215   0.893   1.243   6.315
 9106SOL     OW28216   6.780   3.475   1.144
 9106SOL    HW128217   6.681   3.470   1.158
 9106SOL    HW228218   6.824   3.513   1.225
 9107SOL     OW28219   2.694   0.660   6.693
 9107SOL    HW128220   2.654   0.752   6.697
 9107SOL    HW228221   2.691   0.626   6.599
 9108SOL     OW28222   5.229   4.777   5.072
 9108SOL    HW128223   5.218   4.692   5.020
 9108SOL    HW228224   5.140   4.819   5.087
 9109SOL     OW28225   6.609   3.365   3.369
 9109SOL    HW128226   6.645   3.457   3.385
 9109SOL    HW228227   6.520   3.371   3.325
 9110SOL     OW28228   1.919   5.007   4.234
 9110SOL    HW128229   1.839   5.012   4.293
 9110SOL    HW228230   1.917   5.082   4.168
 9111SOL     OW28231   5.417   2.203   0.427
 9111SOL    HW128232   5.463   2.269   0.368
 9111SOL    HW228233   5.475   2.123   0.440
 9112SOL     OW28234   1.188   5.499   2.676
 9112SOL    HW128235   1.132   5.434   2.727
 9112SOL    HW228236   1.280   5.463   2.665
 9113SOL     OW28237   4.673   2.649   2.764
 9113SOL    HW128238   4.627   2.562   2.744
 9113SOL    HW228239   4.660   2.711   2.686
 9114SOL     OW28240   0.676   5.423   3.505
 9114SOL    HW128241   0.632   5.511   3.520
 9114SOL    HW228242   0.617   5.350   3.540
 9115SOL     OW28243   6.508   5.983   4.679
 9115SOL    HW128244   6.601   6.019   4.681
 9115SOL    HW228245   6.446   6.054   4.643
 9116SOL     OW28246   0.501   0.126   2.768
 9116SOL    HW128247   0.532   0.212   2.729
 9116SOL    HW228248   0.419   0.142   2.823
 9117SOL     OW28249   3.694   2.886   5.672
 9117SOL    HW128250   3.648   2.807   5.713
 9117SOL    HW228251   3.677   2.886   5.573
 9118SOL     OW28252   6.923   3.406   0.229
 9118SOL    HW128253   6.973   3.490   0.250
 9118SOL    HW228254   6.976   3.327   0.260
 9119SOL     OW28255   4.132   0.908   2.455
 9119SOL    HW128256   4.116   0.813   2.480
 9119SOL    HW228257   4.051   0.962   2.476
 9120SOL     OW28258   6.761   1.909   5.452
 9120SOL    HW128259   6.713   1.984   5.407
 9120SOL    HW228260   6.761   1.924   5.551
 9121SOL     OW28261   3.699   6.426   4.609
 9121SOL    HW128262   3.787   6.424   4.563
 9121SOL    HW228263   3.674   6.334   4.638
 9122SOL     OW28264   2.404   4.339   1.971
 9122SOL    HW128265   2.413   4.284   1.889
 9122SOL    HW228266   2.468   4.416   1.968
 9123SOL     OW28267   2.147   0.831   4.762
 9123SOL    HW128268   2.214   0.842   4.688
 9123SOL    HW228269   2.056   0.815   4.723
 9124SOL     OW28270   4.399   5.359   0.264
 9124SOL    HW128271   4.314   5.401   0.231
 9124SOL    HW228272   4.477   5.412   0.230
 9125SOL     OW28273   3.963   4.486   0.814
 9125SOL    HW128274   3.983   4.556   0.882
 9125SOL    HW228275   3.889   4.427   0.846
 9126SOL     OW28276   6.188   3.249   1.384
 9126SOL    HW128277   6.261   3.295   1.435
 9126SOL    HW228278   6.161   3.305   1.306
 9127SOL     OW28279   6.469   1.518   6.097
 9127SOL    HW128280   6.524   1.441   6.129
 9127SOL    HW228281   6.527   1.585   6.051
 9128SOL     OW28282   6.180   2.413   5.321
 9128SOL    HW128283   6.182   2.475   5.243
 9128SOL    HW228284   6.094   2.362   5.321
 9129SOL     OW28285   6.701   2.121   0.139
 9129SOL    HW128286   6.623   2.155   0.085
 9129SOL    HW228287   6.748   2.050   0.088
 9130SOL     OW28288   1.407   4.359   6.548
 9130SOL    HW128289   1.370   4.333   6.637
 9130SOL    HW228290   1.496   4.314   6.535
 9131SOL     OW28291   5.198   3.387   6.277
 9131SOL    HW128292   5.269   3.330   6.318
 9131SOL    HW228293   5.141   3.427   6.349
 9132SOL     OW28294   0.998   5.838   4.233
 9132SOL    HW128295   0.911   5.839   4.184
 9132SOL    HW228296   1.005   5.753   4.286
 9133SOL     OW28297   3.842   6.379   1.394
 9133SOL    HW128298   3.895   6.464   1.401
 9133SOL    HW228299   3.814   6.351   1.486
 9134SOL     OW28300   4.024   5.065   1.167
 9134SOL    HW128301   3.938   5.107   1.196
 9134SOL    HW228302   4.101   5.120   1.199
 9135SOL     OW28303   0.636   0.191   1.301
 9135SOL    HW128304   0.734   0.215   1.299
 9135SOL    HW228305   0.587   0.249   1.236
 9136SOL     OW28306   4.926   6.120   6.310
 9136SOL    HW128307   4.832   6.148   6.326
 9136SOL    HW228308   4.946   6.125   6.212
 9137SOL     OW28309   3.799   0.473   6.578
 9137SOL    HW128310   3.703   0.447   6.584
 9137SOL    HW228311   3.852   0.396   6.543
 9138SOL     OW28312   0.026   4.594   6.456
 9138SOL    HW128313   0.113   4.545   6.448
 9138SOL    HW228314   6.980   4.535   6.500
 9139SOL     OW28315   1.541   1.117   2.663
 9139SOL    HW128316   1.626   1.168   2.655
 9139SOL    HW228317   1.522   1.099   2.760
 9140SOL     OW28318   0.646   3.770   2.053
 9140SOL    HW128319   0.723   3.728   2.100
 9140SOL    HW228320   0.567   3.709   2.058
 9141SOL     OW28321   6.037   6.346   1.560
 9141SOL    HW128322   6.032   6.443   1.582
 9141SOL    HW228323   6.016   6.293   1.642
 9142SOL     OW28324   0.550   3.923   1.607
 9142SOL    HW128325   0.460   3.916   1.562
 9142SOL    HW228326   0.573   4.020   1.618
 9143SOL     OW28327   6.600   3.244   0.500
 9143SOL    HW128328   6.558   3.335   0.502
 9143SOL    HW228329   6.544   3.181   0.553
 9144SOL     OW28330   3.329   5.177   5.116
 9144SOL    HW128331   3.288   5.237   5.047
 9144SOL    HW228332   3.301   5.083   5.099
 9145SOL     OW28333   0.686   6.296   6.400
 9145SOL    HW128334   0.690   6.237   6.481
 9145SOL    HW228335   0.649   6.385   6.425
 9146SOL     OW28336   5.119   3.256   2.844
 9146SOL    HW128337   5.115   3.164   2.883
 9146SOL    HW228338   5.206   3.298   2.868
 9147SOL     OW28339   0.101   0.430   5.321
 9147SOL    HW128340   0.039   0.497   5.361
 9147SOL    HW228341   0.085   0.424   5.223
 9148SOL     OW28342   5.157   6.483   2.470
 9148SOL    HW128343   5.153   6.479   2.570
 9148SOL    HW228344   5.077   6.436   2.432
 9149SOL     OW28345   5.502   3.941   2.103
 9149SOL    HW128346   5.500   4.030   2.150
 9149SOL    HW228347   5.533   3.954   2.009
 9150SOL     OW28348   3.568   4.991   0.680
 9150SOL    HW128349   3.594   4.895   0.666
 9150SOL    HW228350   3.638   5.037   0.735
 9151SOL     OW28351   1.937   4.573   3.784
 9151SOL    HW128352   1.859   4.513   3.768
 9151SOL    HW228353   1.974   4.557   3.875
 9152SOL     OW28354   2.235   4.276   4.407
 9152SOL    HW128355   2.213   4.182   4.383
 9152SOL    HW228356   2.274   4.280   4.499
 9153SOL     OW28357   0.265   2.494   6.640
 9153SOL    HW128358   0.266   2.520   6.543
 9153SOL    HW228359   0.206   2.557   6.690
 9154SOL     OW28360   4.778   4.369   4.664
 9154SOL    HW128361   4.848   4.439   4.677
 9154SOL    HW228362   4.711   4.374   4.738
 9155SOL     OW28363   2.592   5.031   2.375
 9155SOL    HW128364   2.669   4.984   2.332
 9155SOL    HW228365   2.506   4.992   2.344
 9156SOL     OW28366   6.484   1.663   1.395
 9156SOL    HW128367   6.457   1.576   1.437
 9156SOL    HW228368   6.533   1.719   1.461
 9157SOL     OW28369   3.483   3.872   0.065
 9157SOL    HW128370   3.572   3.906   0.096
 9157SOL    HW228371   3.443   3.938   0.001
 9158SOL     OW28372   6.703   3.914   4.132
 9158SOL    HW128373   6.727   4.011   4.120
 9158SOL    HW228374   6.749   3.878   4.212
 9159SOL     OW28375   2.369   0.403   3.698
 9159SOL    HW128376   2.424   0.339   3.644
 9159SOL    HW228377   2.272   0.393   3.673
 9160SOL     OW28378   0.375   6.355   5.853
 9160SOL    HW128379   0.447   6.381   5.917
 9160SOL    HW228380   0.301   6.308   5.902
 9161SOL     OW28381   6.843   4.688   3.043
 9161SOL    HW128382   6.764   4.749   3.049
 9161SOL    HW228383   6.872   4.682   2.947
 9162SOL     OW28384   4.032   0.032   2.580
 9162SOL    HW128385   3.938   0.049   2.551
 9162SOL    HW228386   4.042   0.053   2.677
 9163SOL     OW28387   6.986   3.436   3.495
 9163SOL    HW128388   6.915   3.480   3.549
 9163SOL    HW228389   0.006   3.503   3.434
 9164SOL     OW28390   1.968   0.579   6.756
 9164SOL    HW128391   1.951   0.671   6.792
 9164SOL    HW228392   1.969   0.513   6.831
 9165SOL     OW28393   4.906   2.104   6.154
 9165SOL    HW128394   4.852   2.061   6.225
 9165SOL    HW228395   4.903   2.049   6.070
 9166SOL     OW28396   4.711   5.455   1.016
 9166SOL    HW128397   4.752   5.389   1.078
 9166SOL    HW228398   4.643   5.409   0.958
 9167SOL     OW28399   1.555   2.418   6.246
 9167SOL    HW128400   1.611   2.436   6.326
 9167SOL    HW228401   1.601   2.353   6.186
 9168SOL     OW28402   6.952   6.327   6.446
 9168SOL    HW128403   6.934   6.396   6.516
 9168SOL    HW228404   6.943   6.368   6.356
 9169SOL     OW28405   0.163   6.656   6.209
 9169SOL    HW128406   0.118   6.701   6.286
 9169SOL    HW228407   0.258   6.636   6.232
 9170SOL     OW28408   2.038   0.070   6.277
 9170SOL    HW128409   2.011   7.011   6.329
 9170SOL    HW228410   1.982   0.148   6.306
 9171SOL     OW28411   3.580   5.956   0.530
 9171SOL    HW128412   3.614   5.960   0.624
 9171SOL    HW228413   3.555   6.048   0.499
 9172SOL     OW28414   4.273   1.615   4.070
 9172SOL    HW128415   4.233   1.526   4.091
 9172SOL    HW228416   4.204   1.675   4.030
 9173SOL     OW28417   5.771   3.253   5.170
 9173SOL    HW128418   5.809   3.169   5.134
 9173SOL    HW228419   5.813   3.274   5.259
 9174SOL     OW28420   0.792   5.835   6.851
 9174SOL    HW128421   0.787   5.817   6.753
 9174SOL    HW228422   0.813   5.749   6.899
 9175SOL     OW28423   1.454   0.337   6.951
 9175SOL    HW128424   1.493   0.406   7.012
 9175SOL    HW228425   1.398   0.382   6.881
 9176SOL     OW28426   2.774   0.011   1.854
 9176SOL    HW128427   2.724   6.993   1.778
 9176SOL    HW228428   2.829   0.088   1.821
 9177SOL     OW28429   1.577   2.605   4.064
 9177SOL    HW128430   1.497   2.648   4.107
 9177SOL    HW228431   1.588   2.641   3.971
 9178SOL     OW28432   1.829   5.871   6.535
 9178SOL    HW128433   1.850   5.808   6.609
 9178SOL    HW228434   1.861   5.832   6.448
 9179SOL     OW28435   1.810   5.715   4.999
 9179SOL    HW128436   1.710   5.711   5.003
 9179SOL    HW228437   1.838   5.754   4.912
 9180SOL     OW28438   6.358   2.813   3.175
 9180SOL    HW128439   6.258   2.818   3.168
 9180SOL    HW228440   6.394   2.769   3.093
 9181SOL     OW28441   4.777   2.862   3.663
 9181SOL    HW128442   4.723   2.823   3.738
 9181SOL    HW228443   4.756   2.960   3.655
 9182SOL     OW28444   3.518   0.276   3.089
 9182SOL    HW128445   3.460   0.196   3.104
 9182SOL    HW228446   3.593   0.275   3.155
 9183SOL     OW28447   5.008   4.248   6.767
 9183SOL    HW128448   5.102   4.212   6.767
 9183SOL    HW228449   4.945   4.175   6.742
 9184SOL     OW28450   3.594   2.111   0.665
 9184SOL    HW128451   3.519   2.176   0.675
 9184SOL    HW228452   3.645   2.132   0.581
 9185SOL     OW28453   0.196   6.961   5.592
 9185SOL    HW128454   0.154   6.901   5.660
 9185SOL    HW228455   0.198   6.915   5.503
 9186SOL     OW28456   5.428   1.064   5.597
 9186SOL    HW128457   5.415   1.161   5.575
 9186SOL    HW228458   5.355   1.010   5.555
 9187SOL     OW28459   4.776   2.034   0.198
 9187SOL    HW128460   4.692   1.980   0.196
 9187SOL    HW228461   4.761   2.122   0.153
 9188SOL     OW28462   1.589   0.352   1.910
 9188SOL    HW128463   1.643   0.409   1.973
 9188SOL    HW228464   1.650   0.289   1.863
 9189SOL     OW28465   2.869   6.791   3.267
 9189SOL    HW128466   2.950   6.792   3.325
 9189SOL    HW228467   2.871   6.710   3.208
 9190SOL     OW28468   0.167   3.340   5.425
 9190SOL    HW128469   0.164   3.327   5.525
 9190SOL    HW228470   0.262   3.351   5.396
 9191SOL     OW28471   5.837   0.747   6.789
 9191SOL    HW128472   5.881   0.712   6.872
 9191SOL    HW228473   5.749   0.702   6.777
 9192SOL     OW28474   6.110   2.995   5.572
 9192SOL    HW128475   6.143   3.017   5.480
 9192SOL    HW228476   6.145   3.063   5.637
 9193SOL     OW28477   3.775   3.754   4.004
 9193SOL    HW128478   3.685   3.757   4.048
 9193SOL    HW228479   3.839   3.811   4.055
 9194SOL     OW28480   3.982   6.111   2.009
 9194SOL    HW128481   3.996   6.166   1.927
 9194SOL    HW228482   3.905   6.049   1.995
 9195SOL     OW28483   1.727   2.903   3.340
 9195SOL    HW128484   1.640   2.927   3.299
 9195SOL    HW228485   1.775   2.987   3.367
 9196SOL     OW28486   5.601   0.356   3.635
 9196SOL    HW128487   5.505   0.335   3.654
 9196SOL    HW228488   5.622   0.448   3.668
 9197SOL     OW28489   3.524   5.558   0.175
 9197SOL    HW128490   3.568   5.604   0.252
 9197SOL    HW228491   3.592   5.501   0.127
 9198SOL     OW28492   5.940   4.612   6.369
 9198SOL    HW128493   6.008   4.561   6.317
 9198SOL    HW228494   5.853   4.564   6.366
 9199SOL     OW28495   0.118   2.868   6.467
 9199SOL    HW128496   0.162   2.938   6.410
 9199SOL    HW228497   0.141   2.885   6.563
 9200SOL     OW28498   2.275   5.666   6.438
 9200SOL    HW128499   2.304   5.682   6.532
 9200SOL    HW228500   2.220   5.583   6.433
 9201SOL     OW28501   0.298   3.167   0.857
 9201SOL    HW128502   0.329   3.256   0.891
 9201SOL    HW228503   0.326   3.095   0.921
 9202SOL     OW28504   1.367   6.061   3.549
 9202SOL    HW128505   1.441   6.021   3.603
 9202SOL    HW228506   1.279   6.025   3.580
 9203SOL     OW28507   5.304   2.824   6.212
 9203SOL    HW128508   5.311   2.775   6.299
 9203SOL    HW228509   5.240   2.776   6.152
 9204SOL     OW28510   4.799   3.980   3.918
 9204SOL    HW128511   4.852   3.901   3.949
 9204SOL    HW228512   4.794   3.980   3.818
 9205SOL     OW28513   5.027   5.049   2.891
 9205SOL    HW128514   5.049   5.039   2.794
 9205SOL    HW228515   5.058   5.139   2.923
 9206SOL     OW28516   3.259   0.164   3.604
 9206SOL    HW128517   3.341   0.114   3.630
 9206SOL    HW228518   3.228   0.219   3.682
 9207SOL     OW28519   3.644   5.431   6.487
 9207SOL    HW128520   3.572   5.500   6.474
 9207SOL    HW228521   3.660   5.417   6.584
 9208SOL     OW28522   5.529   4.247   2.182
 9208SOL    HW128523   5.571   4.288   2.101
 9208SOL    HW228524   5.596   4.244   2.256
 9209SOL     OW28525   4.030   0.347   1.740
 9209SOL    HW128526   4.094   0.303   1.803
 9209SOL    HW228527   4.079   0.384   1.661
 9210SOL     OW28528   0.878   0.895   1.399
 9210SOL    HW128529   0.854   0.824   1.466
 9210SOL    HW228530   0.848   0.984   1.432
 9211SOL     OW28531   5.409   3.323   6.402
 9211SOL    HW128532   5.425   3.396   6.469
 9211SOL    HW228533   5.469   3.246   6.421
 9212SOL     OW28534   5.210   4.334   5.186
 9212SOL    HW128535   5.133   4.308   5.127
 9212SOL    HW228536   5.255   4.252   5.221
 9213SOL     OW28537   5.201   5.714   4.304
 9213SOL    HW128538   5.118   5.666   4.331
 9213SOL    HW228539   5.210   5.798   4.356
 9214SOL     OW28540   0.205   2.677   5.268
 9214SOL    HW128541   0.304   2.662   5.261
 9214SOL    HW228542   0.167   2.690   5.176
 9215SOL     OW28543   0.997   4.770   3.096
 9215SOL    HW128544   1.024   4.756   3.191
 9215SOL    HW228545   1.049   4.846   3.058
 9216SOL     OW28546   2.802   6.882   4.493
 9216SOL    HW128547   2.804   6.855   4.589
 9216SOL    HW228548   2.711   6.867   4.455
 9217SOL     OW28549   6.036   2.161   0.011
 9217SOL    HW128550   6.062   2.245   6.985
 9217SOL    HW228551   5.960   2.117   6.984
 9218SOL     OW28552   3.726   1.093   6.843
 9218SOL    HW128553   3.685   1.012   6.883
 9218SOL    HW228554   3.659   1.140   6.786
 9219SOL     OW28555   4.257   3.483   5.888
 9219SOL    HW128556   4.178   3.424   5.869
 9219SOL    HW228557   4.225   3.575   5.911
 9220SOL     OW28558   1.415   6.150   2.838
 9220SOL    HW128559   1.501   6.162   2.789
 9220SOL    HW228560   1.401   6.228   2.900
 9221SOL     OW28561   2.883   0.173   4.694
 9221SOL    HW128562   2.849   0.149   4.603
 9221SOL    HW228563   2.930   0.261   4.690
 9222SOL     OW28564   2.304   4.666   5.142
 9222SOL    HW128565   2.402   4.660   5.126
 9222SOL    HW228566   2.255   4.650   5.056
 9223SOL     OW28567   1.057   2.936   4.180
 9223SOL    HW128568   1.155   2.946   4.195
 9223SOL    HW228569   1.013   2.906   4.265
 9224SOL     OW28570   1.452   4.265   3.477
 9224SOL    HW128571   1.352   4.270   3.482
 9224SOL    HW228572   1.490   4.357   3.468
 9225SOL     OW28573   4.246   5.363   6.165
 9225SOL    HW128574   4.266   5.451   6.209
 9225SOL    HW228575   4.158   5.369   6.118
 9226SOL     OW28576   0.740   0.534   1.320
 9226SOL    HW128577   0.643   0.513   1.307
 9226SOL    HW228578   0.762   0.619   1.272
 9227SOL     OW28579   1.858   6.146   1.658
 9227SOL    HW128580   1.766   6.183   1.655
 9227SOL    HW228581   1.895   6.141   1.565
 9228SOL     OW28582   2.059   2.275   0.064
 9228SOL    HW128583   2.044   2.256   6.989
 9228SOL    HW228584   2.092   2.193   0.109
 9229SOL     OW28585   0.656   4.980   5.894
 9229SOL    HW128586   0.676   5.076   5.874
 9229SOL    HW228587   0.724   4.945   5.959
 9230SOL     OW28588   5.043   3.316   2.442
 9230SOL    HW128589   4.990   3.246   2.489
 9230SOL    HW228590   4.988   3.354   2.367
 9231SOL     OW28591   0.403   3.823   4.888
 9231SOL    HW128592   0.436   3.828   4.982
 9231SOL    HW228593   0.330   3.890   4.874
 9232SOL     OW28594   3.059   5.439   0.840
 9232SOL    HW128595   3.086   5.346   0.814
 9232SOL    HW228596   3.044   5.443   0.938
 9233SOL     OW28597   0.270   6.905   0.795
 9233SOL    HW128598   0.220   6.900   0.882
 9233SOL    HW228599   0.218   6.960   0.730
 9234SOL     OW28600   2.054   5.982   0.578
 9234SOL    HW128601   1.971   5.927   0.572
 9234SOL    HW228602   2.062   6.038   0.495
 9235SOL     OW28603   1.914   3.217   3.205
 9235SOL    HW128604   1.954   3.182   3.289
 9235SOL    HW228605   1.816   3.196   3.203
 9236SOL     OW28606   2.638   3.664   6.487
 9236SOL    HW128607   2.637   3.743   6.548
 9236SOL    HW228608   2.728   3.620   6.491
 9237SOL     OW28609   0.773   5.667   2.619
 9237SOL    HW128610   0.789   5.713   2.706
 9237SOL    HW228611   0.824   5.713   2.546
 9238SOL     OW28612   2.823   2.376   5.718
 9238SOL    HW128613   2.832   2.291   5.770
 9238SOL    HW228614   2.797   2.450   5.780
 9239SOL     OW28615   6.972   4.434   6.809
 9239SOL    HW128616   6.949   4.420   6.712
 9239SOL    HW228617   0.022   4.502   6.817
 9240SOL     OW28618   5.089   2.702   2.054
 9240SOL    HW128619   5.017   2.768   2.029
 9240SOL    HW228620   5.053   2.639   2.123
 9241SOL     OW28621   0.334   5.863   0.686
 9241SOL    HW128622   0.383   5.811   0.616
 9241SOL    HW228623   0.399   5.915   0.741
 9242SOL     OW28624   1.903   3.351   1.845
 9242SOL    HW128625   1.809   3.366   1.875
 9242SOL    HW228626   1.907   3.269   1.787
 9243SOL     OW28627   0.389   0.632   1.794
 9243SOL    HW128628   0.356   0.630   1.700
 9243SOL    HW228629   0.487   0.649   1.795
 9244SOL     OW28630   2.870   6.266   6.104
 9244SOL    HW128631   2.965   6.267   6.134
 9244SOL    HW228632   2.853   6.185   6.047
 9245SOL     OW28633   0.602   4.209   3.812
 9245SOL    HW128634   0.511   4.166   3.811
 9245SOL    HW228635   0.592   4.308   3.819
 9246SOL     OW28636   5.600   0.617   3.308
 9246SOL    HW128637   5.592   0.612   3.408
 9246SOL    HW228638   5.594   0.525   3.270
 9247SOL     OW28639   3.353   5.325   2.330
 9247SOL    HW128640   3.368   5.413   2.375
 9247SOL    HW228641   3.438   5.294   2.288
 9248SOL     OW28642   3.059   2.189   4.832
 9248SOL    HW128643   2.978   2.237   4.797
 9248SOL    HW228644   3.077   2.219   4.926
 9249SOL     OW28645   4.870   5.304   1.960
 9249SOL    HW128646   4.947   5.251   1.996
 9249SOL    HW228647   4.892   5.335   1.868
 9250SOL     OW28648   6.696   2.871   3.838
 9250SOL    HW128649   6.609   2.824   3.851
 9250SOL    HW228650   6.719   2.871   3.741
 9251SOL     OW28651   3.839   1.850   2.157
 9251SOL    HW128652   3.829   1.929   2.219
 9251SOL    HW228653   3.901   1.784   2.198
 9252SOL     OW28654   5.706   0.636   4.949
 9252SOL    HW128655   5.617   0.621   4.904
 9252SOL    HW228656   5.713   0.732   4.976
 9253SOL     OW28657   5.396   5.488   5.406
 9253SOL    HW128658   5.396   5.502   5.505
 9253SOL    HW228659   5.318   5.537   5.366
 9254SOL     OW28660   4.393   4.604   2.754
 9254SOL    HW128661   4.465   4.634   2.691
 9254SOL    HW228662   4.400   4.505   2.767
 9255SOL     OW28663   5.089   3.710   0.324
 9255SOL    HW128664   5.154   3.737   0.253
 9255SOL    HW228665   5.084   3.780   0.394
 9256SOL     OW28666   2.506   0.125   2.200
 9256SOL    HW128667   2.429   0.171   2.156
 9256SOL    HW228668   2.473   0.045   2.250
 9257SOL     OW28669   5.757   5.386   3.764
 9257SOL    HW128670   5.778   5.409   3.859
 9257SOL    HW228671   5.809   5.445   3.703
 9258SOL     OW28672   4.124   3.646   1.849
 9258SOL    HW128673   4.130   3.724   1.786
 9258SOL    HW228674   4.137   3.561   1.798
 9259SOL     OW28675   1.942   1.237   0.730
 9259SOL    HW128676   1.984   1.328   0.726
 9259SOL    HW228677   1.907   1.220   0.822
 9260SOL     OW28678   6.716   2.697   5.900
 9260SOL    HW128679   6.731   2.790   5.933
 9260SOL    HW228680   6.649   2.651   5.960
 9261SOL     OW28681   4.555   1.479   6.534
 9261SOL    HW128682   4.522   1.474   6.628
 9261SOL    HW228683   4.478   1.484   6.472
 9262SOL     OW28684   0.506   6.134   5.065
 9262SOL    HW128685   0.594   6.159   5.025
 9262SOL    HW228686   0.432   6.174   5.011
 9263SOL     OW28687   3.070   5.598   2.393
 9263SOL    HW128688   2.992   5.600   2.455
 9263SOL    HW228689   3.060   5.523   2.328
 9264SOL     OW28690   4.718   3.863   0.447
 9264SOL    HW128691   4.726   3.763   0.445
 9264SOL    HW228692   4.754   3.901   0.362
 9265SOL     OW28693   3.782   2.459   0.430
 9265SOL    HW128694   3.871   2.502   0.415
 9265SOL    HW228695   3.767   2.446   0.528
 9266SOL     OW28696   0.807   6.132   1.185
 9266SOL    HW128697   0.728   6.089   1.229
 9266SOL    HW228698   0.836   6.076   1.107
 9267SOL     OW28699   0.288   2.089   4.301
 9267SOL    HW128700   0.355   2.041   4.358
 9267SOL    HW228701   0.215   2.025   4.274
 9268SOL     OW28702   1.029   0.001   2.560
 9268SOL    HW128703   0.942   0.023   2.605
 9268SOL    HW228704   1.013   7.009   2.462
 9269SOL     OW28705   4.506   0.278   6.199
 9269SOL    HW128706   4.419   0.310   6.162
 9269SOL    HW228707   4.535   0.196   6.151
 9270SOL     OW28708   3.919   6.954   5.869
 9270SOL    HW128709   3.828   6.916   5.882
 9270SOL    HW228710   3.938   7.020   5.941
 9271SOL     OW28711   6.247   0.392   0.316
 9271SOL    HW128712   6.326   0.453   0.309
 9271SOL    HW228713   6.264   0.323   0.386
 9272SOL     OW28714   1.092   6.333   6.648
 9272SOL    HW128715   1.191   6.324   6.653
 9272SOL    HW228716   1.052   6.247   6.616
 9273SOL     OW28717   6.508   6.140   3.487
 9273SOL    HW128718   6.465   6.157   3.575
 9273SOL    HW228719   6.449   6.081   3.432
 9274SOL     OW28720   0.018   2.221   0.077
 9274SOL    HW128721   0.003   2.150   0.145
 9274SOL    HW228722   0.039   2.179   7.011
 9275SOL     OW28723   6.405   0.887   0.498
 9275SOL    HW128724   6.502   0.876   0.516
 9275SOL    HW228725   6.378   0.982   0.515
 9276SOL     OW28726   1.824   4.969   0.384
 9276SOL    HW128727   1.904   4.965   0.444
 9276SOL    HW228728   1.806   4.878   0.345
 9277SOL     OW28729   4.417   5.109   2.179
 9277SOL    HW128730   4.355   5.036   2.209
 9277SOL    HW228731   4.373   5.161   2.106
 9278SOL     OW28732   1.947   0.633   5.930
 9278SOL    HW128733   2.008   0.643   5.852
 9278SOL    HW228734   1.952   0.540   5.966
 9279SOL     OW28735   3.446   6.546   1.750
 9279SOL    HW128736   3.513   6.553   1.823
 9279SOL    HW228737   3.420   6.638   1.719
 9280SOL     OW28738   2.563   1.025   2.673
 9280SOL    HW128739   2.623   0.970   2.732
 9280SOL    HW228740   2.468   1.004   2.693
 9281SOL     OW28741   2.922   4.634   0.002
 9281SOL    HW128742   3.000   4.682   0.042
 9281SOL    HW228743   2.929   4.636   6.925
 9282SOL     OW28744   5.227   1.345   3.491
 9282SOL    HW128745   5.219   1.251   3.460
 9282SOL    HW228746   5.322   1.375   3.484
 9283SOL     OW28747   5.426   0.633   4.769
 9283SOL    HW128748   5.358   0.574   4.724
 9283SOL    HW228749   5.422   0.725   4.729
 9284SOL     OW28750   3.009   3.391   5.380
 9284SOL    HW128751   2.993   3.423   5.286
 9284SOL    HW228752   3.003   3.468   5.443
 9285SOL     OW28753   4.904   3.780   1.134
 9285SOL    HW128754   4.833   3.850   1.149
 9285SOL    HW228755   4.870   3.692   1.166
 9286SOL     OW28756   5.386   5.312   0.832
 9286SOL    HW128757   5.332   5.228   0.843
 9286SOL    HW228758   5.423   5.317   0.740
 9287SOL     OW28759   3.711   4.658   6.213
 9287SOL    HW128760   3.760   4.734   6.170
 9287SOL    HW228761   3.633   4.632   6.157
 9288SOL     OW28762   4.354   1.585   2.173
 9288SOL    HW128763   4.340   1.550   2.266
 9288SOL    HW228764   4.442   1.633   2.169
 9289SOL     OW28765   4.601   0.713   0.890
 9289SOL    HW128766   4.655   0.797   0.892
 9289SOL    HW228767   4.562   0.701   0.799
 9290SOL     OW28768   5.876   1.106   3.774
 9290SOL    HW128769   5.976   1.098   3.785
 9290SOL    HW228770   5.849   1.067   3.686
 9291SOL     OW28771   1.307   5.457   5.715
 9291SOL    HW128772   1.291   5.523   5.642
 9291SOL    HW228773   1.340   5.504   5.797
 9292SOL     OW28774   2.437   2.086   6.752
 9292SOL    HW128775   2.500   2.013   6.727
 9292SOL    HW228776   2.418   2.082   6.850
 9293SOL     OW28777   5.504   4.156   6.609
 9293SOL    HW128778   5.487   4.088   6.538
 9293SOL    HW228779   5.602   4.178   6.611
 9294SOL     OW28780   5.272   1.427   6.569
 9294SOL    HW128781   5.260   1.337   6.611
 9294SOL    HW228782   5.186   1.456   6.526
 9295SOL     OW28783   5.828   0.558   5.562
 9295SOL    HW128784   5.830   0.638   5.502
 9295SOL    HW228785   5.737   0.517   5.560
 9296SOL     OW28786   1.900   4.745   0.210
 9296SOL    HW128787   1.862   4.743   0.118
 9296SOL    HW228788   1.980   4.685   0.215
 9297SOL     OW28789   0.698   0.067   3.230
 9297SOL    HW128790   0.740   0.065   3.321
 9297SOL    HW228791   0.723   0.152   3.184
 9298SOL     OW28792   1.217   6.009   5.944
 9298SOL    HW128793   1.231   6.100   5.906
 9298SOL    HW228794   1.181   5.948   5.873
 9299SOL     OW28795   0.771   1.787   4.592
 9299SOL    HW128796   0.748   1.751   4.502
 9299SOL    HW228797   0.687   1.802   4.644
 9300SOL     OW28798   0.259   5.045   5.530
 9300SOL    HW128799   0.274   4.948   5.510
 9300SOL    HW228800   0.177   5.076   5.482
 9301SOL     OW28801   6.377   5.305   4.801
 9301SOL    HW128802   6.380   5.212   4.837
 9301SOL    HW228803   6.313   5.360   4.854
 9302SOL     OW28804   2.144   3.525   4.507
 9302SOL    HW128805   2.143   3.480   4.596
 9302SOL    HW228806   2.160   3.458   4.435
 9303SOL     OW28807   2.886   3.611   0.818
 9303SOL    HW128808   2.898   3.659   0.905
 9303SOL    HW228809   2.927   3.520   0.825
 9304SOL     OW28810   4.433   5.229   0.565
 9304SOL    HW128811   4.484   5.266   0.487
 9304SOL    HW228812   4.490   5.161   0.612
 9305SOL     OW28813   3.633   0.873   0.697
 9305SOL    HW128814   3.639   0.775   0.676
 9305SOL    HW228815   3.539   0.896   0.721
 9306SOL     OW28816   1.446   4.311   5.184
 9306SOL    HW128817   1.484   4.240   5.242
 9306SOL    HW228818   1.346   4.301   5.179
 9307SOL     OW28819   1.172   3.543   0.696
 9307SOL    HW128820   1.117   3.622   0.669
 9307SOL    HW228821   1.114   3.462   0.701
 9308SOL     OW28822   1.273   3.941   2.069
 9308SOL    HW128823   1.368   3.967   2.051
 9308SOL    HW228824   1.243   3.876   1.999
 9309SOL     OW28825   3.857   6.275   5.976
 9309SOL    HW128826   3.931   6.208   5.965
 9309SOL    HW228827   3.772   6.237   5.942
 9310SOL     OW28828   5.844   6.286   5.648
 9310SOL    HW128829   5.804   6.355   5.588
 9310SOL    HW228830   5.930   6.319   5.684
 9311SOL     OW28831   5.434   4.425   1.472
 9311SOL    HW128832   5.441   4.473   1.559
 9311SOL    HW228833   5.381   4.480   1.408
 9312SOL     OW28834   1.660   2.165   0.900
 9312SOL    HW128835   1.738   2.161   0.962
 9312SOL    HW228836   1.679   2.111   0.818
 9313SOL     OW28837   6.623   0.343   1.736
 9313SOL    HW128838   6.589   0.250   1.749
 9313SOL    HW228839   6.712   0.340   1.690
 9314SOL     OW28840   6.406   3.445   0.387
 9314SOL    HW128841   6.404   3.454   0.287
 9314SOL    HW228842   6.344   3.512   0.428
 9315SOL     OW28843   6.413   0.063   5.644
 9315SOL    HW128844   6.385   0.135   5.707
 9315SOL    HW228845   6.487   0.097   5.585
 9316SOL     OW28846   6.067   0.130   5.374
 9316SOL    HW128847   6.033   0.222   5.394
 9316SOL    HW228848   5.990   0.065   5.375
 9317SOL     OW28849   4.112   5.361   3.029
 9317SOL    HW128850   4.209   5.377   3.012
 9317SOL    HW228851   4.060   5.442   3.003
 9318SOL     OW28852   5.451   6.889   0.129
 9318SOL    HW128853   5.421   6.804   0.173
 9318SOL    HW228854   5.372   6.935   0.088
 9319SOL     OW28855   2.545   2.398   1.300
 9319SOL    HW128856   2.626   2.456   1.303
 9319SOL    HW228857   2.490   2.412   1.382
 9320SOL     OW28858   4.539   0.470   5.360
 9320SOL    HW128859   4.487   0.407   5.303
 9320SOL    HW228860   4.584   0.538   5.302
 9321SOL     OW28861   0.889   1.084   5.086
 9321SOL    HW128862   0.915   1.180   5.071
 9321SOL    HW228863   0.833   1.077   5.168
 9322SOL     OW28864   6.960   4.778   0.152
 9322SOL    HW128865   6.954   4.696   0.094
 9322SOL    HW228866   6.888   4.842   0.127
 9323SOL     OW28867   1.684   1.106   4.908
 9323SOL    HW128868   1.631   1.132   4.988
 9323SOL    HW228869   1.673   1.008   4.892
 9324SOL     OW28870   1.976   3.750   2.735
 9324SOL    HW128871   2.006   3.714   2.823
 9324SOL    HW228872   1.970   3.676   2.669
 9325SOL     OW28873   6.836   6.886   0.696
 9325SOL    HW128874   6.853   6.793   0.663
 9325SOL    HW228875   6.919   6.922   0.739
 9326SOL     OW28876   2.841   4.961   7.019
 9326SOL    HW128877   2.858   4.874   0.043
 9326SOL    HW228878   2.925   5.015   7.017
 9327SOL     OW28879   3.942   6.750   2.574
 9327SOL    HW128880   3.955   6.848   2.566
 9327SOL    HW228881   3.850   6.726   2.546
 9328SOL     OW28882   1.780   0.656   5.043
 9328SOL    HW128883   1.799   0.651   5.141
 9328SOL    HW228884   1.783   0.564   5.004
 9329SOL     OW28885   6.955   5.295   1.228
 9329SOL    HW128886   0.027   5.322   1.209
 9329SOL    HW228887   6.945   5.276   1.325
 9330SOL     OW28888   7.013   0.066   5.795
 9330SOL    HW128889   0.014   6.992   5.780
 9330SOL    HW228890   6.968   0.075   5.884
 9331SOL     OW28891   2.166   1.596   6.244
 9331SOL    HW128892   2.211   1.686   6.245
 9331SOL    HW228893   2.177   1.555   6.153
 9332SOL     OW28894   4.549   5.501   0.552
 9332SOL    HW128895   4.645   5.483   0.535
 9332SOL    HW228896   4.527   5.477   0.647
 9333SOL     OW28897   4.197   5.132   6.311
 9333SOL    HW128898   4.219   5.219   6.265
 9333SOL    HW228899   4.266   5.114   6.381
 9334SOL     OW28900   4.894   6.765   4.320
 9334SOL    HW128901   4.852   6.829   4.256
 9334SOL    HW228902   4.836   6.756   4.402
 9335SOL     OW28903   1.618   1.604   6.937
 9335SOL    HW128904   1.649   1.698   6.921
 9335SOL    HW228905   1.522   1.596   6.910
 9336SOL     OW28906   5.127   6.907   4.530
 9336SOL    HW128907   5.072   6.890   4.448
 9336SOL    HW228908   5.080   6.870   4.610
 9337SOL     OW28909   5.052   1.214   5.954
 9337SOL    HW128910   4.960   1.175   5.952
 9337SOL    HW228911   5.105   1.179   5.877
 9338SOL     OW28912   6.398   6.300   0.797
 9338SOL    HW128913   6.431   6.266   0.884
 9338SOL    HW228914   6.449   6.258   0.722
 9339SOL     OW28915   5.925   5.974   0.184
 9339SOL    HW128916   5.903   5.901   0.249
 9339SOL    HW228917   5.873   6.056   0.207
 9340SOL     OW28918   3.790   4.855   2.759
 9340SOL    HW128919   3.715   4.827   2.818
 9340SOL    HW228920   3.755   4.874   2.667
 9341SOL     OW28921   6.352   4.399   0.810
 9341SOL    HW128922   6.444   4.429   0.835
 9341SOL    HW228923   6.343   4.395   0.710
 9342SOL     OW28924   2.476   0.641   4.555
 9342SOL    HW128925   2.407   0.591   4.501
 9342SOL    HW228926   2.563   0.639   4.507
 9343SOL     OW28927   4.858   3.972   1.849
 9343SOL    HW128928   4.818   4.055   1.887
 9343SOL    HW228929   4.899   3.918   1.922
 9344SOL     OW28930   5.331   5.579   0.809
 9344SOL    HW128931   5.244   5.586   0.857
 9344SOL    HW228932   5.373   5.490   0.828
 9345SOL     OW28933   6.884   4.643   2.326
 9345SOL    HW128934   6.970   4.648   2.275
 9345SOL    HW228935   6.903   4.638   2.424
 9346SOL     OW28936   4.607   0.159   1.977
 9346SOL    HW128937   4.544   0.176   2.053
 9346SOL    HW228938   4.701   0.168   2.009
 9347SOL     OW28939   2.862   5.998   0.447
 9347SOL    HW128940   2.866   5.898   0.444
 9347SOL    HW228941   2.858   6.028   0.542
 9348SOL     OW28942   2.781   5.757   2.434
 9348SOL    HW128943   2.793   5.817   2.354
 9348SOL    HW228944   2.723   5.680   2.408
 9349SOL     OW28945   6.583   5.274   2.630
 9349SOL    HW128946   6.674   5.234   2.621
 9349SOL    HW228947   6.556   5.315   2.544
 9350SOL     OW28948   6.559   1.756   4.220
 9350SOL    HW128949   6.611   1.671   4.211
 9350SOL    HW228950   6.466   1.743   4.186
 9351SOL     OW28951   3.021   0.263   6.292
 9351SOL    HW128952   3.111   0.243   6.253
 9351SOL    HW228953   2.969   0.319   6.227
 9352SOL     OW28954   3.206   2.573   5.978
 9352SOL    HW128955   3.157   2.660   5.968
 9352SOL    HW228956   3.164   2.504   5.918
 9353SOL     OW28957   2.131   4.386   0.876
 9353SOL    HW128958   2.178   4.301   0.896
 9353SOL    HW228959   2.122   4.441   0.959
 9354SOL     OW28960   6.471   1.856   6.898
 9354SOL    HW128961   6.492   1.948   6.932
 9354SOL    HW228962   6.391   1.861   6.837
 9355SOL     OW28963   6.377   2.155   4.801
 9355SOL    HW128964   6.289   2.164   4.847
 9355SOL    HW228965   6.363   2.152   4.702
 9356SOL     OW28966   4.732   5.879   1.431
 9356SOL    HW128967   4.762   5.847   1.342
 9356SOL    HW228968   4.639   5.916   1.424
 9357SOL     OW28969   3.020   3.156   6.210
 9357SOL    HW128970   3.055   3.184   6.299
 9357SOL    HW228971   2.933   3.107   6.222
 9358SOL     OW28972   6.482   3.433   2.318
 9358SOL    HW128973   6.571   3.472   2.293
 9358SOL    HW228974   6.473   3.342   2.279
 9359SOL     OW28975   1.111   3.499   6.114
 9359SOL    HW128976   1.151   3.415   6.077
 9359SOL    HW228977   1.052   3.541   6.046
 9360SOL     OW28978   1.172   6.897   6.095
 9360SOL    HW128979   1.176   6.887   5.995
 9360SOL    HW228980   1.110   6.973   6.118
 9361SOL     OW28981   1.700   6.188   3.543
 9361SOL    HW128982   1.622   6.134   3.575
 9361SOL    HW228983   1.671   6.251   3.471
 9362SOL     OW28984   1.383   2.310   2.097
 9362SOL    HW128985   1.400   2.383   2.162
 9362SOL    HW228986   1.316   2.340   2.029
 9363SOL     OW28987   3.944   5.712   1.929
 9363SOL    HW128988   3.952   5.772   1.849
 9363SOL    HW228989   3.848   5.697   1.949
 9364SOL     OW28990   4.090   2.760   5.812
 9364SOL    HW128991   3.990   2.764   5.816
 9364SOL    HW228992   4.123   2.685   5.870
 9365SOL     OW28993   2.318   1.942   4.972
 9365SOL    HW128994   2.294   2.024   4.921
 9365SOL    HW228995   2.246   1.873   4.961
 9366SOL     OW28996   3.448   0.312   0.053
 9366SOL    HW128997   3.455   0.407   0.021
 9366SOL    HW228998   3.377   0.265   0.000
 9367SOL     OW28999   6.672   6.183   2.647
 9367SOL    HW129000   6.751   6.146   2.697
 9367SOL    HW229001   6.704   6.246   2.576
 9368SOL     OW29002   2.737   1.477   3.858
 9368SOL    HW129003   2.750   1.408   3.787
 9368SOL    HW229004   2.799   1.554   3.842
 9369SOL     OW29005   0.122   0.171   4.866
 9369SOL    HW129006   0.221   0.189   4.873
 9369SOL    HW229007   0.105   0.103   4.795
 9370SOL     OW29008   4.593   6.966   2.414
 9370SOL    HW129009   4.496   6.983   2.433
 9370SOL    HW229010   4.646   0.026   2.435
 9371SOL     OW29011   2.148   4.813   0.775
 9371SOL    HW129012   2.117   4.754   0.700
 9371SOL    HW229013   2.133   4.908   0.750
 9372SOL     OW29014   5.005   5.907   2.965
 9372SOL    HW129015   4.953   5.825   2.940
 9372SOL    HW229016   5.103   5.888   2.954
 9373SOL     OW29017   4.089   2.049   2.268
 9373SOL    HW129018   4.032   2.058   2.350
 9373SOL    HW229019   4.145   1.967   2.275
 9374SOL     OW29020   0.647   2.876   0.888
 9374SOL    HW129021   0.713   2.828   0.830
 9374SOL    HW229022   0.609   2.812   0.955
 9375SOL     OW29023   6.274   1.673   2.910
 9375SOL    HW129024   6.246   1.578   2.901
 9375SOL    HW229025   6.215   1.719   2.977
 9376SOL     OW29026   2.482   4.181   0.803
 9376SOL    HW129027   2.501   4.105   0.865
 9376SOL    HW229028   2.509   4.155   0.710
 9377SOL     OW29029   2.094   5.534   4.070
 9377SOL    HW129030   2.040   5.587   4.136
 9377SOL    HW229031   2.169   5.488   4.118
 9378SOL     OW29032   1.256   1.244   5.189
 9378SOL    HW129033   1.179   1.274   5.133
 9378SOL    HW229034   1.222   1.203   5.274
 9379SOL     OW29035   4.381   6.206   4.747
 9379SOL    HW129036   4.307   6.177   4.809
 9379SOL    HW229037   4.426   6.286   4.785
 9380SOL     OW29038   5.694   5.000   4.941
 9380SOL    HW129039   5.713   5.097   4.951
 9380SOL    HW229040   5.597   4.986   4.924
 9381SOL     OW29041   3.405   2.846   5.821
 9381SOL    HW129042   3.325   2.797   5.857
 9381SOL    HW229043   3.386   2.876   5.727
 9382SOL     OW29044   3.613   0.957   3.048
 9382SOL    HW129045   3.684   0.982   3.113
 9382SOL    HW229046   3.552   1.035   3.032
 9383SOL     OW29047   1.790   5.872   4.544
 9383SOL    HW129048   1.856   5.856   4.470
 9383SOL    HW229049   1.743   5.959   4.528
 9384SOL     OW29050   2.857   6.872   1.582
 9384SOL    HW129051   2.764   6.902   1.603
 9384SOL    HW229052   2.915   6.882   1.663
 9385SOL     OW29053   3.886   0.652   2.849
 9385SOL    HW129054   3.822   0.581   2.819
 9385SOL    HW229055   3.854   0.741   2.815
 9386SOL     OW29056   2.318   6.469   5.167
 9386SOL    HW129057   2.273   6.388   5.128
 9386SOL    HW229058   2.300   6.472   5.266
 9387SOL     OW29059   2.432   1.942   0.251
 9387SOL    HW129060   2.529   1.915   0.248
 9387SOL    HW229061   2.375   1.861   0.235
 9388SOL     OW29062   2.100   5.325   2.792
 9388SOL    HW129063   2.155   5.279   2.861
 9388SOL    HW229064   2.092   5.422   2.814
 9389SOL     OW29065   1.512   6.638   4.621
 9389SOL    HW129066   1.468   6.674   4.704
 9389SOL    HW229067   1.493   6.700   4.545
 9390SOL     OW29068   4.677   5.004   4.864
 9390SOL    HW129069   4.631   4.924   4.825
 9390SOL    HW229070   4.765   5.019   4.819
 9391SOL     OW29071   2.320   1.306   5.002
 9391SOL    HW129072   2.397   1.265   5.051
 9391SOL    HW229073   2.234   1.270   5.040
 9392SOL     OW29074   6.976   0.671   5.396
 9392SOL    HW129075   6.945   0.744   5.335
 9392SOL    HW229076   6.988   0.708   5.488
 9393SOL     OW29077   3.233   6.937   5.770
 9393SOL    HW129078   3.168   7.004   5.734
 9393SOL    HW229079   3.323   6.953   5.730
 9394SOL     OW29080   0.570   1.670   2.270
 9394SOL    HW129081   0.630   1.708   2.200
 9394SOL    HW229082   0.518   1.594   2.232
 9395SOL     OW29083   2.705   1.659   0.798
 9395SOL    HW129084   2.676   1.677   0.893
 9395SOL    HW229085   2.729   1.745   0.754
 9396SOL     OW29086   2.354   5.393   4.166
 9396SOL    HW129087   2.319   5.308   4.206
 9396SOL    HW229088   2.367   5.461   4.238
 9397SOL     OW29089   3.859   6.758   6.920
 9397SOL    HW129090   3.909   6.728   6.838
 9397SOL    HW229091   3.793   6.829   6.894
 9398SOL     OW29092   6.828   1.085   4.724
 9398SOL    HW129093   6.927   1.088   4.736
 9398SOL    HW229094   6.790   1.014   4.784
 9399SOL     OW29095   7.001   1.628   6.025
 9399SOL    HW129096   0.011   1.708   6.077
 9399SOL    HW229097   6.916   1.651   5.978
 9400SOL     OW29098   3.983   1.282   2.373
 9400SOL    HW129099   3.924   1.335   2.312
 9400SOL    HW229100   3.931   1.205   2.411
 9401SOL     OW29101   5.926   0.288   3.392
 9401SOL    HW129102   5.988   0.239   3.453
 9401SOL    HW229103   5.975   0.314   3.309
 9402SOL     OW29104   1.478   4.850   3.668
 9402SOL    HW129105   1.433   4.846   3.579
 9402SOL    HW229106   1.537   4.930   3.673
 9403SOL     OW29107   6.665   1.981   2.828
 9403SOL    HW129108   6.703   1.999   2.737
 9403SOL    HW229109   6.566   1.997   2.827
 9404SOL     OW29110   1.478   3.263   6.628
 9404SOL    HW129111   1.503   3.335   6.563
 9404SOL    HW229112   1.435   3.187   6.580
 9405SOL     OW29113   1.499   5.056   2.382
 9405SOL    HW129114   1.517   5.111   2.301
 9405SOL    HW229115   1.575   5.064   2.446
 9406SOL     OW29116   6.497   3.100   5.583
 9406SOL    HW129117   6.454   3.010   5.580
 9406SOL    HW229118   6.493   3.142   5.492
 9407SOL     OW29119   2.869   5.260   3.231
 9407SOL    HW129120   2.810   5.340   3.219
 9407SOL    HW229121   2.872   5.235   3.328
 9408SOL     OW29122   5.237   2.380   6.593
 9408SOL    HW129123   5.237   2.283   6.615
 9408SOL    HW229124   5.161   2.400   6.532
 9409SOL     OW29125   6.362   5.366   6.472
 9409SOL    HW129126   6.429   5.327   6.408
 9409SOL    HW229127   6.330   5.294   6.533
 9410SOL     OW29128   3.329   0.180   1.625
 9410SOL    HW129129   3.357   0.150   1.716
 9410SOL    HW229130   3.333   0.102   1.562
 9411SOL     OW29131   3.046   3.174   2.084
 9411SOL    HW129132   2.981   3.242   2.117
 9411SOL    HW229133   3.041   3.091   2.140
 9412SOL     OW29134   6.822   2.566   2.082
 9412SOL    HW129135   6.740   2.623   2.088
 9412SOL    HW229136   6.889   2.610   2.022
 9413SOL     OW29137   3.148   6.126   4.025
 9413SOL    HW129138   3.177   6.034   4.000
 9413SOL    HW229139   3.064   6.149   3.976
 9414SOL     OW29140   3.084   0.645   3.127
 9414SOL    HW129141   2.995   0.626   3.169
 9414SOL    HW229142   3.086   0.740   3.096
 9415SOL     OW29143   3.069   6.636   2.005
 9415SOL    HW129144   3.016   6.635   2.089
 9415SOL    HW229145   3.070   6.728   1.967
 9416SOL     OW29146   0.782   2.462   0.854
 9416SOL    HW129147   0.841   2.525   0.804
 9416SOL    HW229148   0.824   2.441   0.943
 9417SOL     OW29149   4.123   0.161   5.970
 9417SOL    HW129150   4.028   0.156   6.000
 9417SOL    HW229151   4.167   0.240   6.011
 9418SOL     OW29152   3.805   6.329   0.847
 9418SOL    HW129153   3.712   6.360   0.867
 9418SOL    HW229154   3.859   6.328   0.931
 9419SOL     OW29155   3.908   5.512   5.861
 9419SOL    HW129156   3.808   5.516   5.860
 9419SOL    HW229157   3.942   5.519   5.767
 9420SOL     OW29158   6.164   3.732   5.584
 9420SOL    HW129159   6.187   3.822   5.622
 9420SOL    HW229160   6.248   3.684   5.558
 9421SOL     OW29161   2.025   6.937   4.343
 9421SOL    HW129162   1.978   6.985   4.268
 9421SOL    HW229163   2.006   6.839   4.337
 9422SOL     OW29164   4.121   5.739   3.163
 9422SOL    HW129165   4.152   5.769   3.253
 9422SOL    HW229166   4.183   5.774   3.093
 9423SOL     OW29167   3.946   0.884   3.880
 9423SOL    HW129168   3.988   0.815   3.822
 9423SOL    HW229169   3.864   0.920   3.835
 9424SOL     OW29170   5.112   0.997   4.471
 9424SOL    HW129171   5.117   0.927   4.400
 9424SOL    HW229172   5.076   1.082   4.433
 9425SOL     OW29173   6.514   3.252   6.789
 9425SOL    HW129174   6.461   3.176   6.752
 9425SOL    HW229175   6.569   3.220   6.866
 9426SOL     OW29176   3.311   2.124   6.824
 9426SOL    HW129177   3.350   2.216   6.837
 9426SOL    HW229178   3.223   2.132   6.778
 9427SOL     OW29179   3.079   5.452   3.617
 9427SOL    HW129180   3.084   5.439   3.518
 9427SOL    HW229181   3.010   5.390   3.655
 9428SOL     OW29182   6.150   0.847   1.439
 9428SOL    HW129183   6.126   0.775   1.504
 9428SOL    HW229184   6.066   0.890   1.405
 9429SOL     OW29185   1.955   3.460   2.296
 9429SOL    HW129186   1.874   3.517   2.286
 9429SOL    HW229187   1.996   3.444   2.206
 9430SOL     OW29188   0.367   3.952   2.464
 9430SOL    HW129189   0.465   3.937   2.477
 9430SOL    HW229190   0.326   3.985   2.549
 9431SOL     OW29191   6.464   4.452   1.238
 9431SOL    HW129192   6.404   4.495   1.170
 9431SOL    HW229193   6.489   4.520   1.307
 9432SOL     OW29194   4.368   0.627   3.042
 9432SOL    HW129195   4.274   0.600   3.019
 9432SOL    HW229196   4.368   0.716   3.087
 9433SOL     OW29197   2.717   5.080   2.852
 9433SOL    HW129198   2.768   5.139   2.790
 9433SOL    HW229199   2.779   5.036   2.917
 9434SOL     OW29200   5.341   5.001   2.783
 9434SOL    HW129201   5.421   5.013   2.725
 9434SOL    HW229202   5.321   5.088   2.829
 9435SOL     OW29203   0.389   2.832   4.669
 9435SOL    HW129204   0.298   2.791   4.671
 9435SOL    HW229205   0.426   2.825   4.576
 9436SOL     OW29206   1.231   2.903   1.619
 9436SOL    HW129207   1.149   2.931   1.569
 9436SOL    HW229208   1.286   2.984   1.641
 9437SOL     OW29209   2.253   5.763   2.974
 9437SOL    HW129210   2.246   5.781   3.072
 9437SOL    HW229211   2.343   5.789   2.941
 9438SOL     OW29212   0.248   0.600   1.550
 9438SOL    HW129213   0.173   0.557   1.599
 9438SOL    HW229214   0.221   0.615   1.455
 9439SOL     OW29215   0.255   3.263   1.501
 9439SOL    HW129216   0.272   3.272   1.403
 9439SOL    HW229217   0.204   3.179   1.519
 9440SOL     OW29218   3.984   5.155   3.697
 9440SOL    HW129219   3.937   5.070   3.673
 9440SOL    HW229220   4.034   5.190   3.618
 9441SOL     OW29221   0.804   3.161   5.183
 9441SOL    HW129222   0.886   3.150   5.127
 9441SOL    HW229223   0.775   3.257   5.183
 9442SOL     OW29224   4.062   3.239   0.481
 9442SOL    HW129225   3.991   3.184   0.436
 9442SOL    HW229226   4.145   3.239   0.425
 9443SOL     OW29227   1.889   5.495   0.325
 9443SOL    HW129228   1.877   5.559   0.401
 9443SOL    HW229229   1.941   5.416   0.356
 9444SOL     OW29230   1.290   3.292   0.029
 9444SOL    HW129231   1.389   3.277   0.029
 9444SOL    HW229232   1.266   3.351   6.975
 9445SOL     OW29233   5.341   3.370   3.588
 9445SOL    HW129234   5.386   3.314   3.519
 9445SOL    HW229235   5.299   3.449   3.544
 9446SOL     OW29236   6.313   5.792   4.205
 9446SOL    HW129237   6.339   5.739   4.286
 9446SOL    HW229238   6.221   5.829   4.219
 9447SOL     OW29239   5.757   3.975   4.965
 9447SOL    HW129240   5.770   3.937   4.874
 9447SOL    HW229241   5.803   3.917   5.033
 9448SOL     OW29242   0.067   0.140   6.741
 9448SOL    HW129243   0.066   0.223   6.797
 9448SOL    HW229244   7.002   0.092   6.752
 9449SOL     OW29245   6.774   6.309   0.320
 9449SOL    HW129246   6.721   6.225   0.318
 9449SOL    HW229247   6.784   6.345   0.227
 9450SOL     OW29248   2.466   5.409   5.178
 9450SOL    HW129249   2.380   5.363   5.154
 9450SOL    HW229250   2.510   5.359   5.252
 9451SOL     OW29251   4.147   6.832   5.745
 9451SOL    HW129252   4.072   6.870   5.800
 9451SOL    HW229253   4.136   6.860   5.650
 9452SOL     OW29254   1.918   3.942   0.052
 9452SOL    HW129255   2.000   4.000   0.051
 9452SOL    HW229256   1.945   3.847   0.071
 9453SOL     OW29257   1.983   4.751   3.586
 9453SOL    HW129258   2.022   4.716   3.501
 9453SOL    HW229259   1.958   4.675   3.646
 9454SOL     OW29260   3.236   3.067   6.631
 9454SOL    HW129261   3.285   3.096   6.714
 9454SOL    HW229262   3.264   2.975   6.606
 9455SOL     OW29263   3.358   1.549   3.452
 9455SOL    HW129264   3.316   1.611   3.519
 9455SOL    HW229265   3.312   1.559   3.364
 9456SOL     OW29266   0.914   2.810   1.076
 9456SOL    HW129267   0.861   2.895   1.077
 9456SOL    HW229268   0.882   2.752   1.001
 9457SOL     OW29269   2.296   3.854   5.390
 9457SOL    HW129270   2.221   3.894   5.337
 9457SOL    HW229271   2.382   3.870   5.342
 9458SOL     OW29272   1.259   3.357   6.768
 9458SOL    HW129273   1.211   3.269   6.774
 9458SOL    HW229274   1.343   3.345   6.715
 9459SOL     OW29275   5.238   4.607   3.297
 9459SOL    HW129276   5.184   4.614   3.212
 9459SOL    HW229277   5.282   4.517   3.301
 9460SOL     OW29278   0.214   2.865   3.889
 9460SOL    HW129279   0.130   2.893   3.843
 9460SOL    HW229280   0.268   2.946   3.912
 9461SOL     OW29281   6.369   1.444   2.057
 9461SOL    HW129282   6.366   1.347   2.085
 9461SOL    HW229283   6.320   1.499   2.125
 9462SOL     OW29284   2.101   3.571   3.498
 9462SOL    HW129285   2.121   3.497   3.562
 9462SOL    HW229286   2.060   3.533   3.415
 9463SOL     OW29287   6.953   1.225   1.865
 9463SOL    HW129288   6.882   1.272   1.813
 9463SOL    HW229289   6.949   1.127   1.846
 9464SOL     OW29290   6.237   0.375   0.998
 9464SOL    HW129291   6.326   0.397   1.039
 9464SOL    HW229292   6.251   0.335   0.907
 9465SOL     OW29293   1.791   5.089   2.961
 9465SOL    HW129294   1.715   5.038   2.922
 9465SOL    HW229295   1.808   5.058   3.055
 9466SOL     OW29296   4.478   4.705   5.983
 9466SOL    HW129297   4.481   4.655   5.896
 9466SOL    HW229298   4.568   4.703   6.027
 9467SOL     OW29299   1.010   3.335   1.885
 9467SOL    HW129300   0.993   3.240   1.857
 9467SOL    HW229301   1.058   3.336   1.973
 9468SOL     OW29302   5.912   3.343   5.930
 9468SOL    HW129303   5.861   3.413   5.980
 9468SOL    HW229304   5.856   3.310   5.854
 9469SOL     OW29305   6.640   5.710   2.250
 9469SOL    HW129306   6.545   5.730   2.227
 9469SOL    HW229307   6.699   5.783   2.216
 9470SOL     OW29308   4.393   3.462   5.657
 9470SOL    HW129309   4.461   3.535   5.657
 9470SOL    HW229310   4.344   3.461   5.744
 9471SOL     OW29311   7.002   2.410   4.528
 9471SOL    HW129312   6.997   2.510   4.532
 9471SOL    HW229313   6.952   2.372   4.606
 9472SOL     OW29314   5.768   4.097   5.257
 9472SOL    HW129315   5.784   4.044   5.174
 9472SOL    HW229316   5.701   4.049   5.315
 9473SOL     OW29317   3.330   5.245   6.218
 9473SOL    HW129318   3.356   5.341   6.224
 9473SOL    HW229319   3.401   5.194   6.169
 9474SOL     OW29320   0.299   2.705   0.025
 9474SOL    HW129321   0.292   2.616   7.003
 9474SOL    HW229322   0.374   2.704   0.091
 9475SOL     OW29323   3.354   3.285   6.403
 9475SOL    HW129324   3.402   3.199   6.420
 9475SOL    HW229325   3.259   3.276   6.434
 9476SOL     OW29326   3.088   4.084   4.755
 9476SOL    HW129327   3.091   4.181   4.776
 9476SOL    HW229328   3.039   4.069   4.669
 9477SOL     OW29329   0.074   3.100   1.612
 9477SOL    HW129330   0.104   3.131   1.702
 9477SOL    HW229331   0.008   3.025   1.622
 9478SOL     OW29332   5.193   3.443   0.296
 9478SOL    HW129333   5.154   3.519   0.348
 9478SOL    HW229334   5.125   3.409   0.231
 9479SOL     OW29335   4.426   5.998   6.679
 9479SOL    HW129336   4.380   6.031   6.597
 9479SOL    HW229337   4.445   5.900   6.669
 9480SOL     OW29338   4.575   3.958   0.909
 9480SOL    HW129339   4.496   3.918   0.863
 9480SOL    HW229340   4.588   4.052   0.876
 9481SOL     OW29341   5.127   3.450   1.894
 9481SOL    HW129342   5.043   3.442   1.948
 9481SOL    HW229343   5.175   3.362   1.894
 9482SOL     OW29344   6.958   0.730   3.022
 9482SOL    HW129345   7.006   0.782   3.092
 9482SOL    HW229346   6.990   0.635   3.023
 9483SOL     OW29347   1.281   1.708   1.645
 9483SOL    HW129348   1.241   1.626   1.604
 9483SOL    HW229349   1.280   1.699   1.745
 9484SOL     OW29350   3.470   1.330   3.646
 9484SOL    HW129351   3.535   1.267   3.602
 9484SOL    HW229352   3.451   1.406   3.584
 9485SOL     OW29353   0.474   0.354   1.504
 9485SOL    HW129354   0.376   0.331   1.504
 9485SOL    HW229355   0.504   0.372   1.410
 9486SOL     OW29356   2.764   6.234   0.859
 9486SOL    HW129357   2.691   6.243   0.927
 9486SOL    HW229358   2.723   6.231   0.768
 9487SOL     OW29359   3.803   3.632   3.398
 9487SOL    HW129360   3.891   3.665   3.364
 9487SOL    HW229361   3.818   3.573   3.477
 9488SOL     OW29362   1.628   6.377   0.728
 9488SOL    HW129363   1.705   6.347   0.672
 9488SOL    HW229364   1.587   6.459   0.687
 9489SOL     OW29365   4.250   4.227   1.712
 9489SOL    HW129366   4.276   4.207   1.617
 9489SOL    HW229367   4.333   4.235   1.768
 9490SOL     OW29368   0.184   5.379   1.223
 9490SOL    HW129369   0.283   5.366   1.224
 9490SOL    HW229370   0.161   5.454   1.160
 9491SOL     OW29371   6.515   4.512   3.785
 9491SOL    HW129372   6.559   4.602   3.784
 9491SOL    HW229373   6.438   4.512   3.720
 9492SOL     OW29374   3.322   2.869   3.021
 9492SOL    HW129375   3.272   2.783   3.008
 9492SOL    HW229376   3.262   2.935   3.067
 9493SOL     OW29377   3.518   5.176   3.779
 9493SOL    HW129378   3.427   5.175   3.822
 9493SOL    HW229379   3.518   5.241   3.703
 9494SOL     OW29380   4.686   4.674   1.860
 9494SOL    HW129381   4.590   4.653   1.840
 9494SOL    HW229382   4.745   4.607   1.816
 9495SOL     OW29383   6.161   1.772   3.162
 9495SOL    HW129384   6.127   1.689   3.207
 9495SOL    HW229385   6.257   1.786   3.186
 9496SOL     OW29386   6.225   4.719   1.423
 9496SOL    HW129387   6.295   4.789   1.407
 9496SOL    HW229388   6.134   4.760   1.412
 9497SOL     OW29389   5.796   6.083   6.489
 9497SOL    HW129390   5.734   6.036   6.426
 9497SOL    HW229391   5.786   6.182   6.477
 9498SOL     OW29392   4.872   7.010   4.686
 9498SOL    HW129393   4.904   0.026   4.599
 9498SOL    HW229394   4.924   6.927   4.707
 9499SOL     OW29395   1.957   5.117   6.428
 9499SOL    HW129396   1.926   5.023   6.444
 9499SOL    HW229397   1.964   5.165   6.516
 9500SOL     OW29398   5.755   0.675   0.839
 9500SOL    HW129399   5.800   0.763   0.824
 9500SOL    HW229400   5.678   0.686   0.902
 9501SOL     OW29401   3.119   1.200   4.868
 9501SOL    HW129402   3.060   1.235   4.795
 9501SOL    HW229403   3.159   1.113   4.839
 9502SOL     OW29404   5.840   2.624   5.268
 9502SOL    HW129405   5.858   2.721   5.284
 9502SOL    HW229406   5.820   2.579   5.356
 9503SOL     OW29407   0.275   1.472   1.399
 9503SOL    HW129408   0.345   1.476   1.471
 9503SOL    HW229409   0.221   1.556   1.400
 9504SOL     OW29410   6.834   2.412   1.307
 9504SOL    HW129411   6.878   2.406   1.218
 9504SOL    HW229412   6.743   2.453   1.297
 9505SOL     OW29413   5.285   4.883   3.271
 9505SOL    HW129414   5.314   4.878   3.176
 9505SOL    HW229415   5.317   4.802   3.320
 9506SOL     OW29416   0.478   2.451   6.054
 9506SOL    HW129417   0.478   2.484   5.960
 9506SOL    HW229418   0.545   2.503   6.108
 9507SOL     OW29419   1.150   2.018   3.209
 9507SOL    HW129420   1.145   2.037   3.307
 9507SOL    HW229421   1.059   2.024   3.168
 9508SOL     OW29422   6.578   3.060   0.704
 9508SOL    HW129423   6.586   3.113   0.788
 9508SOL    HW229424   6.482   3.048   0.681
 9509SOL     OW29425   0.615   0.717   4.259
 9509SOL    HW129426   0.652   0.649   4.196
 9509SOL    HW229427   0.691   0.762   4.307
 9510SOL     OW29428   1.726   3.539   2.658
 9510SOL    HW129429   1.725   3.628   2.703
 9510SOL    HW229430   1.641   3.490   2.678
 9511SOL     OW29431   1.071   0.655   1.058
 9511SOL    HW129432   1.165   0.620   1.052
 9511SOL    HW229433   1.012   0.601   0.998
 9512SOL     OW29434   5.667   1.206   1.257
 9512SOL    HW129435   5.609   1.245   1.186
 9512SOL    HW229436   5.762   1.209   1.226
 9513SOL     OW29437   1.746   3.508   6.102
 9513SOL    HW129438   1.677   3.435   6.105
 9513SOL    HW229439   1.728   3.568   6.024
 9514SOL     OW29440   1.841   4.892   6.455
 9514SOL    HW129441   1.806   4.807   6.415
 9514SOL    HW229442   1.782   4.920   6.530
 9515SOL     OW29443   1.459   5.972   1.455
 9515SOL    HW129444   1.370   5.958   1.412
 9515SOL    HW229445   1.499   6.058   1.423
 9516SOL     OW29446   5.253   4.486   5.418
 9516SOL    HW129447   5.244   4.453   5.324
 9516SOL    HW229448   5.253   4.409   5.481
 9517SOL     OW29449   1.508   4.628   1.043
 9517SOL    HW129450   1.503   4.624   0.944
 9517SOL    HW229451   1.603   4.643   1.071
 9518SOL     OW29452   1.666   1.883   6.960
 9518SOL    HW129453   1.668   1.890   0.037
 9518SOL    HW229454   1.634   1.970   6.922
 9519SOL     OW29455   4.025   3.670   4.236
 9519SOL    HW129456   4.012   3.769   4.233
 9519SOL    HW229457   4.020   3.638   4.330
 9520SOL     OW29458   0.889   1.855   3.294
 9520SOL    HW129459   0.814   1.889   3.351
 9520SOL    HW229460   0.959   1.814   3.352
 9521SOL     OW29461   5.367   5.306   1.670
 9521SOL    HW129462   5.460   5.297   1.634
 9521SOL    HW229463   5.301   5.305   1.594
 9522SOL     OW29464   3.927   4.806   1.190
 9522SOL    HW129465   3.829   4.802   1.175
 9522SOL    HW229466   3.955   4.901   1.204
 9523SOL     OW29467   2.591   4.887   4.958
 9523SOL    HW129468   2.505   4.874   4.910
 9523SOL    HW229469   2.649   4.806   4.948
 9524SOL     OW29470   3.220   3.083   0.948
 9524SOL    HW129471   3.245   3.067   0.853
 9524SOL    HW229472   3.157   3.012   0.979
 9525SOL     OW29473   2.374   2.275   5.776
 9525SOL    HW129474   2.433   2.195   5.767
 9525SOL    HW229475   2.333   2.296   5.687
 9526SOL     OW29476   6.434   4.817   1.022
 9526SOL    HW129477   6.498   4.820   1.099
 9526SOL    HW229478   6.370   4.742   1.034
 9527SOL     OW29479   0.617   1.019   4.582
 9527SOL    HW129480   0.545   1.001   4.515
 9527SOL    HW229481   0.627   0.939   4.642
 9528SOL     OW29482   6.632   1.476   0.970
 9528SOL    HW129483   6.574   1.537   1.024
 9528SOL    HW229484   6.727   1.505   0.977
 9529SOL     OW29485   6.184   3.436   6.345
 9529SOL    HW129486   6.149   3.412   6.254
 9529SOL    HW229487   6.134   3.384   6.415
 9530SOL     OW29488   2.005   3.409   2.983
 9530SOL    HW129489   1.953   3.343   3.037
 9530SOL    HW229490   2.020   3.372   2.891
 9531SOL     OW29491   4.863   5.353   2.595
 9531SOL    HW129492   4.911   5.432   2.558
 9531SOL    HW229493   4.908   5.269   2.566
 9532SOL     OW29494   0.383   6.205   1.365
 9532SOL    HW129495   0.388   6.300   1.333
 9532SOL    HW229496   0.341   6.203   1.456
 9533SOL     OW29497   0.368   5.810   5.072
 9533SOL    HW129498   0.446   5.762   5.112
 9533SOL    HW229499   0.352   5.895   5.122
 9534SOL     OW29500   6.956   4.214   4.895
 9534SOL    HW129501   6.959   4.130   4.841
 9534SOL    HW229502   6.869   4.219   4.944
 9535SOL     OW29503   2.205   0.749   6.565
 9535SOL    HW129504   2.260   0.760   6.647
 9535SOL    HW229505   2.256   0.784   6.486
 9536SOL     OW29506   2.948   3.894   6.242
 9536SOL    HW129507   2.890   3.950   6.183
 9536SOL    HW229508   3.030   3.866   6.191
 9537SOL     OW29509   2.765   6.827   4.175
 9537SOL    HW129510   2.828   6.848   4.100
 9537SOL    HW229511   2.674   6.861   4.153
 9538SOL     OW29512   5.674   1.300   3.627
 9538SOL    HW129513   5.763   1.266   3.658
 9538SOL    HW229514   5.601   1.251   3.675
 9539SOL     OW29515   3.477   3.745   4.908
 9539SOL    HW129516   3.531   3.757   4.825
 9539SOL    HW229517   3.534   3.765   4.988
 9540SOL     OW29518   6.046   4.146   4.404
 9540SOL    HW129519   6.116   4.078   4.384
 9540SOL    HW229520   6.084   4.238   4.393
 9541SOL     OW29521   3.261   0.816   5.913
 9541SOL    HW129522   3.278   0.884   5.841
 9541SOL    HW229523   3.330   0.744   5.907
 9542SOL     OW29524   4.906   4.164   4.799
 9542SOL    HW129525   4.925   4.078   4.752
 9542SOL    HW229526   4.876   4.232   4.732
 9543SOL     OW29527   3.440   0.398   6.059
 9543SOL    HW129528   3.459   0.454   6.140
 9543SOL    HW229529   3.400   0.311   6.087
 9544SOL     OW29530   6.996   2.152   2.858
 9544SOL    HW129531   6.997   2.153   2.958
 9544SOL    HW229532   0.064   2.129   2.823
 9545SOL     OW29533   5.779   5.712   4.575
 9545SOL    HW129534   5.752   5.734   4.669
 9545SOL    HW229535   5.864   5.759   4.553
 9546SOL     OW29536   3.751   1.917   5.417
 9546SOL    HW129537   3.717   1.855   5.487
 9546SOL    HW229538   3.688   1.994   5.407
 9547SOL     OW29539   2.309   5.882   4.317
 9547SOL    HW129540   2.389   5.942   4.321
 9547SOL    HW229541   2.280   5.871   4.221
 9548SOL     OW29542   5.955   5.620   6.338
 9548SOL    HW129543   5.881   5.570   6.381
 9548SOL    HW229544   5.944   5.718   6.354
 9549SOL     OW29545   2.628   2.790   1.249
 9549SOL    HW129546   2.603   2.727   1.321
 9549SOL    HW229547   2.556   2.858   1.237
 9550SOL     OW29548   0.385   1.674   0.249
 9550SOL    HW129549   0.372   1.580   0.282
 9550SOL    HW229550   0.397   1.673   0.149
 9551SOL     OW29551   5.296   1.872   4.365
 9551SOL    HW129552   5.314   1.958   4.319
 9551SOL    HW229553   5.308   1.796   4.301
 9552SOL     OW29554   1.513   0.014   4.039
 9552SOL    HW129555   1.554   0.094   3.995
 9552SOL    HW229556   1.489   6.969   3.969
 9553SOL     OW29557   6.381   3.279   5.977
 9553SOL    HW129558   6.426   3.194   5.953
 9553SOL    HW229559   6.305   3.295   5.913
 9554SOL     OW29560   2.050   6.315   1.249
 9554SOL    HW129561   1.997   6.322   1.165
 9554SOL    HW229562   2.007   6.246   1.309
 9555SOL     OW29563   0.926   0.841   3.365
 9555SOL    HW129564   0.900   0.935   3.345
 9555SOL    HW229565   0.924   0.825   3.463
 9556SOL     OW29566   1.723   3.351   1.530
 9556SOL    HW129567   1.657   3.383   1.462
 9556SOL    HW229568   1.812   3.393   1.514
 9557SOL     OW29569   0.544   6.502   2.363
 9557SOL    HW129570   0.603   6.553   2.300
 9557SOL    HW229571   0.455   6.547   2.368
 9558SOL     OW29572   6.164   6.146   4.800
 9558SOL    HW129573   6.083   6.167   4.746
 9558SOL    HW229574   6.163   6.201   4.885
 9559SOL     OW29575   0.066   4.500   0.914
 9559SOL    HW129576   0.104   4.584   0.953
 9559SOL    HW229577   0.138   4.451   0.865
 9560SOL     OW29578   1.806   1.089   3.338
 9560SOL    HW129579   1.889   1.035   3.319
 9560SOL    HW229580   1.832   1.184   3.356
 9561SOL     OW29581   1.411   6.916   0.357
 9561SOL    HW129582   1.500   6.922   0.313
 9561SOL    HW229583   1.356   6.996   0.333
 9562SOL     OW29584   3.085   0.048   5.331
 9562SOL    HW129585   3.007   7.013   5.307
 9562SOL    HW229586   3.110   0.105   5.252
 9563SOL     OW29587   6.327   5.908   0.850
 9563SOL    HW129588   6.301   5.958   0.767
 9563SOL    HW229589   6.329   5.970   0.928
 9564SOL     OW29590   2.910   0.072   0.776
 9564SOL    HW129591   2.931   7.012   0.828
 9564SOL    HW229592   2.987   0.135   0.780
 9565SOL     OW29593   3.762   0.441   4.960
 9565SOL    HW129594   3.771   0.376   4.885
 9565SOL    HW229595   3.845   0.496   4.967
 9566SOL     OW29596   1.811   5.077   0.111
 9566SOL    HW129597   1.886   5.140   0.093
 9566SOL    HW229598   1.812   5.049   0.207
 9567SOL     OW29599   5.375   5.044   0.666
 9567SOL    HW129600   5.452   5.105   0.652
 9567SOL    HW229601   5.352   4.998   0.580
 9568SOL     OW29602   4.538   2.330   6.775
 9568SOL    HW129603   4.524   2.261   6.847
 9568SOL    HW229604   4.628   2.373   6.787
 9569SOL     OW29605   1.002   1.928   2.398
 9569SOL    HW129606   1.010   1.960   2.303
 9569SOL    HW229607   0.909   1.897   2.415
 9570SOL     OW29608   0.788   2.864   2.028
 9570SOL    HW129609   0.739   2.815   2.100
 9570SOL    HW229610   0.735   2.859   1.943
 9571SOL     OW29611   3.748   4.261   5.943
 9571SOL    HW129612   3.798   4.197   5.886
 9571SOL    HW229613   3.719   4.215   6.027
 9572SOL     OW29614   1.966   4.887   2.185
 9572SOL    HW129615   1.924   4.807   2.142
 9572SOL    HW229616   1.948   4.886   2.283
 9573SOL     OW29617   0.632   1.460   6.786
 9573SOL    HW129618   0.588   1.466   6.696
 9573SOL    HW229619   0.707   1.394   6.781
 9574SOL     OW29620   4.052   3.269   3.613
 9574SOL    HW129621   4.070   3.366   3.595
 9574SOL    HW229622   4.075   3.249   3.709
 9575SOL     OW29623   6.838   1.521   1.269
 9575SOL    HW129624   6.879   1.488   1.184
 9575SOL    HW229625   6.802   1.613   1.255
 9576SOL     OW29626   2.212   0.116   1.816
 9576SOL    HW129627   2.248   0.024   1.805
 9576SOL    HW229628   2.273   0.181   1.772
 9577SOL     OW29629   1.733   0.673   6.383
 9577SOL    HW129630   1.815   0.716   6.422
 9577SOL    HW229631   1.652   0.703   6.434
 9578SOL     OW29632   0.651   3.821   3.973
 9578SOL    HW129633   0.638   3.741   4.032
 9578SOL    HW229634   0.706   3.889   4.020
 9579SOL     OW29635   1.568   5.000   2.840
 9579SOL    HW129636   1.515   5.024   2.922
 9579SOL    HW229637   1.535   4.914   2.803
 9580SOL     OW29638   4.113   3.246   0.794
 9580SOL    HW129639   4.054   3.311   0.843
 9580SOL    HW229640   4.076   3.231   0.702
 9581SOL     OW29641   0.884   5.423   6.329
 9581SOL    HW129642   0.956   5.401   6.395
 9581SOL    HW229643   0.803   5.368   6.349
 9582SOL     OW29644   4.530   5.311   5.740
 9582SOL    HW129645   4.473   5.392   5.734
 9582SOL    HW229646   4.538   5.282   5.835
 9583SOL     OW29647   4.072   4.472   1.347
 9583SOL    HW129648   4.147   4.411   1.324
 9583SOL    HW229649   4.042   4.454   1.441
 9584SOL     OW29650   6.626   6.080   0.322
 9584SOL    HW129651   6.621   6.005   0.388
 9584SOL    HW229652   6.537   6.126   0.317
 9585SOL     OW29653   6.262   0.628   4.151
 9585SOL    HW129654   6.282   0.657   4.244
 9585SOL    HW229655   6.301   0.537   4.136
 9586SOL     OW29656   6.089   4.157   2.491
 9586SOL    HW129657   6.087   4.140   2.392
 9586SOL    HW229658   6.008   4.117   2.533
 9587SOL     OW29659   0.442   1.007   2.052
 9587SOL    HW129660   0.359   1.064   2.050
 9587SOL    HW229661   0.419   0.917   2.088
 9588SOL     OW29662   0.622   1.862   1.864
 9588SOL    HW129663   0.682   1.782   1.873
 9588SOL    HW229664   0.534   1.833   1.827
 9589SOL     OW29665   2.630   5.178   5.968
 9589SOL    HW129666   2.665   5.268   5.994
 9589SOL    HW229667   2.539   5.188   5.929
 9590SOL     OW29668   0.101   3.239   1.867
 9590SOL    HW129669   0.043   3.240   1.949
 9590SOL    HW229670   0.109   3.331   1.831
 9591SOL     OW29671   3.248   6.058   6.398
 9591SOL    HW129672   3.332   6.063   6.453
 9591SOL    HW229673   3.247   5.972   6.347
 9592SOL     OW29674   3.234   4.164   1.251
 9592SOL    HW129675   3.146   4.210   1.248
 9592SOL    HW229676   3.222   4.070   1.282
 9593SOL     OW29677   0.016   0.741   4.869
 9593SOL    HW129678   0.022   0.763   4.967
 9593SOL    HW229679   0.094   0.782   4.822
 9594SOL     OW29680   1.622   6.451   2.997
 9594SOL    HW129681   1.614   6.359   3.034
 9594SOL    HW229682   1.708   6.461   2.948
 9595SOL     OW29683   1.596   4.310   5.524
 9595SOL    HW129684   1.574   4.232   5.465
 9595SOL    HW229685   1.658   4.281   5.597
 9596SOL     OW29686   0.342   5.798   0.176
 9596SOL    HW129687   0.348   5.766   0.082
 9596SOL    HW229688   0.390   5.885   0.186
 9597SOL     OW29689   0.592   4.298   1.218
 9597SOL    HW129690   0.536   4.281   1.137
 9597SOL    HW229691   0.535   4.339   1.290
 9598SOL     OW29692   1.520   3.219   4.943
 9598SOL    HW129693   1.508   3.248   4.848
 9598SOL    HW229694   1.604   3.260   4.980
 9599SOL     OW29695   4.206   0.339   5.438
 9599SOL    HW129696   4.247   0.358   5.349
 9599SOL    HW229697   4.107   0.354   5.433
 9600SOL     OW29698   2.063   7.019   0.103
 9600SOL    HW129699   2.140   0.026   0.160
 9600SOL    HW229700   2.097   6.965   0.026
 9601SOL     OW29701   6.543   3.539   0.993
 9601SOL    HW129702   6.444   3.556   0.987
 9601SOL    HW229703   6.562   3.445   0.965
 9602SOL     OW29704   0.008   5.313   6.656
 9602SOL    HW129705   6.942   5.266   6.657
 9602SOL    HW229706   0.001   5.399   6.707
 9603SOL     OW29707   3.797   1.547   5.197
 9603SOL    HW129708   3.762   1.557   5.290
 9603SOL    HW229709   3.891   1.581   5.194
 9604SOL     OW29710   4.234   0.842   6.880
 9604SOL    HW129711   4.185   0.766   6.838
 9604SOL    HW229712   4.170   0.917   6.897
 9605SOL     OW29713   0.286   4.842   4.317
 9605SOL    HW129714   0.344   4.812   4.241
 9605SOL    HW229715   0.237   4.925   4.291
 9606SOL     OW29716   2.096   6.097   5.828
 9606SOL    HW129717   2.176   6.051   5.866
 9606SOL    HW229718   2.107   6.109   5.730
 9607SOL     OW29719   1.358   1.250   1.679
 9607SOL    HW129720   1.391   1.327   1.625
 9607SOL    HW229721   1.340   1.281   1.773
 9608SOL     OW29722   6.736   6.522   2.022
 9608SOL    HW129723   6.798   6.555   2.093
 9608SOL    HW229724   6.709   6.597   1.962
 9609SOL     OW29725   2.081   3.714   6.484
 9609SOL    HW129726   2.175   3.749   6.486
 9609SOL    HW229727   2.083   3.614   6.483
 9610SOL     OW29728   2.337   5.123   4.229
 9610SOL    HW129729   2.355   5.029   4.203
 9610SOL    HW229730   2.352   5.134   4.327
 9611SOL     OW29731   0.624   6.763   6.958
 9611SOL    HW129732   0.624   6.711   6.873
 9611SOL    HW229733   0.609   6.702   0.013
 9612SOL     OW29734   0.534   3.232   2.011
 9612SOL    HW129735   0.481   3.303   1.965
 9612SOL    HW229736   0.631   3.256   2.009
 9613SOL     OW29737   4.261   6.319   3.626
 9613SOL    HW129738   4.245   6.414   3.598
 9613SOL    HW229739   4.237   6.308   3.723
 9614SOL     OW29740   3.951   2.199   0.976
 9614SOL    HW129741   3.977   2.292   1.003
 9614SOL    HW229742   3.927   2.146   1.058
 9615SOL     OW29743   0.278   6.979   1.735
 9615SOL    HW129744   0.320   0.045   1.715
 9615SOL    HW229745   0.193   6.970   1.683
 9616SOL     OW29746   4.641   3.470   1.392
 9616SOL    HW129747   4.681   3.409   1.460
 9616SOL    HW229748   4.675   3.563   1.406
 9617SOL     OW29749   1.647   3.745   4.249
 9617SOL    HW129750   1.606   3.797   4.174
 9617SOL    HW229751   1.728   3.793   4.282
 9618SOL     OW29752   3.639   6.730   5.876
 9618SOL    HW129753   3.694   6.655   5.913
 9618SOL    HW229754   3.590   6.699   5.795
 9619SOL     OW29755   0.676   6.872   0.324
 9619SOL    HW129756   0.602   6.805   0.331
 9619SOL    HW229757   0.720   6.882   0.414
 9620SOL     OW29758   5.198   3.017   0.036
 9620SOL    HW129759   5.191   2.923   0.068
 9620SOL    HW229760   5.269   3.066   0.087
 9621SOL     OW29761   1.569   0.669   3.046
 9621SOL    HW129762   1.509   0.641   3.121
 9621SOL    HW229763   1.550   0.764   3.022
 9622SOL     OW29764   5.663   0.910   0.147
 9622SOL    HW129765   5.730   0.942   0.080
 9622SOL    HW229766   5.710   0.857   0.218
 9623SOL     OW29767   4.177   5.113   5.004
 9623SOL    HW129768   4.272   5.129   5.030
 9623SOL    HW229769   4.173   5.042   4.934
 9624SOL     OW29770   6.281   4.490   3.667
 9624SOL    HW129771   6.252   4.583   3.691
 9624SOL    HW229772   6.272   4.477   3.568
 9625SOL     OW29773   5.061   5.429   0.059
 9625SOL    HW129774   5.004   5.472   7.011
 9625SOL    HW229775   5.101   5.345   0.023
 9626SOL     OW29776   2.441   6.380   0.414
 9626SOL    HW129777   2.486   6.460   0.375
 9626SOL    HW229778   2.498   6.299   0.400
 9627SOL     OW29779   6.878   3.824   3.681
 9627SOL    HW129780   6.833   3.818   3.770
 9627SOL    HW229781   6.969   3.782   3.687
 9628SOL     OW29782   6.458   4.581   0.086
 9628SOL    HW129783   6.496   4.669   0.057
 9628SOL    HW229784   6.384   4.555   0.024
 9629SOL     OW29785   6.818   6.420   2.920
 9629SOL    HW129786   6.801   6.519   2.925
 9629SOL    HW229787   6.911   6.404   2.887
 9630SOL     OW29788   6.127   6.375   5.006
 9630SOL    HW129789   6.178   6.452   4.967
 9630SOL    HW229790   6.030   6.385   4.986
 9631SOL     OW29791   5.424   1.308   0.091
 9631SOL    HW129792   5.423   1.304   7.014
 9631SOL    HW229793   5.331   1.325   0.125
 9632SOL     OW29794   1.973   5.144   2.069
 9632SOL    HW129795   1.948   5.051   2.098
 9632SOL    HW229796   2.056   5.173   2.117
 9633SOL     OW29797   4.690   4.949   0.403
 9633SOL    HW129798   4.772   4.900   0.433
 9633SOL    HW229799   4.621   4.947   0.476
 9634SOL     OW29800   0.492   6.517   4.420
 9634SOL    HW129801   0.459   6.565   4.501
 9634SOL    HW229802   0.572   6.565   4.384
 9635SOL     OW29803   2.570   4.478   5.354
 9635SOL    HW129804   2.579   4.570   5.392
 9635SOL    HW229805   2.624   4.414   5.409
 9636SOL     OW29806   4.513   1.689   6.007
 9636SOL    HW129807   4.556   1.672   5.918
 9636SOL    HW229808   4.477   1.603   6.043
 9637SOL     OW29809   3.332   2.641   6.929
 9637SOL    HW129810   3.274   2.696   6.989
 9637SOL    HW229811   3.390   2.701   6.873
 9638SOL     OW29812   0.084   3.852   6.441
 9638SOL    HW129813   0.051   3.945   6.454
 9638SOL    HW229814   0.032   3.808   6.367
 9639SOL     OW29815   4.596   1.728   2.130
 9639SOL    HW129816   4.556   1.786   2.059
 9639SOL    HW229817   4.660   1.783   2.185
 9640SOL     OW29818   3.347   1.471   2.979
 9640SOL    HW129819   3.320   1.551   3.034
 9640SOL    HW229820   3.447   1.468   2.972
 9641SOL     OW29821   5.701   5.489   1.130
 9641SOL    HW129822   5.757   5.406   1.124
 9641SOL    HW229823   5.612   5.471   1.088
 9642SOL     OW29824   2.195   5.890   4.863
 9642SOL    HW129825   2.095   5.891   4.855
 9642SOL    HW229826   2.226   5.798   4.886
 9643SOL     OW29827   6.017   4.751   4.071
 9643SOL    HW129828   6.055   4.803   3.995
 9643SOL    HW229829   6.026   4.803   4.156
 9644SOL     OW29830   0.108   4.727   4.575
 9644SOL    HW129831   0.196   4.757   4.539
 9644SOL    HW229832   0.116   4.715   4.674
 9645SOL     OW29833   3.110   4.796   3.599
 9645SOL    HW129834   3.153   4.787   3.509
 9645SOL    HW229835   3.180   4.815   3.668
 9646SOL     OW29836   2.559   4.571   2.002
 9646SOL    HW129837   2.656   4.598   1.998
 9646SOL    HW229838   2.502   4.652   2.006
 9647SOL     OW29839   0.827   5.458   2.228
 9647SOL    HW129840   0.918   5.434   2.263
 9647SOL    HW229841   0.759   5.445   2.299
 9648SOL     OW29842   3.394   1.915   0.014
 9648SOL    HW129843   3.357   1.991   0.068
 9648SOL    HW229844   3.332   1.895   6.961
 9649SOL     OW29845   2.187   4.343   6.973
 9649SOL    HW129846   2.283   4.316   6.971
 9649SOL    HW229847   2.179   4.436   7.009
 9650SOL     OW29848   4.562   4.459   3.107
 9650SOL    HW129849   4.510   4.537   3.072
 9650SOL    HW229850   4.597   4.405   3.030
 9651SOL     OW29851   5.634   1.400   0.636
 9651SOL    HW129852   5.549   1.360   0.602
 9651SOL    HW229853   5.649   1.369   0.730
 9652SOL     OW29854   2.233   4.096   1.206
 9652SOL    HW129855   2.215   4.000   1.229
 9652SOL    HW229856   2.153   4.151   1.230
 9653SOL     OW29857   4.418   5.181   5.139
 9653SOL    HW129858   4.466   5.246   5.079
 9653SOL    HW229859   4.463   5.179   5.228
 9654SOL     OW29860   3.514   3.120   2.637
 9654SOL    HW129861   3.515   3.051   2.709
 9654SOL    HW229862   3.562   3.084   2.557
 9655SOL     OW29863   0.201   1.709   0.504
 9655SOL    HW129864   0.229   1.664   0.589
 9655SOL    HW229865   0.276   1.701   0.437
 9656SOL     OW29866   4.420   1.927   0.887
 9656SOL    HW129867   4.424   1.828   0.874
 9656SOL    HW229868   4.334   1.951   0.933
 9657SOL     OW29869   6.255   2.855   3.510
 9657SOL    HW129870   6.254   2.773   3.454
 9657SOL    HW229871   6.171   2.906   3.496
 9658SOL     OW29872   5.711   2.222   2.473
 9658SOL    HW129873   5.637   2.197   2.536
 9658SOL    HW229874   5.683   2.201   2.379
 9659SOL     OW29875   6.921   3.003   0.003
 9659SOL    HW129876   6.943   2.995   0.100
 9659SOL    HW229877   6.971   3.081   6.987
 9660SOL     OW29878   0.747   6.572   2.170
 9660SOL    HW129879   0.794   6.604   2.089
 9660SOL    HW229880   0.802   6.502   2.215
 9661SOL     OW29881   3.188   6.332   1.140
 9661SOL    HW129882   3.179   6.290   1.050
 9661SOL    HW229883   3.232   6.267   1.203
 9662SOL     OW29884   4.313   2.890   5.347
 9662SOL    HW129885   4.222   2.854   5.364
 9662SOL    HW229886   4.381   2.821   5.372
 9663SOL     OW29887   6.327   0.192   3.040
 9663SOL    HW129888   6.406   0.249   3.064
 9663SOL    HW229889   6.351   0.134   2.961
 9664SOL     OW29890   5.128   6.200   4.774
 9664SOL    HW129891   5.066   6.139   4.824
 9664SOL    HW229892   5.115   6.293   4.806
 9665SOL     OW29893   5.849   6.192   6.819
 9665SOL    HW129894   5.773   6.205   6.756
 9665SOL    HW229895   5.885   6.099   6.809
 9666SOL     OW29896   6.780   3.656   2.607
 9666SOL    HW129897   6.715   3.661   2.532
 9666SOL    HW229898   6.750   3.587   2.673
 9667SOL     OW29899   4.407   3.340   6.066
 9667SOL    HW129900   4.351   3.392   6.001
 9667SOL    HW229901   4.348   3.287   6.127
 9668SOL     OW29902   6.722   0.253   5.821
 9668SOL    HW129903   6.747   0.332   5.878
 9668SOL    HW229904   6.659   0.282   5.749
 9669SOL     OW29905   2.033   0.178   2.672
 9669SOL    HW129906   2.104   0.181   2.601
 9669SOL    HW229907   1.966   0.108   2.648
 9670SOL     OW29908   6.312   4.563   6.672
 9670SOL    HW129909   6.294   4.645   6.617
 9670SOL    HW229910   6.282   4.578   6.766
 9671SOL     OW29911   6.215   4.630   6.915
 9671SOL    HW129912   6.124   4.589   6.908
 9671SOL    HW229913   6.213   4.701   6.986
 9672SOL     OW29914   1.736   5.491   3.763
 9672SOL    HW129915   1.687   5.536   3.837
 9672SOL    HW229916   1.827   5.465   3.795
 9673SOL     OW29917   4.931   3.505   1.252
 9673SOL    HW129918   4.876   3.470   1.328
 9673SOL    HW229919   5.027   3.484   1.269
 9674SOL     OW29920   2.460   6.789   2.744
 9674SOL    HW129921   2.399   6.715   2.772
 9674SOL    HW229922   2.405   6.867   2.714
 9675SOL     OW29923   5.697   2.755   0.164
 9675SOL    HW129924   5.748   2.734   0.247
 9675SOL    HW229925   5.634   2.680   0.144
 9676SOL     OW29926   1.601   3.958   5.842
 9676SOL    HW129927   1.546   3.914   5.771
 9676SOL    HW229928   1.690   3.984   5.804
 9677SOL     OW29929   0.261   5.569   4.961
 9677SOL    HW129930   0.278   5.667   4.968
 9677SOL    HW229931   0.211   5.538   5.042
 9678SOL     OW29932   2.950   3.725   3.345
 9678SOL    HW129933   3.008   3.772   3.412
 9678SOL    HW229934   2.904   3.648   3.389
 9679SOL     OW29935   3.101   1.372   3.613
 9679SOL    HW129936   3.053   1.453   3.648
 9679SOL    HW229937   3.189   1.399   3.576
 9680SOL     OW29938   4.415   1.305   2.962
 9680SOL    HW129939   4.487   1.373   2.953
 9680SOL    HW229940   4.338   1.345   3.012
 9681SOL     OW29941   3.039   2.075   0.332
 9681SOL    HW129942   3.076   2.091   0.424
 9681SOL    HW229943   3.026   2.162   0.286
 9682SOL     OW29944   5.198   4.592   3.709
 9682SOL    HW129945   5.173   4.665   3.773
 9682SOL    HW229946   5.282   4.548   3.739
 9683SOL     OW29947   2.754   5.370   0.540
 9683SOL    HW129948   2.717   5.423   0.464
 9683SOL    HW229949   2.679   5.334   0.595
 9684SOL     OW29950   0.116   3.264   6.251
 9684SOL    HW129951   0.041   3.288   6.189
 9684SOL    HW229952   0.097   3.299   6.342
 9685SOL     OW29953   3.528   4.695   0.720
 9685SOL    HW129954   3.438   4.679   0.762
 9685SOL    HW229955   3.599   4.679   0.789
 9686SOL     OW29956   6.676   1.752   0.086
 9686SOL    HW129957   6.606   1.777   0.019
 9686SOL    HW229958   6.755   1.811   0.076
 9687SOL     OW29959   2.047   0.759   4.456
 9687SOL    HW129960   1.974   0.777   4.521
 9687SOL    HW229961   2.087   0.845   4.427
 9688SOL     OW29962   0.817   3.243   2.734
 9688SOL    HW129963   0.838   3.321   2.793
 9688SOL    HW229964   0.843   3.265   2.640
 9689SOL     OW29965   0.486   4.382   6.129
 9689SOL    HW129966   0.466   4.322   6.206
 9689SOL    HW229967   0.581   4.371   6.101
 9690SOL     OW29968   5.980   5.432   6.969
 9690SOL    HW129969   5.949   5.489   0.023
 9690SOL    HW229970   5.970   5.335   6.993
 9691SOL     OW29971   3.216   5.428   0.537
 9691SOL    HW129972   3.279   5.352   0.557
 9691SOL    HW229973   3.125   5.406   0.572
 9692SOL     OW29974   3.368   5.325   2.909
 9692SOL    HW129975   3.401   5.410   2.950
 9692SOL    HW229976   3.445   5.275   2.870
 9693SOL     OW29977   5.907   4.642   1.709
 9693SOL    HW129978   6.003   4.649   1.683
 9693SOL    HW229979   5.872   4.552   1.680
 9694SOL     OW29980   2.175   0.936   0.494
 9694SOL    HW129981   2.079   0.962   0.483
 9694SOL    HW229982   2.184   0.837   0.482
 9695SOL     OW29983   7.007   2.910   3.101
 9695SOL    HW129984   0.080   2.935   3.115
 9695SOL    HW229985   6.998   2.856   3.018
 9696SOL     OW29986   5.193   3.435   1.279
 9696SOL    HW129987   5.166   3.443   1.183
 9696SOL    HW229988   5.273   3.375   1.287
 9697SOL     OW29989   0.412   5.379   6.945
 9697SOL    HW129990   0.332   5.333   6.985
 9697SOL    HW229991   0.403   5.380   6.846
 9698SOL     OW29992   4.568   1.476   5.719
 9698SOL    HW129993   4.620   1.551   5.760
 9698SOL    HW229994   4.476   1.509   5.695
 9699SOL     OW29995   6.505   4.938   6.700
 9699SOL    HW129996   6.459   4.987   6.774
 9699SOL    HW229997   6.540   5.003   6.633
 9700SOL     OW29998   4.771   5.710   4.829
 9700SOL    HW129999   4.706   5.637   4.807
 9700SOL    HW230000   4.723   5.797   4.830
 9701SOL     OW30001   4.591   5.031   5.632
 9701SOL    HW130002   4.494   5.025   5.656
 9701SOL    HW230003   4.622   5.125   5.641
 9702SOL     OW30004   4.586   0.394   6.593
 9702SOL    HW130005   4.529   0.388   6.675
 9702SOL    HW230006   4.541   0.451   6.525
 9703SOL     OW30007   4.848   3.931   3.660
 9703SOL    HW130008   4.857   3.844   3.611
 9703SOL    HW230009   4.838   4.006   3.595
 9704SOL     OW30010   3.748   0.467   2.263
 9704SOL    HW130011   3.848   0.459   2.263
 9704SOL    HW230012   3.710   0.409   2.191
 9705SOL     OW30013   5.541   4.477   5.931
 9705SOL    HW130014   5.479   4.464   5.854
 9705SOL    HW230015   5.605   4.551   5.910
 9706SOL     OW30016   1.658   3.124   0.450
 9706SOL    HW130017   1.753   3.144   0.426
 9706SOL    HW230018   1.656   3.080   0.540
 9707SOL     OW30019   6.794   4.922   2.503
 9707SOL    HW130020   6.786   4.838   2.450
 9707SOL    HW230021   6.713   4.935   2.559
 9708SOL     OW30022   1.669   1.884   3.426
 9708SOL    HW130023   1.751   1.938   3.409
 9708SOL    HW230024   1.686   1.821   3.502
 9709SOL     OW30025   5.345   6.180   3.020
 9709SOL    HW130026   5.325   6.274   3.048
 9709SOL    HW230027   5.443   6.171   3.000
 9710SOL     OW30028   6.982   1.377   1.481
 9710SOL    HW130029   6.936   1.386   1.393
 9710SOL    HW230030   6.964   1.459   1.536
 9711SOL     OW30031   2.819   5.377   6.073
 9711SOL    HW130032   2.915   5.372   6.048
 9711SOL    HW230033   2.780   5.464   6.043
 9712SOL     OW30034   5.500   3.503   6.654
 9712SOL    HW130035   5.581   3.452   6.626
 9712SOL    HW230036   5.516   3.546   6.743
 9713SOL     OW30037   0.943   4.349   3.648
 9713SOL    HW130038   0.907   4.266   3.692
 9713SOL    HW230039   0.975   4.413   3.718
 9714SOL     OW30040   3.875   6.701   6.492
 9714SOL    HW130041   3.867   6.646   6.575
 9714SOL    HW230042   3.787   6.702   6.444
 9715SOL     OW30043   5.681   4.010   6.152
 9715SOL    HW130044   5.622   3.930   6.151
 9715SOL    HW230045   5.626   4.092   6.138
 9716SOL     OW30046   3.994   4.334   6.583
 9716SOL    HW130047   3.974   4.427   6.615
 9716SOL    HW230048   4.045   4.285   6.653
 9717SOL     OW30049   5.353   6.174   6.192
 9717SOL    HW130050   5.280   6.144   6.255
 9717SOL    HW230051   5.376   6.269   6.211
 9718SOL     OW30052   4.753   2.973   0.345
 9718SOL    HW130053   4.756   3.020   0.433
 9718SOL    HW230054   4.659   2.954   0.320
 9719SOL     OW30055   6.572   1.438   5.782
 9719SOL    HW130056   6.560   1.508   5.711
 9719SOL    HW230057   6.482   1.406   5.812
 9720SOL     OW30058   0.349   5.278   2.515
 9720SOL    HW130059   0.378   5.318   2.602
 9720SOL    HW230060   0.268   5.220   2.531
 9721SOL     OW30061   6.625   1.801   0.908
 9721SOL    HW130062   6.626   1.764   0.815
 9721SOL    HW230063   6.562   1.746   0.965
 9722SOL     OW30064   5.802   1.032   4.224
 9722SOL    HW130065   5.761   0.944   4.202
 9722SOL    HW230066   5.874   1.020   4.293
 9723SOL     OW30067   2.257   6.545   2.358
 9723SOL    HW130068   2.209   6.509   2.278
 9723SOL    HW230069   2.190   6.586   2.420
 9724SOL     OW30070   1.953   4.469   0.454
 9724SOL    HW130071   1.866   4.480   0.502
 9724SOL    HW230072   1.938   4.421   0.367
 9725SOL     OW30073   4.133   4.857   6.201
 9725SOL    HW130074   4.163   4.937   6.252
 9725SOL    HW230075   4.157   4.774   6.253
 9726SOL     OW30076   5.120   1.449   4.285
 9726SOL    HW130077   5.195   1.444   4.350
 9726SOL    HW230078   5.079   1.540   4.288
 9727SOL     OW30079   1.530   3.437   6.424
 9727SOL    HW130080   1.540   3.528   6.465
 9727SOL    HW230081   1.446   3.435   6.369
 9728SOL     OW30082   0.654   0.756   5.807
 9728SOL    HW130083   0.659   0.691   5.732
 9728SOL    HW230084   0.740   0.754   5.859
 9729SOL     OW30085   0.576   3.725   4.275
 9729SOL    HW130086   0.587   3.824   4.266
 9729SOL    HW230087   0.543   3.688   4.189
 9730SOL     OW30088   1.039   3.694   4.101
 9730SOL    HW130089   1.060   3.791   4.115
 9730SOL    HW230090   1.107   3.638   4.149
 9731SOL     OW30091   4.820   4.652   1.294
 9731SOL    HW130092   4.735   4.687   1.333
 9731SOL    HW230093   4.859   4.583   1.356
 9732SOL     OW30094   6.383   5.508   3.276
 9732SOL    HW130095   6.468   5.514   3.224
 9732SOL    HW230096   6.403   5.478   3.369
 9733SOL     OW30097   5.985   5.035   0.488
 9733SOL    HW130098   6.064   5.081   0.446
 9733SOL    HW230099   6.011   5.001   0.579
 9734SOL     OW30100   6.590   1.601   1.984
 9734SOL    HW130101   6.587   1.700   1.994
 9734SOL    HW230102   6.521   1.559   2.043
 9735SOL     OW30103   1.978   4.489   4.083
 9735SOL    HW130104   1.933   4.578   4.077
 9735SOL    HW230105   2.026   4.480   4.170
 9736SOL     OW30106   6.492   0.920   6.922
 9736SOL    HW130107   6.397   0.938   6.897
 9736SOL    HW230108   6.504   0.932   7.020
 9737SOL     OW30109   5.335   2.855   3.453
 9737SOL    HW130110   5.259   2.920   3.444
 9737SOL    HW230111   5.299   2.765   3.478
 9738SOL     OW30112   1.477   0.227   1.619
 9738SOL    HW130113   1.462   0.140   1.667
 9738SOL    HW230114   1.476   0.302   1.686
 9739SOL     OW30115   5.796   4.694   2.210
 9739SOL    HW130116   5.698   4.701   2.197
 9739SOL    HW230117   5.838   4.784   2.199
 9740SOL     OW30118   6.459   1.770   3.303
 9740SOL    HW130119   6.544   1.791   3.256
 9740SOL    HW230120   6.410   1.854   3.323
 9741SOL     OW30121   3.404   0.881   2.665
 9741SOL    HW130122   3.414   0.854   2.760
 9741SOL    HW230123   3.308   0.895   2.644
 9742SOL     OW30124   4.410   0.386   0.823
 9742SOL    HW130125   4.442   0.367   0.730
 9742SOL    HW230126   4.325   0.336   0.839
 9743SOL     OW30127   6.878   2.244   5.303
 9743SOL    HW130128   6.856   2.267   5.208
 9743SOL    HW230129   6.959   2.187   5.306
 9744SOL     OW30130   1.131   0.132   2.869
 9744SOL    HW130131   1.095   0.202   2.931
 9744SOL    HW230132   1.182   0.064   2.921
 9745SOL     OW30133   5.497   3.262   5.986
 9745SOL    HW130134   5.407   3.306   5.985
 9745SOL    HW230135   5.507   3.208   6.070
 9746SOL     OW30136   6.758   0.218   5.266
 9746SOL    HW130137   6.773   0.309   5.226
 9746SOL    HW230138   6.843   0.185   5.307
 9747SOL     OW30139   2.239   0.699   1.812
 9747SOL    HW130140   2.319   0.646   1.784
 9747SOL    HW230141   2.266   0.794   1.830
 9748SOL     OW30142   0.408   1.496   3.526
 9748SOL    HW130143   0.507   1.496   3.508
 9748SOL    HW230144   0.392   1.499   3.624
 9749SOL     OW30145   2.508   1.034   4.855
 9749SOL    HW130146   2.593   1.041   4.803
 9749SOL    HW230147   2.443   1.101   4.822
 9750SOL     OW30148   5.711   4.438   3.327
 9750SOL    HW130149   5.679   4.450   3.421
 9750SOL    HW230150   5.661   4.500   3.267
 9751SOL     OW30151   1.308   0.863   1.437
 9751SOL    HW130152   1.235   0.822   1.491
 9751SOL    HW230153   1.370   0.913   1.497
 9752SOL     OW30154   4.562   2.076   5.344
 9752SOL    HW130155   4.479   2.052   5.394
 9752SOL    HW230156   4.548   2.161   5.294
 9753SOL     OW30157   6.132   5.972   6.004
 9753SOL    HW130158   6.218   5.944   6.048
 9753SOL    HW230159   6.123   5.925   5.916
 9754SOL     OW30160   1.197   1.270   6.108
 9754SOL    HW130161   1.114   1.230   6.147
 9754SOL    HW230162   1.277   1.222   6.145
 9755SOL     OW30163   3.421   3.281   4.548
 9755SOL    HW130164   3.461   3.325   4.628
 9755SOL    HW230165   3.431   3.182   4.557
 9756SOL     OW30166   6.493   3.444   0.709
 9756SOL    HW130167   6.457   3.373   0.770
 9756SOL    HW230168   6.421   3.511   0.690
 9757SOL     OW30169   5.550   3.680   3.983
 9757SOL    HW130170   5.536   3.701   3.886
 9757SOL    HW230171   5.497   3.743   4.039
 9758SOL     OW30172   2.306   6.638   6.828
 9758SOL    HW130173   2.379   6.632   6.760
 9758SOL    HW230174   2.317   6.564   6.895
 9759SOL     OW30175   1.734   0.387   0.104
 9759SOL    HW130176   1.649   0.396   0.157
 9759SOL    HW230177   1.761   0.291   0.102
 9760SOL     OW30178   4.432   2.440   4.844
 9760SOL    HW130179   4.482   2.527   4.851
 9760SOL    HW230180   4.352   2.443   4.903
 9761SOL     OW30181   5.741   1.467   2.929
 9761SOL    HW130182   5.726   1.523   2.848
 9761SOL    HW230183   5.726   1.371   2.907
 9762SOL     OW30184   3.356   1.086   4.422
 9762SOL    HW130185   3.354   1.132   4.333
 9762SOL    HW230186   3.404   0.998   4.412
 9763SOL     OW30187   5.245   2.009   2.191
 9763SOL    HW130188   5.271   2.054   2.106
 9763SOL    HW230189   5.146   1.999   2.194
 9764SOL     OW30190   0.008   2.750   2.855
 9764SOL    HW130191   0.075   2.683   2.888
 9764SOL    HW230192   0.022   2.766   2.758
 9765SOL     OW30193   6.765   1.227   3.803
 9765SOL    HW130194   6.750   1.258   3.709
 9765SOL    HW230195   6.678   1.196   3.842
 9766SOL     OW30196   3.012   0.278   2.814
 9766SOL    HW130197   2.974   0.342   2.748
 9766SOL    HW230198   3.074   0.327   2.875
 9767SOL     OW30199   5.122   0.939   4.764
 9767SOL    HW130200   5.190   0.962   4.694
 9767SOL    HW230201   5.036   0.984   4.744
 9768SOL     OW30202   5.551   1.959   2.939
 9768SOL    HW130203   5.642   1.932   2.908
 9768SOL    HW230204   5.559   2.007   3.026
 9769SOL     OW30205   3.407   1.155   2.994
 9769SOL    HW130206   3.432   1.184   2.902
 9769SOL    HW230207   3.319   1.194   3.019
 9770SOL     OW30208   5.388   0.458   6.683
 9770SOL    HW130209   5.400   0.557   6.671
 9770SOL    HW230210   5.467   0.411   6.643
 9771SOL     OW30211   2.858   5.740   0.420
 9771SOL    HW130212   2.915   5.711   0.497
 9771SOL    HW230213   2.905   5.721   0.334
 9772SOL     OW30214   1.218   5.974   2.916
 9772SOL    HW130215   1.294   6.029   2.879
 9772SOL    HW230216   1.219   5.884   2.873
 9773SOL     OW30217   5.971   5.272   4.601
 9773SOL    HW130218   5.897   5.329   4.564
 9773SOL    HW230219   6.053   5.286   4.546
 9774SOL     OW30220   0.190   4.805   2.098
 9774SOL    HW130221   0.165   4.712   2.074
 9774SOL    HW230222   0.274   4.830   2.051
 9775SOL     OW30223   2.366   0.316   3.200
 9775SOL    HW130224   2.449   0.302   3.146
 9775SOL    HW230225   2.331   0.228   3.231
 9776SOL     OW30226   1.783   4.400   4.408
 9776SOL    HW130227   1.685   4.388   4.428
 9776SOL    HW230228   1.811   4.332   4.341
 9777SOL     OW30229   6.173   5.457   6.307
 9777SOL    HW130230   6.111   5.534   6.325
 9777SOL    HW230231   6.235   5.445   6.385
 9778SOL     OW30232   0.206   0.854   4.087
 9778SOL    HW130233   0.184   0.782   4.152
 9778SOL    HW230234   0.148   0.934   4.104
 9779SOL     OW30235   1.375   1.507   5.241
 9779SOL    HW130236   1.471   1.482   5.236
 9779SOL    HW230237   1.319   1.429   5.212
 9780SOL     OW30238   2.721   1.805   1.576
 9780SOL    HW130239   2.645   1.745   1.600
 9780SOL    HW230240   2.692   1.900   1.586
 9781SOL     OW30241   1.935   4.173   4.296
 9781SOL    HW130242   1.946   4.189   4.198
 9781SOL    HW230243   1.921   4.075   4.312
 9782SOL     OW30244   6.447   1.432   1.538
 9782SOL    HW130245   6.485   1.345   1.508
 9782SOL    HW230246   6.448   1.437   1.638
 9783SOL     OW30247   4.388   2.022   3.349
 9783SOL    HW130248   4.386   1.981   3.440
 9783SOL    HW230249   4.483   2.033   3.320
 9784SOL     OW30250   4.018   1.164   4.190
 9784SOL    HW130251   4.097   1.197   4.242
 9784SOL    HW230252   4.008   1.065   4.204
 9785SOL     OW30253   0.698   3.583   5.917
 9785SOL    HW130254   0.667   3.615   5.827
 9785SOL    HW230255   0.779   3.634   5.945
 9786SOL     OW30256   2.178   4.081   0.047
 9786SOL    HW130257   2.188   4.175   0.015
 9786SOL    HW230258   2.267   4.045   0.076
 9787SOL     OW30259   4.663   4.191   1.679
 9787SOL    HW130260   4.755   4.206   1.715
 9787SOL    HW230261   4.596   4.205   1.752
 9788SOL     OW30262   0.545   0.310   3.832
 9788SOL    HW130263   0.455   0.299   3.791
 9788SOL    HW230264   0.610   0.246   3.790
 9789SOL     OW30265   0.986   5.423   0.667
 9789SOL    HW130266   0.910   5.413   0.603
 9789SOL    HW230267   0.987   5.345   0.730
 9790SOL     OW30268   5.750   4.240   6.517
 9790SOL    HW130269   5.711   4.309   6.456
 9790SOL    HW230270   5.768   4.156   6.465
 9791SOL     OW30271   1.006   0.667   2.664
 9791SOL    HW130272   1.082   0.669   2.730
 9791SOL    HW230273   0.986   0.761   2.635
 9792SOL     OW30274   4.890   5.335   1.162
 9792SOL    HW130275   4.956   5.391   1.213
 9792SOL    HW230276   4.839   5.278   1.227
 9793SOL     OW30277   4.717   5.993   3.696
 9793SOL    HW130278   4.758   5.940   3.621
 9793SOL    HW230279   4.781   6.063   3.726
 9794SOL     OW30280   6.865   4.339   0.878
 9794SOL    HW130281   6.949   4.393   0.883
 9794SOL    HW230282   6.797   4.376   0.942
 9795SOL     OW30283   2.353   1.742   4.398
 9795SOL    HW130284   2.295   1.770   4.322
 9795SOL    HW230285   2.330   1.795   4.479
 9796SOL     OW30286   3.833   2.500   1.432
 9796SOL    HW130287   3.810   2.406   1.405
 9796SOL    HW230288   3.823   2.509   1.531
 9797SOL     OW30289   2.554   5.338   6.500
 9797SOL    HW130290   2.566   5.269   6.430
 9797SOL    HW230291   2.504   5.416   6.463
 9798SOL     OW30292   2.810   0.148   1.198
 9798SOL    HW130293   2.806   0.228   1.138
 9798SOL    HW230294   2.771   0.170   1.287
 9799SOL     OW30295   4.134   3.681   3.735
 9799SOL    HW130296   4.054   3.738   3.714
 9799SOL    HW230297   4.117   3.629   3.819
 9800SOL     OW30298   3.943   6.399   4.496
 9800SOL    HW130299   4.006   6.383   4.573
 9800SOL    HW230300   3.981   6.470   4.436
 9801SOL     OW30301   4.826   4.069   0.578
 9801SOL    HW130302   4.796   3.982   0.539
 9801SOL    HW230303   4.890   4.113   0.514
 9802SOL     OW30304   0.714   3.339   1.352
 9802SOL    HW130305   0.687   3.256   1.401
 9802SOL    HW230306   0.714   3.322   1.254
 9803SOL     OW30307   0.416   2.270   6.609
 9803SOL    HW130308   0.359   2.351   6.619
 9803SOL    HW230309   0.420   2.220   6.696
 9804SOL     OW30310   1.106   6.757   2.960
 9804SOL    HW130311   1.175   6.796   3.020
 9804SOL    HW230312   1.115   6.796   2.868
 9805SOL     OW30313   1.171   0.581   5.186
 9805SOL    HW130314   1.230   0.500   5.190
 9805SOL    HW230315   1.198   0.646   5.257
 9806SOL     OW30316   1.790   1.316   0.518
 9806SOL    HW130317   1.836   1.266   0.592
 9806SOL    HW230318   1.747   1.250   0.457
 9807SOL     OW30319   2.410   3.652   0.228
 9807SOL    HW130320   2.327   3.706   0.218
 9807SOL    HW230321   2.433   3.609   0.141
 9808SOL     OW30322   4.750   0.851   5.763
 9808SOL    HW130323   4.662   0.809   5.784
 9808SOL    HW230324   4.823   0.785   5.780
 9809SOL     OW30325   0.654   2.126   6.991
 9809SOL    HW130326   0.735   2.128   0.028
 9809SOL    HW230327   0.573   2.152   0.022
 9810SOL     OW30328   2.224   3.033   3.478
 9810SOL    HW130329   2.192   3.098   3.546
 9810SOL    HW230330   2.222   3.077   3.387
 9811SOL     OW30331   5.513   4.758   3.735
 9811SOL    HW130332   5.537   4.846   3.693
 9811SOL    HW230333   5.479   4.773   3.827
 9812SOL     OW30334   3.770   1.856   5.794
 9812SOL    HW130335   3.689   1.810   5.829
 9812SOL    HW230336   3.810   1.802   5.720
 9813SOL     OW30337   5.781   0.524   0.337
 9813SOL    HW130338   5.749   0.619   0.343
 9813SOL    HW230339   5.879   0.521   0.360
 9814SOL     OW30340   0.473   0.619   0.540
 9814SOL    HW130341   0.425   0.556   0.601
 9814SOL    HW230342   0.536   0.568   0.482
 9815SOL     OW30343   5.517   4.121   3.314
 9815SOL    HW130344   5.457   4.118   3.233
 9815SOL    HW230345   5.507   4.210   3.359
 9816SOL     OW30346   6.870   1.135   6.533
 9816SOL    HW130347   6.843   1.112   6.440
 9816SOL    HW230348   6.919   1.057   6.573
 9817SOL     OW30349   2.320   6.278   2.626
 9817SOL    HW130350   2.403   6.290   2.571
 9817SOL    HW230351   2.346   6.249   2.718
 9818SOL     OW30352   1.677   0.834   4.876
 9818SOL    HW130353   1.580   0.808   4.877
 9818SOL    HW230354   1.731   0.763   4.920
 9819SOL     OW30355   5.033   3.024   3.861
 9819SOL    HW130356   4.985   3.084   3.925
 9819SOL    HW230357   5.010   3.050   3.767
 9820SOL     OW30358   4.650   3.198   6.083
 9820SOL    HW130359   4.558   3.230   6.063
 9820SOL    HW230360   4.671   3.117   6.028
 9821SOL     OW30361   5.129   0.471   0.837
 9821SOL    HW130362   5.138   0.389   0.780
 9821SOL    HW230363   5.033   0.498   0.843
 9822SOL     OW30364   2.937   5.942   3.591
 9822SOL    HW130365   2.999   5.865   3.602
 9822SOL    HW230366   2.891   5.934   3.502
 9823SOL     OW30367   2.537   0.454   1.316
 9823SOL    HW130368   2.617   0.403   1.349
 9823SOL    HW230369   2.502   0.410   1.233
 9824SOL     OW30370   2.018   5.507   4.368
 9824SOL    HW130371   2.069   5.584   4.405
 9824SOL    HW230372   2.036   5.425   4.422
 9825SOL     OW30373   5.470   6.559   4.369
 9825SOL    HW130374   5.485   6.463   4.391
 9825SOL    HW230375   5.382   6.588   4.406
 9826SOL     OW30376   4.228   5.590   5.341
 9826SOL    HW130377   4.137   5.554   5.358
 9826SOL    HW230378   4.240   5.604   5.242
 9827SOL     OW30379   1.439   3.945   3.647
 9827SOL    HW130380   1.517   4.007   3.646
 9827SOL    HW230381   1.465   3.857   3.608
 9828SOL     OW30382   3.016   2.441   5.367
 9828SOL    HW130383   3.094   2.421   5.308
 9828SOL    HW230384   3.009   2.540   5.380
 9829SOL     OW30385   4.746   5.764   6.469
 9829SOL    HW130386   4.756   5.667   6.446
 9829SOL    HW230387   4.808   5.787   6.545
 9830SOL     OW30388   5.216   1.623   1.838
 9830SOL    HW130389   5.279   1.700   1.850
 9830SOL    HW230390   5.252   1.562   1.766
 9831SOL     OW30391   1.294   4.681   2.941
 9831SOL    HW130392   1.231   4.757   2.955
 9831SOL    HW230393   1.362   4.706   2.872
 9832SOL     OW30394   5.120   5.725   2.672
 9832SOL    HW130395   5.137   5.742   2.769
 9832SOL    HW230396   5.181   5.782   2.617
 9833SOL     OW30397   3.696   3.457   4.176
 9833SOL    HW130398   3.599   3.449   4.155
 9833SOL    HW230399   3.720   3.554   4.182
 9834SOL     OW30400   2.144   4.665   5.366
 9834SOL    HW130401   2.208   4.668   5.289
 9834SOL    HW230402   2.195   4.669   5.452
 9835SOL     OW30403   3.762   3.308   4.557
 9835SOL    HW130404   3.686   3.288   4.618
 9835SOL    HW230405   3.749   3.398   4.514
 9836SOL     OW30406   0.447   4.001   3.922
 9836SOL    HW130407   0.515   3.928   3.916
 9836SOL    HW230408   0.404   4.000   4.012
 9837SOL     OW30409   4.347   0.882   2.259
 9837SOL    HW130410   4.323   0.829   2.177
 9837SOL    HW230411   4.283   0.861   2.333
 9838SOL     OW30412   1.776   6.925   0.222
 9838SOL    HW130413   1.849   6.976   0.177
 9838SOL    HW230414   1.779   6.943   0.320
 9839SOL     OW30415   5.194   6.701   3.961
 9839SOL    HW130416   5.184   6.739   4.052
 9839SOL    HW230417   5.257   6.757   3.907
 9840SOL     OW30418   5.662   1.795   0.608
 9840SOL    HW130419   5.640   1.821   0.702
 9840SOL    HW230420   5.729   1.721   0.609
 9841SOL     OW30421   1.219   4.062   4.805
 9841SOL    HW130422   1.271   4.067   4.720
 9841SOL    HW230423   1.271   4.012   4.874
 9842SOL     OW30424   3.434   3.664   1.565
 9842SOL    HW130425   3.487   3.603   1.624
 9842SOL    HW230426   3.373   3.610   1.507
 9843SOL     OW30427   6.717   0.443   2.388
 9843SOL    HW130428   6.625   0.468   2.358
 9843SOL    HW230429   6.782   0.460   2.315
 9844SOL     OW30430   6.012   1.213   3.529
 9844SOL    HW130431   6.098   1.235   3.575
 9844SOL    HW230432   5.985   1.290   3.471
 9845SOL     OW30433   1.529   1.989   4.015
 9845SOL    HW130434   1.545   1.993   3.916
 9845SOL    HW230435   1.614   2.008   4.063
 9846SOL     OW30436   3.699   2.745   1.368
 9846SOL    HW130437   3.739   2.664   1.412
 9846SOL    HW230438   3.647   2.796   1.436
 9847SOL     OW30439   3.797   2.944   2.511
 9847SOL    HW130440   3.875   3.005   2.492
 9847SOL    HW230441   3.794   2.925   2.609
 9848SOL     OW30442   4.270   4.577   5.621
 9848SOL    HW130443   4.215   4.514   5.676
 9848SOL    HW230444   4.364   4.579   5.655
 9849SOL     OW30445   1.077   6.899   6.550
 9849SOL    HW130446   1.091   6.894   6.451
 9849SOL    HW230447   1.151   6.952   6.592
 9850SOL     OW30448   6.808   0.861   3.741
 9850SOL    HW130449   6.887   0.890   3.795
 9850SOL    HW230450   6.743   0.813   3.800
 9851SOL     OW30451   1.705   0.338   4.340
 9851SOL    HW130452   1.757   0.348   4.256
 9851SOL    HW230453   1.612   0.306   4.318
 9852SOL     OW30454   2.266   1.923   4.615
 9852SOL    HW130455   2.271   1.992   4.543
 9852SOL    HW230456   2.195   1.947   4.680
 9853SOL     OW30457   5.859   3.280   5.419
 9853SOL    HW130458   5.934   3.316   5.474
 9853SOL    HW230459   5.778   3.267   5.476
 9854SOL     OW30460   0.738   6.135   4.029
 9854SOL    HW130461   0.771   6.140   3.935
 9854SOL    HW230462   0.640   6.158   4.031
 9855SOL     OW30463   2.223   3.331   1.411
 9855SOL    HW130464   2.314   3.296   1.386
 9855SOL    HW230465   2.206   3.312   1.508
 9856SOL     OW30466   4.892   4.418   3.894
 9856SOL    HW130467   4.847   4.330   3.911
 9856SOL    HW230468   4.989   4.411   3.916
 9857SOL     OW30469   4.954   2.525   2.883
 9857SOL    HW130470   4.886   2.555   2.817
 9857SOL    HW230471   5.039   2.575   2.868
 9858SOL     OW30472   0.404   6.753   1.265
 9858SOL    HW130473   0.428   6.750   1.168
 9858SOL    HW230474   0.305   6.760   1.274
 9859SOL     OW30475   6.722   5.603   3.402
 9859SOL    HW130476   6.665   5.677   3.364
 9859SOL    HW230477   6.692   5.516   3.365
 9860SOL     OW30478   2.068   2.522   4.637
 9860SOL    HW130479   2.150   2.467   4.621
 9860SOL    HW230480   2.087   2.593   4.704
 9861SOL     OW30481   2.822   0.306   3.281
 9861SOL    HW130482   2.751   0.261   3.227
 9861SOL    HW230483   2.780   0.364   3.350
 9862SOL     OW30484   2.378   3.520   6.793
 9862SOL    HW130485   2.402   3.429   6.826
 9862SOL    HW230486   2.392   3.525   6.694
 9863SOL     OW30487   2.771   5.845   1.228
 9863SOL    HW130488   2.733   5.886   1.311
 9863SOL    HW230489   2.828   5.912   1.180
 9864SOL     OW30490   3.533   0.891   4.345
 9864SOL    HW130491   3.611   0.950   4.323
 9864SOL    HW230492   3.487   0.864   4.261
 9865SOL     OW30493   1.294   6.479   4.334
 9865SOL    HW130494   1.269   6.576   4.335
 9865SOL    HW230495   1.269   6.438   4.421
 9866SOL     OW30496   5.983   4.795   6.157
 9866SOL    HW130497   5.891   4.830   6.135
 9866SOL    HW230498   5.977   4.735   6.237
 9867SOL     OW30499   6.854   1.600   2.001
 9867SOL    HW130500   6.882   1.577   1.908
 9867SOL    HW230501   6.754   1.594   2.008
 9868SOL     OW30502   6.858   3.051   4.426
 9868SOL    HW130503   6.875   3.091   4.335
 9868SOL    HW230504   6.843   2.953   4.417
 9869SOL     OW30505   0.237   2.470   1.563
 9869SOL    HW130506   0.214   2.490   1.468
 9869SOL    HW230507   0.267   2.375   1.571
 9870SOL     OW30508   4.294   5.755   2.570
 9870SOL    HW130509   4.259   5.839   2.613
 9870SOL    HW230510   4.265   5.753   2.474
 9871SOL     OW30511   6.432   4.451   6.059
 9871SOL    HW130512   6.415   4.529   5.999
 9871SOL    HW230513   6.524   4.460   6.099
 9872SOL     OW30514   3.550   5.485   4.371
 9872SOL    HW130515   3.461   5.529   4.377
 9872SOL    HW230516   3.539   5.391   4.340
 9873SOL     OW30517   2.217   2.476   1.002
 9873SOL    HW130518   2.249   2.557   1.050
 9873SOL    HW230519   2.277   2.399   1.023
 9874SOL     OW30520   7.003   2.949   5.626
 9874SOL    HW130521   6.918   2.907   5.657
 9874SOL    HW230522   0.034   2.882   5.573
 9875SOL     OW30523   6.021   5.819   2.898
 9875SOL    HW130524   6.036   5.734   2.949
 9875SOL    HW230525   6.062   5.896   2.947
 9876SOL     OW30526   5.439   0.256   4.201
 9876SOL    HW130527   5.530   0.294   4.218
 9876SOL    HW230528   5.436   0.216   4.109
 9877SOL     OW30529   6.872   4.641   4.311
 9877SOL    HW130530   6.842   4.607   4.400
 9877SOL    HW230531   6.971   4.657   4.313
 9878SOL     OW30532   3.020   3.254   5.921
 9878SOL    HW130533   3.053   3.247   6.015
 9878SOL    HW230534   3.054   3.176   5.868
 9879SOL     OW30535   5.482   5.036   5.763
 9879SOL    HW130536   5.489   5.131   5.794
 9879SOL    HW230537   5.451   5.034   5.668
 9880SOL     OW30538   2.618   0.872   0.730
 9880SOL    HW130539   2.609   0.892   0.828
 9880SOL    HW230540   2.683   0.936   0.690
 9881SOL     OW30541   6.830   2.019   4.574
 9881SOL    HW130542   6.799   1.979   4.488
 9881SOL    HW230543   6.921   2.059   4.561
 9882SOL     OW30544   2.823   3.913   5.802
 9882SOL    HW130545   2.773   3.896   5.717
 9882SOL    HW230546   2.919   3.928   5.783
 9883SOL     OW30547   0.893   6.642   0.950
 9883SOL    HW130548   0.914   6.702   0.873
 9883SOL    HW230549   0.875   6.549   0.917
 9884SOL     OW30550   4.267   1.442   0.693
 9884SOL    HW130551   4.232   1.463   0.784
 9884SOL    HW230552   4.224   1.357   0.660
 9885SOL     OW30553   0.416   3.297   4.742
 9885SOL    HW130554   0.416   3.225   4.811
 9885SOL    HW230555   0.434   3.385   4.786
 9886SOL     OW30556   0.749   6.175   1.503
 9886SOL    HW130557   0.846   6.151   1.512
 9886SOL    HW230558   0.703   6.106   1.447
 9887SOL     OW30559   3.670   6.948   6.812
 9887SOL    HW130560   3.677   0.007   6.755
 9887SOL    HW230561   3.574   6.927   6.828
 9888SOL     OW30562   5.687   5.160   3.365
 9888SOL    HW130563   5.656   5.085   3.423
 9888SOL    HW230564   5.689   5.130   3.270
 9889SOL     OW30565   0.344   4.409   1.765
 9889SOL    HW130566   0.307   4.321   1.735
 9889SOL    HW230567   0.415   4.393   1.834
 9890SOL     OW30568   0.323   2.596   1.018
 9890SOL    HW130569   0.283   2.529   1.080
 9890SOL    HW230570   0.417   2.571   0.997
 9891SOL     OW30571   6.271   4.452   1.437
 9891SOL    HW130572   6.263   4.551   1.422
 9891SOL    HW230573   6.259   4.404   1.350
 9892SOL     OW30574   1.823   5.375   3.302
 9892SOL    HW130575   1.901   5.438   3.297
 9892SOL    HW230576   1.818   5.322   3.217
 9893SOL     OW30577   6.303   6.845   2.068
 9893SOL    HW130578   6.213   6.842   2.111
 9893SOL    HW230579   6.295   6.882   1.975
 9894SOL     OW30580   2.854   1.841   6.132
 9894SOL    HW130581   2.841   1.887   6.219
 9894SOL    HW230582   2.927   1.887   6.081
 9895SOL     OW30583   5.908   2.897   5.326
 9895SOL    HW130584   5.928   2.948   5.410
 9895SOL    HW230585   5.809   2.896   5.312
 9896SOL     OW30586   4.988   1.872   0.796
 9896SOL    HW130587   5.015   1.779   0.821
 9896SOL    HW230588   5.024   1.894   0.706
 9897SOL     OW30589   4.622   0.639   2.956
 9897SOL    HW130590   4.523   0.627   2.968
 9897SOL    HW230591   4.648   0.732   2.982
 9898SOL     OW30592   6.892   4.451   5.147
 9898SOL    HW130593   6.873   4.407   5.235
 9898SOL    HW230594   6.983   4.427   5.116
 9899SOL     OW30595   6.598   5.737   2.511
 9899SOL    HW130596   6.638   5.735   2.420
 9899SOL    HW230597   6.508   5.781   2.508
 9900SOL     OW30598   1.557   2.918   3.112
 9900SOL    HW130599   1.635   2.900   3.052
 9900SOL    HW230600   1.489   2.973   3.062
 9901SOL     OW30601   1.891   1.181   0.051
 9901SOL    HW130602   1.903   1.143   6.981
 9901SOL    HW230603   1.832   1.262   0.045
 9902SOL     OW30604   4.407   4.034   1.338
 9902SOL    HW130605   4.445   4.115   1.293
 9902SOL    HW230606   4.357   3.979   1.271
 9903SOL     OW30607   4.779   6.853   2.242
 9903SOL    HW130608   4.706   6.889   2.300
 9903SOL    HW230609   4.750   6.856   2.146
 9904SOL     OW30610   0.401   3.908   6.520
 9904SOL    HW130611   0.317   3.947   6.558
 9904SOL    HW230612   0.480   3.955   6.559
 9905SOL     OW30613   1.359   6.752   6.631
 9905SOL    HW130614   1.324   6.665   6.596
 9905SOL    HW230615   1.288   6.797   6.685
 9906SOL     OW30616   2.177   3.675   6.923
 9906SOL    HW130617   2.102   3.708   6.866
 9906SOL    HW230618   2.245   3.630   6.866
 9907SOL     OW30619   1.566   0.282   3.610
 9907SOL    HW130620   1.505   0.238   3.544
 9907SOL    HW230621   1.649   0.313   3.563
 9908SOL     OW30622   0.643   3.592   5.645
 9908SOL    HW130623   0.567   3.626   5.590
 9908SOL    HW230624   0.650   3.493   5.634
 9909SOL     OW30625   3.436   0.420   2.876
 9909SOL    HW130626   3.487   0.391   2.794
 9909SOL    HW230627   3.464   0.363   2.953
 9910SOL     OW30628   1.248   5.068   1.814
 9910SOL    HW130629   1.343   5.054   1.841
 9910SOL    HW230630   1.231   5.023   1.727
 9911SOL     OW30631   4.377   6.044   2.411
 9911SOL    HW130632   4.308   6.117   2.421
 9911SOL    HW230633   4.332   5.960   2.381
 9912SOL     OW30634   4.181   0.696   1.292
 9912SOL    HW130635   4.249   0.757   1.250
 9912SOL    HW230636   4.100   0.749   1.316
 9913SOL     OW30637   6.255   3.917   1.548
 9913SOL    HW130638   6.276   3.974   1.469
 9913SOL    HW230639   6.306   3.831   1.542
 9914SOL     OW30640   1.058   0.841   5.371
 9914SOL    HW130641   0.999   0.800   5.301
 9914SOL    HW230642   1.047   0.791   5.457
 9915SOL     OW30643   5.034   2.724   3.890
 9915SOL    HW130644   5.021   2.822   3.876
 9915SOL    HW230645   4.981   2.673   3.822
 9916SOL     OW30646   1.954   2.217   3.474
 9916SOL    HW130647   1.953   2.118   3.487
 9916SOL    HW230648   2.013   2.240   3.397
 9917SOL     OW30649   3.296   3.833   4.605
 9917SOL    HW130650   3.317   3.756   4.665
 9917SOL    HW230651   3.290   3.917   4.660
 9918SOL     OW30652   0.616   2.288   1.667
 9918SOL    HW130653   0.705   2.288   1.621
 9918SOL    HW230654   0.626   2.319   1.761
 9919SOL     OW30655   2.345   5.418   1.263
 9919SOL    HW130656   2.323   5.506   1.222
 9919SOL    HW230657   2.275   5.392   1.329
 9920SOL     OW30658   3.701   6.725   2.453
 9920SOL    HW130659   3.638   6.794   2.417
 9920SOL    HW230660   3.701   6.645   2.394
 9921SOL     OW30661   4.704   6.719   4.553
 9921SOL    HW130662   4.627   6.668   4.515
 9921SOL    HW230663   4.687   6.817   4.543
 9922SOL     OW30664   4.676   4.779   1.028
 9922SOL    HW130665   4.641   4.708   1.090
 9922SOL    HW230666   4.613   4.857   1.028
 9923SOL     OW30667   0.092   3.160   6.830
 9923SOL    HW130668   0.127   3.070   6.804
 9923SOL    HW230669   0.000   3.172   6.792
 9924SOL     OW30670   4.797   1.737   3.508
 9924SOL    HW130671   4.799   1.829   3.547
 9924SOL    HW230672   4.821   1.742   3.411
 9925SOL     OW30673   1.678   4.737   4.003
 9925SOL    HW130674   1.680   4.638   4.021
 9925SOL    HW230675   1.585   4.771   4.021
 9926SOL     OW30676   3.458   2.582   0.698
 9926SOL    HW130677   3.544   2.609   0.654
 9926SOL    HW230678   3.423   2.658   0.752
 9927SOL     OW30679   0.868   1.980   0.412
 9927SOL    HW130680   0.813   1.974   0.494
 9927SOL    HW230681   0.840   2.059   0.358
 9928SOL     OW30682   5.213   3.699   2.515
 9928SOL    HW130683   5.121   3.710   2.477
 9928SOL    HW230684   5.221   3.609   2.558
 9929SOL     OW30685   3.548   4.029   4.850
 9929SOL    HW130686   3.474   3.991   4.905
 9929SOL    HW230687   3.615   4.072   4.910
 9930SOL     OW30688   0.794   0.280   5.992
 9930SOL    HW130689   0.725   0.310   5.926
 9930SOL    HW230690   0.749   0.256   6.078
 9931SOL     OW30691   6.606   5.447   4.485
 9931SOL    HW130692   6.581   5.391   4.406
 9931SOL    HW230693   6.695   5.490   4.468
 9932SOL     OW30694   1.847   1.931   6.606
 9932SOL    HW130695   1.877   1.968   6.694
 9932SOL    HW230696   1.870   1.834   6.600
 9933SOL     OW30697   1.657   0.979   4.215
 9933SOL    HW130698   1.563   1.014   4.214
 9933SOL    HW230699   1.721   1.055   4.215
 9934SOL     OW30700   6.300   1.451   6.827
 9934SOL    HW130701   6.383   1.505   6.823
 9934SOL    HW230702   6.287   1.416   6.920
 9935SOL     OW30703   2.255   0.706   0.430
 9935SOL    HW130704   2.327   0.695   0.362
 9935SOL    HW230705   2.204   0.620   0.438
 9936SOL     OW30706   6.794   5.386   6.916
 9936SOL    HW130707   6.830   5.462   6.970
 9936SOL    HW230708   6.709   5.415   6.871
 9937SOL     OW30709   1.571   0.971   3.348
 9937SOL    HW130710   1.660   1.014   3.332
 9937SOL    HW230711   1.531   1.007   3.433
 9938SOL     OW30712   5.980   0.217   3.944
 9938SOL    HW130713   6.027   0.153   4.004
 9938SOL    HW230714   5.945   0.169   3.864
 9939SOL     OW30715   2.614   2.476   0.942
 9939SOL    HW130716   2.523   2.513   0.962
 9939SOL    HW230717   2.684   2.543   0.967
 9940SOL     OW30718   0.847   0.150   3.474
 9940SOL    HW130719   0.944   0.128   3.487
 9940SOL    HW230720   0.838   0.238   3.429
 9941SOL     OW30721   3.013   5.594   5.451
 9941SOL    HW130722   3.042   5.498   5.448
 9941SOL    HW230723   2.917   5.600   5.423
 9942SOL     OW30724   4.806   5.653   1.579
 9942SOL    HW130725   4.807   5.675   1.677
 9942SOL    HW230726   4.791   5.737   1.527
 9943SOL     OW30727   1.151   4.198   6.582
 9943SOL    HW130728   1.118   4.187   6.489
 9943SOL    HW230729   1.222   4.130   6.601
 9944SOL     OW30730   0.509   5.229   6.643
 9944SOL    HW130731   0.427   5.286   6.656
 9944SOL    HW230732   0.584   5.265   6.697
 9945SOL     OW30733   5.292   4.185   6.756
 9945SOL    HW130734   5.371   4.184   6.694
 9945SOL    HW230735   5.264   4.091   6.775
 9946SOL     OW30736   6.043   0.151   2.954
 9946SOL    HW130737   6.061   0.216   3.028
 9946SOL    HW230738   6.100   0.069   2.967
 9947SOL     OW30739   2.487   1.497   4.390
 9947SOL    HW130740   2.586   1.501   4.400
 9947SOL    HW230741   2.449   1.589   4.401
 9948SOL     OW30742   6.978   5.730   5.289
 9948SOL    HW130743   6.886   5.763   5.309
 9948SOL    HW230744   0.004   5.715   5.376
 9949SOL     OW30745   6.797   5.141   4.042
 9949SOL    HW130746   6.836   5.072   4.102
 9949SOL    HW230747   6.697   5.140   4.050
 9950SOL     OW30748   7.008   5.900   5.721
 9950SOL    HW130749   7.022   5.858   5.810
 9950SOL    HW230750   6.912   5.888   5.693
 9951SOL     OW30751   1.850   2.295   2.776
 9951SOL    HW130752   1.905   2.213   2.793
 9951SOL    HW230753   1.762   2.269   2.735
 9952SOL     OW30754   1.433   3.509   0.615
 9952SOL    HW130755   1.333   3.506   0.625
 9952SOL    HW230756   1.464   3.604   0.621
 9953SOL     OW30757   5.477   3.227   3.757
 9953SOL    HW130758   5.431   3.151   3.804
 9953SOL    HW230759   5.413   3.270   3.693
 9954SOL     OW30760   1.557   6.772   4.883
 9954SOL    HW130761   1.556   6.855   4.827
 9954SOL    HW230762   1.651   6.738   4.890
 9955SOL     OW30763   3.863   3.786   6.735
 9955SOL    HW130764   3.819   3.700   6.711
 9955SOL    HW230765   3.877   3.840   6.652
 9956SOL     OW30766   0.781   3.361   2.305
 9956SOL    HW130767   0.790   3.458   2.327
 9956SOL    HW230768   0.708   3.321   2.361
 9957SOL     OW30769   5.952   0.075   2.088
 9957SOL    HW130770   6.003   0.161   2.085
 9957SOL    HW230771   5.856   0.092   2.067
 9958SOL     OW30772   3.212   6.007   6.032
 9958SOL    HW130773   3.252   5.951   6.104
 9958SOL    HW230774   3.208   6.102   6.061
 9959SOL     OW30775   4.112   3.539   2.444
 9959SOL    HW130776   4.091   3.482   2.365
 9959SOL    HW230777   4.210   3.534   2.464
 9960SOL     OW30778   0.591   6.327   1.163
 9960SOL    HW130779   0.661   6.255   1.172
 9960SOL    HW230780   0.624   6.411   1.205
 9961SOL     OW30781   1.860   4.246   3.347
 9961SOL    HW130782   1.806   4.293   3.277
 9961SOL    HW230783   1.951   4.286   3.351
 9962SOL     OW30784   4.262   0.794   2.030
 9962SOL    HW130785   4.163   0.802   2.042
 9962SOL    HW230786   4.282   0.721   1.965
 9963SOL     OW30787   2.722   2.923   5.949
 9963SOL    HW130788   2.744   2.835   5.907
 9963SOL    HW230789   2.627   2.948   5.926
 9964SOL     OW30790   4.338   5.070   5.751
 9964SOL    HW130791   4.335   5.063   5.851
 9964SOL    HW230792   4.277   5.003   5.711
 9965SOL     OW30793   3.458   4.824   5.158
 9965SOL    HW130794   3.493   4.891   5.093
 9965SOL    HW230795   3.367   4.851   5.189
 9966SOL     OW30796   2.087   4.667   1.675
 9966SOL    HW130797   2.184   4.689   1.685
 9966SOL    HW230798   2.032   4.740   1.716
 9967SOL     OW30799   5.814   4.937   2.472
 9967SOL    HW130800   5.833   4.941   2.374
 9967SOL    HW230801   5.718   4.916   2.487
 9968SOL     OW30802   3.553   6.101   6.157
 9968SOL    HW130803   3.648   6.126   6.177
 9968SOL    HW230804   3.530   6.016   6.205
 9969SOL     OW30805   1.208   3.277   3.769
 9969SOL    HW130806   1.173   3.214   3.839
 9969SOL    HW230807   1.221   3.227   3.683
 9970SOL     OW30808   0.059   4.895   2.308
 9970SOL    HW130809   7.009   4.947   2.263
 9970SOL    HW230810   0.110   4.843   2.239
 9971SOL     OW30811   2.180   3.677   0.690
 9971SOL    HW130812   2.110   3.743   0.660
 9971SOL    HW230813   2.263   3.727   0.716
 9972SOL     OW30814   3.269   4.559   0.801
 9972SOL    HW130815   3.215   4.500   0.742
 9972SOL    HW230816   3.340   4.506   0.846
 9973SOL     OW30817   4.031   1.936   4.640
 9973SOL    HW130818   4.009   1.911   4.734
 9973SOL    HW230819   3.962   2.001   4.607
 9974SOL     OW30820   6.685   3.367   3.076
 9974SOL    HW130821   6.682   3.278   3.120
 9974SOL    HW230822   6.606   3.421   3.103
 9975SOL     OW30823   0.081   4.671   6.800
 9975SOL    HW130824   7.019   4.715   6.828
 9975SOL    HW230825   0.124   4.723   6.726
 9976SOL     OW30826   6.898   5.048   5.164
 9976SOL    HW130827   6.903   4.949   5.176
 9976SOL    HW230828   6.978   5.079   5.113
 9977SOL     OW30829   6.551   5.043   6.058
 9977SOL    HW130830   6.488   5.116   6.030
 9977SOL    HW230831   6.637   5.084   6.089
 9978SOL     OW30832   6.168   1.837   4.953
 9978SOL    HW130833   6.165   1.737   4.953
 9978SOL    HW230834   6.198   1.870   4.864
 9979SOL     OW30835   6.425   4.202   5.919
 9979SOL    HW130836   6.447   4.287   5.967
 9979SOL    HW230837   6.336   4.211   5.874
 9980SOL     OW30838   1.481   1.055   0.179
 9980SOL    HW130839   1.420   0.978   0.196
 9980SOL    HW230840   1.534   1.039   0.096
 9981SOL     OW30841   2.729   1.559   0.020
 9981SOL    HW130842   2.777   1.486   0.069
 9981SOL    HW230843   2.788   1.640   0.014
 9982SOL     OW30844   0.552   1.730   3.895
 9982SOL    HW130845   0.588   1.637   3.901
 9982SOL    HW230846   0.596   1.778   3.819
 9983SOL     OW30847   1.180   0.826   1.689
 9983SOL    HW130848   1.108   0.892   1.710
 9983SOL    HW230849   1.235   0.809   1.771
 9984SOL     OW30850   0.527   0.363   0.067
 9984SOL    HW130851   0.443   0.343   0.017
 9984SOL    HW230852   0.569   0.277   0.097
 9985SOL     OW30853   3.479   7.015   1.447
 9985SOL    HW130854   3.447   6.930   1.404
 9985SOL    HW230855   3.558   0.027   1.397
 9986SOL     OW30856   5.155   4.420   6.974
 9986SOL    HW130857   5.125   4.346   6.914
 9986SOL    HW230858   5.135   4.508   6.931
 9987SOL     OW30859   5.906   1.477   2.160
 9987SOL    HW130860   5.941   1.528   2.081
 9987SOL    HW230861   5.818   1.435   2.135
 9988SOL     OW30862   0.007   4.982   4.486
 9988SOL    HW130863   0.069   5.058   4.507
 9988SOL    HW230864   0.030   4.904   4.543
 9989SOL     OW30865   5.377   3.651   3.313
 9989SOL    HW130866   5.443   3.636   3.386
 9989SOL    HW230867   5.386   3.578   3.245
 9990SOL     OW30868   2.526   0.262   3.528
 9990SOL    HW130869   2.569   0.189   3.582
 9990SOL    HW230870   2.591   0.337   3.517
 9991SOL     OW30871   1.294   3.056   4.921
 9991SOL    HW130872   1.381   3.102   4.938
 9991SOL    HW230873   1.252   3.094   4.839
 9992SOL     OW30874   3.611   3.219   0.882
 9992SOL    HW130875   3.581   3.238   0.976
 9992SOL    HW230876   3.533   3.222   0.820
 9993SOL     OW30877   3.846   6.158   2.872
 9993SOL    HW130878   3.782   6.232   2.891
 9993SOL    HW230879   3.931   6.195   2.835
 9994SOL     OW30880   0.269   4.130   3.450
 9994SOL    HW130881   0.223   4.042   3.457
 9994SOL    HW230882   0.241   4.189   3.526
 9995SOL     OW30883   3.094   0.065   3.421
 9995SOL    HW130884   3.120   0.139   3.483
 9995SOL    HW230885   3.074   0.102   3.330
 9996SOL     OW30886   3.005   2.653   1.299
 9996SOL    HW130887   2.985   2.751   1.290
 9996SOL    HW230888   3.104   2.641   1.310
 9997SOL     OW30889   4.806   1.208   1.030
 9997SOL    HW130890   4.880   1.199   0.964
 9997SOL    HW230891   4.831   1.161   1.115
 9998SOL     OW30892   5.423   3.855   2.472
 9998SOL    HW130893   5.475   3.783   2.425
 9998SOL    HW230894   5.335   3.817   2.503
 9999SOL     OW30895   6.717   5.741   5.444
 9999SOL    HW130896   6.621   5.718   5.456
 9999SOL    HW230897   6.747   5.800   5.519
10000SOL     OW30898   6.107   2.196   6.705
10000SOL    HW130899   6.051   2.125   6.748
10000SOL    HW230900   6.065   2.285   6.718
10001SOL     OW30901   4.215   0.319   1.512
10001SOL    HW130902   4.274   0.398   1.530
10001SOL    HW230903   4.247   0.241   1.566
10002SOL     OW30904   1.288   1.347   1.942
10002SOL    HW130905   1.266   1.256   1.977
10002SOL    HW230906   1.204   1.395   1.920
10003SOL     OW30907   3.032   2.180   2.457
10003SOL    HW130908   3.030   2.127   2.372
10003SOL    HW230909   3.071   2.271   2.439
10004SOL     OW30910   5.253   3.166   4.914
10004SOL    HW130911   5.306   3.237   4.869
10004SOL    HW230912   5.296   3.077   4.897
10005SOL     OW30913   3.864   5.213   2.961
10005SOL    HW130914   3.893   5.200   3.056
10005SOL    HW230915   3.944   5.227   2.903
10006SOL     OW30916   5.386   1.894   5.225
10006SOL    HW130917   5.391   1.994   5.230
10006SOL    HW230918   5.306   1.862   5.277
10007SOL     OW30919   0.659   3.507   4.705
10007SOL    HW130920   0.637   3.411   4.687
10007SOL    HW230921   0.603   3.566   4.647
10008SOL     OW30922   4.103   1.551   2.714
10008SOL    HW130923   4.098   1.453   2.693
10008SOL    HW230924   4.079   1.565   2.810
10009SOL     OW30925   1.875   3.919   1.645
10009SOL    HW130926   1.778   3.928   1.669
10009SOL    HW230927   1.931   3.962   1.715
10010SOL     OW30928   1.935   6.276   0.362
10010SOL    HW130929   1.905   6.183   0.339
10010SOL    HW230930   1.933   6.333   0.280
10011SOL     OW30931   0.631   3.559   6.440
10011SOL    HW130932   0.632   3.471   6.392
10011SOL    HW230933   0.580   3.626   6.386
10012SOL     OW30934   4.921   6.702   2.446
10012SOL    HW130935   4.837   6.744   2.412
10012SOL    HW230936   4.969   6.658   2.370
10013SOL     OW30937   1.777   1.793   4.487
10013SOL    HW130938   1.807   1.838   4.571
10013SOL    HW230939   1.788   1.694   4.496
10014SOL     OW30940   0.198   1.743   1.402
10014SOL    HW130941   0.141   1.763   1.323
10014SOL    HW230942   0.275   1.807   1.406
10015SOL     OW30943   4.278   4.695   0.303
10015SOL    HW130944   4.335   4.748   0.240
10015SOL    HW230945   4.194   4.746   0.322
10016SOL     OW30946   2.200   7.021   4.786
10016SOL    HW130947   2.135   0.026   4.715
10016SOL    HW230948   2.292   0.027   4.760
10017SOL     OW30949   2.103   1.366   2.377
10017SOL    HW130950   2.023   1.317   2.413
10017SOL    HW230951   2.186   1.318   2.405
10018SOL     OW30952   6.301   4.883   6.143
10018SOL    HW130953   6.389   4.921   6.114
10018SOL    HW230954   6.267   4.821   6.072
10019SOL     OW30955   0.690   1.986   3.092
10019SOL    HW130956   0.759   1.914   3.089
10019SOL    HW230957   0.611   1.954   3.145
10020SOL     OW30958   0.639   1.088   0.989
10020SOL    HW130959   0.549   1.126   0.968
10020SOL    HW230960   0.648   1.077   1.088
10021SOL     OW30961   1.201   2.048   2.539
10021SOL    HW130962   1.142   1.968   2.534
10021SOL    HW230963   1.187   2.105   2.457
10022SOL     OW30964   3.912   0.003   0.897
10022SOL    HW130965   3.967   6.958   0.848
10022SOL    HW230966   3.888   0.078   0.835
10023SOL     OW30967   2.109   5.045   5.405
10023SOL    HW130968   2.114   4.958   5.455
10023SOL    HW230969   2.090   5.027   5.309
10024SOL     OW30970   1.854   6.422   1.784
10024SOL    HW130971   1.827   6.339   1.833
10024SOL    HW230972   1.850   6.500   1.846
10025SOL     OW30973   2.143   2.024   1.571
10025SOL    HW130974   2.138   1.960   1.494
10025SOL    HW230975   2.237   2.032   1.602
10026SOL     OW30976   3.949   6.154   3.225
10026SOL    HW130977   4.020   6.167   3.156
10026SOL    HW230978   3.873   6.102   3.185
10027SOL     OW30979   1.210   4.193   5.115
10027SOL    HW130980   1.145   4.235   5.051
10027SOL    HW230981   1.254   4.114   5.071
10028SOL     OW30982   1.043   1.562   2.247
10028SOL    HW130983   1.118   1.527   2.303
10028SOL    HW230984   0.959   1.510   2.266
10029SOL     OW30985   2.517   1.774   4.038
10029SOL    HW130986   2.563   1.795   4.124
10029SOL    HW230987   2.493   1.677   4.036
10030SOL     OW30988   2.297   0.218   4.235
10030SOL    HW130989   2.255   0.268   4.160
10030SOL    HW230990   2.249   0.238   4.321
10031SOL     OW30991   5.827   4.848   3.735
10031SOL    HW130992   5.765   4.788   3.785
10031SOL    HW230993   5.793   4.943   3.740
10032SOL     OW30994   3.767   0.326   5.316
10032SOL    HW130995   3.734   0.395   5.381
10032SOL    HW230996   3.697   0.255   5.305
10033SOL     OW30997   4.456   1.376   4.187
10033SOL    HW130998   4.394   1.334   4.254
10033SOL    HW230999   4.448   1.327   4.100
10034SOL     OW31000   3.865   0.254   4.179
10034SOL    HW131001   3.773   0.259   4.219
10034SOL    HW231002   3.878   0.332   4.118
10035SOL     OW31003   0.156   4.636   2.849
10035SOL    HW131004   0.247   4.651   2.808
10035SOL    HW231005   0.120   4.724   2.881
10036SOL     OW31006   5.841   0.656   1.177
10036SOL    HW131007   5.764   0.680   1.118
10036SOL    HW231008   5.914   0.616   1.122
10037SOL     OW31009   5.752   1.767   1.206
10037SOL    HW131010   5.671   1.723   1.167
10037SOL    HW231011   5.725   1.831   1.278
10038SOL     OW31012   4.317   1.225   6.279
10038SOL    HW131013   4.243   1.247   6.343
10038SOL    HW231014   4.308   1.283   6.197
10039SOL     OW31015   3.948   0.195   5.154
10039SOL    HW131016   3.976   0.116   5.209
10039SOL    HW231017   3.878   0.247   5.203
10040SOL     OW31018   4.292   5.793   6.132
10040SOL    HW131019   4.376   5.755   6.094
10040SOL    HW231020   4.308   5.889   6.157
10041SOL     OW31021   4.263   6.059   6.444
10041SOL    HW131022   4.225   6.074   6.352
10041SOL    HW231023   4.222   5.978   6.485
10042SOL     OW31024   1.090   1.988   4.789
10042SOL    HW131025   1.156   1.916   4.812
10042SOL    HW231026   1.115   2.029   4.701
10043SOL     OW31027   0.178   2.608   4.404
10043SOL    HW131028   0.111   2.639   4.337
10043SOL    HW231029   0.206   2.515   4.382
10044SOL     OW31030   2.644   1.385   4.958
10044SOL    HW131031   2.622   1.354   4.866
10044SOL    HW231032   2.743   1.391   4.968
10045SOL     OW31033   5.175   0.043   3.486
10045SOL    HW131034   5.263   0.030   3.440
10045SOL    HW231035   5.146   6.980   3.528
10046SOL     OW31036   1.757   3.626   1.384
10046SOL    HW131037   1.685   3.606   1.451
10046SOL    HW231038   1.845   3.631   1.431
10047SOL     OW31039   6.520   3.864   5.147
10047SOL    HW131040   6.421   3.865   5.138
10047SOL    HW231041   6.546   3.810   5.228
10048SOL     OW31042   6.135   1.125   2.887
10048SOL    HW131043   6.092   1.175   2.813
10048SOL    HW231044   6.196   1.186   2.938
10049SOL     OW31045   0.120   0.617   6.890
10049SOL    HW131046   0.208   0.610   6.845
10049SOL    HW231047   0.121   0.694   6.954
10050SOL     OW31048   5.770   3.452   4.977
10050SOL    HW131049   5.757   3.372   5.034
10050SOL    HW231050   5.867   3.477   4.976
10051SOL     OW31051   5.220   2.583   5.060
10051SOL    HW131052   5.265   2.668   5.085
10051SOL    HW231053   5.281   2.528   5.003
10052SOL     OW31054   2.127   1.878   2.749
10052SOL    HW131055   2.210   1.927   2.721
10052SOL    HW231056   2.094   1.823   2.674
10053SOL     OW31057   3.341   6.020   2.590
10053SOL    HW131058   3.420   5.969   2.622
10053SOL    HW231059   3.268   5.955   2.564
10054SOL     OW31060   5.374   5.656   6.469
10054SOL    HW131061   5.344   5.735   6.415
10054SOL    HW231062   5.378   5.575   6.410
10055SOL     OW31063   5.622   2.252   4.793
10055SOL    HW131064   5.525   2.252   4.767
10055SOL    HW231065   5.677   2.216   4.717
10056SOL     OW31066   5.319   4.335   3.334
10056SOL    HW131067   5.241   4.278   3.309
10056SOL    HW231068   5.337   4.327   3.432
10057SOL     OW31069   4.006   1.823   4.963
10057SOL    HW131070   4.008   1.724   4.956
10057SOL    HW231071   4.099   1.858   4.968
10058SOL     OW31072   0.248   3.629   4.399
10058SOL    HW131073   0.197   3.553   4.441
10058SOL    HW231074   0.283   3.600   4.310
10059SOL     OW31075   6.372   0.679   1.647
10059SOL    HW131076   6.318   0.700   1.566
10059SOL    HW231077   6.313   0.684   1.728
10060SOL     OW31078   1.387   2.096   1.714
10060SOL    HW131079   1.382   1.999   1.687
10060SOL    HW231080   1.481   2.128   1.707
10061SOL     OW31081   4.370   1.347   3.761
10061SOL    HW131082   4.411   1.435   3.782
10061SOL    HW231083   4.324   1.352   3.672
10062SOL     OW31084   6.051   0.008   4.787
10062SOL    HW131085   6.029   0.092   4.737
10062SOL    HW231086   6.064   0.031   4.884
10063SOL     OW31087   2.645   0.989   4.019
10063SOL    HW131088   2.586   0.969   3.941
10063SOL    HW231089   2.665   1.087   4.022
10064SOL     OW31090   5.127   0.134   0.141
10064SOL    HW131091   5.158   0.073   0.068
10064SOL    HW231092   5.063   0.202   0.103
10065SOL     OW31093   2.681   0.631   2.271
10065SOL    HW131094   2.586   0.659   2.257
10065SOL    HW231095   2.740   0.682   2.208
10066SOL     OW31096   0.478   2.523   4.053
10066SOL    HW131097   0.449   2.607   4.099
10066SOL    HW231098   0.440   2.444   4.102
10067SOL     OW31099   6.873   3.966   5.365
10067SOL    HW131100   6.785   4.010   5.382
10067SOL    HW231101   6.857   3.877   5.321
10068SOL     OW31102   0.208   3.001   3.205
10068SOL    HW131103   0.290   3.032   3.156
10068SOL    HW231104   0.165   3.078   3.251
10069SOL     OW31105   2.398   4.930   2.203
10069SOL    HW131106   2.325   4.931   2.135
10069SOL    HW231107   2.392   4.847   2.258
10070SOL     OW31108   6.638   6.217   4.928
10070SOL    HW131109   6.654   6.158   5.007
10070SOL    HW231110   6.675   6.174   4.846
10071SOL     OW31111   6.210   5.884   4.720
10071SOL    HW131112   6.246   5.810   4.776
10071SOL    HW231113   6.195   5.965   4.778
10072SOL     OW31114   6.798   6.741   4.016
10072SOL    HW131115   6.849   6.656   4.012
10072SOL    HW231116   6.851   6.810   4.065
10073SOL     OW31117   6.175   4.602   5.161
10073SOL    HW131118   6.265   4.639   5.136
10073SOL    HW231119   6.105   4.643   5.103
10074SOL     OW31120   1.884   0.710   5.282
10074SOL    HW131121   1.899   0.794   5.230
10074SOL    HW231122   1.912   0.724   5.377
10075SOL     OW31123   1.865   2.785   2.682
10075SOL    HW131124   1.894   2.861   2.624
10075SOL    HW231125   1.926   2.707   2.665
10076SOL     OW31126   6.203   0.348   4.393
10076SOL    HW131127   6.230   0.252   4.385
10076SOL    HW231128   6.268   0.405   4.342
10077SOL     OW31129   4.075   2.550   6.274
10077SOL    HW131130   4.090   2.649   6.275
10077SOL    HW231131   4.145   2.506   6.217
10078SOL     OW31132   0.388   5.714   3.805
10078SOL    HW131133   0.478   5.726   3.764
10078SOL    HW231134   0.357   5.620   3.791
10079SOL     OW31135   5.655   3.195   4.035
10079SOL    HW131136   5.693   3.271   4.087
10079SOL    HW231137   5.589   3.229   3.968
10080SOL     OW31138   4.613   0.642   5.584
10080SOL    HW131139   4.581   0.566   5.526
10080SOL    HW231140   4.710   0.658   5.566
10081SOL     OW31141   6.753   0.874   0.801
10081SOL    HW131142   6.729   0.880   0.704
10081SOL    HW231143   6.786   0.963   0.832
10082SOL     OW31144   0.427   5.158   1.630
10082SOL    HW131145   0.437   5.257   1.645
10082SOL    HW231146   0.474   5.108   1.703
10083SOL     OW31147   3.672   0.502   3.445
10083SOL    HW131148   3.665   0.546   3.355
10083SOL    HW231149   3.588   0.450   3.463
10084SOL     OW31150   2.111   1.129   5.597
10084SOL    HW131151   2.188   1.082   5.553
10084SOL    HW231152   2.132   1.226   5.607
10085SOL     OW31153   2.122   5.584   0.782
10085SOL    HW131154   2.136   5.494   0.823
10085SOL    HW231155   2.162   5.654   0.842
10086SOL     OW31156   4.862   5.728   2.328
10086SOL    HW131157   4.908   5.694   2.246
10086SOL    HW231158   4.798   5.801   2.303
10087SOL     OW31159   6.828   6.827   4.453
10087SOL    HW131160   6.799   6.915   4.492
10087SOL    HW231161   6.768   6.754   4.488
10088SOL     OW31162   6.489   0.435   2.252
10088SOL    HW131163   6.404   0.385   2.265
10088SOL    HW231164   6.511   0.440   2.155
10089SOL     OW31165   2.711   1.707   2.930
10089SOL    HW131166   2.699   1.756   3.017
10089SOL    HW231167   2.743   1.614   2.949
10090SOL     OW31168   0.843   4.993   1.855
10090SOL    HW131169   0.921   5.040   1.814
10090SOL    HW231170   0.875   4.937   1.932
10091SOL     OW31171   6.690   4.711   6.741
10091SOL    HW131172   6.708   4.670   6.652
10091SOL    HW231173   6.621   4.783   6.732
10092SOL     OW31174   2.063   2.683   5.714
10092SOL    HW131175   2.094   2.773   5.684
10092SOL    HW231176   2.050   2.624   5.634
10093SOL     OW31177   5.629   3.267   5.579
10093SOL    HW131178   5.600   3.287   5.486
10093SOL    HW231179   5.599   3.340   5.640
10094SOL     OW31180   3.541   5.556   1.402
10094SOL    HW131181   3.596   5.621   1.454
10094SOL    HW231182   3.466   5.522   1.459
10095SOL     OW31183   5.850   2.113   5.137
10095SOL    HW131184   5.758   2.152   5.144
10095SOL    HW231185   5.911   2.159   5.202
10096SOL     OW31186   4.388   5.393   2.893
10096SOL    HW131187   4.414   5.338   2.972
10096SOL    HW231188   4.439   5.361   2.813
10097SOL     OW31189   1.019   1.721   0.168
10097SOL    HW131190   1.041   1.769   0.253
10097SOL    HW231191   0.920   1.722   0.153
10098SOL     OW31192   3.067   0.210   5.032
10098SOL    HW131193   3.102   0.304   5.034
10098SOL    HW231194   2.975   0.211   4.991
10099SOL     OW31195   0.524   5.016   1.261
10099SOL    HW131196   0.526   4.950   1.337
10099SOL    HW231197   0.587   4.987   1.190
10100SOL     OW31198   4.578   6.459   5.279
10100SOL    HW131199   4.659   6.404   5.302
10100SOL    HW231200   4.516   6.461   5.357
10101SOL     OW31201   5.966   3.531   2.147
10101SOL    HW131202   6.008   3.511   2.058
10101SOL    HW231203   6.037   3.527   2.218
10102SOL     OW31204   0.124   1.392   2.035
10102SOL    HW131205   0.060   1.327   1.993
10102SOL    HW231206   0.077   1.446   2.104
10103SOL     OW31207   3.436   0.607   5.894
10103SOL    HW131208   3.524   0.619   5.848
10103SOL    HW231209   3.444   0.537   5.965
10104SOL     OW31210   1.695   1.647   4.766
10104SOL    HW131211   1.643   1.728   4.793
10104SOL    HW231212   1.634   1.583   4.719
10105SOL     OW31213   1.586   0.737   6.664
10105SOL    HW131214   1.604   0.645   6.700
10105SOL    HW231215   1.513   0.780   6.717
10106SOL     OW31216   3.901   6.120   0.426
10106SOL    HW131217   3.997   6.133   0.399
10106SOL    HW231218   3.862   6.044   0.374
10107SOL     OW31219   5.908   1.591   5.598
10107SOL    HW131220   5.930   1.644   5.517
10107SOL    HW231221   5.866   1.504   5.571
10108SOL     OW31222   6.670   0.934   0.522
10108SOL    HW131223   6.679   1.032   0.543
10108SOL    HW231224   6.718   0.915   0.436
10109SOL     OW31225   5.814   1.021   0.542
10109SOL    HW131226   5.757   1.103   0.547
10109SOL    HW231227   5.907   1.046   0.514
10110SOL     OW31228   4.622   4.756   4.783
10110SOL    HW131229   4.722   4.752   4.778
10110SOL    HW231230   4.585   4.664   4.772
10111SOL     OW31231   5.829   3.649   3.970
10111SOL    HW131232   5.730   3.649   3.983
10111SOL    HW231233   5.864   3.741   3.984
10112SOL     OW31234   5.784   3.817   3.687
10112SOL    HW131235   5.734   3.731   3.692
10112SOL    HW231236   5.750   3.871   3.610
10113SOL     OW31237   4.451   7.019   6.745
10113SOL    HW131238   4.447   0.021   6.648
10113SOL    HW231239   4.374   6.960   6.767
10114SOL     OW31240   4.263   2.341   1.500
10114SOL    HW131241   4.351   2.388   1.500
10114SOL    HW231242   4.272   2.253   1.454
10115SOL     OW31243   4.049   0.493   5.238
10115SOL    HW131244   4.096   0.576   5.209
10115SOL    HW231245   4.037   0.432   5.160
10116SOL     OW31246   0.499   0.047   0.184
10116SOL    HW131247   0.533   0.087   0.098
10116SOL    HW231248   0.560   6.995   0.211
10117SOL     OW31249   6.954   6.470   6.187
10117SOL    HW131250   0.025   6.501   6.173
10117SOL    HW231251   6.918   6.433   6.101
10118SOL     OW31252   2.171   3.910   2.995
10118SOL    HW131253   2.187   3.937   3.091
10118SOL    HW231254   2.130   3.819   2.992
10119SOL     OW31255   6.919   5.643   4.943
10119SOL    HW131256   6.881   5.728   4.907
10119SOL    HW231257   7.018   5.651   4.951
10120SOL     OW31258   2.192   3.139   4.520
10120SOL    HW131259   2.116   3.153   4.584
10120SOL    HW231260   2.191   3.212   4.451
10121SOL     OW31261   5.708   3.975   6.825
10121SOL    HW131262   5.621   3.931   6.800
10121SOL    HW231263   5.750   3.925   6.900
10122SOL     OW31264   5.520   3.099   2.781
10122SOL    HW131265   5.601   3.093   2.839
10122SOL    HW231266   5.507   3.013   2.732
10123SOL     OW31267   5.697   5.737   0.998
10123SOL    HW131268   5.679   5.665   1.065
10123SOL    HW231269   5.795   5.758   0.997
10124SOL     OW31270   1.462   4.574   0.781
10124SOL    HW131271   1.372   4.563   0.741
10124SOL    HW231272   1.517   4.635   0.723
10125SOL     OW31273   1.504   1.498   2.054
10125SOL    HW131274   1.444   1.571   2.085
10125SOL    HW231275   1.448   1.419   2.026
10126SOL     OW31276   6.949   0.173   0.388
10126SOL    HW131277   7.007   0.139   0.462
10126SOL    HW231278   6.855   0.181   0.420
10127SOL     OW31279   2.644   3.839   0.183
10127SOL    HW131280   2.718   3.855   0.118
10127SOL    HW231281   2.608   3.746   0.171
10128SOL     OW31282   3.059   1.384   6.749
10128SOL    HW131283   3.124   1.426   6.813
10128SOL    HW231284   3.108   1.328   6.683
10129SOL     OW31285   6.356   1.310   2.968
10129SOL    HW131286   6.410   1.238   3.011
10129SOL    HW231287   6.415   1.367   2.911
10130SOL     OW31288   1.156   2.047   1.077
10130SOL    HW131289   1.227   2.057   1.007
10130SOL    HW231290   1.195   2.068   1.167
10131SOL     OW31291   1.870   6.738   4.023
10131SOL    HW131292   1.938   6.781   3.963
10131SOL    HW231293   1.910   6.722   4.113
10132SOL     OW31294   3.178   0.348   3.774
10132SOL    HW131295   3.079   0.362   3.774
10132SOL    HW231296   3.223   0.423   3.726
10133SOL     OW31297   4.222   6.308   0.645
10133SOL    HW131298   4.186   6.370   0.575
10133SOL    HW231299   4.262   6.228   0.601
10134SOL     OW31300   6.222   0.564   2.422
10134SOL    HW131301   6.226   0.590   2.519
10134SOL    HW231302   6.242   0.467   2.413
10135SOL     OW31303   4.892   3.571   3.733
10135SOL    HW131304   4.904   3.605   3.640
10135SOL    HW231305   4.919   3.642   3.798
10136SOL     OW31306   4.982   1.819   2.446
10136SOL    HW131307   4.913   1.747   2.447
10136SOL    HW231308   4.941   1.904   2.413
10137SOL     OW31309   0.160   3.858   4.321
10137SOL    HW131310   0.102   3.832   4.244
10137SOL    HW231311   0.202   3.776   4.360
10138SOL     OW31312   5.549   3.618   0.438
10138SOL    HW131313   5.494   3.607   0.355
10138SOL    HW231314   5.629   3.558   0.434
10139SOL     OW31315   3.012   3.410   3.315
10139SOL    HW131316   2.994   3.318   3.349
10139SOL    HW231317   3.019   3.473   3.393
10140SOL     OW31318   0.289   6.373   0.153
10140SOL    HW131319   0.343   6.416   0.080
10140SOL    HW231320   0.227   6.305   0.113
10141SOL     OW31321   4.397   0.995   5.775
10141SOL    HW131322   4.448   0.910   5.764
10141SOL    HW231323   4.430   1.063   5.710
10142SOL     OW31324   6.140   6.526   6.054
10142SOL    HW131325   6.097   6.445   6.014
10142SOL    HW231326   6.238   6.510   6.065
10143SOL     OW31327   5.494   1.812   0.366
10143SOL    HW131328   5.566   1.854   0.311
10143SOL    HW231329   5.524   1.809   0.462
10144SOL     OW31330   3.889   6.985   6.527
10144SOL    HW131331   3.988   6.999   6.534
10144SOL    HW231332   3.868   6.888   6.534
10145SOL     OW31333   2.859   5.703   2.934
10145SOL    HW131334   2.944   5.756   2.940
10145SOL    HW231335   2.831   5.695   2.838
10146SOL     OW31336   4.952   4.340   5.018
10146SOL    HW131337   4.937   4.272   4.947
10146SOL    HW231338   4.888   4.324   5.094
10147SOL     OW31339   5.120   4.285   6.362
10147SOL    HW131340   5.049   4.330   6.416
10147SOL    HW231341   5.141   4.196   6.402
10148SOL     OW31342   4.973   4.934   6.896
10148SOL    HW131343   5.069   4.910   6.889
10148SOL    HW231344   4.921   4.853   6.925
10149SOL     OW31345   5.330   3.944   1.725
10149SOL    HW131346   5.335   3.849   1.755
10149SOL    HW231347   5.236   3.968   1.702
10150SOL     OW31348   3.715   3.044   1.175
10150SOL    HW131349   3.719   3.137   1.139
10150SOL    HW231350   3.774   3.037   1.256
10151SOL     OW31351   0.761   5.976   0.045
10151SOL    HW131352   0.838   5.978   0.109
10151SOL    HW231353   0.783   5.916   6.990
10152SOL     OW31354   6.750   6.609   3.713
10152SOL    HW131355   6.766   6.551   3.792
10152SOL    HW231356   6.734   6.552   3.632
10153SOL     OW31357   4.193   5.843   3.419
10153SOL    HW131358   4.202   5.924   3.477
10153SOL    HW231359   4.281   5.797   3.412
10154SOL     OW31360   3.762   5.925   4.783
10154SOL    HW131361   3.796   5.923   4.689
10154SOL    HW231362   3.705   5.844   4.799
10155SOL     OW31363   4.372   2.418   6.556
10155SOL    HW131364   4.351   2.515   6.538
10155SOL    HW231365   4.426   2.411   6.640
10156SOL     OW31366   5.058   0.720   2.186
10156SOL    HW131367   5.044   0.777   2.267
10156SOL    HW231368   4.970   0.709   2.139
10157SOL     OW31369   0.015   2.002   0.277
10157SOL    HW131370   0.114   1.991   0.279
10157SOL    HW231371   7.003   2.021   0.369
10158SOL     OW31372   6.568   5.802   0.782
10158SOL    HW131373   6.600   5.888   0.741
10158SOL    HW231374   6.470   5.806   0.796
10159SOL     OW31375   2.827   2.459   1.259
10159SOL    HW131376   2.882   2.538   1.285
10159SOL    HW231377   2.808   2.404   1.341
10160SOL     OW31378   1.438   2.911   2.473
10160SOL    HW131379   1.415   2.994   2.421
10160SOL    HW231380   1.471   2.936   2.563
10161SOL     OW31381   3.784   3.844   0.532
10161SOL    HW131382   3.779   3.745   0.516
10161SOL    HW231383   3.708   3.871   0.592
10162SOL     OW31384   3.908   5.013   0.274
10162SOL    HW131385   3.966   4.953   0.328
10162SOL    HW231386   3.919   4.991   0.177
10163SOL     OW31387   6.691   3.642   0.277
10163SOL    HW131388   6.758   3.602   0.214
10163SOL    HW231389   6.685   3.585   0.359
10164SOL     OW31390   6.247   3.799   5.152
10164SOL    HW131391   6.246   3.883   5.207
10164SOL    HW231392   6.204   3.725   5.205
10165SOL     OW31393   6.399   1.499   3.705
10165SOL    HW131394   6.432   1.527   3.795
10165SOL    HW231395   6.474   1.505   3.639
10166SOL     OW31396   2.947   1.658   1.488
10166SOL    HW131397   2.873   1.724   1.502
10166SOL    HW231398   2.919   1.590   1.420
10167SOL     OW31399   1.013   4.853   0.376
10167SOL    HW131400   0.943   4.863   0.305
10167SOL    HW231401   1.079   4.783   0.348
10168SOL     OW31402   6.376   2.602   6.475
10168SOL    HW131403   6.356   2.523   6.419
10168SOL    HW231404   6.303   2.670   6.465
10169SOL     OW31405   0.556   4.346   3.389
10169SOL    HW131406   0.543   4.318   3.294
10169SOL    HW231407   0.475   4.396   3.420
10170SOL     OW31408   6.967   5.703   6.197
10170SOL    HW131409   7.002   5.610   6.211
10170SOL    HW231410   6.868   5.703   6.213
10171SOL     OW31411   0.818   2.556   5.115
10171SOL    HW131412   0.884   2.595   5.179
10171SOL    HW231413   0.857   2.476   5.071
10172SOL     OW31414   1.125   5.686   4.854
10172SOL    HW131415   1.148   5.726   4.765
10172SOL    HW231416   1.047   5.624   4.844
10173SOL     OW31417   1.713   1.987   0.685
10173SOL    HW131418   1.717   1.971   0.587
10173SOL    HW231419   1.794   1.948   0.729
10174SOL     OW31420   5.336   5.175   3.270
10174SOL    HW131421   5.416   5.234   3.259
10174SOL    HW231422   5.365   5.079   3.264
10175SOL     OW31423   5.100   3.004   2.951
10175SOL    HW131424   5.017   2.958   2.983
10175SOL    HW231425   5.151   3.040   3.030
10176SOL     OW31426   0.140   2.693   5.012
10176SOL    HW131427   0.058   2.657   4.967
10176SOL    HW231428   0.128   2.791   5.029
10177SOL     OW31429   1.960   0.818   1.054
10177SOL    HW131430   1.861   0.820   1.065
10177SOL    HW231431   1.990   0.724   1.036
10178SOL     OW31432   6.648   0.571   0.457
10178SOL    HW131433   6.718   0.640   0.439
10178SOL    HW231434   6.691   0.484   0.480
10179SOL     OW31435   0.384   2.462   6.883
10179SOL    HW131436   0.483   2.455   6.875
10179SOL    HW231437   0.344   2.468   6.792
10180SOL     OW31438   4.152   0.511   6.521
10180SOL    HW131439   4.234   0.490   6.469
10180SOL    HW231440   4.071   0.492   6.465
10181SOL     OW31441   6.616   3.012   1.466
10181SOL    HW131442   6.697   2.977   1.512
10181SOL    HW231443   6.630   3.108   1.442
10182SOL     OW31444   4.522   0.937   0.701
10182SOL    HW131445   4.550   0.935   0.605
10182SOL    HW231446   4.458   0.862   0.719
10183SOL     OW31447   6.131   2.603   5.515
10183SOL    HW131448   6.169   2.557   5.436
10183SOL    HW231449   6.068   2.542   5.563
10184SOL     OW31450   4.493   1.818   6.273
10184SOL    HW131451   4.493   1.750   6.200
10184SOL    HW231452   4.453   1.779   6.356
10185SOL     OW31453   6.179   6.605   3.005
10185SOL    HW131454   6.261   6.661   3.016
10185SOL    HW231455   6.119   6.619   3.084
10186SOL     OW31456   5.164   4.044   4.633
10186SOL    HW131457   5.177   3.947   4.651
10186SOL    HW231458   5.117   4.055   4.545
10187SOL     OW31459   1.259   4.384   6.953
10187SOL    HW131460   1.213   4.427   0.008
10187SOL    HW231461   1.333   4.326   6.988
10188SOL     OW31462   3.563   4.294   6.762
10188SOL    HW131463   3.600   4.223   6.702
10188SOL    HW231464   3.593   4.278   6.856
10189SOL     OW31465   0.197   1.387   6.779
10189SOL    HW131466   0.261   1.374   6.854
10189SOL    HW231467   0.125   1.317   6.783
10190SOL     OW31468   3.812   3.450   1.239
10190SOL    HW131469   3.884   3.387   1.210
10190SOL    HW231470   3.824   3.471   1.336
10191SOL     OW31471   4.717   5.478   6.440
10191SOL    HW131472   4.794   5.434   6.394
10191SOL    HW231473   4.633   5.457   6.390
10192SOL     OW31474   4.487   0.862   5.519
10192SOL    HW131475   4.506   0.854   5.421
10192SOL    HW231476   4.525   0.783   5.567
10193SOL     OW31477   3.335   3.222   2.272
10193SOL    HW131478   3.294   3.306   2.235
10193SOL    HW231479   3.318   3.217   2.370
10194SOL     OW31480   4.992   0.593   5.379
10194SOL    HW131481   4.957   0.668   5.435
10194SOL    HW231482   5.087   0.612   5.355
10195SOL     OW31483   6.928   6.412   0.515
10195SOL    HW131484   6.973   6.484   0.462
10195SOL    HW231485   6.866   6.360   0.456
10196SOL     OW31486   3.537   2.014   4.235
10196SOL    HW131487   3.633   2.034   4.254
10196SOL    HW231488   3.506   2.067   4.156
10197SOL     OW31489   5.529   2.016   4.442
10197SOL    HW131490   5.460   1.949   4.416
10197SOL    HW231491   5.571   1.989   4.528
10198SOL     OW31492   3.569   6.617   2.054
10198SOL    HW131493   3.654   6.594   2.007
10198SOL    HW231494   3.561   6.564   2.139
10199SOL     OW31495   1.081   2.265   0.534
10199SOL    HW131496   0.999   2.288   0.482
10199SOL    HW231497   1.056   2.209   0.614
10200SOL     OW31498   4.644   3.479   5.438
10200SOL    HW131499   4.549   3.448   5.444
10200SOL    HW231500   4.657   3.530   5.353
10201SOL     OW31501   0.913   5.603   6.924
10201SOL    HW131502   1.005   5.633   6.949
10201SOL    HW231503   0.909   5.589   6.825
10202SOL     OW31504   2.863   4.452   0.229
10202SOL    HW131505   2.800   4.492   0.295
10202SOL    HW231506   2.873   4.514   0.151
10203SOL     OW31507   6.596   2.712   2.078
10203SOL    HW131508   6.599   2.753   2.169
10203SOL    HW231509   6.587   2.784   2.009
10204SOL     OW31510   3.865   5.183   6.462
10204SOL    HW131511   3.877   5.254   6.531
10204SOL    HW231512   3.903   5.097   6.495
10205SOL     OW31513   2.801   0.752   2.058
10205SOL    HW131514   2.773   0.720   1.967
10205SOL    HW231515   2.881   0.812   2.048
10206SOL     OW31516   6.774   0.180   6.569
10206SOL    HW131517   6.685   0.151   6.533
10206SOL    HW231518   6.792   0.134   6.656
10207SOL     OW31519   1.565   2.046   0.165
10207SOL    HW131520   1.557   2.125   0.226
10207SOL    HW231521   1.474   2.010   0.144
10208SOL     OW31522   6.438   5.423   3.523
10208SOL    HW131523   6.418   5.511   3.566
10208SOL    HW231524   6.517   5.381   3.567
10209SOL     OW31525   0.058   6.799   6.408
10209SOL    HW131526   0.138   6.768   6.459
10209SOL    HW231527   0.034   6.892   6.436
10210SOL     OW31528   5.221   6.210   0.828
10210SOL    HW131529   5.137   6.179   0.785
10210SOL    HW231530   5.206   6.222   0.926
10211SOL     OW31531   3.961   6.377   4.950
10211SOL    HW131532   3.994   6.415   5.036
10211SOL    HW231533   3.916   6.289   4.968
10212SOL     OW31534   0.092   6.587   5.576
10212SOL    HW131535   0.164   6.564   5.510
10212SOL    HW231536   0.004   6.592   5.529
10213SOL     OW31537   5.681   3.151   2.316
10213SOL    HW131538   5.670   3.052   2.316
10213SOL    HW231539   5.594   3.194   2.337
10214SOL     OW31540   0.732   1.734   1.548
10214SOL    HW131541   0.791   1.785   1.611
10214SOL    HW231542   0.753   1.761   1.454
10215SOL     OW31543   3.356   2.932   3.574
10215SOL    HW131544   3.353   2.848   3.520
10215SOL    HW231545   3.271   2.941   3.626
10216SOL     OW31546   0.812   1.279   0.824
10216SOL    HW131547   0.893   1.225   0.802
10216SOL    HW231548   0.759   1.232   0.895
10217SOL     OW31549   2.025   2.338   3.725
10217SOL    HW131550   2.021   2.287   3.639
10217SOL    HW231551   1.956   2.411   3.724
10218SOL     OW31552   1.444   0.627   1.672
10218SOL    HW131553   1.534   0.591   1.696
10218SOL    HW231554   1.414   0.691   1.742
10219SOL     OW31555   0.539   2.259   2.700
10219SOL    HW131556   0.565   2.175   2.653
10219SOL    HW231557   0.489   2.236   2.784
10220SOL     OW31558   4.040   1.470   1.351
10220SOL    HW131559   4.014   1.501   1.443
10220SOL    HW231560   4.139   1.470   1.342
10221SOL     OW31561   1.850   3.622   4.454
10221SOL    HW131562   1.939   3.658   4.426
10221SOL    HW231563   1.800   3.591   4.373
10222SOL     OW31564   2.652   3.845   5.604
10222SOL    HW131565   2.628   3.820   5.510
10222SOL    HW231566   2.628   3.769   5.665
10223SOL     OW31567   2.409   5.096   0.471
10223SOL    HW131568   2.469   5.016   0.460
10223SOL    HW231569   2.465   5.179   0.472
10224SOL     OW31570   6.357   2.243   5.410
10224SOL    HW131571   6.288   2.299   5.363
10224SOL    HW231572   6.321   2.151   5.423
10225SOL     OW31573   2.060   5.802   6.322
10225SOL    HW131574   2.010   5.737   6.265
10225SOL    HW231575   2.134   5.754   6.369
10226SOL     OW31576   2.098   0.621   6.202
10226SOL    HW131577   2.104   0.523   6.184
10226SOL    HW231578   2.002   0.647   6.213
10227SOL     OW31579   4.648   4.417   0.764
10227SOL    HW131580   4.619   4.321   0.762
10227SOL    HW231581   4.659   4.450   0.671
10228SOL     OW31582   1.363   5.734   1.934
10228SOL    HW131583   1.309   5.731   2.019
10228SOL    HW231584   1.377   5.641   1.900
10229SOL     OW31585   1.615   2.157   4.380
10229SOL    HW131586   1.571   2.069   4.361
10229SOL    HW231587   1.604   2.218   4.302
10230SOL     OW31588   6.391   6.764   3.012
10230SOL    HW131589   6.449   6.832   3.057
10230SOL    HW231590   6.444   6.681   2.994
10231SOL     OW31591   6.228   4.988   5.747
10231SOL    HW131592   6.287   4.966   5.669
10231SOL    HW231593   6.220   5.088   5.755
10232SOL     OW31594   2.868   1.942   4.415
10232SOL    HW131595   2.815   1.919   4.497
10232SOL    HW231596   2.922   2.024   4.433
10233SOL     OW31597   4.479   4.094   5.719
10233SOL    HW131598   4.554   4.094   5.785
10233SOL    HW231599   4.512   4.062   5.630
10234SOL     OW31600   6.337   0.645   6.731
10234SOL    HW131601   6.242   0.637   6.701
10234SOL    HW231602   6.340   0.668   6.828
10235SOL     OW31603   3.462   2.257   0.332
10235SOL    HW131604   3.548   2.208   0.327
10235SOL    HW231605   3.394   2.212   0.274
10236SOL     OW31606   1.716   0.919   1.673
10236SOL    HW131607   1.773   0.899   1.594
10236SOL    HW231608   1.629   0.959   1.642
10237SOL     OW31609   0.227   4.029   6.687
10237SOL    HW131610   0.230   4.037   6.787
10237SOL    HW231611   0.132   4.034   6.656
10238SOL     OW31612   3.855   3.974   2.379
10238SOL    HW131613   3.887   4.042   2.314
10238SOL    HW231614   3.783   4.013   2.437
10239SOL     OW31615   2.290   3.712   5.638
10239SOL    HW131616   2.279   3.767   5.555
10239SOL    HW231617   2.282   3.771   5.718
10240SOL     OW31618   1.898   4.273   2.685
10240SOL    HW131619   1.799   4.267   2.699
10240SOL    HW231620   1.941   4.189   2.719
10241SOL     OW31621   6.654   6.673   2.634
10241SOL    HW131622   6.611   6.599   2.582
10241SOL    HW231623   6.640   6.659   2.732
10242SOL     OW31624   0.292   1.200   1.406
10242SOL    HW131625   0.217   1.143   1.439
10242SOL    HW231626   0.258   1.291   1.385
10243SOL     OW31627   1.895   4.629   2.015
10243SOL    HW131628   1.948   4.568   2.073
10243SOL    HW231629   1.804   4.590   1.999
10244SOL     OW31630   1.615   4.279   0.585
10244SOL    HW131631   1.584   4.374   0.574
10244SOL    HW231632   1.666   4.271   0.671
10245SOL     OW31633   3.195   4.910   0.378
10245SOL    HW131634   3.180   4.850   0.457
10245SOL    HW231635   3.158   5.001   0.398
10246SOL     OW31636   3.390   3.656   3.321
10246SOL    HW131637   3.302   3.630   3.281
10246SOL    HW231638   3.439   3.573   3.348
10247SOL     OW31639   6.678   4.447   6.172
10247SOL    HW131640   6.645   4.392   6.248
10247SOL    HW231641   6.760   4.405   6.133
10248SOL     OW31642   1.663   0.115   3.136
10248SOL    HW131643   1.713   0.055   3.199
10248SOL    HW231644   1.720   0.195   3.115
10249SOL     OW31645   2.887   6.898   6.828
10249SOL    HW131646   2.882   6.798   6.835
10249SOL    HW231647   2.949   6.933   6.898
10250SOL     OW31648   6.119   3.399   1.941
10250SOL    HW131649   6.095   3.318   1.996
10250SOL    HW231650   6.203   3.438   1.976
10251SOL     OW31651   2.147   1.460   4.809
10251SOL    HW131652   2.223   1.428   4.865
10251SOL    HW231653   2.061   1.440   4.855
10252SOL     OW31654   4.234   4.857   6.935
10252SOL    HW131655   4.265   4.948   6.909
10252SOL    HW231656   4.146   4.863   6.982
10253SOL     OW31657   2.897   6.698   0.599
10253SOL    HW131658   2.798   6.704   0.591
10253SOL    HW231659   2.921   6.635   0.672
10254SOL     OW31660   5.287   0.888   5.424
10254SOL    HW131661   5.315   0.884   5.328
10254SOL    HW231662   5.339   0.821   5.477
10255SOL     OW31663   1.513   6.183   0.925
10255SOL    HW131664   1.532   6.248   0.851
10255SOL    HW231665   1.428   6.208   0.970
10256SOL     OW31666   5.777   0.940   2.043
10256SOL    HW131667   5.832   1.008   2.092
10256SOL    HW231668   5.760   0.972   1.950
10257SOL     OW31669   2.368   4.860   4.787
10257SOL    HW131670   2.355   4.859   4.687
10257SOL    HW231671   2.293   4.811   4.831
10258SOL     OW31672   3.346   1.000   3.859
10258SOL    HW131673   3.267   1.034   3.809
10258SOL    HW231674   3.317   0.967   3.949
10259SOL     OW31675   0.871   4.519   3.439
10259SOL    HW131676   0.873   4.460   3.358
10259SOL    HW231677   0.877   4.462   3.521
10260SOL     OW31678   0.904   1.051   3.927
10260SOL    HW131679   0.848   1.020   3.850
10260SOL    HW231680   0.856   1.033   4.013
10261SOL     OW31681   6.982   5.652   3.518
10261SOL    HW131682   6.894   5.675   3.476
10261SOL    HW231683   7.021   5.572   3.472
10262SOL     OW31684   2.133   6.909   5.284
10262SOL    HW131685   2.145   6.929   5.187
10262SOL    HW231686   2.065   6.836   5.295
10263SOL     OW31687   5.257   0.769   6.819
10263SOL    HW131688   5.276   0.846   6.880
10263SOL    HW231689   5.158   0.763   6.803
10264SOL     OW31690   5.782   1.025   6.856
10264SOL    HW131691   5.808   0.929   6.848
10264SOL    HW231692   5.758   1.061   6.766
10265SOL     OW31693   2.422   2.515   2.292
10265SOL    HW131694   2.384   2.485   2.205
10265SOL    HW231695   2.503   2.572   2.276
10266SOL     OW31696   3.742   2.902   3.834
10266SOL    HW131697   3.668   2.886   3.900
10266SOL    HW231698   3.807   2.967   3.873
10267SOL     OW31699   5.979   2.419   6.804
10267SOL    HW131700   6.012   2.497   6.751
10267SOL    HW231701   5.912   2.451   6.871
10268SOL     OW31702   5.765   5.887   2.539
10268SOL    HW131703   5.760   5.824   2.462
10268SOL    HW231704   5.714   5.971   2.517
10269SOL     OW31705   0.742   3.087   0.009
10269SOL    HW131706   0.751   3.037   6.945
10269SOL    HW231707   0.708   3.179   7.013
10270SOL     OW31708   3.533   4.975   2.797
10270SOL    HW131709   3.551   4.948   2.702
10270SOL    HW231710   3.556   5.072   2.809
10271SOL     OW31711   3.666   2.518   5.768
10271SOL    HW131712   3.615   2.532   5.683
10271SOL    HW231713   3.634   2.434   5.812
10272SOL     OW31714   1.099   0.964   4.358
10272SOL    HW131715   1.130   0.979   4.452
10272SOL    HW231716   1.093   0.866   4.340
10273SOL     OW31717   3.037   5.888   2.672
10273SOL    HW131718   3.031   5.788   2.666
10273SOL    HW231719   3.070   5.924   2.585
10274SOL     OW31720   6.826   5.600   4.461
10274SOL    HW131721   6.915   5.608   4.507
10274SOL    HW231722   6.794   5.691   4.434
10275SOL     OW31723   0.399   6.765   1.859
10275SOL    HW131724   0.342   6.839   1.824
10275SOL    HW231725   0.495   6.786   1.843
10276SOL     OW31726   5.770   5.162   5.367
10276SOL    HW131727   5.673   5.185   5.363
10276SOL    HW231728   5.781   5.063   5.356
10277SOL     OW31729   2.204   5.076   3.624
10277SOL    HW131730   2.168   5.060   3.532
10277SOL    HW231731   2.143   5.033   3.691
10278SOL     OW31732   6.930   1.616   4.605
10278SOL    HW131733   6.843   1.574   4.578
10278SOL    HW231734   6.949   1.595   4.701
10279SOL     OW31735   2.854   4.867   3.634
10279SOL    HW131736   2.851   4.917   3.720
10279SOL    HW231737   2.949   4.847   3.610
10280SOL     OW31738   0.270   2.855   0.865
10280SOL    HW131739   0.284   2.776   0.925
10280SOL    HW231740   0.178   2.891   0.879
10281SOL     OW31741   5.963   1.284   2.733
10281SOL    HW131742   6.012   1.327   2.658
10281SOL    HW231743   5.982   1.334   2.818
10282SOL     OW31744   5.299   4.368   4.876
10282SOL    HW131745   5.394   4.346   4.859
10282SOL    HW231746   5.247   4.284   4.892
10283SOL     OW31747   0.953   3.094   0.514
10283SOL    HW131748   0.899   3.139   0.585
10283SOL    HW231749   0.963   3.155   0.435
10284SOL     OW31750   4.788   3.045   5.108
10284SOL    HW131751   4.857   3.110   5.076
10284SOL    HW231752   4.757   3.070   5.199
10285SOL     OW31753   5.520   0.401   2.015
10285SOL    HW131754   5.584   0.435   2.083
10285SOL    HW231755   5.431   0.383   2.058
10286SOL     OW31756   2.976   1.870   4.059
10286SOL    HW131757   2.980   1.797   4.127
10286SOL    HW231758   3.068   1.906   4.044
10287SOL     OW31759   1.976   6.773   1.120
10287SOL    HW131760   1.897   6.808   1.172
10287SOL    HW231761   2.029   6.712   1.179
10288SOL     OW31762   4.710   6.683   3.772
10288SOL    HW131763   4.751   6.672   3.681
10288SOL    HW231764   4.781   6.712   3.837
10289SOL     OW31765   1.343   6.305   1.458
10289SOL    HW131766   1.412   6.343   1.396
10289SOL    HW231767   1.268   6.369   1.468
10290SOL     OW31768   3.480   3.876   2.303
10290SOL    HW131769   3.437   3.878   2.393
10290SOL    HW231770   3.474   3.784   2.265
10291SOL     OW31771   3.896   1.220   2.870
10291SOL    HW131772   3.813   1.261   2.832
10291SOL    HW231773   3.956   1.191   2.795
10292SOL     OW31774   1.541   0.578   5.257
10292SOL    HW131775   1.477   0.654   5.267
10292SOL    HW231776   1.535   0.541   5.165
10293SOL     OW31777   2.002   4.213   3.593
10293SOL    HW131778   1.966   4.243   3.504
10293SOL    HW231779   2.034   4.118   3.585
10294SOL     OW31780   5.723   3.081   2.989
10294SOL    HW131781   5.814   3.044   3.006
10294SOL    HW231782   5.655   3.028   3.039
10295SOL     OW31783   6.071   5.022   6.058
10295SOL    HW131784   6.159   5.056   6.092
10295SOL    HW231785   6.056   4.929   6.091
10296SOL     OW31786   4.694   2.079   0.512
10296SOL    HW131787   4.682   2.020   0.592
10296SOL    HW231788   4.789   2.110   0.507
10297SOL     OW31789   2.397   6.970   6.677
10297SOL    HW131790   2.359   7.002   6.590
10297SOL    HW231791   2.331   6.911   6.723
10298SOL     OW31792   2.939   4.491   1.445
10298SOL    HW131793   2.841   4.493   1.426
10298SOL    HW231794   2.956   4.446   1.532
10299SOL     OW31795   4.686   5.558   3.244
10299SOL    HW131796   4.738   5.644   3.250
10299SOL    HW231797   4.605   5.571   3.187
10300SOL     OW31798   1.006   3.799   3.611
10300SOL    HW131799   1.036   3.728   3.675
10300SOL    HW231800   0.915   3.832   3.638
10301SOL     OW31801   5.362   2.904   4.509
10301SOL    HW131802   5.453   2.909   4.468
10301SOL    HW231803   5.302   2.848   4.452
10302SOL     OW31804   2.363   6.476   4.203
10302SOL    HW131805   2.311   6.484   4.118
10302SOL    HW231806   2.300   6.475   4.281
10303SOL     OW31807   1.783   6.060   2.469
10303SOL    HW131808   1.795   5.963   2.449
10303SOL    HW231809   1.870   6.100   2.497
10304SOL     OW31810   5.483   6.841   1.975
10304SOL    HW131811   5.438   6.924   2.006
10304SOL    HW231812   5.460   6.824   1.879
10305SOL     OW31813   0.953   4.288   0.211
10305SOL    HW131814   0.999   4.353   0.150
10305SOL    HW231815   0.969   4.195   0.178
10306SOL     OW31816   4.834   0.121   6.299
10306SOL    HW131817   4.917   0.106   6.245
10306SOL    HW231818   4.782   0.036   6.304
10307SOL     OW31819   2.570   1.809   5.056
10307SOL    HW131820   2.505   1.882   5.036
10307SOL    HW231821   2.658   1.831   5.014
10308SOL     OW31822   2.490   5.118   3.690
10308SOL    HW131823   2.396   5.143   3.713
10308SOL    HW231824   2.526   5.182   3.622
10309SOL     OW31825   6.685   1.869   5.013
10309SOL    HW131826   6.725   1.811   5.083
10309SOL    HW231827   6.591   1.892   5.038
10310SOL     OW31828   3.301   3.946   1.518
10310SOL    HW131829   3.336   3.868   1.569
10310SOL    HW231830   3.244   4.003   1.578
10311SOL     OW31831   0.591   6.195   0.486
10311SOL    HW131832   0.661   6.219   0.419
10311SOL    HW231833   0.503   6.185   0.441
10312SOL     OW31834   3.074   5.989   2.141
10312SOL    HW131835   3.087   6.088   2.135
10312SOL    HW231836   3.106   5.957   2.230
10313SOL     OW31837   4.809   6.865   1.686
10313SOL    HW131838   4.889   6.811   1.662
10313SOL    HW231839   4.810   6.951   1.635
10314SOL     OW31840   6.470   0.750   1.954
10314SOL    HW131841   6.378   0.742   1.915
10314SOL    HW231842   6.483   0.842   1.991
10315SOL     OW31843   5.600   6.152   4.530
10315SOL    HW131844   5.685   6.198   4.503
10315SOL    HW231845   5.607   6.054   4.510
10316SOL     OW31846   6.646   2.859   4.759
10316SOL    HW131847   6.711   2.835   4.831
10316SOL    HW231848   6.626   2.956   4.763
10317SOL     OW31849   3.782   5.445   5.186
10317SOL    HW131850   3.772   5.369   5.122
10317SOL    HW231851   3.692   5.469   5.224
10318SOL     OW31852   5.323   5.626   6.162
10318SOL    HW131853   5.404   5.657   6.112
10318SOL    HW231854   5.277   5.555   6.109
10319SOL     OW31855   1.542   2.259   5.854
10319SOL    HW131856   1.597   2.316   5.793
10319SOL    HW231857   1.451   2.299   5.864
10320SOL     OW31858   0.593   0.641   3.168
10320SOL    HW131859   0.523   0.712   3.175
10320SOL    HW231860   0.611   0.602   3.258
10321SOL     OW31861   4.081   0.620   2.567
10321SOL    HW131862   4.028   0.636   2.650
10321SOL    HW231863   4.162   0.566   2.589
10322SOL     OW31864   6.488   5.615   6.490
10322SOL    HW131865   6.448   5.525   6.471
10322SOL    HW231866   6.422   5.686   6.470
10323SOL     OW31867   6.418   3.930   5.842
10323SOL    HW131868   6.455   4.016   5.877
10323SOL    HW231869   6.324   3.944   5.810
10324SOL     OW31870   3.068   3.148   2.686
10324SOL    HW131871   2.993   3.153   2.751
10324SOL    HW231872   3.108   3.056   2.687
10325SOL     OW31873   0.063   3.750   2.953
10325SOL    HW131874   0.059   3.762   2.854
10325SOL    HW231875   0.001   3.813   2.998
10326SOL     OW31876   4.132   3.508   0.569
10326SOL    HW131877   4.201   3.542   0.505
10326SOL    HW231878   4.085   3.430   0.528
10327SOL     OW31879   2.703   2.432   1.797
10327SOL    HW131880   2.787   2.416   1.849
10327SOL    HW231881   2.630   2.373   1.831
10328SOL     OW31882   6.115   2.488   1.653
10328SOL    HW131883   6.161   2.576   1.662
10328SOL    HW231884   6.159   2.421   1.713
10329SOL     OW31885   3.423   0.370   3.449
10329SOL    HW131886   3.393   0.423   3.369
10329SOL    HW231887   3.350   0.307   3.475
10330SOL     OW31888   4.067   6.735   1.954
10330SOL    HW131889   4.156   6.781   1.951
10330SOL    HW231890   4.047   6.707   2.048
10331SOL     OW31891   6.663   1.277   4.506
10331SOL    HW131892   6.587   1.224   4.544
10331SOL    HW231893   6.750   1.232   4.529
10332SOL     OW31894   6.107   0.930   1.073
10332SOL    HW131895   6.061   0.954   1.158
10332SOL    HW231896   6.103   0.831   1.060
10333SOL     OW31897   6.194   4.609   4.669
10333SOL    HW131898   6.127   4.629   4.597
10333SOL    HW231899   6.150   4.616   4.758
10334SOL     OW31900   3.559   6.158   4.009
10334SOL    HW131901   3.571   6.220   3.931
10334SOL    HW231902   3.475   6.182   4.058
10335SOL     OW31903   3.020   4.177   6.637
10335SOL    HW131904   2.959   4.256   6.644
10335SOL    HW231905   3.106   4.206   6.595
10336SOL     OW31906   5.777   0.102   2.835
10336SOL    HW131907   5.721   0.184   2.836
10336SOL    HW231908   5.867   0.122   2.872
10337SOL     OW31909   6.987   6.372   5.682
10337SOL    HW131910   0.027   6.445   5.653
10337SOL    HW231911   6.986   6.300   5.613
10338SOL     OW31912   2.344   6.240   1.604
10338SOL    HW131913   2.430   6.200   1.572
10338SOL    HW231914   2.306   6.298   1.533
10339SOL     OW31915   2.776   5.269   0.053
10339SOL    HW131916   2.864   5.220   0.050
10339SOL    HW231917   2.707   5.210   0.094
10340SOL     OW31918   1.329   5.542   1.113
10340SOL    HW131919   1.320   5.445   1.135
10340SOL    HW231920   1.271   5.596   1.174
10341SOL     OW31921   2.071   3.387   2.070
10341SOL    HW131922   2.144   3.441   2.029
10341SOL    HW231923   1.997   3.375   2.003
10342SOL     OW31924   1.248   6.803   4.909
10342SOL    HW131925   1.249   6.704   4.891
10342SOL    HW231926   1.324   6.826   4.970
10343SOL     OW31927   2.754   5.046   0.431
10343SOL    HW131928   2.719   5.077   0.520
10343SOL    HW231929   2.797   5.122   0.384
10344SOL     OW31930   4.041   4.448   1.660
10344SOL    HW131931   4.133   4.478   1.685
10344SOL    HW231932   3.979   4.526   1.662
10345SOL     OW31933   1.924   1.068   6.828
10345SOL    HW131934   1.884   0.998   6.769
10345SOL    HW231935   1.978   1.132   6.773
10346SOL     OW31936   5.843   0.411   1.865
10346SOL    HW131937   5.807   0.491   1.817
10346SOL    HW231938   5.790   0.330   1.840
10347SOL     OW31939   5.440   2.431   2.246
10347SOL    HW131940   5.473   2.336   2.243
10347SOL    HW231941   5.382   2.443   2.326
10348SOL     OW31942   6.249   1.519   0.244
10348SOL    HW131943   6.333   1.504   0.296
10348SOL    HW231944   6.170   1.492   0.299
10349SOL     OW31945   6.473   1.389   1.789
10349SOL    HW131946   6.494   1.434   1.875
10349SOL    HW231947   6.431   1.300   1.807
10350SOL     OW31948   2.373   5.874   5.505
10350SOL    HW131949   2.275   5.857   5.497
10350SOL    HW231950   2.389   5.953   5.564
10351SOL     OW31951   4.653   5.170   6.424
10351SOL    HW131952   4.693   5.211   6.341
10351SOL    HW231953   4.579   5.109   6.398
10352SOL     OW31954   4.970   2.420   0.073
10352SOL    HW131955   4.920   2.424   0.159
10352SOL    HW231956   5.023   2.335   0.068
10353SOL     OW31957   6.347   2.855   5.624
10353SOL    HW131958   6.341   2.763   5.661
10353SOL    HW231959   6.256   2.896   5.622
10354SOL     OW31960   5.918   1.968   2.182
10354SOL    HW131961   5.850   1.966   2.109
10354SOL    HW231962   6.006   1.998   2.146
10355SOL     OW31963   1.866   0.360   2.041
10355SOL    HW131964   1.791   0.414   2.078
10355SOL    HW231965   1.905   0.407   1.962
10356SOL     OW31966   6.580   4.227   5.675
10356SOL    HW131967   6.675   4.200   5.662
10356SOL    HW231968   6.552   4.210   5.769
10357SOL     OW31969   3.025   2.764   6.572
10357SOL    HW131970   2.945   2.823   6.566
10357SOL    HW231971   3.056   2.740   6.480
10358SOL     OW31972   6.032   3.733   3.745
10358SOL    HW131973   6.076   3.762   3.659
10358SOL    HW231974   5.933   3.739   3.735
10359SOL     OW31975   5.876   1.348   1.772
10359SOL    HW131976   5.805   1.324   1.706
10359SOL    HW231977   5.964   1.359   1.725
10360SOL     OW31978   4.588   5.461   1.522
10360SOL    HW131979   4.661   5.525   1.497
10360SOL    HW231980   4.574   5.463   1.621
10361SOL     OW31981   2.842   1.442   2.945
10361SOL    HW131982   2.934   1.464   2.911
10361SOL    HW231983   2.820   1.348   2.920
10362SOL     OW31984   0.327   5.458   3.799
10362SOL    HW131985   0.232   5.440   3.773
10362SOL    HW231986   0.389   5.410   3.736
10363SOL     OW31987   4.574   2.660   0.777
10363SOL    HW131988   4.537   2.635   0.687
10363SOL    HW231989   4.672   2.640   0.778
10364SOL     OW31990   3.497   3.723   1.984
10364SOL    HW131991   3.565   3.705   2.055
10364SOL    HW231992   3.543   3.746   1.899
10365SOL     OW31993   5.178   4.332   5.623
10365SOL    HW131994   5.088   4.321   5.581
10365SOL    HW231995   5.217   4.242   5.642
10366SOL     OW31996   4.026   0.157   4.492
10366SOL    HW131997   3.999   0.168   4.397
10366SOL    HW231998   3.987   0.073   4.530
10367SOL     OW31999   6.650   2.212   2.310
10367SOL    HW132000   6.663   2.126   2.261
10367SOL    HW232001   6.602   2.194   2.396
10368SOL     OW32002   2.267   0.971   2.667
10368SOL    HW132003   2.207   0.960   2.746
10368SOL    HW232004   2.243   0.902   2.598
10369SOL     OW32005   2.777   1.211   5.636
10369SOL    HW132006   2.849   1.147   5.662
10369SOL    HW232007   2.749   1.193   5.541
10370SOL     OW32008   5.583   1.298   5.114
10370SOL    HW132009   5.615   1.216   5.068
10370SOL    HW232010   5.661   1.347   5.153
10371SOL     OW32011   2.536   6.090   4.634
10371SOL    HW132012   2.467   6.088   4.707
10371SOL    HW232013   2.606   6.022   4.653
10372SOL     OW32014   1.573   0.934   6.974
10372SOL    HW132015   1.627   0.861   7.015
10372SOL    HW232016   1.616   0.965   6.889
10373SOL     OW32017   1.944   6.640   5.247
10373SOL    HW132018   1.970   6.687   5.331
10373SOL    HW232019   1.883   6.698   5.193
10374SOL     OW32020   2.882   1.060   3.293
10374SOL    HW132021   2.890   1.139   3.354
10374SOL    HW232022   2.787   1.028   3.292
10375SOL     OW32023   2.515   2.031   6.266
10375SOL    HW132024   2.552   2.048   6.357
10375SOL    HW232025   2.587   2.044   6.197
10376SOL     OW32026   1.304   5.730   3.660
10376SOL    HW132027   1.275   5.792   3.588
10376SOL    HW232028   1.319   5.639   3.621
10377SOL     OW32029   6.374   1.176   3.432
10377SOL    HW132030   6.358   1.232   3.351
10377SOL    HW232031   6.448   1.112   3.415
10378SOL     OW32032   5.741   6.498   5.468
10378SOL    HW132033   5.779   6.590   5.479
10378SOL    HW232034   5.674   6.499   5.393
10379SOL     OW32035   3.830   6.748   4.081
10379SOL    HW132036   3.865   6.838   4.057
10379SOL    HW232037   3.731   6.752   4.093
10380SOL     OW32038   0.990   2.174   5.298
10380SOL    HW132039   0.933   2.233   5.354
10380SOL    HW232040   1.070   2.145   5.350
10381SOL     OW32041   3.954   4.685   0.612
10381SOL    HW132042   3.912   4.737   0.686
10381SOL    HW232043   3.923   4.590   0.617
10382SOL     OW32044   2.005   4.661   1.342
10382SOL    HW132045   2.070   4.695   1.411
10382SOL    HW232046   1.927   4.723   1.337
10383SOL     OW32047   0.727   4.080   1.344
10383SOL    HW132048   0.690   4.145   1.277
10383SOL    HW232049   0.658   4.064   1.415
10384SOL     OW32050   6.918   0.596   1.323
10384SOL    HW132051   6.871   0.651   1.392
10384SOL    HW232052   7.014   0.623   1.319
10385SOL     OW32053   4.030   6.213   5.573
10385SOL    HW132054   4.122   6.216   5.533
10385SOL    HW232055   4.032   6.159   5.657
10386SOL     OW32056   6.615   2.164   5.325
10386SOL    HW132057   6.695   2.204   5.369
10386SOL    HW232058   6.532   2.191   5.375
10387SOL     OW32059   4.644   1.721   2.559
10387SOL    HW132060   4.556   1.703   2.516
10387SOL    HW232061   4.704   1.642   2.548
10388SOL     OW32062   1.829   5.584   2.224
10388SOL    HW132063   1.904   5.622   2.170
10388SOL    HW232064   1.848   5.487   2.244
10389SOL     OW32065   6.764   6.559   1.390
10389SOL    HW132066   6.729   6.560   1.297
10389SOL    HW232067   6.860   6.585   1.391
10390SOL     OW32068   1.863   2.487   1.254
10390SOL    HW132069   1.929   2.537   1.309
10390SOL    HW232070   1.802   2.552   1.208
10391SOL     OW32071   0.504   6.513   3.929
10391SOL    HW132072   0.591   6.556   3.908
10391SOL    HW232073   0.467   6.470   3.846
10392SOL     OW32074   6.557   4.192   6.265
10392SOL    HW132075   6.493   4.251   6.315
10392SOL    HW232076   6.508   4.144   6.192
10393SOL     OW32077   2.600   2.430   2.898
10393SOL    HW132078   2.538   2.497   2.940
10393SOL    HW232079   2.654   2.386   2.970
10394SOL     OW32080   2.364   6.115   4.839
10394SOL    HW132081   2.409   6.127   4.927
10394SOL    HW232082   2.300   6.039   4.844
10395SOL     OW32083   6.671   1.019   3.529
10395SOL    HW132084   6.692   1.116   3.543
10395SOL    HW232085   6.720   0.963   3.596
10396SOL     OW32086   3.278   1.318   3.878
10396SOL    HW132087   3.289   1.274   3.789
10396SOL    HW232088   3.350   1.387   3.890
10397SOL     OW32089   2.746   1.559   4.470
10397SOL    HW132090   2.835   1.529   4.504
10397SOL    HW232091   2.749   1.566   4.370
10398SOL     OW32092   4.942   2.204   0.564
10398SOL    HW132093   5.027   2.255   0.551
10398SOL    HW232094   4.919   2.202   0.661
10399SOL     OW32095   4.399   1.622   4.340
10399SOL    HW132096   4.428   1.548   4.280
10399SOL    HW232097   4.308   1.601   4.377
10400SOL     OW32098   4.194   5.765   0.212
10400SOL    HW132099   4.107   5.718   0.207
10400SOL    HW232100   4.260   5.710   0.263
10401SOL     OW32101   7.008   0.311   2.455
10401SOL    HW132102   6.970   0.373   2.387
10401SOL    HW232103   6.934   0.253   2.491
10402SOL     OW32104   6.929   1.946   5.957
10402SOL    HW132105   6.907   2.034   5.999
10402SOL    HW232106   7.000   1.900   6.010
10403SOL     OW32107   4.184   1.401   3.082
10403SOL    HW132108   4.098   1.432   3.040
10403SOL    HW232109   4.222   1.475   3.138
10404SOL     OW32110   6.487   6.998   4.416
10404SOL    HW132111   6.464   6.920   4.473
10404SOL    HW232112   6.584   7.021   4.427
10405SOL     OW32113   1.471   5.880   4.729
10405SOL    HW132114   1.466   5.938   4.810
10405SOL    HW232115   1.531   5.803   4.747
10406SOL     OW32116   2.156   3.332   5.296
10406SOL    HW132117   2.158   3.432   5.297
10406SOL    HW232118   2.120   3.298   5.383
10407SOL     OW32119   2.281   0.428   6.442
10407SOL    HW132120   2.303   0.386   6.530
10407SOL    HW232121   2.198   0.484   6.451
10408SOL     OW32122   4.434   6.179   1.734
10408SOL    HW132123   4.390   6.190   1.824
10408SOL    HW232124   4.374   6.216   1.663
10409SOL     OW32125   0.587   3.700   0.565
10409SOL    HW132126   0.541   3.687   0.477
10409SOL    HW232127   0.676   3.654   0.562
10410SOL     OW32128   5.613   2.525   1.275
10410SOL    HW132129   5.699   2.549   1.230
10410SOL    HW232130   5.595   2.427   1.262
10411SOL     OW32131   3.580   5.716   4.774
10411SOL    HW132132   3.632   5.631   4.783
10411SOL    HW232133   3.511   5.705   4.702
10412SOL     OW32134   6.621   1.318   0.342
10412SOL    HW132135   6.522   1.306   0.357
10412SOL    HW232136   6.640   1.320   0.244
10413SOL     OW32137   6.863   2.036   1.986
10413SOL    HW132138   6.946   2.010   2.036
10413SOL    HW232139   6.786   2.042   2.050
10414SOL     OW32140   3.877   5.745   6.137
10414SOL    HW132141   3.838   5.653   6.134
10414SOL    HW232142   3.954   5.746   6.201
10415SOL     OW32143   1.586   4.438   3.876
10415SOL    HW132144   1.512   4.505   3.868
10415SOL    HW232145   1.614   4.408   3.784
10416SOL     OW32146   6.320   0.005   5.339
10416SOL    HW132147   6.250   0.068   5.373
10416SOL    HW232148   6.281   6.968   5.269
10417SOL     OW32149   4.970   5.612   4.667
10417SOL    HW132150   4.947   5.515   4.655
10417SOL    HW232151   4.903   5.654   4.728
10418SOL     OW32152   6.062   4.208   6.279
10418SOL    HW132153   6.080   4.174   6.371
10418SOL    HW232154   6.113   4.293   6.264
10419SOL     OW32155   3.485   6.961   5.627
10419SOL    HW132156   3.458   6.942   5.533
10419SOL    HW232157   3.546   6.889   5.659
10420SOL     OW32158   6.879   4.145   4.099
10420SOL    HW132159   6.963   4.094   4.081
10420SOL    HW232160   6.831   4.162   4.012
10421SOL     OW32161   1.678   3.329   4.523
10421SOL    HW132162   1.690   3.230   4.513
10421SOL    HW232163   1.652   3.369   4.435
10422SOL     OW32164   6.813   3.374   5.074
10422SOL    HW132165   6.856   3.320   5.146
10422SOL    HW232166   6.817   3.325   4.987
10423SOL     OW32167   4.916   5.371   5.343
10423SOL    HW132168   4.837   5.355   5.403
10423SOL    HW232169   4.949   5.284   5.308
10424SOL     OW32170   3.813   2.935   0.624
10424SOL    HW132171   3.779   2.843   0.647
10424SOL    HW232172   3.742   2.984   0.573
10425SOL     OW32173   0.900   5.808   2.428
10425SOL    HW132174   0.872   5.901   2.452
10425SOL    HW232175   0.912   5.802   2.329
10426SOL     OW32176   5.580   4.613   6.531
10426SOL    HW132177   5.618   4.561   6.455
10426SOL    HW232178   5.503   4.562   6.570
10427SOL     OW32179   5.094   0.887   0.254
10427SOL    HW132180   5.103   0.881   0.155
10427SOL    HW232181   5.150   0.815   0.297
10428SOL     OW32182   3.161   1.497   4.058
10428SOL    HW132183   3.246   1.529   4.099
10428SOL    HW232184   3.183   1.440   3.978
10429SOL     OW32185   1.052   3.845   2.922
10429SOL    HW132186   1.022   3.932   2.882
10429SOL    HW232187   1.063   3.777   2.850
10430SOL     OW32188   3.389   6.575   5.031
10430SOL    HW132189   3.465   6.523   4.992
10430SOL    HW232190   3.337   6.516   5.093
10431SOL     OW32191   2.957   6.452   4.455
10431SOL    HW132192   2.976   6.537   4.406
10431SOL    HW232193   2.863   6.452   4.487
10432SOL     OW32194   6.665   1.282   4.846
10432SOL    HW132195   6.727   1.214   4.807
10432SOL    HW232196   6.607   1.239   4.915
10433SOL     OW32197   0.394   6.911   2.666
10433SOL    HW132198   0.411   7.003   2.704
10433SOL    HW232199   0.317   6.869   2.715
10434SOL     OW32200   3.111   6.523   3.807
10434SOL    HW132201   3.028   6.566   3.841
10434SOL    HW232202   3.157   6.476   3.882
10435SOL     OW32203   2.081   2.094   5.545
10435SOL    HW132204   2.130   2.172   5.505
10435SOL    HW232205   2.143   2.016   5.552
10436SOL     OW32206   6.388   4.094   4.866
10436SOL    HW132207   6.319   4.137   4.807
10436SOL    HW232208   6.384   3.995   4.856
10437SOL     OW32209   6.199   4.691   5.973
10437SOL    HW132210   6.138   4.659   6.045
10437SOL    HW232211   6.146   4.737   5.901
10438SOL     OW32212   1.344   6.275   5.828
10438SOL    HW132213   1.297   6.303   5.912
10438SOL    HW232214   1.299   6.317   5.749
10439SOL     OW32215   5.238   1.255   4.946
10439SOL    HW132216   5.290   1.339   4.963
10439SOL    HW232217   5.300   1.176   4.946
10440SOL     OW32218   0.336   6.885   6.931
10440SOL    HW132219   0.324   6.974   6.887
10440SOL    HW232220   0.429   6.852   6.914
10441SOL     OW32221   2.912   1.484   1.266
10441SOL    HW132222   2.987   1.458   1.205
10441SOL    HW232223   2.844   1.411   1.269
10442SOL     OW32224   4.288   6.679   5.085
10442SOL    HW132225   4.291   6.579   5.084
10442SOL    HW232226   4.272   6.713   4.992
10443SOL     OW32227   5.313   2.407   3.358
10443SOL    HW132228   5.276   2.438   3.445
10443SOL    HW232229   5.241   2.361   3.305
10444SOL     OW32230   3.962   5.907   2.279
10444SOL    HW132231   3.875   5.930   2.323
10444SOL    HW232232   3.950   5.907   2.180
10445SOL     OW32233   0.722   3.472   3.212
10445SOL    HW132234   0.821   3.469   3.199
10445SOL    HW232235   0.679   3.514   3.132
10446SOL     OW32236   2.319   3.419   6.261
10446SOL    HW132237   2.329   3.452   6.167
10446SOL    HW232238   2.228   3.380   6.272
10447SOL     OW32239   0.554   0.567   2.867
10447SOL    HW132240   0.605   0.632   2.811
10447SOL    HW232241   0.548   0.602   2.961
10448SOL     OW32242   4.301   0.559   1.878
10448SOL    HW132243   4.295   0.461   1.897
10448SOL    HW232244   4.313   0.572   1.779
10449SOL     OW32245   1.729   5.684   6.306
10449SOL    HW132246   1.792   5.634   6.246
10449SOL    HW232247   1.706   5.627   6.384
10450SOL     OW32248   6.951   1.585   6.747
10450SOL    HW132249   7.015   1.514   6.718
10450SOL    HW232250   6.902   1.621   6.667
10451SOL     OW32251   2.062   5.924   2.787
10451SOL    HW132252   2.117   5.897   2.867
10451SOL    HW232253   2.122   5.929   2.707
10452SOL     OW32254   6.205   2.825   2.860
10452SOL    HW132255   6.291   2.871   2.881
10452SOL    HW232256   6.210   2.730   2.889
10453SOL     OW32257   5.754   6.261   1.766
10453SOL    HW132258   5.839   6.208   1.764
10453SOL    HW232259   5.689   6.222   1.701
10454SOL     OW32260   6.034   2.472   0.178
10454SOL    HW132261   6.036   2.453   0.276
10454SOL    HW232262   6.068   2.564   0.161
10455SOL     OW32263   0.449   6.392   3.679
10455SOL    HW132264   0.469   6.456   3.605
10455SOL    HW232265   0.450   6.298   3.644
10456SOL     OW32266   1.321   4.843   0.888
10456SOL    HW132267   1.325   4.747   0.917
10456SOL    HW232268   1.402   4.865   0.834
10457SOL     OW32269   3.797   2.823   0.151
10457SOL    HW132270   3.869   2.775   0.102
10457SOL    HW232271   3.834   2.905   0.193
10458SOL     OW32272   6.322   0.080   6.182
10458SOL    HW132273   6.372   0.089   6.096
10458SOL    HW232274   6.226   0.103   6.167
10459SOL     OW32275   4.894   5.925   1.125
10459SOL    HW132276   4.847   5.978   1.054
10459SOL    HW232277   4.853   5.834   1.131
10460SOL     OW32278   1.365   4.212   1.439
10460SOL    HW132279   1.396   4.198   1.345
10460SOL    HW232280   1.304   4.138   1.465
10461SOL     OW32281   6.053   5.036   5.363
10461SOL    HW132282   6.064   4.942   5.394
10461SOL    HW232283   6.004   5.036   5.276
10462SOL     OW32284   5.167   2.679   2.880
10462SOL    HW132285   5.231   2.721   2.815
10462SOL    HW232286   5.184   2.716   2.971
10463SOL     OW32287   4.264   2.680   6.009
10463SOL    HW132288   4.275   2.586   6.043
10463SOL    HW232289   4.205   2.731   6.071
10464SOL     OW32290   6.414   6.495   2.531
10464SOL    HW132291   6.322   6.519   2.561
10464SOL    HW232292   6.427   6.523   2.436
10465SOL     OW32293   5.950   5.575   1.205
10465SOL    HW132294   5.856   5.541   1.214
10465SOL    HW232295   5.953   5.671   1.234
10466SOL     OW32296   4.418   4.858   5.356
10466SOL    HW132297   4.486   4.788   5.378
10466SOL    HW232298   4.455   4.920   5.286
10467SOL     OW32299   2.430   2.066   0.011
10467SOL    HW132300   2.423   2.016   0.097
10467SOL    HW232301   2.497   2.140   0.021
10468SOL     OW32302   3.708   4.951   3.080
10468SOL    HW132303   3.617   4.954   3.039
10468SOL    HW232304   3.765   5.023   3.040
10469SOL     OW32305   3.811   4.419   5.543
10469SOL    HW132306   3.846   4.475   5.468
10469SOL    HW232307   3.714   4.438   5.557
10470SOL     OW32308   1.647   2.077   3.733
10470SOL    HW132309   1.737   2.052   3.770
10470SOL    HW232310   1.628   2.172   3.753
10471SOL     OW32311   2.441   0.345   0.490
10471SOL    HW132312   2.486   0.410   0.428
10471SOL    HW232313   2.431   0.386   0.580
10472SOL     OW32314   3.236   5.971   0.514
10472SOL    HW132315   3.212   5.963   0.611
10472SOL    HW232316   3.246   5.880   0.475
10473SOL     OW32317   5.795   6.966   6.660
10473SOL    HW132318   5.719   6.901   6.658
10473SOL    HW232319   5.861   6.943   6.588
10474SOL     OW32320   4.451   1.201   3.992
10474SOL    HW132321   4.410   1.252   3.917
10474SOL    HW232322   4.447   1.103   3.972
10475SOL     OW32323   4.305   6.274   1.454
10475SOL    HW132324   4.359   6.276   1.371
10475SOL    HW232325   4.290   6.368   1.486
10476SOL     OW32326   6.447   6.323   6.774
10476SOL    HW132327   6.508   6.251   6.740
10476SOL    HW232328   6.352   6.300   6.752
10477SOL     OW32329   6.414   1.174   4.617
10477SOL    HW132330   6.451   1.255   4.571
10477SOL    HW232331   6.352   1.202   4.690
10478SOL     OW32332   6.517   0.847   0.948
10478SOL    HW132333   6.609   0.868   0.914
10478SOL    HW232334   6.462   0.808   0.875
10479SOL     OW32335   6.769   1.552   2.718
10479SOL    HW132336   6.777   1.651   2.728
10479SOL    HW232337   6.854   1.509   2.749
10480SOL     OW32338   0.809   0.610   2.027
10480SOL    HW132339   0.822   0.512   2.041
10480SOL    HW232340   0.753   0.648   2.101
10481SOL     OW32341   2.053   5.886   4.044
10481SOL    HW132342   2.050   5.985   4.025
10481SOL    HW232343   2.145   5.852   4.025
10482SOL     OW32344   6.595   4.994   4.248
10482SOL    HW132345   6.519   4.995   4.313
10482SOL    HW232346   6.603   4.903   4.207
10483SOL     OW32347   6.274   5.045   0.513
10483SOL    HW132348   6.272   4.947   0.534
10483SOL    HW232349   6.369   5.077   0.512
10484SOL     OW32350   5.682   1.973   1.390
10484SOL    HW132351   5.626   1.978   1.472
10484SOL    HW232352   5.743   2.053   1.386
10485SOL     OW32353   3.060   3.978   0.645
10485SOL    HW132354   3.104   3.907   0.700
10485SOL    HW232355   3.096   3.975   0.552
10486SOL     OW32356   6.947   0.755   0.534
10486SOL    HW132357   6.945   0.733   0.436
10486SOL    HW232358   7.000   0.839   0.548
10487SOL     OW32359   4.495   0.513   1.043
10487SOL    HW132360   4.474   0.460   0.960
10487SOL    HW232361   4.543   0.597   1.018
10488SOL     OW32362   3.186   1.262   5.933
10488SOL    HW132363   3.146   1.283   6.022
10488SOL    HW232364   3.275   1.219   5.946
10489SOL     OW32365   0.891   6.857   5.500
10489SOL    HW132366   0.962   6.900   5.556
10489SOL    HW232367   0.893   6.758   5.514
10490SOL     OW32368   5.635   0.938   1.300
10490SOL    HW132369   5.652   1.036   1.293
10490SOL    HW232370   5.558   0.921   1.361
10491SOL     OW32371   2.109   2.651   0.289
10491SOL    HW132372   2.162   2.585   0.235
10491SOL    HW232373   2.023   2.672   0.241
10492SOL     OW32374   5.953   4.812   6.546
10492SOL    HW132375   5.988   4.737   6.489
10492SOL    HW232376   5.907   4.878   6.488
10493SOL     OW32377   3.460   0.908   2.386
10493SOL    HW132378   3.419   0.998   2.373
10493SOL    HW232379   3.470   0.891   2.484
10494SOL     OW32380   5.582   4.264   6.100
10494SOL    HW132381   5.514   4.284   6.170
10494SOL    HW232382   5.583   4.336   6.031
10495SOL     OW32383   1.529   6.992   0.076
10495SOL    HW132384   1.622   7.015   0.105
10495SOL    HW232385   1.527   6.978   7.000
10496SOL     OW32386   0.038   3.899   6.130
10496SOL    HW132387   0.098   3.975   6.152
10496SOL    HW232388   0.088   3.830   6.078
10497SOL     OW32389   2.063   6.569   1.975
10497SOL    HW132390   2.121   6.633   2.026
10497SOL    HW232391   2.121   6.509   1.920
10498SOL     OW32392   4.045   5.570   0.459
10498SOL    HW132393   4.079   5.522   0.540
10498SOL    HW232394   3.995   5.652   0.488
10499SOL     OW32395   3.815   0.078   2.011
10499SOL    HW132396   3.737   0.138   2.034
10499SOL    HW232397   3.794   0.029   1.927
10500SOL     OW32398   6.037   1.401   6.451
10500SOL    HW132399   5.969   1.402   6.526
10500SOL    HW232400   6.120   1.356   6.483
10501SOL     OW32401   2.195   5.586   2.408
10501SOL    HW132402   2.126   5.554   2.343
10501SOL    HW232403   2.189   5.533   2.492
10502SOL     OW32404   2.480   0.550   1.718
10502SOL    HW132405   2.560   0.537   1.777
10502SOL    HW232406   2.504   0.611   1.642
10503SOL     OW32407   4.292   2.805   0.729
10503SOL    HW132408   4.321   2.863   0.806
10503SOL    HW232409   4.212   2.845   0.686
10504SOL     OW32410   0.648   2.063   5.831
10504SOL    HW132411   0.644   2.041   5.928
10504SOL    HW232412   0.717   2.006   5.787
10505SOL     OW32413   5.569   5.273   0.607
10505SOL    HW132414   5.568   5.348   0.541
10505SOL    HW232415   5.637   5.205   0.580
10506SOL     OW32416   0.188   4.508   0.634
10506SOL    HW132417   0.249   4.465   0.700
10506SOL    HW232418   0.145   4.588   0.675
10507SOL     OW32419   2.353   6.897   0.145
10507SOL    HW132420   2.288   6.821   0.135
10507SOL    HW232421   2.437   6.875   0.095
10508SOL     OW32422   6.234   6.643   4.499
10508SOL    HW132423   6.165   6.697   4.548
10508SOL    HW232424   6.201   6.622   4.408
10509SOL     OW32425   1.150   5.279   4.196
10509SOL    HW132426   1.139   5.379   4.190
10509SOL    HW232427   1.061   5.237   4.209
10510SOL     OW32428   4.434   6.026   6.160
10510SOL    HW132429   4.491   6.094   6.115
10510SOL    HW232430   4.492   5.962   6.210
10511SOL     OW32431   3.823   1.067   2.465
10511SOL    HW132432   3.768   1.049   2.547
10511SOL    HW232433   3.763   1.071   2.386
10512SOL     OW32434   3.963   0.415   6.170
10512SOL    HW132435   3.880   0.469   6.182
10512SOL    HW232436   4.044   0.473   6.181
10513SOL     OW32437   5.806   2.723   4.858
10513SOL    HW132438   5.768   2.630   4.855
10513SOL    HW232439   5.825   2.754   4.765
10514SOL     OW32440   0.397   3.686   1.009
10514SOL    HW132441   0.425   3.692   1.105
10514SOL    HW232442   0.301   3.713   1.001
10515SOL     OW32443   0.725   3.323   3.457
10515SOL    HW132444   0.665   3.244   3.454
10515SOL    HW232445   0.704   3.385   3.381
10516SOL     OW32446   3.703   1.210   0.148
10516SOL    HW132447   3.795   1.187   0.180
10516SOL    HW232448   3.636   1.180   0.216
10517SOL     OW32449   0.864   2.652   2.620
10517SOL    HW132450   0.898   2.641   2.713
10517SOL    HW232451   0.835   2.747   2.606
10518SOL     OW32452   0.947   5.902   6.164
10518SOL    HW132453   0.925   5.890   6.067
10518SOL    HW232454   1.011   5.831   6.193
10519SOL     OW32455   2.541   3.586   7.018
10519SOL    HW132456   2.619   3.601   6.957
10519SOL    HW232457   2.457   3.588   6.964
10520SOL     OW32458   0.461   2.578   6.367
10520SOL    HW132459   0.489   2.674   6.377
10520SOL    HW232460   0.499   2.525   6.442
10521SOL     OW32461   6.554   6.473   2.205
10521SOL    HW132462   6.583   6.561   2.241
10521SOL    HW232463   6.602   6.455   2.119
10522SOL     OW32464   0.759   0.533   5.359
10522SOL    HW132465   0.707   0.605   5.313
10522SOL    HW232466   0.818   0.487   5.293
10523SOL     OW32467   0.173   4.867   3.559
10523SOL    HW132468   0.257   4.847   3.610
10523SOL    HW232469   0.190   4.858   3.461
10524SOL     OW32470   1.989   0.378   4.722
10524SOL    HW132471   2.014   0.456   4.780
10524SOL    HW232472   1.957   0.303   4.780
10525SOL     OW32473   3.674   6.312   6.693
10525SOL    HW132474   3.688   6.307   6.792
10525SOL    HW232475   3.576   6.322   6.674
10526SOL     OW32476   1.612   0.231   3.896
10526SOL    HW132477   1.578   0.271   3.811
10526SOL    HW232478   1.625   0.303   3.965
10527SOL     OW32479   0.272   1.734   4.804
10527SOL    HW132480   0.270   1.687   4.892
10527SOL    HW232481   0.183   1.775   4.786
10528SOL     OW32482   1.521   3.316   6.107
10528SOL    HW132483   1.524   3.216   6.104
10528SOL    HW232484   1.502   3.345   6.201
10529SOL     OW32485   3.345   5.658   3.867
10529SOL    HW132486   3.440   5.626   3.861
10529SOL    HW232487   3.284   5.579   3.870
10530SOL     OW32488   1.827   6.924   6.752
10530SOL    HW132489   1.831   6.983   6.671
10530SOL    HW232490   1.859   6.832   6.727
10531SOL     OW32491   1.328   2.958   4.191
10531SOL    HW132492   1.369   3.034   4.139
10531SOL    HW232493   1.389   2.934   4.267
10532SOL     OW32494   1.294   6.076   5.292
10532SOL    HW132495   1.265   6.076   5.197
10532SOL    HW232496   1.325   6.168   5.318
10533SOL     OW32497   2.825   0.899   4.695
10533SOL    HW132498   2.779   0.841   4.763
10533SOL    HW232499   2.794   0.993   4.707
10534SOL     OW32500   0.090   6.060   1.259
10534SOL    HW132501   0.184   6.031   1.278
10534SOL    HW232502   0.031   5.979   1.253
10535SOL     OW32503   1.176   1.874   1.468
10535SOL    HW132504   1.158   1.827   1.382
10535SOL    HW232505   1.232   1.816   1.526
10536SOL     OW32506   4.357   0.170   3.185
10536SOL    HW132507   4.400   0.242   3.239
10536SOL    HW232508   4.401   0.164   3.096
10537SOL     OW32509   3.926   5.781   3.777
10537SOL    HW132510   3.829   5.793   3.757
10537SOL    HW232511   3.970   5.734   3.700
10538SOL     OW32512   5.135   2.027   0.976
10538SOL    HW132513   5.149   2.110   0.923
10538SOL    HW232514   5.083   1.960   0.922
10539SOL     OW32515   0.668   4.428   0.372
10539SOL    HW132516   0.619   4.505   0.413
10539SOL    HW232517   0.696   4.452   0.279
10540SOL     OW32518   1.439   2.165   5.301
10540SOL    HW132519   1.517   2.194   5.246
10540SOL    HW232520   1.462   2.173   5.398
10541SOL     OW32521   3.641   4.129   2.539
10541SOL    HW132522   3.566   4.064   2.549
10541SOL    HW232523   3.655   4.177   2.626
10542SOL     OW32524   6.887   6.992   5.537
10542SOL    HW132525   6.951   6.992   5.613
10542SOL    HW232526   6.914   0.039   5.470
10543SOL     OW32527   0.268   0.894   4.777
10543SOL    HW132528   0.263   0.861   4.683
10543SOL    HW232529   0.222   0.983   4.784
10544SOL     OW32530   2.549   6.337   1.397
10544SOL    HW132531   2.601   6.383   1.469
10544SOL    HW232532   2.509   6.405   1.335
10545SOL     OW32533   6.572   1.229   2.234
10545SOL    HW132534   6.656   1.234   2.180
10545SOL    HW232535   6.593   1.196   2.326
10546SOL     OW32536   1.948   0.808   6.907
10546SOL    HW132537   1.906   0.777   6.992
10546SOL    HW232538   1.973   0.904   6.915
10547SOL     OW32539   5.422   2.880   2.362
10547SOL    HW132540   5.456   2.872   2.268
10547SOL    HW232541   5.327   2.910   2.360
10548SOL     OW32542   5.413   4.676   4.266
10548SOL    HW132543   5.511   4.670   4.284
10548SOL    HW232544   5.374   4.584   4.266
10549SOL     OW32545   0.283   6.848   2.160
10549SOL    HW132546   0.271   6.824   2.063
10549SOL    HW232547   0.377   6.826   2.188
10550SOL     OW32548   4.406   6.433   3.908
10550SOL    HW132549   4.478   6.382   3.955
10550SOL    HW232550   4.331   6.371   3.884
10551SOL     OW32551   1.107   2.427   6.095
10551SOL    HW132552   1.074   2.520   6.087
10551SOL    HW232553   1.120   2.404   6.192
10552SOL     OW32554   3.099   1.512   5.864
10552SOL    HW132555   3.098   1.519   5.764
10552SOL    HW232556   3.135   1.422   5.890
10553SOL     OW32557   0.876   4.514   2.293
10553SOL    HW132558   0.967   4.536   2.256
10553SOL    HW232559   0.844   4.428   2.252
10554SOL     OW32560   5.148   5.151   0.261
10554SOL    HW132561   5.174   5.171   0.166
10554SOL    HW232562   5.049   5.134   0.265
10555SOL     OW32563   1.954   2.655   0.562
10555SOL    HW132564   1.945   2.677   0.659
10555SOL    HW232565   2.049   2.627   0.543
10556SOL     OW32566   1.636   1.841   5.598
10556SOL    HW132567   1.687   1.756   5.610
10556SOL    HW232568   1.682   1.897   5.529
10557SOL     OW32569   2.335   2.793   3.222
10557SOL    HW132570   2.302   2.868   3.278
10557SOL    HW232571   2.329   2.818   3.126
10558SOL     OW32572   3.597   1.105   3.544
10558SOL    HW132573   3.514   1.050   3.542
10558SOL    HW232574   3.675   1.047   3.569
10559SOL     OW32575   4.777   0.558   1.297
10559SOL    HW132576   4.712   0.504   1.351
10559SOL    HW232577   4.823   0.498   1.232
10560SOL     OW32578   3.751   6.413   2.804
10560SOL    HW132579   3.732   6.501   2.847
10560SOL    HW232580   3.701   6.406   2.718
10561SOL     OW32581   2.888   3.714   1.119
10561SOL    HW132582   2.866   3.787   1.183
10561SOL    HW232583   2.951   3.650   1.162
10562SOL     OW32584   4.768   5.321   0.444
10562SOL    HW132585   4.826   5.281   0.515
10562SOL    HW232586   4.806   5.408   0.415
10563SOL     OW32587   0.263   1.711   3.696
10563SOL    HW132588   0.258   1.751   3.788
10563SOL    HW232589   0.218   1.621   3.697
10564SOL     OW32590   6.023   5.907   2.384
10564SOL    HW132591   6.087   5.983   2.396
10564SOL    HW232592   6.068   5.822   2.410
10565SOL     OW32593   0.524   0.378   5.917
10565SOL    HW132594   0.484   0.333   5.838
10565SOL    HW232595   0.453   0.426   5.969
10566SOL     OW32596   3.584   2.007   6.792
10566SOL    HW132597   3.498   2.055   6.805
10566SOL    HW232598   3.652   2.069   6.754
10567SOL     OW32599   3.130   1.709   4.606
10567SOL    HW132600   3.229   1.700   4.604
10567SOL    HW232601   3.105   1.803   4.631
10568SOL     OW32602   6.544   2.845   1.855
10568SOL    HW132603   6.445   2.859   1.860
10568SOL    HW232604   6.565   2.772   1.790
10569SOL     OW32605   5.508   1.714   1.908
10569SOL    HW132606   5.544   1.806   1.924
10569SOL    HW232607   5.498   1.666   1.995
10570SOL     OW32608   1.647   5.062   3.673
10570SOL    HW132609   1.687   5.041   3.763
10570SOL    HW232610   1.691   5.144   3.636
10571SOL     OW32611   0.080   4.524   5.359
10571SOL    HW132612   0.134   4.519   5.443
10571SOL    HW232613   0.015   4.449   5.356
10572SOL     OW32614   0.336   4.451   2.992
10572SOL    HW132615   0.324   4.526   3.056
10572SOL    HW232616   0.281   4.372   3.021
10573SOL     OW32617   4.661   0.341   5.112
10573SOL    HW132618   4.570   0.338   5.153
10573SOL    HW232619   4.719   0.270   5.152
10574SOL     OW32620   1.782   1.449   4.105
10574SOL    HW132621   1.738   1.480   4.021
10574SOL    HW232622   1.716   1.451   4.180
10575SOL     OW32623   0.415   1.089   3.268
10575SOL    HW132624   0.329   1.103   3.220
10575SOL    HW232625   0.397   1.071   3.365
10576SOL     OW32626   0.110   6.024   4.438
10576SOL    HW132627   0.194   5.973   4.458
10576SOL    HW232628   0.094   6.024   4.339
10577SOL     OW32629   1.694   3.794   0.022
10577SOL    HW132630   1.629   3.848   0.075
10577SOL    HW232631   1.782   3.842   0.019
10578SOL     OW32632   5.152   1.658   2.852
10578SOL    HW132633   5.226   1.591   2.849
10578SOL    HW232634   5.168   1.727   2.781
10579SOL     OW32635   4.316   2.675   1.739
10579SOL    HW132636   4.294   2.580   1.759
10579SOL    HW232637   4.413   2.692   1.756
10580SOL     OW32638   6.425   0.197   0.036
10580SOL    HW132639   6.398   0.130   0.105
10580SOL    HW232640   6.357   0.271   0.033
10581SOL     OW32641   6.587   6.896   3.127
10581SOL    HW132642   6.569   6.888   3.225
10581SOL    HW232643   6.648   6.973   3.110
10582SOL     OW32644   5.597   5.387   6.031
10582SOL    HW132645   5.625   5.484   6.028
10582SOL    HW232646   5.671   5.331   5.994
10583SOL     OW32647   3.906   1.131   4.565
10583SOL    HW132648   3.898   1.228   4.589
10583SOL    HW232649   3.915   1.122   4.466
10584SOL     OW32650   6.505   6.481   1.489
10584SOL    HW132651   6.496   6.500   1.586
10584SOL    HW232652   6.593   6.515   1.456
10585SOL     OW32653   2.258   2.313   5.501
10585SOL    HW132654   2.350   2.334   5.469
10585SOL    HW232655   2.199   2.393   5.489
10586SOL     OW32656   6.173   5.282   5.249
10586SOL    HW132657   6.123   5.213   5.301
10586SOL    HW232658   6.271   5.273   5.267
10587SOL     OW32659   6.242   4.479   0.240
10587SOL    HW132660   6.290   4.551   0.190
10587SOL    HW232661   6.156   4.458   0.193
10588SOL     OW32662   0.837   3.243   4.211
10588SOL    HW132663   0.934   3.225   4.194
10588SOL    HW232664   0.816   3.337   4.185
10589SOL     OW32665   5.731   2.067   4.207
10589SOL    HW132666   5.669   2.055   4.285
10589SOL    HW232667   5.784   2.150   4.219
10590SOL     OW32668   0.595   0.256   1.943
10590SOL    HW132669   0.684   0.277   1.982
10590SOL    HW232670   0.597   0.164   1.904
10591SOL     OW32671   1.329   2.024   0.042
10591SOL    HW132672   1.379   2.050   6.982
10591SOL    HW232673   1.282   1.937   0.026
10592SOL     OW32674   5.582   3.997   1.838
10592SOL    HW132675   5.505   3.996   1.775
10592SOL    HW232676   5.652   3.932   1.807
10593SOL     OW32677   2.501   5.660   0.585
10593SOL    HW132678   2.441   5.737   0.566
10593SOL    HW232679   2.541   5.670   0.676
10594SOL     OW32680   4.855   0.430   2.330
10594SOL    HW132681   4.864   0.529   2.320
10594SOL    HW232682   4.945   0.388   2.334
10595SOL     OW32683   4.145   6.578   6.404
10595SOL    HW132684   4.227   6.594   6.459
10595SOL    HW232685   4.074   6.643   6.432
10596SOL     OW32686   4.338   0.263   0.054
10596SOL    HW132687   4.335   0.195   0.127
10596SOL    HW232688   4.420   0.320   0.064
10597SOL     OW32689   3.767   0.610   5.300
10597SOL    HW132690   3.739   0.538   5.236
10597SOL    HW232691   3.856   0.588   5.340
10598SOL     OW32692   2.910   2.837   0.490
10598SOL    HW132693   2.816   2.848   0.459
10598SOL    HW232694   2.942   2.921   0.533
10599SOL     OW32695   5.156   3.277   5.637
10599SOL    HW132696   5.238   3.250   5.687
10599SOL    HW232697   5.136   3.208   5.567
10600SOL     OW32698   2.362   2.252   0.540
10600SOL    HW132699   2.423   2.286   0.612
10600SOL    HW232700   2.378   2.154   0.527
10601SOL     OW32701   1.541   4.741   5.100
10601SOL    HW132702   1.447   4.716   5.125
10601SOL    HW232703   1.604   4.670   5.132
10602SOL     OW32704   3.680   1.576   2.194
10602SOL    HW132705   3.587   1.574   2.158
10602SOL    HW232706   3.726   1.659   2.163
10603SOL     OW32707   3.350   5.915   3.071
10603SOL    HW132708   3.360   5.845   3.142
10603SOL    HW232709   3.307   5.996   3.111
10604SOL     OW32710   6.071   5.485   5.666
10604SOL    HW132711   6.067   5.398   5.616
10604SOL    HW232712   6.016   5.553   5.619
10605SOL     OW32713   1.560   5.942   0.349
10605SOL    HW132714   1.588   5.925   0.254
10605SOL    HW232715   1.596   6.030   0.379
10606SOL     OW32716   6.839   0.927   2.859
10606SOL    HW132717   6.880   0.862   2.924
10606SOL    HW232718   6.761   0.884   2.814
10607SOL     OW32719   4.047   4.794   5.141
10607SOL    HW132720   3.978   4.811   5.211
10607SOL    HW232721   4.008   4.812   5.050
10608SOL     OW32722   5.159   2.631   5.698
10608SOL    HW132723   5.187   2.563   5.630
10608SOL    HW232724   5.240   2.670   5.742
10609SOL     OW32725   2.759   6.802   0.354
10609SOL    HW132726   2.720   6.723   0.401
10609SOL    HW232727   2.762   6.880   0.417
10610SOL     OW32728   1.121   2.380   5.676
10610SOL    HW132729   1.107   2.280   5.673
10610SOL    HW232730   1.033   2.425   5.659
10611SOL     OW32731   3.825   4.017   5.793
10611SOL    HW132732   3.781   3.938   5.835
10611SOL    HW232733   3.907   3.987   5.744
10612SOL     OW32734   3.071   0.899   4.564
10612SOL    HW132735   3.068   0.991   4.525
10612SOL    HW232736   2.989   0.884   4.619
10613SOL     OW32737   6.298   6.559   4.852
10613SOL    HW132738   6.247   6.627   4.801
10613SOL    HW232739   6.366   6.516   4.792
10614SOL     OW32740   6.233   2.047   4.130
10614SOL    HW132741   6.318   2.094   4.106
10614SOL    HW232742   6.195   2.004   4.048
10615SOL     OW32743   3.511   6.619   5.388
10615SOL    HW132744   3.418   6.647   5.364
10615SOL    HW232745   3.576   6.658   5.323
10616SOL     OW32746   2.879   5.970   0.747
10616SOL    HW132747   2.958   5.942   0.801
10616SOL    HW232748   2.833   6.047   0.791
10617SOL     OW32749   2.202   2.247   1.302
10617SOL    HW132750   2.215   2.233   1.400
10617SOL    HW232751   2.144   2.328   1.288
10618SOL     OW32752   0.185   3.629   6.574
10618SOL    HW132753   0.264   3.635   6.635
10618SOL    HW232754   0.169   3.718   6.532
10619SOL     OW32755   0.246   4.309   2.478
10619SOL    HW132756   0.165   4.274   2.430
10619SOL    HW232757   0.273   4.396   2.439
10620SOL     OW32758   1.525   5.623   4.890
10620SOL    HW132759   1.539   5.618   4.791
10620SOL    HW232760   1.538   5.532   4.930
10621SOL     OW32761   1.138   6.015   2.047
10621SOL    HW132762   1.093   5.935   2.086
10621SOL    HW232763   1.124   6.016   1.948
10622SOL     OW32764   5.126   1.778   1.178
10622SOL    HW132765   5.086   1.828   1.255
10622SOL    HW232766   5.103   1.825   1.093
10623SOL     OW32767   6.978   4.716   5.167
10623SOL    HW132768   6.966   4.617   5.169
10623SOL    HW232769   0.011   4.744   5.245
10624SOL     OW32770   0.137   2.997   4.953
10624SOL    HW132771   0.071   2.949   4.895
10624SOL    HW232772   0.216   3.022   4.898
10625SOL     OW32773   0.454   4.291   0.244
10625SOL    HW132774   0.408   4.230   0.309
10625SOL    HW232775   0.552   4.273   0.246
10626SOL     OW32776   2.762   3.091   0.815
10626SOL    HW132777   2.825   3.096   0.892
10626SOL    HW232778   2.710   3.176   0.808
10627SOL     OW32779   5.503   6.688   0.516
10627SOL    HW132780   5.470   6.770   0.470
10627SOL    HW232781   5.550   6.630   0.450
10628SOL     OW32782   4.813   6.339   0.401
10628SOL    HW132783   4.845   6.394   0.324
10628SOL    HW232784   4.713   6.334   0.398
10629SOL     OW32785   2.699   5.031   5.177
10629SOL    HW132786   2.669   5.000   5.087
10629SOL    HW232787   2.706   4.952   5.239
10630SOL     OW32788   6.532   1.117   3.864
10630SOL    HW132789   6.501   1.055   3.793
10630SOL    HW232790   6.456   1.175   3.893
10631SOL     OW32791   2.486   4.484   4.498
10631SOL    HW132792   2.440   4.556   4.446
10631SOL    HW232793   2.448   4.480   4.590
10632SOL     OW32794   6.245   2.069   3.627
10632SOL    HW132795   6.245   1.979   3.671
10632SOL    HW232796   6.295   2.134   3.684
10633SOL     OW32797   2.900   2.912   1.299
10633SOL    HW132798   2.817   2.857   1.294
10633SOL    HW232799   2.894   2.974   1.378
10634SOL     OW32800   3.152   5.819   0.825
10634SOL    HW132801   3.250   5.816   0.810
10634SOL    HW232802   3.132   5.796   0.920
10635SOL     OW32803   3.157   2.172   0.957
10635SOL    HW132804   3.248   2.189   0.996
10635SOL    HW232805   3.130   2.251   0.901
10636SOL     OW32806   1.156   1.480   1.527
10636SOL    HW132807   1.197   1.530   1.450
10636SOL    HW232808   1.155   1.383   1.506
10637SOL     OW32809   2.556   4.722   6.005
10637SOL    HW132810   2.584   4.803   5.954
10637SOL    HW232811   2.631   4.692   6.064
10638SOL     OW32812   6.931   5.763   2.850
10638SOL    HW132813   7.014   5.760   2.793
10638SOL    HW232814   6.854   5.729   2.796
10639SOL     OW32815   0.888   3.163   3.619
10639SOL    HW132816   0.830   3.206   3.549
10639SOL    HW232817   0.835   3.149   3.702
10640SOL     OW32818   3.757   0.104   5.599
10640SOL    HW132819   3.836   0.164   5.612
10640SOL    HW232820   3.787   0.008   5.600
10641SOL     OW32821   2.686   1.665   1.298
10641SOL    HW132822   2.775   1.627   1.276
10641SOL    HW232823   2.697   1.752   1.347
10642SOL     OW32824   0.255   3.013   1.970
10642SOL    HW132825   0.202   3.094   1.945
10642SOL    HW232826   0.299   2.976   1.888
10643SOL     OW32827   1.817   4.927   5.451
10643SOL    HW132828   1.917   4.922   5.458
10643SOL    HW232829   1.779   4.835   5.455
10644SOL     OW32830   5.521   2.895   3.081
10644SOL    HW132831   5.537   2.870   3.177
10644SOL    HW232832   5.437   2.852   3.049
10645SOL     OW32833   1.260   1.995   5.119
10645SOL    HW132834   1.332   2.029   5.180
10645SOL    HW232835   1.244   2.061   5.046
10646SOL     OW32836   6.699   0.303   6.204
10646SOL    HW132837   6.635   0.282   6.277
10646SOL    HW232838   6.660   0.276   6.116
10647SOL     OW32839   2.725   5.176   5.597
10647SOL    HW132840   2.796   5.221   5.652
10647SOL    HW232841   2.757   5.085   5.569
10648SOL     OW32842   5.384   4.559   6.155
10648SOL    HW132843   5.324   4.638   6.166
10648SOL    HW232844   5.438   4.569   6.071
10649SOL     OW32845   0.179   4.213   3.034
10649SOL    HW132846   0.150   4.178   3.124
10649SOL    HW232847   0.243   4.149   2.993
10650SOL     OW32848   0.982   6.240   3.437
10650SOL    HW132849   0.900   6.265   3.489
10650SOL    HW232850   0.983   6.291   3.351
10651SOL     OW32851   4.638   6.190   6.363
10651SOL    HW132852   4.650   6.284   6.395
10651SOL    HW232853   4.541   6.171   6.351
10652SOL     OW32854   3.506   0.021   6.244
10652SOL    HW132855   3.560   0.105   6.231
10652SOL    HW232856   3.497   0.002   6.342
10653SOL     OW32857   4.745   4.369   4.219
10653SOL    HW132858   4.726   4.323   4.306
10653SOL    HW232859   4.766   4.300   4.149
10654SOL     OW32860   4.821   1.048   0.625
10654SOL    HW132861   4.908   1.018   0.665
10654SOL    HW232862   4.750   1.047   0.695
10655SOL     OW32863   2.356   5.403   0.520
10655SOL    HW132864   2.408   5.382   0.437
10655SOL    HW232865   2.388   5.489   0.559
10656SOL     OW32866   6.369   2.193   2.106
10656SOL    HW132867   6.273   2.179   2.129
10656SOL    HW232868   6.406   2.269   2.160
10657SOL     OW32869   6.815   0.500   5.918
10657SOL    HW132870   6.836   0.585   5.968
10657SOL    HW232871   6.843   0.510   5.823
10658SOL     OW32872   6.078   4.746   4.876
10658SOL    HW132873   5.982   4.757   4.850
10658SOL    HW232874   6.116   4.834   4.905
10659SOL     OW32875   6.779   6.209   1.034
10659SOL    HW132876   6.734   6.217   1.123
10659SOL    HW232877   6.765   6.117   0.998
10660SOL     OW32878   5.311   3.781   0.111
10660SOL    HW132879   5.366   3.701   0.137
10660SOL    HW232880   5.348   3.862   0.155
10661SOL     OW32881   0.319   6.660   2.445
10661SOL    HW132882   0.289   6.745   2.403
10661SOL    HW232883   0.390   6.679   2.512
10662SOL     OW32884   5.453   0.915   3.560
10662SOL    HW132885   5.452   0.821   3.593
10662SOL    HW232886   5.379   0.966   3.604
10663SOL     OW32887   1.019   0.912   1.975
10663SOL    HW132888   1.052   0.818   1.973
10663SOL    HW232889   0.941   0.919   2.037
10664SOL     OW32890   0.833   4.922   4.846
10664SOL    HW132891   0.812   5.001   4.788
10664SOL    HW232892   0.932   4.908   4.849
10665SOL     OW32893   0.812   1.499   0.408
10665SOL    HW132894   0.725   1.510   0.455
10665SOL    HW232895   0.855   1.589   0.396
10666SOL     OW32896   3.053   4.044   1.046
10666SOL    HW132897   2.991   4.101   1.101
10666SOL    HW232898   3.096   3.976   1.104
10667SOL     OW32899   4.033   3.195   5.174
10667SOL    HW132900   4.009   3.175   5.079
10667SOL    HW232901   3.978   3.137   5.235
10668SOL     OW32902   1.540   1.166   5.137
10668SOL    HW132903   1.592   1.139   5.218
10668SOL    HW232904   1.469   1.230   5.162
10669SOL     OW32905   6.025   6.018   0.754
10669SOL    HW132906   5.990   5.939   0.705
10669SOL    HW232907   6.119   6.038   0.725
10670SOL     OW32908   5.307   4.084   5.262
10670SOL    HW132909   5.277   4.016   5.328
10670SOL    HW232910   5.396   4.057   5.224
10671SOL     OW32911   2.601   2.278   3.140
10671SOL    HW132912   2.555   2.215   3.077
10671SOL    HW232913   2.601   2.238   3.232
10672SOL     OW32914   6.138   2.717   0.404
10672SOL    HW132915   6.043   2.691   0.422
10672SOL    HW232916   6.158   2.703   0.307
10673SOL     OW32917   1.090   1.397   0.152
10673SOL    HW132918   1.011   1.434   0.104
10673SOL    HW232919   1.100   1.444   0.240
10674SOL     OW32920   3.235   4.119   0.828
10674SOL    HW132921   3.158   4.092   0.887
10674SOL    HW232922   3.207   4.114   0.732
10675SOL     OW32923   2.306   6.993   6.426
10675SOL    HW132924   2.215   6.958   6.447
10675SOL    HW232925   2.339   6.951   6.341
10676SOL     OW32926   6.363   6.819   5.590
10676SOL    HW132927   6.434   6.758   5.628
10676SOL    HW232928   6.382   6.913   5.618
10677SOL     OW32929   0.401   0.740   2.082
10677SOL    HW132930   0.394   0.691   1.995
10677SOL    HW232931   0.343   0.695   2.150
10678SOL     OW32932   4.131   5.477   2.622
10678SOL    HW132933   4.036   5.466   2.652
10678SOL    HW232934   4.166   5.565   2.655
10679SOL     OW32935   5.237   5.028   6.348
10679SOL    HW132936   5.225   5.091   6.424
10679SOL    HW232937   5.314   5.056   6.291
10680SOL     OW32938   2.851   1.852   3.648
10680SOL    HW132939   2.756   1.876   3.665
10680SOL    HW232940   2.865   1.835   3.550
10681SOL     OW32941   0.645   4.159   0.054
10681SOL    HW132942   0.653   4.090   0.125
10681SOL    HW232943   0.716   4.144   7.007
10682SOL     OW32944   1.661   1.789   3.670
10682SOL    HW132945   1.702   1.755   3.755
10682SOL    HW232946   1.648   1.888   3.676
10683SOL     OW32947   3.240   1.921   4.040
10683SOL    HW132948   3.252   1.887   4.133
10683SOL    HW232949   3.289   2.007   4.029
10684SOL     OW32950   5.070   4.404   1.214
10684SOL    HW132951   5.005   4.452   1.155
10684SOL    HW232952   5.118   4.334   1.162
10685SOL     OW32953   0.442   5.356   2.783
10685SOL    HW132954   0.439   5.456   2.778
10685SOL    HW232955   0.535   5.327   2.805
10686SOL     OW32956   1.660   4.658   6.414
10686SOL    HW132957   1.727   4.608   6.360
10686SOL    HW232958   1.568   4.626   6.390
10687SOL     OW32959   6.917   5.586   2.022
10687SOL    HW132960   6.951   5.611   2.112
10687SOL    HW232961   6.984   5.529   1.975
10688SOL     OW32962   6.717   4.119   3.101
10688SOL    HW132963   6.786   4.158   3.161
10688SOL    HW232964   6.636   4.178   3.101
10689SOL     OW32965   0.925   6.783   3.779
10689SOL    HW132966   1.008   6.726   3.775
10689SOL    HW232967   0.850   6.734   3.735
10690SOL     OW32968   0.003   5.921   3.350
10690SOL    HW132969   6.998   5.879   3.263
10690SOL    HW232970   6.949   5.972   3.388
10691SOL     OW32971   1.191   1.126   2.449
10691SOL    HW132972   1.218   1.141   2.544
10691SOL    HW232973   1.183   1.214   2.402
10692SOL     OW32974   3.565   4.864   2.522
10692SOL    HW132975   3.570   4.914   2.435
10692SOL    HW232976   3.560   4.766   2.504
10693SOL     OW32977   2.244   0.017   1.339
10693SOL    HW132978   2.248   7.012   1.243
10693SOL    HW232979   2.150   0.037   1.365
10694SOL     OW32980   4.801   6.269   1.145
10694SOL    HW132981   4.854   6.354   1.134
10694SOL    HW232982   4.802   6.241   1.241
10695SOL     OW32983   5.288   2.688   2.597
10695SOL    HW132984   5.267   2.667   2.501
10695SOL    HW232985   5.370   2.745   2.600
10696SOL     OW32986   6.970   4.151   3.231
10696SOL    HW132987   6.978   4.084   3.305
10696SOL    HW232988   6.976   4.244   3.269
10697SOL     OW32989   0.359   5.901   4.527
10697SOL    HW132990   0.406   5.820   4.493
10697SOL    HW232991   0.369   5.906   4.627
10698SOL     OW32992   4.295   6.290   4.198
10698SOL    HW132993   4.350   6.242   4.129
10698SOL    HW232994   4.338   6.278   4.287
10699SOL     OW32995   4.240   2.299   1.969
10699SOL    HW132996   4.179   2.226   2.003
10699SOL    HW232997   4.218   2.318   1.873
10700SOL     OW32998   0.968   0.228   0.836
10700SOL    HW132999   0.986   0.136   0.870
10700SOL    HW233000   1.051   0.284   0.844
10701SOL     OW33001   3.604   5.771   0.321
10701SOL    HW133002   3.556   5.814   0.398
10701SOL    HW233003   3.554   5.789   0.237
10702SOL     OW33004   6.066   2.130   2.910
10702SOL    HW133005   6.052   2.125   3.009
10702SOL    HW233006   6.042   2.042   2.869
10703SOL     OW33007   3.204   3.032   4.106
10703SOL    HW133008   3.248   3.016   4.018
10703SOL    HW233009   3.273   3.065   4.171
10704SOL     OW33010   6.226   5.347   1.954
10704SOL    HW133011   6.277   5.429   1.981
10704SOL    HW233012   6.281   5.292   1.892
10705SOL     OW33013   6.921   4.277   2.404
10705SOL    HW133014   6.906   4.268   2.305
10705SOL    HW233015   6.872   4.204   2.451
10706SOL     OW33016   4.659   6.322   2.067
10706SOL    HW133017   4.679   6.239   2.015
10706SOL    HW233018   4.568   6.356   2.044
10707SOL     OW33019   0.711   6.585   4.190
10707SOL    HW133020   0.749   6.495   4.174
10707SOL    HW233021   0.693   6.630   4.103
10708SOL     OW33022   4.550   0.735   2.361
10708SOL    HW133023   4.580   0.817   2.411
10708SOL    HW233024   4.492   0.763   2.285
10709SOL     OW33025   5.930   0.454   4.913
10709SOL    HW133026   5.987   0.450   4.831
10709SOL    HW233027   5.877   0.539   4.913
10710SOL     OW33028   0.913   6.197   3.775
10710SOL    HW133029   0.879   6.109   3.741
10710SOL    HW233030   0.888   6.270   3.712
10711SOL     OW33031   1.682   6.704   3.824
10711SOL    HW133032   1.729   6.734   3.907
10711SOL    HW233033   1.745   6.708   3.747
10712SOL     OW33034   3.499   0.941   1.839
10712SOL    HW133035   3.539   0.910   1.752
10712SOL    HW233036   3.571   0.980   1.897
10713SOL     OW33037   1.193   3.785   1.860
10713SOL    HW133038   1.173   3.746   1.770
10713SOL    HW233039   1.111   3.831   1.895
10714SOL     OW33040   5.835   3.035   5.612
10714SOL    HW133041   5.815   3.130   5.636
10714SOL    HW233042   5.924   3.009   5.649
10715SOL     OW33043   4.575   6.847   2.718
10715SOL    HW133044   4.590   6.903   2.800
10715SOL    HW233045   4.575   6.906   2.637
10716SOL     OW33046   6.871   2.491   3.670
10716SOL    HW133047   6.955   2.544   3.666
10716SOL    HW233048   6.817   2.506   3.586
10717SOL     OW33049   0.406   2.352   0.339
10717SOL    HW133050   0.330   2.320   0.395
10717SOL    HW233051   0.390   2.329   0.243
10718SOL     OW33052   6.868   4.262   6.969
10718SOL    HW133053   6.910   4.332   6.912
10718SOL    HW233054   6.924   4.248   0.028
10719SOL     OW33055   4.505   5.861   1.159
10719SOL    HW133056   4.487   5.903   1.070
10719SOL    HW233057   4.487   5.928   1.232
10720SOL     OW33058   0.017   3.169   5.845
10720SOL    HW133059   0.042   3.092   5.904
10720SOL    HW233060   7.018   3.135   5.754
10721SOL     OW33061   5.606   2.971   5.249
10721SOL    HW133062   5.540   3.046   5.259
10721SOL    HW233063   5.672   2.995   5.178
10722SOL     OW33064   0.132   2.870   0.408
10722SOL    HW133065   0.205   2.929   0.373
10722SOL    HW233066   0.165   2.776   0.416
10723SOL     OW33067   6.876   4.414   6.566
10723SOL    HW133068   6.882   4.325   6.520
10723SOL    HW233069   6.791   4.459   6.539
10724SOL     OW33070   3.635   0.261   6.304
10724SOL    HW133071   3.733   0.283   6.300
10724SOL    HW233072   3.586   0.336   6.349
10725SOL     OW33073   0.066   4.853   3.984
10725SOL    HW133074   7.013   4.897   4.034
10725SOL    HW233075   0.142   4.916   3.976
10726SOL     OW33076   5.777   6.271   5.230
10726SOL    HW133077   5.862   6.225   5.205
10726SOL    HW233078   5.795   6.340   5.300
10727SOL     OW33079   1.831   4.663   4.414
10727SOL    HW133080   1.834   4.688   4.317
10727SOL    HW233081   1.826   4.564   4.423
10728SOL     OW33082   6.065   6.365   2.013
10728SOL    HW133083   6.046   6.271   1.984
10728SOL    HW233084   5.984   6.404   2.055
10729SOL     OW33085   6.467   1.100   3.123
10729SOL    HW133086   6.449   1.013   3.079
10729SOL    HW233087   6.523   1.085   3.204
10730SOL     OW33088   2.612   0.047   0.774
10730SOL    HW133089   2.708   0.078   0.771
10730SOL    HW233090   2.607   6.981   0.820
10731SOL     OW33091   2.189   5.741   6.691
10731SOL    HW133092   2.172   5.764   6.787
10731SOL    HW233093   2.209   5.825   6.640
10732SOL     OW33094   5.729   6.861   2.366
10732SOL    HW133095   5.705   6.826   2.457
10732SOL    HW233096   5.692   6.800   2.296
10733SOL     OW33097   5.687   3.025   0.044
10733SOL    HW133098   5.602   3.070   0.071
10733SOL    HW233099   5.686   2.930   0.077
10734SOL     OW33100   1.469   0.472   6.353
10734SOL    HW133101   1.466   0.570   6.338
10734SOL    HW233102   1.496   0.453   6.448
10735SOL     OW33103   1.350   4.385   2.394
10735SOL    HW133104   1.309   4.357   2.481
10735SOL    HW233105   1.338   4.313   2.326
10736SOL     OW33106   0.836   1.232   3.551
10736SOL    HW133107   0.760   1.258   3.491
10736SOL    HW233108   0.806   1.161   3.614
10737SOL     OW33109   0.889   2.242   0.089
10737SOL    HW133110   0.951   2.294   0.148
10737SOL    HW233111   0.928   2.236   7.020
10738SOL     OW33112   3.028   0.226   1.786
10738SOL    HW133113   3.073   0.273   1.861
10738SOL    HW233114   3.087   0.154   1.750
10739SOL     OW33115   0.661   1.000   3.301
10739SOL    HW133116   0.669   0.910   3.344
10739SOL    HW233117   0.567   1.014   3.269
10740SOL     OW33118   1.232   5.095   5.966
10740SOL    HW133119   1.204   5.171   5.906
10740SOL    HW233120   1.331   5.080   5.956
10741SOL     OW33121   1.440   1.366   3.547
10741SOL    HW133122   1.388   1.452   3.539
10741SOL    HW233123   1.419   1.308   3.468
10742SOL     OW33124   6.014   0.345   2.058
10742SOL    HW133125   5.975   0.375   1.971
10742SOL    HW233126   6.001   0.417   2.127
10743SOL     OW33127   2.558   2.551   3.684
10743SOL    HW133128   2.646   2.504   3.672
10743SOL    HW233129   2.516   2.567   3.595
10744SOL     OW33130   3.258   1.517   2.497
10744SOL    HW133131   3.288   1.606   2.463
10744SOL    HW233132   3.161   1.521   2.521
10745SOL     OW33133   1.484   4.609   0.464
10745SOL    HW133134   1.487   4.687   0.527
10745SOL    HW233135   1.576   4.590   0.430
10746SOL     OW33136   2.159   4.550   1.122
10746SOL    HW133137   2.233   4.616   1.110
10746SOL    HW233138   2.111   4.568   1.208
10747SOL     OW33139   5.147   1.517   3.223
10747SOL    HW133140   5.177   1.434   3.176
10747SOL    HW233141   5.222   1.583   3.226
10748SOL     OW33142   5.917   6.987   1.242
10748SOL    HW133143   5.871   6.913   1.194
10748SOL    HW233144   5.870   7.006   1.328
10749SOL     OW33145   0.278   5.032   2.726
10749SOL    HW133146   0.218   5.052   2.649
10749SOL    HW233147   0.364   4.993   2.691
10750SOL     OW33148   4.835   5.097   4.484
10750SOL    HW133149   4.925   5.069   4.452
10750SOL    HW233150   4.808   5.041   4.562
10751SOL     OW33151   0.702   3.489   5.276
10751SOL    HW133152   0.700   3.527   5.183
10751SOL    HW233153   0.652   3.549   5.338
10752SOL     OW33154   5.902   3.553   6.488
10752SOL    HW133155   5.953   3.595   6.563
10752SOL    HW233156   5.912   3.609   6.405
10753SOL     OW33157   6.106   0.168   3.580
10753SOL    HW133158   6.153   0.084   3.606
10753SOL    HW233159   6.172   0.234   3.545
10754SOL     OW33160   2.090   2.283   3.001
10754SOL    HW133161   2.024   2.319   3.067
10754SOL    HW233162   2.055   2.198   2.961
10755SOL     OW33163   0.012   1.657   0.777
10755SOL    HW133164   0.103   1.624   0.801
10755SOL    HW233165   6.996   1.600   0.705
10756SOL     OW33166   6.329   3.715   0.476
10756SOL    HW133167   6.288   3.764   0.398
10756SOL    HW233168   6.267   3.720   0.554
10757SOL     OW33169   6.899   3.834   0.389
10757SOL    HW133170   6.892   3.809   0.486
10757SOL    HW233171   6.841   3.773   0.335
10758SOL     OW33172   1.701   6.293   5.071
10758SOL    HW133173   1.685   6.274   5.167
10758SOL    HW233174   1.716   6.207   5.022
10759SOL     OW33175   1.901   3.142   6.694
10759SOL    HW133176   1.878   3.048   6.668
10759SOL    HW233177   2.000   3.153   6.695
10760SOL     OW33178   6.746   0.108   1.223
10760SOL    HW133179   6.719   0.019   1.187
10760SOL    HW233180   6.731   0.111   1.321
10761SOL     OW33181   0.365   1.825   6.066
10761SOL    HW133182   0.349   1.923   6.075
10761SOL    HW233183   0.325   1.792   5.980
10762SOL     OW33184   4.664   1.050   4.989
10762SOL    HW133185   4.677   1.145   4.961
10762SOL    HW233186   4.745   0.996   4.966
10763SOL     OW33187   4.894   6.179   0.876
10763SOL    HW133188   4.917   6.267   0.834
10763SOL    HW233189   4.833   6.194   0.953
10764SOL     OW33190   5.414   1.695   6.306
10764SOL    HW133191   5.357   1.734   6.233
10764SOL    HW233192   5.510   1.711   6.285
10765SOL     OW33193   5.406   2.526   0.947
10765SOL    HW133194   5.314   2.498   0.975
10765SOL    HW233195   5.441   2.593   1.013
10766SOL     OW33196   2.714   3.474   0.212
10766SOL    HW133197   2.634   3.521   0.176
10766SOL    HW233198   2.789   3.479   0.145
10767SOL     OW33199   1.429   0.793   0.827
10767SOL    HW133200   1.518   0.831   0.802
10767SOL    HW233201   1.384   0.852   0.893
10768SOL     OW33202   5.676   5.603   0.358
10768SOL    HW133203   5.604   5.594   0.426
10768SOL    HW233204   5.717   5.694   0.364
10769SOL     OW33205   2.578   5.288   4.936
10769SOL    HW133206   2.555   5.299   5.033
10769SOL    HW233207   2.498   5.254   4.887
10770SOL     OW33208   5.793   0.077   4.240
10770SOL    HW133209   5.790   0.050   4.336
10770SOL    HW233210   5.746   0.165   4.229
10771SOL     OW33211   4.764   0.041   5.516
10771SOL    HW133212   4.674   0.030   5.558
10771SOL    HW233213   4.817   0.108   5.567
10772SOL     OW33214   6.146   0.076   4.142
10772SOL    HW133215   6.171   7.008   4.109
10772SOL    HW233216   6.159   0.081   4.241
10773SOL     OW33217   6.966   5.149   6.961
10773SOL    HW133218   0.031   5.108   6.987
10773SOL    HW233219   6.973   5.248   6.969
10774SOL     OW33220   1.510   2.337   6.903
10774SOL    HW133221   1.600   2.338   6.948
10774SOL    HW233222   1.438   2.331   6.972
10775SOL     OW33223   1.654   3.697   0.451
10775SOL    HW133224   1.587   3.762   0.488
10775SOL    HW233225   1.618   3.658   0.367
10776SOL     OW33226   1.178   6.207   0.875
10776SOL    HW133227   1.164   6.293   0.826
10776SOL    HW233228   1.089   6.169   0.901
10777SOL     OW33229   4.266   0.305   3.842
10777SOL    HW133230   4.185   0.304   3.784
10777SOL    HW233231   4.285   0.212   3.873
10778SOL     OW33232   5.729   0.041   4.524
10778SOL    HW133233   5.716   0.108   4.597
10778SOL    HW233234   5.649   7.004   4.519
10779SOL     OW33235   0.024   4.510   3.123
10779SOL    HW133236   0.025   4.451   3.042
10779SOL    HW233237   6.985   4.588   3.106
10780SOL     OW33238   1.486   6.699   2.984
10780SOL    HW133239   1.531   6.738   2.903
10780SOL    HW233240   1.520   6.607   3.000
10781SOL     OW33241   3.715   1.796   3.998
10781SOL    HW133242   3.705   1.703   3.965
10781SOL    HW233243   3.733   1.795   4.097
10782SOL     OW33244   6.065   2.606   3.405
10782SOL    HW133245   6.141   2.554   3.367
10782SOL    HW233246   5.999   2.627   3.333
10783SOL     OW33247   1.234   3.213   2.850
10783SOL    HW133248   1.156   3.213   2.913
10783SOL    HW233249   1.317   3.240   2.899
10784SOL     OW33250   2.600   6.694   1.811
10784SOL    HW133251   2.518   6.639   1.795
10784SOL    HW233252   2.607   6.714   1.909
10785SOL     OW33253   1.687   4.353   1.585
10785SOL    HW133254   1.761   4.382   1.645
10785SOL    HW233255   1.599   4.364   1.633
10786SOL     OW33256   5.036   3.279   1.481
10786SOL    HW133257   5.118   3.318   1.439
10786SOL    HW233258   5.001   3.205   1.424
10787SOL     OW33259   3.284   1.831   4.934
10787SOL    HW133260   3.366   1.792   4.892
10787SOL    HW233261   3.307   1.918   4.977
10788SOL     OW33262   2.387   4.429   0.249
10788SOL    HW133263   2.415   4.399   0.158
10788SOL    HW233264   2.362   4.350   0.304
10789SOL     OW33265   5.449   1.618   0.754
10789SOL    HW133266   5.522   1.568   0.708
10789SOL    HW233267   5.380   1.644   0.686
10790SOL     OW33268   0.670   0.541   4.839
10790SOL    HW133269   0.645   0.609   4.770
10790SOL    HW233270   0.613   0.552   4.920
10791SOL     OW33271   0.752   1.131   1.556
10791SOL    HW133272   0.701   1.207   1.595
10791SOL    HW233273   0.788   1.074   1.629
10792SOL     OW33274   3.019   3.080   1.782
10792SOL    HW133275   3.032   2.982   1.795
10792SOL    HW233276   3.108   3.126   1.785
10793SOL     OW33277   5.391   2.476   4.218
10793SOL    HW133278   5.381   2.391   4.269
10793SOL    HW233279   5.356   2.552   4.272
10794SOL     OW33280   3.456   3.912   2.617
10794SOL    HW133281   3.419   3.819   2.621
10794SOL    HW233282   3.380   3.977   2.618
10795SOL     OW33283   6.180   4.371   3.907
10795SOL    HW133284   6.232   4.296   3.946
10795SOL    HW233285   6.227   4.405   3.826
10796SOL     OW33286   3.529   6.262   6.458
10796SOL    HW133287   3.626   6.242   6.445
10796SOL    HW233288   3.495   6.314   6.380
10797SOL     OW33289   4.466   2.580   1.016
10797SOL    HW133290   4.485   2.644   1.090
10797SOL    HW233291   4.489   2.622   0.928
10798SOL     OW33292   1.770   7.017   0.509
10798SOL    HW133293   1.681   6.989   0.547
10798SOL    HW233294   1.843   6.987   0.570
10799SOL     OW33295   3.746   1.615   1.678
10799SOL    HW133296   3.721   1.638   1.584
10799SOL    HW233297   3.700   1.677   1.741
10800SOL     OW33298   1.235   6.963   0.067
10800SOL    HW133299   1.195   7.013   0.143
10800SOL    HW233300   1.334   6.979   0.065
10801SOL     OW33301   1.000   0.120   5.082
10801SOL    HW133302   0.947   0.085   5.159
10801SOL    HW233303   1.093   0.083   5.086
10802SOL     OW33304   2.157   3.586   4.959
10802SOL    HW133305   2.137   3.527   4.881
10802SOL    HW233306   2.237   3.551   5.007
10803SOL     OW33307   5.076   4.567   4.936
10803SOL    HW133308   5.011   4.495   4.962
10803SOL    HW233309   5.168   4.527   4.929
10804SOL     OW33310   0.173   4.183   1.729
10804SOL    HW133311   0.111   4.129   1.673
10804SOL    HW233312   0.132   4.200   1.818
10805SOL     OW33313   3.508   6.529   6.813
10805SOL    HW133314   3.414   6.509   6.841
10805SOL    HW233315   3.569   6.524   6.892
10806SOL     OW33316   5.230   4.473   0.199
10806SOL    HW133317   5.191   4.416   0.271
10806SOL    HW233318   5.217   4.428   0.110
10807SOL     OW33319   3.188   6.694   3.620
10807SOL    HW133320   3.153   6.635   3.692
10807SOL    HW233321   3.237   6.639   3.552
10808SOL     OW33322   0.359   3.602   0.696
10808SOL    HW133323   0.372   3.562   0.787
10808SOL    HW233324   0.444   3.647   0.668
10809SOL     OW33325   2.944   6.943   3.975
10809SOL    HW133326   2.905   6.988   3.895
10809SOL    HW233327   3.012   7.002   4.017
10810SOL     OW33328   1.118   1.096   5.406
10810SOL    HW133329   1.114   1.004   5.368
10810SOL    HW233330   1.028   1.123   5.440
10811SOL     OW33331   4.622   5.257   4.956
10811SOL    HW133332   4.697   5.302   5.005
10811SOL    HW233333   4.650   5.164   4.931
10812SOL     OW33334   0.589   3.216   2.490
10812SOL    HW133335   0.609   3.134   2.437
10812SOL    HW233336   0.498   3.210   2.529
10813SOL     OW33337   1.826   6.236   6.820
10813SOL    HW133338   1.921   6.267   6.829
10813SOL    HW233339   1.786   6.226   6.911
10814SOL     OW33340   1.697   7.006   6.199
10814SOL    HW133341   1.794   7.018   6.181
10814SOL    HW233342   1.645   7.019   6.114
10815SOL     OW33343   5.028   5.440   3.445
10815SOL    HW133344   4.981   5.407   3.528
10815SOL    HW233345   4.963   5.492   3.389
10816SOL     OW33346   1.504   1.284   2.423
10816SOL    HW133347   1.480   1.218   2.352
10816SOL    HW233348   1.515   1.236   2.511
10817SOL     OW33349   5.394   6.629   2.609
10817SOL    HW133350   5.365   6.548   2.558
10817SOL    HW233351   5.320   6.658   2.669
10818SOL     OW33352   5.046   4.036   5.813
10818SOL    HW133353   5.006   3.945   5.816
10818SOL    HW233354   5.070   4.059   5.718
10819SOL     OW33355   0.386   4.543   0.169
10819SOL    HW133356   0.316   4.574   0.233
10819SOL    HW233357   0.422   4.454   0.198
10820SOL     OW33358   6.406   6.631   3.884
10820SOL    HW133359   6.450   6.587   3.806
10820SOL    HW233360   6.467   6.628   3.963
10821SOL     OW33361   5.077   5.963   2.198
10821SOL    HW133362   5.127   5.941   2.282
10821SOL    HW233363   5.011   6.035   2.216
10822SOL     OW33364   1.337   2.224   3.174
10822SOL    HW133365   1.261   2.177   3.218
10822SOL    HW233366   1.399   2.261   3.243
10823SOL     OW33367   1.434   4.899   1.344
10823SOL    HW133368   1.398   4.813   1.381
10823SOL    HW233369   1.461   4.959   1.419
10824SOL     OW33370   4.947   0.148   4.099
10824SOL    HW133371   4.973   0.167   4.004
10824SOL    HW233372   4.879   0.215   4.129
10825SOL     OW33373   2.470   0.565   0.632
10825SOL    HW133374   2.541   0.590   0.565
10825SOL    HW233375   2.392   0.627   0.621
10826SOL     OW33376   0.098   3.685   3.727
10826SOL    HW133377   0.127   3.767   3.776
10826SOL    HW233378   0.154   3.673   3.645
10827SOL     OW33379   5.870   4.121   4.595
10827SOL    HW133380   5.931   4.139   4.518
10827SOL    HW233381   5.906   4.165   4.677
10828SOL     OW33382   1.144   5.739   2.526
10828SOL    HW133383   1.133   5.641   2.544
10828SOL    HW233384   1.063   5.775   2.481
10829SOL     OW33385   3.576   2.669   0.137
10829SOL    HW133386   3.530   2.685   0.050
10829SOL    HW233387   3.650   2.735   0.149
10830SOL     OW33388   4.593   1.714   3.306
10830SOL    HW133389   4.564   1.724   3.211
10830SOL    HW233390   4.665   1.645   3.312
10831SOL     OW33391   4.564   6.024   1.996
10831SOL    HW133392   4.469   6.050   1.977
10831SOL    HW233393   4.614   6.015   1.910
10832SOL     OW33394   6.807   2.109   0.723
10832SOL    HW133395   6.839   2.058   0.803
10832SOL    HW233396   6.802   2.048   0.644
10833SOL     OW33397   1.670   0.773   4.033
10833SOL    HW133398   1.762   0.733   4.037
10833SOL    HW233399   1.664   0.848   4.099
10834SOL     OW33400   0.493   2.156   6.152
10834SOL    HW133401   0.585   2.122   6.129
10834SOL    HW233402   0.484   2.250   6.119
10835SOL     OW33403   5.275   2.147   1.212
10835SOL    HW133404   5.260   2.109   1.121
10835SOL    HW233405   5.191   2.188   1.246
10836SOL     OW33406   6.117   1.192   5.238
10836SOL    HW133407   6.029   1.213   5.194
10836SOL    HW233408   6.175   1.140   5.175
10837SOL     OW33409   0.549   4.940   0.291
10837SOL    HW133410   0.537   4.903   0.199
10837SOL    HW233411   0.517   5.034   0.294
10838SOL     OW33412   5.664   6.758   4.337
10838SOL    HW133413   5.604   6.828   4.375
10838SOL    HW233414   5.627   6.667   4.357
10839SOL     OW33415   3.453   2.827   0.344
10839SOL    HW133416   3.490   2.774   0.268
10839SOL    HW233417   3.353   2.820   0.344
10840SOL     OW33418   4.073   6.017   1.704
10840SOL    HW133419   4.003   5.947   1.690
10840SOL    HW233420   4.029   6.101   1.736
10841SOL     OW33421   3.855   6.536   6.697
10841SOL    HW133422   3.932   6.492   6.744
10841SOL    HW233423   3.781   6.470   6.685
10842SOL     OW33424   6.211   3.335   0.904
10842SOL    HW133425   6.179   3.375   0.819
10842SOL    HW233426   6.206   3.235   0.898
10843SOL     OW33427   0.801   1.641   1.858
10843SOL    HW133428   0.862   1.678   1.928
10843SOL    HW233429   0.856   1.611   1.780
10844SOL     OW33430   0.687   6.730   3.948
10844SOL    HW133431   0.762   6.789   3.917
10844SOL    HW233432   0.600   6.772   3.926
10845SOL     OW33433   2.278   0.713   0.944
10845SOL    HW133434   2.284   0.781   0.871
10845SOL    HW233435   2.188   0.671   0.943
10846SOL     OW33436   4.426   3.062   0.557
10846SOL    HW133437   4.449   2.967   0.536
10846SOL    HW233438   4.457   3.122   0.483
10847SOL     OW33439   3.035   2.020   6.297
10847SOL    HW133440   2.982   2.097   6.332
10847SOL    HW233441   3.106   2.053   6.236
10848SOL     OW33442   3.289   2.365   6.599
10848SOL    HW133443   3.336   2.382   6.685
10848SOL    HW233444   3.324   2.281   6.557
10849SOL     OW33445   3.215   4.888   3.352
10849SOL    HW133446   3.200   4.937   3.266
10849SOL    HW233447   3.314   4.873   3.365
10850SOL     OW33448   4.791   6.029   6.624
10850SOL    HW133449   4.706   6.054   6.577
10850SOL    HW233450   4.867   6.031   6.559
10851SOL     OW33451   2.559   2.921   6.490
10851SOL    HW133452   2.523   2.873   6.410
10851SOL    HW233453   2.592   2.855   6.557
10852SOL     OW33454   0.107   6.632   5.952
10852SOL    HW133455   0.187   6.625   5.892
10852SOL    HW233456   0.136   6.655   6.045
10853SOL     OW33457   3.931   1.728   5.605
10853SOL    HW133458   4.015   1.679   5.581
10853SOL    HW233459   3.939   1.823   5.574
10854SOL     OW33460   6.382   0.335   5.342
10854SOL    HW133461   6.371   0.278   5.261
10854SOL    HW233462   6.319   0.304   5.413
10855SOL     OW33463   2.956   6.397   2.280
10855SOL    HW133464   2.989   6.347   2.200
10855SOL    HW233465   2.891   6.341   2.330
10856SOL     OW33466   5.814   1.186   2.238
10856SOL    HW133467   5.828   1.241   2.156
10856SOL    HW233468   5.725   1.208   2.278
10857SOL     OW33469   5.540   2.683   3.770
10857SOL    HW133470   5.600   2.727   3.836
10857SOL    HW233471   5.448   2.675   3.808
10858SOL     OW33472   1.084   2.655   6.429
10858SOL    HW133473   1.021   2.729   6.405
10858SOL    HW233474   1.091   2.649   6.529
10859SOL     OW33475   2.579   4.516   4.056
10859SOL    HW133476   2.576   4.534   3.958
10859SOL    HW233477   2.510   4.448   4.080
10860SOL     OW33478   6.653   1.138   5.772
10860SOL    HW133479   6.558   1.133   5.741
10860SOL    HW233480   6.678   1.234   5.788
10861SOL     OW33481   3.638   2.844   1.963
10861SOL    HW133482   3.705   2.876   2.030
10861SOL    HW233483   3.604   2.921   1.909
10862SOL     OW33484   2.419   1.457   6.511
10862SOL    HW133485   2.368   1.490   6.591
10862SOL    HW233486   2.453   1.534   6.459
10863SOL     OW33487   3.748   0.728   2.153
10863SOL    HW133488   3.756   0.638   2.197
10863SOL    HW233489   3.652   0.756   2.151
10864SOL     OW33490   2.741   4.556   1.134
10864SOL    HW133491   2.838   4.577   1.145
10864SOL    HW233492   2.711   4.498   1.209
10865SOL     OW33493   5.449   2.206   3.861
10865SOL    HW133494   5.476   2.285   3.916
10865SOL    HW233495   5.495   2.211   3.771
10866SOL     OW33496   6.236   3.637   0.727
10866SOL    HW133497   6.160   3.572   0.725
10866SOL    HW233498   6.266   3.650   0.822
10867SOL     OW33499   3.138   3.602   0.452
10867SOL    HW133500   3.099   3.521   0.497
10867SOL    HW233501   3.091   3.617   0.365
10868SOL     OW33502   1.828   1.545   3.285
10868SOL    HW133503   1.738   1.585   3.269
10868SOL    HW233504   1.853   1.486   3.209
10869NA      NA33505   0.292   2.522   6.191
10870NA      NA33506   4.247   4.698   5.209
10871NA      NA33507   2.291   4.334   2.173
10872NA      NA33508   5.042   4.556   3.514
10873NA      NA33509   4.249   2.298   5.197
10874NA      NA33510   3.441   4.559   1.417
10875NA      NA33511   0.894   4.351   0.434
10876NA      NA33512   3.997   4.212   1.629
10877NA      NA33513   4.910   4.769   1.057
10878NA      NA33514   3.532   0.171   5.618
10879NA      NA33515   6.094   5.393   1.133
10880NA      NA33516   1.851   0.864   5.962
10881NA      NA33517   4.844   5.050   2.343
10882NA      NA33518   3.833   2.871   1.060
   7.02236   7.02236   7.02236
